Membrane in water
40347
    1TMC1    C1    1   1.794   2.978  11.573 -0.5473 -0.4207 -0.5711
    1TMC1    C2    2   1.887   2.983  11.472  0.0399  0.0883  0.9667
    1TMC1    C3    3   1.870   3.080  11.373 -0.4271  0.7538 -0.1116
    1TMC1    C4    4   1.698   3.075  11.575 -0.5657 -0.1161 -0.0337
    1TMC1    C5    5   1.703   3.183  11.493  0.0283  0.1142 -0.6705
    1TMC1    C6    6   1.784   3.182  11.384 -0.0157 -0.2017  0.1502
    1TMC1     C    7   1.761   2.846  11.635  0.2069 -0.7701 -1.0699
    1TMC1     O    8   1.651   2.840  11.694  0.2060  0.0210 -0.1302
    1TMC1     H    9   1.960   2.905  11.452 -0.8713 -0.5790  0.2626
    1TMC1    H1   10   1.615   3.075  11.645 -0.3777 -1.0245  0.1845
    1TMC1    H2   11   1.781   3.266  11.316  2.7468  0.6023  1.0011
    1TMC1    C7   12   1.577   3.261  11.497 -1.0219  0.0243 -0.1192
    1TMC1    C8   13   1.972   3.096  11.272 -0.6619 -0.5567 -0.4054
    1TMC1    O1   14   1.471   3.209  11.526  0.5023  0.2649 -0.6659
    1TMC1    O2   15   2.022   3.198  11.237  0.2606 -0.1741  0.0392
    1TMC1    O3   16   1.600   3.383  11.448  0.4882 -0.0266 -0.6633
    1TMC1    H3   17   1.693   3.405  11.429 -0.3189  2.5327 -1.6584
    1TMC1    O5   18   1.926   3.006  11.182  0.1486  0.4710  0.0478
    1TMC1    H5   19   1.893   2.922  11.219 -1.2263  0.8305 -0.3876
    2MPD2     C   20   1.861   2.363  11.762 -0.6761 -0.1388 -0.0171
    2MPD2    C1   21   1.751   2.448  11.781  0.3255 -0.7947  0.2916
    2MPD2    C2   22   1.757   2.580  11.746  0.1785 -0.2677 -0.0360
    2MPD2    C3   23   1.866   2.628  11.674  0.4408  0.0943  0.6002
    2MPD2    C4   24   1.968   2.543  11.656  0.1829 -0.4165  0.1614
    2MPD2    C5   25   1.977   2.413  11.704 -0.7543 -0.2690  0.1898
    2MPD2     H   26   1.660   2.628  11.752  0.4277  0.0858  1.0847
    2MPD2    H1   27   2.050   2.573  11.592  1.1072  1.8658  2.3873
    2MPD2    H2   28   1.865   2.259  11.792 -0.6453  0.2954  1.5086
    2MPD2    H3   29   2.064   2.355  11.675  0.1960  0.8428  0.8002
    2MPD2     N   30   1.856   2.755  11.609 -0.2028 -0.0778 -0.7959
    2MPD2    H5   31   1.938   2.787  11.558 -0.8313  1.3123 -0.9233
    2MPD2    N1   32   1.632   2.402  11.831  0.3201  0.0912  0.3274
    2MPD2    H7   33   1.557   2.468  11.815  0.1279  0.1175  1.3005
    3TMC1    C1   34   1.338   3.938  10.806 -0.2153  0.2668 -1.2734
    3TMC1    C2   35   1.418   4.043  10.763 -0.4059  0.9976 -0.2930
    3TMC1    C3   36   1.540   4.010  10.710  0.1331 -0.3404  0.4766
    3TMC1    C4   37   1.376   3.808  10.807 -0.6984  0.5474  0.9596
    3TMC1    C5   38   1.493   3.781  10.745 -0.1262 -0.0096  0.8511
    3TMC1    C6   39   1.579   3.880  10.708 -0.0417  0.0845 -0.4483
    3TMC1     C   40   1.190   3.958  10.792  0.1405  0.2533  0.9141
    3TMC1     O   41   1.114   3.862  10.766 -0.0227  0.2361 -0.3708
    3TMC1     H   42   1.391   4.147  10.776  0.2405  1.0184  0.9087
    3TMC1    H1   43   1.306   3.725  10.812  0.4960 -0.3991  1.7489
    3TMC1    H2   44   1.665   3.849  10.649 -0.3893 -2.2023  0.2672
    3TMC1    C7   45   1.548   3.647  10.752  0.7591  0.5851 -0.6230
    3TMC1    C8   46   1.633   4.125  10.673 -0.1211  0.6100 -0.4668
    3TMC1    O1   47   1.623   3.602  10.664  0.2275  0.4883  0.3645
    3TMC1    O2   48   1.590   4.239  10.662  0.1441  0.5318  0.2319
    3TMC1    O3   49   1.566   3.645  10.887 -0.5449 -0.0735 -0.0920
    3TMC1    H3   50   1.520   3.727  10.915  0.4267  0.6489 -0.5812
    3TMC1    O5   51   1.761   4.085  10.650  0.6765 -0.0770  0.2167
    3TMC1    H5   52   1.782   4.001  10.697 -2.5719 -1.3051 -0.5593
    4MPD2     C   53   0.766   4.232  10.848  0.0017 -0.0603  0.1212
    4MPD2    C1   54   0.876   4.321  10.825  0.4902  0.4213  0.7188
    4MPD2    C2   55   1.003   4.266  10.802 -0.5113  0.1556 -0.0704
    4MPD2    C3   56   1.020   4.127  10.823  0.4472 -0.5049  0.0913
    4MPD2    C4   57   0.908   4.045  10.840 -1.1654 -0.3941  0.1335
    4MPD2    C5   58   0.781   4.097  10.860  0.5192  0.6664  0.3528
    4MPD2     H   59   1.088   4.333  10.802  0.9496 -1.6798  0.9534
    4MPD2    H1   60   0.909   3.937  10.849 -0.4057 -0.3122  0.9718
    4MPD2    H2   61   0.670   4.279  10.867 -0.2112 -0.2099 -0.6005
    4MPD2    H3   62   0.688   4.044  10.875  1.7337 -0.1362  4.9483
    4MPD2     N   63   1.152   4.083  10.822 -0.1979 -0.2443 -0.1772
    4MPD2    H5   64   1.225   4.152  10.835  0.8935 -1.9172  2.6159
    4MPD2    N1   65   0.870   4.466  10.840  0.4246  0.3024  0.1862
    4MPD2    H7   66   0.957   4.519  10.835  0.9947 -0.4744  2.1959
    5TCq1    O1   67   2.706   0.393  11.672 -0.2336  0.1420  0.3651
    5TCq1    C1   68   2.627   0.291  11.633 -0.1071  1.0548 -0.2312
    5TCq1    O2   69   2.673   0.179  11.608  0.0692  0.0188  0.3893
    5TCq1    C2   70   2.523   0.294  11.729 -1.0030 -0.3458  0.4032
    5TCq1    C3   71   2.526   0.210  11.833  0.9501  0.2444  0.5401
    5TCq1    C4   72   2.431   0.222  11.931  0.5565  0.3706 -0.7956
    5TCq1    C5   73   2.334   0.316  11.919  0.2696  0.1713  0.2513
    5TCq1    C6   74   2.341   0.402  11.815 -0.0648  0.0203 -0.0621
    5TCq1    C7   75   2.434   0.394  11.714  0.0055 -0.1145 -0.7452
    5TCq1    C8   76   2.224   0.492  11.811  0.7589 -0.5192  0.0164
    5TCq1    O4   77   2.180   0.518  11.926 -0.0559  0.2835 -0.1527
    5TCq1    C9   78   2.432   0.135  12.045  0.0288  0.0782  0.4516
    5TCq1    O5   79   2.519   0.044  12.058 -0.2087 -0.1770 -0.2376
    5TCq1    O6   80   2.361   0.158  12.152  0.0612 -0.3006  0.4283
    5TCq1    H1   81   2.651   0.445  11.735 -0.6640  2.4491 -1.8982
    5TCq1    H2   82   2.615   0.152  11.854  0.3426 -1.0382 -0.5016
    5TCq1    H3   83   2.242   0.298  11.972 -0.8979  0.9218 -1.5079
    5TCq1    H4   84   2.444   0.453  11.624  1.0035 -0.0193 -0.5697
    6MPD2     C   85   1.987   0.663  11.744  0.1883 -0.2718  0.2428
    6MPD2    C1   86   2.074   0.609  11.654 -0.4238 -0.4496  0.2550
    6MPD2    C2   87   2.044   0.608  11.520  0.0213  0.2380 -0.7208
    6MPD2    C3   88   1.930   0.670  11.471 -0.4256  0.0215  0.0329
    6MPD2    C4   89   1.845   0.735  11.561  0.2053 -0.3884  0.0001
    6MPD2    C5   90   1.881   0.735  11.696  0.7157  0.2260 -0.7106
    6MPD2     H   91   2.099   0.549  11.448 -2.3563 -2.9428  0.0938
    6MPD2    H1   92   1.754   0.786  11.531 -0.2821  0.4539  2.8682
    6MPD2    H2   93   2.006   0.662  11.851  0.0369  0.8776  0.2751
    6MPD2    H3   94   1.817   0.788  11.766 -2.4750 -2.2159 -1.7322
    6MPD2     N   95   1.908   0.659  11.337 -0.5915  0.1852  0.0420
    6MPD2    H5   96   1.980   0.616  11.280 -0.4283 -0.7048  0.9301
    6MPD2    N1   97   2.189   0.531  11.681  0.6446  0.4172 -0.2571
    6MPD2    H7   98   2.234   0.493  11.598 -0.0230 -2.1507  0.5666
    7TCq1    O1   99   4.043   0.328  13.455  0.1667 -0.3263 -0.2761
    7TCq1    C1  100   4.039   0.197  13.450  0.1006 -0.8549  0.4058
    7TCq1    O2  101   4.137   0.129  13.425 -0.6353 -0.0409 -0.2516
    7TCq1    C2  102   3.905   0.147  13.448  0.2815  0.2798 -0.6964
    7TCq1    C3  103   3.810   0.210  13.515  0.3069 -0.3260 -0.4546
    7TCq1    C4  104   3.690   0.151  13.526  0.2885  1.2546  0.2621
    7TCq1    C5  105   3.661   0.039  13.457  0.5335 -0.1797  0.1537
    7TCq1    C6  106   3.757   4.710  13.384 -0.2966  0.1858  0.5576
    7TCq1    C7  107   3.882   0.025  13.376  0.8430 -0.1349 -0.1542
    7TCq1    C8  108   3.733   4.569  13.353  0.1844  0.2882  0.0256
    7TCq1    O4  109   3.640   4.513  13.414  0.4747 -0.2343  0.3568
    7TCq1    C9  110   3.586   0.212  13.608 -0.1525  0.5325  0.1412
    7TCq1    O5  111   3.615   0.291  13.698  0.3083  0.8268  0.1553
    7TCq1    O6  112   3.470   0.159  13.604  0.0985  0.3652  0.2216
    7TCq1    H1  113   3.961   0.378  13.437 -1.1474 -3.5458 -3.2595
    7TCq1    H2  114   3.826   0.294  13.583  0.9787  0.3285 -1.4294
    7TCq1    H3  115   3.564   4.727  13.461  0.6864 -0.3341  1.9482
    7TCq1    H4  116   3.964   4.712  13.325  2.3505  0.6493  1.5197
    8MPD2     C  117   3.745   4.179  13.024  0.7419 -0.1330  0.2423
    8MPD2    C1  118   3.684   4.192  13.146  0.3127  0.2808 -0.0600
    8MPD2    C2  119   3.699   4.303  13.224  0.1619  0.2395 -0.7297
    8MPD2    C3  120   3.783   4.408  13.176 -0.9297  0.4676 -0.8890
    8MPD2    C4  121   3.841   4.397  13.047  0.2389  0.9846 -0.3535
    8MPD2    C5  122   3.830   4.284  12.980  0.1363  0.2173 -0.1565
    8MPD2     H  123   3.645   4.307  13.318 -0.6115  1.9427 -1.2539
    8MPD2    H1  124   3.907   4.477  13.014  0.5283  1.6682  1.8664
    8MPD2    H2  125   3.742   4.082  12.976  0.2571 -0.5700  1.1526
    8MPD2    H3  126   3.889   4.279  12.889  1.4143  0.0796  0.6826
    8MPD2     N  127   3.797   4.535  13.240 -0.4395 -0.1233 -0.7657
    8MPD2    H5  128   3.864   4.603  13.203  1.0446 -1.2014 -0.0535
    8MPD2    N1  129   3.615   4.072  13.178  0.1814 -0.0676  0.4370
    8MPD2    H7  130   3.617   4.000  13.106 -0.6344 -0.2681  0.6174
    9TMC1    C1  131   0.779   4.301  11.731  0.7526 -0.0596  0.3088
    9TMC1    C2  132   0.804   4.428  11.688 -0.1775 -1.0317  0.1366
    9TMC1    C3  133   0.748   4.519  11.762 -0.0241 -0.5441 -0.3108
    9TMC1    C4  134   0.700   4.271  11.842  0.2046  0.0197 -0.3776
    9TMC1    C5  135   0.628   4.368  11.899  0.4499  0.6086  0.3567
    9TMC1    C6  136   0.655   4.492  11.859 -0.4315  0.1234 -0.4654
    9TMC1     C  137   0.837   4.195  11.648 -0.2370 -0.6150  0.1046
    9TMC1     O  138   0.845   4.237  11.530  0.1543 -0.1994  0.0143
    9TMC1     H  139   0.857   4.461  11.599 -1.1672 -2.9838 -1.1879
    9TMC1    H1  140   0.696   4.169  11.877 -1.2538 -0.3542 -1.6187
    9TMC1    H2  141   0.620   4.574  11.921 -0.3813  0.8459 -1.4065
    9TMC1    C7  142   0.630   4.352  12.041 -1.1377 -0.3058 -0.0875
    9TMC1    C8  143   0.758   4.655  11.723  0.0527 -0.7875 -0.9644
    9TMC1    O1  144   0.635   4.442  12.123 -0.1051 -0.2170 -0.2911
    9TMC1    O2  145   0.649   4.716  11.720  0.0308 -0.1550  0.0226
    9TMC1    O3  146   0.577   4.237  12.059  0.1237 -0.5824 -0.0166
    9TMC1    H3  147   0.548   4.200  11.973 -1.0764 -0.1542  0.2000
    9TMC1    O5  148   0.873   4.710  11.770 -0.2215  0.4983  0.1342
    9TMC1    H5  149   0.940   4.639  11.777  3.5383  4.0686  0.1754
   10MPD2     C  150   0.979   3.956  11.535 -0.2746  0.5756  0.0328
   10MPD2    C1  151   0.947   3.966  11.669  0.3211 -0.8701 -0.1314
   10MPD2    C2  152   0.978   3.868  11.761  0.0189 -0.1480 -0.2050
   10MPD2    C3  153   1.016   3.742  11.708  0.3415  0.1843  0.4367
   10MPD2    C4  154   1.051   3.738  11.579  0.0811  0.3424  0.2027
   10MPD2    C5  155   1.039   3.839  11.497 -0.4216  0.0039 -0.7566
   10MPD2     H  156   0.973   3.886  11.867 -1.9393  0.2111 -0.3638
   10MPD2    H1  157   1.110   3.657  11.537  1.0859  1.5727 -0.7546
   10MPD2    H2  158   0.972   4.036  11.462  0.5704  0.6618  0.0459
   10MPD2    H3  159   1.062   3.826  11.392  0.5994 -0.7091 -0.4426
   10MPD2     N  160   1.039   3.623  11.787 -0.5841 -0.0984 -0.0740
   10MPD2    H5  161   1.073   3.536  11.748 -0.8837 -1.1353  1.9575
   10MPD2    N1  162   0.879   4.081  11.718 -0.1604 -0.0454  0.4771
   10MPD2    H7  163   0.872   4.088  11.819  0.0322  1.0104  0.4182
   11TCq1    O1  164   1.453   2.685  15.261  0.1818 -0.2085 -0.0552
   11TCq1    C1  165   1.580   2.646  15.234  0.3551  0.1031  1.1897
   11TCq1    O2  166   1.642   2.560  15.299  0.4537  0.0068 -0.0169
   11TCq1    C2  167   1.614   2.678  15.094  0.7596 -0.3376 -0.5282
   11TCq1    C3  168   1.692   2.582  15.030 -0.2460 -0.1724 -0.4363
   11TCq1    C4  169   1.698   2.587  14.896 -0.2391  0.2987  0.4927
   11TCq1    C5  170   1.618   2.673  14.830 -0.2197 -0.3185 -0.0154
   11TCq1    C6  171   1.537   2.758  14.896  0.5146 -0.3473 -0.5161
   11TCq1    C7  172   1.533   2.769  15.029 -1.1619 -0.3720 -1.2076
   11TCq1    C8  173   1.448   2.842  14.820 -0.2036  0.0049  0.1207
   11TCq1    O4  174   1.418   2.948  14.869  0.2643  0.3351  0.0089
   11TCq1    C9  175   1.791   2.497  14.823  0.3970  0.5843 -0.2335
   11TCq1    O5  176   1.826   2.523  14.705  0.1311  0.6011  0.3981
   11TCq1    O6  177   1.861   2.421  14.895  0.4554  0.3562 -0.2210
   11TCq1    H1  178   1.417   2.730  15.182 -1.8473  0.0876  1.0586
   11TCq1    H2  179   1.763   2.532  15.095  0.8528  1.6033 -0.2796
   11TCq1    H3  180   1.625   2.660  14.723  0.7496  0.6352 -0.0635
   11TCq1    H4  181   1.465   2.842  15.073 -0.6295  0.6558 -2.0818
   12MPD2     C  182   1.324   2.955  14.564  0.4525  0.1530 -0.1200
   12MPD2    C1  183   1.336   2.821  14.595 -0.4974 -0.4160 -0.2686
   12MPD2    C2  184   1.278   2.725  14.508 -0.3167  0.7001  0.3112
   12MPD2    C3  185   1.203   2.764  14.399  0.2527  0.1556  0.4346
   12MPD2    C4  186   1.191   2.898  14.373 -1.0943 -0.4232  0.0362
   12MPD2    C5  187   1.246   2.990  14.455  0.8845  0.0835 -0.1663
   12MPD2     H  188   1.276   2.623  14.545  1.1010  0.4010 -0.3996
   12MPD2    H1  189   1.132   2.928  14.287  0.1994  0.1481 -0.6476
   12MPD2    H2  190   1.382   3.029  14.619  0.0537  0.1416  0.3180
   12MPD2    H3  191   1.238   3.094  14.426 -2.0420 -0.1811 -0.3618
   12MPD2     N  192   1.153   2.676  14.306 -0.4502 -0.0042 -0.4344
   12MPD2    H5  193   1.128   2.720  14.218 -0.3868 -0.2991 -0.6006
   12MPD2    N1  194   1.402   2.774  14.711 -0.5415  0.1807  0.8770
   12MPD2    H7  195   1.414   2.673  14.715  0.6790  0.2490 -1.3124
   13TCq1    O1  196   1.381   2.617  11.646  0.1431  0.2171 -0.8647
   13TCq1    C1  197   1.409   2.541  11.537 -0.6598  0.6732 -0.3408
   13TCq1    O2  198   1.453   2.427  11.539 -0.2243 -0.2550  0.3766
   13TCq1    C2  199   1.479   2.636  11.449  0.1196 -0.7243 -0.3514
   13TCq1    C3  200   1.607   2.607  11.410 -0.3844 -0.0111  0.2879
   13TCq1    C4  201   1.672   2.684  11.327  0.4313 -0.1894  0.3602
   13TCq1    C5  202   1.611   2.795  11.271 -0.0306  0.6747 -0.1577
   13TCq1    C6  203   1.481   2.818  11.309 -0.4239 -0.1287  0.7098
   13TCq1    C7  204   1.408   2.737  11.395  0.0373  0.3298 -0.3426
   13TCq1    C8  205   1.414   2.946  11.272  0.7753  0.3127  0.6673
   13TCq1    O4  206   1.298   2.962  11.312  0.3358  0.1970  0.0375
   13TCq1    C9  207   1.811   2.661  11.300  0.4432  0.8001 -0.7894
   13TCq1    O5  208   1.853   2.549  11.258 -0.0801  0.0465  0.0706
   13TCq1    O6  209   1.879   2.767  11.279  0.0017 -0.3137 -0.2695
   13TCq1    H1  210   1.365   2.709  11.616  3.4826 -0.2523 -4.0184
   13TCq1    H2  211   1.665   2.527  11.456 -0.8726 -0.3218  0.3699
   13TCq1    H3  212   1.672   2.858  11.207  1.2994 -1.1037 -0.6259
   13TCq1    H4  213   1.302   2.744  11.415  0.1053  0.6755 -0.1095
   14MPD2     C  214   1.587   3.236  11.127  1.0368  0.6914  0.0187
   14MPD2    C1  215   1.478   3.162  11.171  0.2914 -0.0888 -0.2448
   14MPD2    C2  216   1.350   3.216  11.172 -0.3365 -0.1154  0.1911
   14MPD2    C3  217   1.323   3.338  11.122  0.3255 -0.3396 -0.0163
   14MPD2    C4  218   1.431   3.404  11.067  0.4262 -0.4973  0.7707
   14MPD2    C5  219   1.558   3.347  11.066 -0.2765  0.5472  0.5416
   14MPD2     H  220   1.267   3.156  11.207  0.4782 -1.4153 -0.0793
   14MPD2    H1  221   1.417   3.501  11.018  0.5421 -0.8932 -0.0495
   14MPD2    H2  222   1.689   3.200  11.117  0.0891 -1.7296 -0.7865
   14MPD2    H3  223   1.645   3.405  11.039  1.3461 -1.6064  1.1238
   14MPD2     N  224   1.191   3.393  11.136 -0.3182 -0.0534 -0.2310
   14MPD2    H5  225   1.122   3.330  11.176  0.2846  0.3068  1.3580
   14MPD2    N1  226   1.500   3.025  11.201 -0.5346 -0.4206 -0.1598
   14MPD2    H7  227   1.588   2.985  11.170 -0.7044 -1.6430  0.9310
   15TCq1    O1  228   4.131   2.926   1.358 -0.3009 -0.0122 -0.0337
   15TCq1    C1  229   4.231   2.945   1.273 -0.6511 -0.1505 -0.0005
   15TCq1    O2  230   4.299   3.047   1.276  0.5159  0.3753  0.5539
   15TCq1    C2  231   4.289   2.816   1.237  0.6661 -0.3564  0.2192
   15TCq1    C3  232   4.427   2.816   1.250 -0.6527  0.2700  0.3656
   15TCq1    C4  233   4.493   2.698   1.238  0.6313 -0.8188 -0.1634
   15TCq1    C5  234   4.425   2.577   1.218 -0.1067  0.4635 -0.2338
   15TCq1    C6  235   4.288   2.579   1.208  0.4094 -0.6274  0.2484
   15TCq1    C7  236   4.219   2.694   1.234 -0.2273 -0.2731  0.0881
   15TCq1    C8  237   4.223   2.451   1.254  0.3470 -0.5701 -0.4285
   15TCq1    O4  238   4.293   2.350   1.233 -0.1992 -0.0906 -0.0712
   15TCq1    C9  239   4.640   2.694   1.236  0.0907 -0.6921 -0.1849
   15TCq1    O5  240   4.697   2.782   1.298 -0.0831 -0.0297 -0.3517
   15TCq1    O6  241   4.690   2.583   1.197  0.2604  0.0560 -0.8543
   15TCq1    H1  242   4.076   2.846   1.343 -0.9200  0.3802  0.1277
   15TCq1    H2  243   4.487   2.906   1.256  0.3269 -0.4733  1.6655
   15TCq1    H3  244   4.483   2.485   1.219 -0.6435  0.1231 -0.0355
   15TCq1    H4  245   4.111   2.696   1.233 -0.2323 -0.9514 -2.3017
   16MPD2     C  246   3.870   2.388   1.351 -0.2083 -0.2209 -0.5414
   16MPD2    C1  247   4.005   2.360   1.333  0.1486 -0.2863 -0.0677
   16MPD2    C2  248   4.041   2.227   1.340 -0.5857 -0.0944 -0.2182
   16MPD2    C3  249   3.946   2.126   1.339 -0.0235  0.1511 -0.5122
   16MPD2    C4  250   3.807   2.149   1.345 -0.7242 -0.7883  0.3441
   16MPD2    C5  251   3.776   2.285   1.367 -0.2868 -0.5959 -0.7382
   16MPD2     H  252   4.147   2.205   1.331 -0.4384  0.6664 -0.3583
   16MPD2    H1  253   3.726   2.077   1.342 -1.2646 -0.0905 -2.2119
   16MPD2    H2  254   3.838   2.490   1.362  1.6342 -0.0548  3.1209
   16MPD2    H3  255   3.673   2.316   1.386  0.5045  1.7911 -0.3029
   16MPD2     N  256   3.995   1.992   1.340 -0.3588 -0.7861  0.2521
   16MPD2    H5  257   4.095   1.977   1.328 -0.4586 -2.0317  0.8955
   16MPD2    N1  258   4.094   2.468   1.306 -0.1420 -0.7002 -0.6791
   16MPD2    H7  259   4.057   2.562   1.305 -1.0003 -1.0370 -0.3508
   17TMC1    C1  260   1.108   1.961  10.565 -0.4376  0.2046 -0.4266
   17TMC1    C2  261   1.036   1.861  10.633 -0.2319 -0.5559  0.6118
   17TMC1    C3  262   1.040   1.739  10.579  0.1903 -0.1732  0.2972
   17TMC1    C4  263   1.189   1.931  10.460  0.2916 -0.1106 -0.0205
   17TMC1    C5  264   1.191   1.795  10.423 -1.0071  0.2299  0.0570
   17TMC1    C6  265   1.124   1.698  10.475  0.3626  0.5535  0.2887
   17TMC1     C  266   1.105   2.103  10.613  0.1017 -0.5026  0.5011
   17TMC1     O  267   0.998   2.150  10.649 -0.8753  0.2298 -0.2821
   17TMC1     H  268   0.965   1.884  10.711  0.5841  1.6493  0.7126
   17TMC1    H1  269   1.240   2.003  10.398  0.4708 -1.6845 -1.7100
   17TMC1    H2  270   1.136   1.595  10.442 -2.3424  0.0233  0.9663
   17TMC1    C7  271   1.246   1.775  10.290  0.2051 -0.4404 -0.0781
   17TMC1    C8  272   0.956   1.632  10.637  0.0651 -0.1316  0.1308
   17TMC1    O1  273   1.353   1.826  10.249 -0.6010 -0.0395 -0.1991
   17TMC1    O2  274   0.912   1.531  10.590 -0.4870  0.4271 -0.4558
   17TMC1    O3  275   1.149   1.704  10.225 -0.3742  0.1865 -0.4370
   17TMC1    H3  276   1.067   1.688  10.277 -0.2500 -0.0027 -0.2983
   17TMC1    O5  277   0.975   1.642  10.769  0.4876 -0.3888  0.4304
   17TMC1    H5  278   1.029   1.717  10.802  0.1357  0.3034 -0.5423
   18MPD2     C  279   1.169   2.388  10.650 -0.7421  0.2682  0.2201
   18MPD2    C1  280   1.261   2.290  10.625  0.2702  0.0052 -1.0887
   18MPD2    C2  281   1.395   2.319  10.633  0.0147  0.0405  0.0733
   18MPD2    C3  282   1.447   2.443  10.673  0.0569 -0.3075 -0.0522
   18MPD2    C4  283   1.352   2.543  10.712  0.6992  0.1711 -0.2479
   18MPD2    C5  284   1.216   2.508  10.696 -0.3354  0.0355  0.2090
   18MPD2     H  285   1.459   2.233  10.619  0.2342 -0.0618  1.6380
   18MPD2    H1  286   1.375   2.645  10.739 -2.5074  0.4851  1.2259
   18MPD2    H2  287   1.062   2.379  10.635 -0.7765  0.9020  0.0942
   18MPD2    H3  288   1.148   2.591  10.710 -1.2426 -0.9070  1.2998
   18MPD2     N  289   1.587   2.457  10.686  0.2895 -0.2050 -0.2041
   18MPD2    H5  290   1.626   2.548  10.668 -0.3451  0.3744  1.3433
   18MPD2    N1  291   1.230   2.157  10.598 -0.5041  0.6196 -0.0898
   18MPD2    H7  292   1.311   2.101  10.572 -2.5405 -1.7679 -1.2098
   19TMC2    C1  293   3.096   2.989  14.123 -0.2475  0.3405  0.4701
   19TMC2    C2  294   3.055   3.115  14.093 -0.3984  0.0282  0.0635
   19TMC2    C3  295   2.932   3.130  14.038 -0.8351 -1.0879  0.0291
   19TMC2    C4  296   3.003   2.884  14.127 -0.6135 -0.3109 -0.5757
   19TMC2    C5  297   2.879   2.918  14.086  0.4311  0.1081 -0.4156
   19TMC2    C6  298   2.837   3.034  14.030 -0.1207  0.0814 -0.9670
   19TMC2     C  299   3.233   2.975  14.171  0.8956  0.2913 -0.1953
   19TMC2     O  300   3.299   3.080  14.178 -0.4424 -0.1918 -0.0653
   19TMC2     H  301   3.124   3.198  14.082 -1.3241  0.5997 -1.4722
   19TMC2    H1  302   3.024   2.787  14.171  0.8850 -0.2572 -1.1710
   19TMC2    H2  303   2.737   3.054  13.993 -0.2728  1.4600  0.1563
   19TMC2    C7  304   2.764   2.836  14.130  0.0615 -0.1996  0.2047
   19TMC2    C8  305   2.917   3.234  13.938  0.1034  0.1831 -0.3154
   19TMC2    O1  306   2.784   2.716  14.138  0.1695 -0.4163  0.1804
   19TMC2    O2  307   2.890   3.212  13.823 -0.4196 -0.5597  0.4371
   19TMC2    O5  308   2.952   3.350  14.001 -0.5256  0.2641  0.0552
   19TMC2    H5  309   2.952   3.341  14.099  2.6198 -0.2493  0.0384
   20MPD2     C  310   3.513   2.909  14.227 -0.6198 -0.2868  0.4117
   20MPD2    C1  311   3.410   2.809  14.211  0.4991  0.0127 -0.2001
   20MPD2    C2  312   3.446   2.673  14.236  0.6739 -0.0502  0.3231
   20MPD2    C3  313   3.575   2.638  14.267 -0.2576 -0.6926 -0.0358
   20MPD2    C4  314   3.664   2.735  14.287 -0.2476  0.0043 -0.2207
   20MPD2    C5  315   3.633   2.864  14.266  0.7704 -0.6748 -0.2623
   20MPD2     H  316   3.377   2.591  14.220 -1.2389  1.4160  0.9744
   20MPD2    H1  317   3.764   2.720  14.327 -0.1298  0.8004 -0.2166
   20MPD2    H2  318   3.496   3.014  14.204  0.7187 -0.6458 -2.2320
   20MPD2    H3  319   3.713   2.935  14.280  0.3137 -0.1619 -0.2650
   20MPD2     N  320   3.612   2.507  14.312  0.0405  0.1765 -0.0750
   20MPD2    H5  321   3.708   2.487  14.337  0.5830 -0.6726 -2.7708
   20MPD2    N1  322   3.274   2.847  14.177 -0.1872 -0.3016  0.3662
   20MPD2    H7  323   3.203   2.776  14.163  1.4096 -2.0824  1.0895
   21TMC2    C1  324   0.704   3.243  14.005  0.7035 -0.1580 -0.4633
   21TMC2    C2  325   0.726   3.162  13.896  0.5374  0.1670 -0.1218
   21TMC2    C3  326   0.616   3.121  13.829  0.3237  0.3661 -0.8985
   21TMC2    C4  327   0.588   3.298  14.045  0.2597  0.7250 -0.3287
   21TMC2    C5  328   0.483   3.261  13.965 -0.2194  0.7748  0.5580
   21TMC2    C6  329   0.496   3.172  13.860 -0.8668 -0.8001 -0.4203
   21TMC2     C  330   0.795   3.222  14.115  0.5859  0.2990  0.5854
   21TMC2     O  331   0.854   3.116  14.121 -0.1902  0.2059  0.7747
   21TMC2     H  332   0.819   3.108  13.881  0.0378 -0.6322 -0.3019
   21TMC2    H1  333   0.582   3.357  14.136 -0.0733 -0.9446  0.7308
   21TMC2    H2  334   0.405   3.132  13.817 -0.1867 -0.5802 -2.0824
   21TMC2    C7  335   0.356   3.241  14.038 -0.5330  0.0264 -0.6802
   21TMC2    C8  336   0.624   3.010  13.735 -0.8098  0.2458 -0.5011
   21TMC2    O1  337   0.274   3.166  13.986 -0.5574 -0.0198  0.4361
   21TMC2    O2  338   0.707   2.919  13.756 -0.1193 -0.2334  0.5721
   21TMC2    O5  339   0.541   3.029  13.631  0.0948 -0.1623 -0.4877
   21TMC2    H5  340   0.500   3.118  13.627  1.6079  0.7312  3.2728
   22MPD2     C  341   0.925   3.278  14.616 -0.2284 -0.3839 -1.1981
   22MPD2    C1  342   0.918   3.163  14.539 -0.1003 -0.3868 -0.1176
   22MPD2    C2  343   0.875   3.177  14.404  0.0298  0.4088 -0.2152
   22MPD2    C3  344   0.842   3.297  14.349  0.2409 -0.3781 -0.5091
   22MPD2    C4  345   0.863   3.410  14.424  0.3879  0.1682  0.2996
   22MPD2    C5  346   0.897   3.399  14.553  0.9361 -0.6592 -0.1140
   22MPD2     H  347   0.853   3.085  14.350  1.4183 -0.5959  0.9607
   22MPD2    H1  348   0.834   3.510  14.395  0.0720  0.1292  0.4800
   22MPD2    H2  349   0.949   3.286  14.721 -3.5616  0.6708 -0.5107
   22MPD2    H3  350   0.888   3.492  14.609 -1.6742 -0.0160 -1.6089
   22MPD2     N  351   0.790   3.319  14.211 -0.1065  0.0082  0.9183
   22MPD2    H5  352   0.768   3.417  14.197  0.2823 -0.1931 -1.1045
   22MPD2    N1  353   0.926   3.029  14.588 -0.2019 -0.1489 -0.3368
   22MPD2    H7  354   0.908   2.952  14.524 -0.5442 -0.2126 -0.1605
   23TMC2    C1  355   1.860   4.372  14.612 -0.3597 -0.2178  0.4687
   23TMC2    C2  356   1.875   4.479  14.534  0.1317 -0.1985 -0.1095
   23TMC2    C3  357   1.763   4.513  14.459 -0.6949 -0.2904 -0.2204
   23TMC2    C4  358   1.741   4.299  14.625 -0.1273 -0.1109  0.7637
   23TMC2    C5  359   1.644   4.338  14.543  0.1492  0.2758  0.5803
   23TMC2    C6  360   1.647   4.448  14.462  0.2838 -0.2716  0.5296
   23TMC2     C  361   1.979   4.324  14.688  0.0727 -0.0039  0.5351
   23TMC2     O  362   1.953   4.222  14.749  0.1427  0.6702  0.8037
   23TMC2     H  363   1.960   4.547  14.542  0.4773 -0.5305 -0.9566
   23TMC2    H1  364   1.730   4.218  14.696  1.1733 -0.7041  0.2851
   23TMC2    H2  365   1.576   4.455  14.380  1.7089 -1.7533 -0.8555
   23TMC2    C7  366   1.541   4.243  14.501 -0.2401 -0.2663 -0.3594
   23TMC2    C8  367   1.773   4.619  14.359  0.2865  0.3212  0.0315
   23TMC2    O1  368   1.565   4.122  14.510  0.3804 -0.1987 -0.2265
   23TMC2    O2  369   1.879   4.663  14.316  0.4332 -0.1853 -0.2529
   23TMC2    O5  370   1.652   4.684  14.343  0.6736  0.1028 -0.0219
   23TMC2    H5  371   1.575   4.648  14.393  1.1518  0.3460  0.9027
   24MPD2     C  372   2.469   4.270  14.815 -0.3982 -0.6581 -0.0092
   24MPD2    C1  373   2.354   4.223  14.879 -0.0152  0.1279 -0.2601
   24MPD2    C2  374   2.238   4.257  14.815 -0.4039 -0.6484 -0.2000
   24MPD2    C3  375   2.224   4.337  14.703  0.2527  0.5588 -0.0053
   24MPD2    C4  376   2.335   4.386  14.649 -0.3301 -0.3029 -0.3717
   24MPD2    C5  377   2.451   4.348  14.704 -0.3473  0.4707 -0.6697
   24MPD2     H  378   2.151   4.234  14.875 -0.4999 -0.0893 -0.1243
   24MPD2    H1  379   2.339   4.451  14.562 -0.6234  1.1783  0.7255
   24MPD2    H2  380   2.566   4.254  14.860 -0.5323 -2.5344 -0.3844
   24MPD2    H3  381   2.541   4.395  14.666  0.3884 -1.1317 -0.9041
   24MPD2     N  382   2.102   4.376  14.649  0.6350 -0.2565  0.3304
   24MPD2    H5  383   2.101   4.444  14.574 -0.9729 -0.1759  0.4246
   24MPD2    N1  384   2.356   4.154  15.008 -0.4552  0.0927 -0.2206
   24MPD2    H7  385   2.266   4.129  15.047 -0.3715 -0.3650 -0.3178
   25TMC2    C1  386   1.285   1.409  11.981  0.3172 -0.2527  0.0942
   25TMC2    C2  387   1.366   1.385  12.087 -0.3619  0.2432 -0.3802
   25TMC2    C3  388   1.465   1.478  12.111 -0.1944  0.2706 -0.3300
   25TMC2    C4  389   1.303   1.510  11.895  0.5837 -1.1448 -0.1532
   25TMC2    C5  390   1.400   1.610  11.923  0.7303  0.0526 -0.0309
   25TMC2    C6  391   1.478   1.593  12.031 -0.2087 -1.6346  0.1006
   25TMC2     C  392   1.151   1.397  12.028  0.9962  0.3676 -0.4102
   25TMC2     O  393   1.141   1.329  12.129 -0.4618  0.3026  0.3961
   25TMC2     H  394   1.362   1.299  12.154 -2.1729  0.7592  0.1627
   25TMC2    H1  395   1.248   1.512  11.801  0.9169  0.4986 -0.3220
   25TMC2    H2  396   1.538   1.678  12.063 -0.9498 -1.3405  0.7148
   25TMC2    C7  397   1.350   1.736  11.884  0.3959  0.5380 -0.2206
   25TMC2    C8  398   1.552   1.460  12.224 -0.2058 -0.3200 -0.1086
   25TMC2    O1  399   1.375   1.832  11.958 -0.1480 -0.4322  0.1565
   25TMC2    O2  400   1.567   1.349  12.275  0.0267 -0.0805  0.1981
   25TMC2    O5  401   1.612   1.570  12.267  0.1971  0.4122 -0.4822
   25TMC2    H5  402   1.601   1.655  12.219  0.0371  0.7282  0.1229
   26MPD2     C  403   0.656   1.478  11.954  0.2843 -0.2473 -0.0114
   26MPD2    C1  404   0.725   1.524  11.845 -0.3764 -0.0730 -0.0215
   26MPD2    C2  405   0.864   1.518  11.849  0.7649  0.7071 -0.5135
   26MPD2    C3  406   0.928   1.452  11.950  0.1064 -0.3281  0.2762
   26MPD2    C4  407   0.856   1.391  12.053 -0.1986  0.1749 -0.8450
   26MPD2    C5  408   0.722   1.418  12.059  0.1162  0.2932  0.0759
   26MPD2     H  409   0.925   1.577  11.782 -0.2142  3.9054  1.4127
   26MPD2    H1  410   0.905   1.338  12.134  0.5914  1.5579 -0.4232
   26MPD2    H2  411   0.547   1.477  11.952  0.3079  1.5299 -2.1090
   26MPD2    H3  412   0.672   1.388  12.151 -0.0097  0.3490  0.0251
   26MPD2     N  413   1.066   1.450  11.938 -0.3370  0.9758 -0.0570
   26MPD2    H5  414   1.103   1.490  11.852  0.7518 -3.2340 -1.5701
   26MPD2    N1  415   0.655   1.573  11.730  0.3815  0.4752  0.6911
   26MPD2    H7  416   0.554   1.581  11.740  0.4392 -0.2912  1.8471
   27TMC2    C1  417   4.345   4.046  11.933 -0.3266  0.5292  0.1898
   27TMC2    C2  418   4.336   4.144  11.837  0.1280  0.6994  0.3171
   27TMC2    C3  419   4.421   4.246  11.853  0.0259  0.7493 -0.3605
   27TMC2    C4  420   4.433   4.044  12.029 -0.6542  0.0501  0.2403
   27TMC2    C5  421   4.527   4.140  12.030  0.2035  0.1760  0.5741
   27TMC2    C6  422   4.515   4.250  11.955 -0.1064  0.1556  0.1620
   27TMC2     C  423   4.228   3.963  11.957 -0.0857  0.6864  0.1836
   27TMC2     O  424   4.180   3.903  11.863  0.1969  0.3534 -0.7256
   27TMC2     H  425   4.258   4.151  11.762 -1.9215 -0.5633  2.3413
   27TMC2    H1  426   4.426   3.963  12.100 -0.8511  0.1248  0.3071
   27TMC2    H2  427   4.595   4.323  11.949 -0.5809  0.6999  0.4514
   27TMC2    C7  428   4.600   4.153  12.155  0.6241 -1.0368 -0.3205
   27TMC2    C8  429   4.414   4.330  11.738  0.3732  0.3420  0.2264
   27TMC2    O1  430   4.630   4.055  12.217 -0.7923  0.0251  0.7932
   27TMC2    O2  431   4.369   4.298  11.627 -0.5236  0.0028 -0.1540
   27TMC2    O5  432   4.422   4.451  11.779 -0.2106 -0.1565 -0.0643
   27TMC2    H5  433   4.435   4.460  11.876  2.0467 -1.6985 -0.2277
   28MPD2     C  434   3.847   3.789  12.248  0.3172 -0.1247 -0.3928
   28MPD2    C1  435   3.905   3.901  12.303 -0.7745  0.0444 -0.8900
   28MPD2    C2  436   4.014   3.955  12.245 -0.1294 -0.5047  0.8590
   28MPD2    C3  437   4.075   3.900  12.132  0.0008  0.1541  0.2105
   28MPD2    C4  438   4.018   3.793  12.074  0.1587  0.4213  0.0478
   28MPD2    C5  439   3.910   3.743  12.136 -0.0936  0.2136  0.0040
   28MPD2     H  440   4.072   4.031  12.296  1.5622 -0.7722 -0.6777
   28MPD2    H1  441   4.052   3.737  11.987 -1.4920  0.7452 -0.8071
   28MPD2    H2  442   3.772   3.724  12.291  1.1347 -1.3565 -0.8503
   28MPD2    H3  443   3.858   3.660  12.090  1.8052 -0.5388 -0.7754
   28MPD2     N  444   4.190   3.967  12.084  0.3210  0.2605 -0.4367
   28MPD2    H5  445   4.218   4.043  12.145 -2.4727 -0.4491  1.7307
   28MPD2    N1  446   3.843   3.958  12.416 -0.0635  0.8846 -0.0976
   28MPD2    H7  447   3.762   3.910  12.455  0.1597 -0.9232 -1.8782
   29TMC2    C1  448   4.505   1.385  14.126  0.3901 -0.1573  0.3257
   29TMC2    C2  449   4.615   1.399  14.208  0.0081 -0.1062  0.7752
   29TMC2    C3  450   4.624   1.515  14.278 -0.3878  0.2350  0.1468
   29TMC2    C4  451   4.417   1.488  14.102  0.1806 -0.0676  0.2240
   29TMC2    C5  452   4.452   1.609  14.153  0.5493  0.3633 -0.5872
   29TMC2    C6  453   4.556   1.625  14.244 -0.1911  0.0357 -0.0035
   29TMC2     C  454   4.491   1.260  14.048  0.0792  0.4503  0.1527
   29TMC2     O  455   4.533   1.161  14.097 -0.3842  0.2972 -0.5159
   29TMC2     H  456   4.674   1.311  14.227  0.9060  0.7533  1.9265
   29TMC2    H1  457   4.321   1.475  14.054  0.4302  2.3886 -0.9460
   29TMC2    H2  458   4.571   1.717  14.300 -0.4193  0.1479 -0.1254
   29TMC2    C7  459   4.342   1.709  14.174 -0.1140 -0.4913  0.2411
   29TMC2    C8  460   4.706   1.528  14.392  0.2346 -0.4272 -0.1921
   29TMC2    O1  461   4.227   1.687  14.136 -0.7275 -0.3922  0.1403
   29TMC2    O2  462   4.695   1.626  14.468  0.0314 -0.0301  0.6564
   29TMC2    O5  463   4.724   1.404  14.438  0.2833  0.1366 -0.3045
   29TMC2    H5  464   0.044   1.359  14.371  2.0582  0.2798  1.0935
   30MPD2     C  465   4.335   1.026  13.610  0.2229 -0.2336  0.1237
   30MPD2    C1  466   4.376   0.968  13.731 -0.3684 -0.5152  0.1482
   30MPD2    C2  467   4.401   1.051  13.843  0.0409  0.4391 -0.1083
   30MPD2    C3  468   4.401   1.191  13.824  0.0293 -0.1145  0.0926
   30MPD2    C4  469   4.374   1.240  13.699 -0.6882  0.3745  0.3270
   30MPD2    C5  470   4.346   1.159  13.598 -0.1237 -0.1414 -0.6038
   30MPD2     H  471   4.413   1.009  13.942 -0.4799 -0.6178 -0.4975
   30MPD2    H1  472   4.382   1.347  13.681 -0.0086  0.4470  1.0775
   30MPD2    H2  473   4.330   0.968  13.518  0.1789 -0.3277  0.1853
   30MPD2    H3  474   4.322   1.194  13.498  0.2843 -0.8822 -0.9702
   30MPD2     N  475   4.450   1.286  13.917  0.1753  0.5031 -0.1351
   30MPD2    H5  476   4.445   1.383  13.888 -2.8729  1.0537  2.2536
   30MPD2    N1  477   4.392   0.830  13.735  0.2948 -0.4041  0.2168
   30MPD2    H7  478   4.350   0.784  13.654  1.4680  0.1649 -0.7174
   31TMC2    C1  479   1.843   4.710  15.385 -0.2929 -0.4426 -0.4821
   31TMC2    C2  480   1.706   4.735  15.376 -0.0197  0.0336 -0.4593
   31TMC2    C3  481   1.625   4.679  15.477 -0.0537 -0.3885  1.0174
   31TMC2    C4  482   1.894   4.621  15.475  0.3082  0.1921  0.0068
   31TMC2    C5  483   1.802   4.554  15.555  1.0359 -0.0405 -0.6808
   31TMC2    C6  484   1.670   4.584  15.559 -0.2194  0.0440 -0.7779
   31TMC2     C  485   1.930   0.063  15.315 -0.5053  0.6196  0.0719
   31TMC2     O  486   1.883   0.124  15.221  0.0699  0.3937 -0.4746
   31TMC2     H  487   1.661   0.065  15.303 -2.8795 -1.2114  0.1669
   31TMC2    H1  488   1.998   4.593  15.474  0.3842  0.5343 -1.5496
   31TMC2    H2  489   1.618   4.524  15.632  2.3658 -1.1795  0.0809
   31TMC2    C7  490   1.864   4.477  15.660 -0.2708  0.0297  0.1993
   31TMC2    C8  491   1.488   4.679  15.463  0.7641  0.0774  0.6058
   31TMC2    O1  492   1.946   4.391  15.634 -0.2175 -0.1917 -0.0183
   31TMC2    O2  493   1.440   4.730  15.365 -0.8012 -0.2256  0.0527
   31TMC2    O5  494   1.432   4.689  15.588  0.8239  0.8629  0.0558
   31TMC2    H5  495   1.499   4.687  15.660  0.3185 -1.8837  0.4364
   32MPD2     C  496   2.388   0.264  15.184  0.3308  0.5636 -0.4877
   32MPD2    C1  497   2.270   0.265  15.114 -0.7135  0.0222  0.1313
   32MPD2    C2  498   2.159   0.198  15.177 -0.4214 -0.0447 -0.0045
   32MPD2    C3  499   2.169   0.134  15.298  0.3686  0.1997  0.0556
   32MPD2    C4  500   2.287   0.136  15.364  1.4302  0.1710  0.0105
   32MPD2    C5  501   2.393   0.196  15.308 -0.0870  0.4529  0.5282
   32MPD2     H  502   2.072   0.200  15.112 -1.2793  2.3666  1.2062
   32MPD2    H1  503   2.293   0.083  15.458  1.0301  0.2637  0.0882
   32MPD2    H2  504   2.477   0.306  15.138  0.2035 -1.7443 -2.8410
   32MPD2    H3  505   2.485   0.200  15.365 -0.3247 -0.6398  0.9973
   32MPD2     N  506   2.063   0.062  15.365 -0.3586 -0.4706 -0.1336
   32MPD2    H5  507   2.089   0.010  15.448 -2.6200 -0.3557  0.6715
   32MPD2    N1  508   2.268   0.336  14.988 -0.8175  0.0324  0.0821
   32MPD2    H7  509   2.357   0.379  14.964 -0.1478 -2.3027 -1.6200
   33TMC2    C1  510   2.014   3.055   9.972 -0.1119  0.2408  0.0457
   33TMC2    C2  511   1.959   2.971   9.879  0.4102 -0.5736  0.4151
   33TMC2    C3  512   1.966   3.009   9.743  0.1635  0.4880 -0.6087
   33TMC2    C4  513   2.087   3.164   9.935 -0.1115  0.5370 -0.0489
   33TMC2    C5  514   2.089   3.190   9.797  0.3750 -0.0158 -0.5091
   33TMC2    C6  515   2.030   3.119   9.701 -0.5973 -0.9766 -0.0587
   33TMC2     C  516   2.009   3.008  10.107 -0.5217 -0.1910 -0.5240
   33TMC2     O  517   1.936   2.911  10.127 -0.0981  0.3187  0.5016
   33TMC2     H  518   1.918   2.873   9.898 -1.1674  0.0522  0.3073
   33TMC2    H1  519   2.114   3.235  10.013 -0.2504  0.5834 -0.0413
   33TMC2    H2  520   2.047   3.139   9.596 -0.9959 -2.4678 -0.4146
   33TMC2    C7  521   2.179   3.296   9.767  0.9146 -0.0840 -0.0659
   33TMC2    C8  522   1.919   2.917   9.647 -0.2916 -0.3259  0.7383
   33TMC2    O1  523   2.266   3.322   9.849  0.5738 -0.0485 -0.1072
   33TMC2    O2  524   1.968   2.894   9.540  0.1421  0.1818 -0.5133
   33TMC2    O5  525   1.808   2.862   9.697 -0.7969  0.3754  0.3958
   33TMC2    H5  526   1.765   2.915   9.768 -1.7038  1.2644 -0.8187
   34MPD2     C  527   2.147   3.022  10.601 -0.3497 -0.1884  0.7268
   34MPD2    C1  528   2.075   2.929  10.535  0.3370 -0.4892  0.0824
   34MPD2    C2  529   2.054   2.940  10.394  0.5150  0.1299 -0.5049
   34MPD2    C3  530   2.107   3.052  10.337  0.5120  0.6269  0.1975
   34MPD2    C4  531   2.168   3.151  10.409  0.4671  0.3903 -0.0887
   34MPD2    C5  532   2.188   3.135  10.539  0.1805  0.1820  1.2248
   34MPD2     H  533   1.980   2.879  10.343  0.9159  0.9600 -2.0856
   34MPD2    H1  534   2.189   3.242  10.354  1.2807 -0.8850 -1.8730
   34MPD2    H2  535   2.160   3.022  10.709 -0.3436 -0.2093  0.7261
   34MPD2    H3  536   2.240   3.207  10.601  2.7805 -0.6082 -0.0306
   34MPD2     N  537   2.082   3.082  10.199 -0.4501  0.4630  0.0774
   34MPD2    H5  538   2.125   3.170  10.171  2.4872 -0.7828  0.6390
   34MPD2    N1  539   2.039   2.805  10.605  0.9385 -1.0758  0.3130
   34MPD2    H7  540   2.068   2.793  10.701  1.8306  3.9273  0.6822
   35TMC2    C1  541   2.683   4.346  11.420  0.3011 -0.2035 -0.0763
   35TMC2    C2  542   2.606   4.452  11.383  0.3955  0.2180  0.1060
   35TMC2    C3  543   2.478   4.438  11.397 -0.3508 -0.9290  0.2201
   35TMC2    C4  544   2.631   4.224  11.461 -0.3772 -0.4338  0.4698
   35TMC2    C5  545   2.497   4.222  11.470  0.2711  0.7927  0.3317
   35TMC2    C6  546   2.416   4.330  11.446 -0.2068  1.0823 -1.5293
   35TMC2     C  547   2.828   4.371  11.400 -0.0213 -0.5004  0.3896
   35TMC2     O  548   2.857   4.477  11.355  0.4455 -0.5541 -0.0236
   35TMC2     H  549   2.655   4.533  11.330 -0.2779  1.6187  1.6279
   35TMC2    H1  550   2.691   4.140  11.492  1.1709  0.5575  0.1250
   35TMC2    H2  551   2.309   4.322  11.460  0.2003 -0.6432  0.4093
   35TMC2    C7  552   2.443   4.093  11.514  0.9925  0.1562 -0.0891
   35TMC2    C8  553   2.388   4.510  11.310 -0.6517 -0.1319  0.2898
   35TMC2    O1  554   2.517   4.005  11.551 -0.4294  0.2951 -0.5133
   35TMC2    O2  555   2.269   4.476  11.289 -0.0901  0.3315 -0.0716
   35TMC2    O5  556   2.439   4.631  11.282  0.1815  0.0178 -0.4239
   35TMC2    H5  557   2.531   4.645  11.311 -0.0282  1.0842 -0.2986
   36MPD2     C  558   3.323   4.337  11.512 -0.1509 -0.5150  0.0269
   36MPD2    C1  559   3.253   4.270  11.609 -0.5378  0.2926 -0.0254
   36MPD2    C2  560   3.114   4.247  11.596  0.5076  0.1843 -0.4521
   36MPD2    C3  561   3.051   4.297  11.485  0.6478  0.9314 -0.4191
   36MPD2    C4  562   3.119   4.371  11.386 -0.1355 -0.0145 -0.1707
   36MPD2    C5  563   3.253   4.373  11.401  0.1064 -0.2752 -0.3241
   36MPD2     H  564   3.068   4.193  11.678 -1.5586  1.4885 -0.7730
   36MPD2    H1  565   3.077   4.412  11.295  1.4758  0.5349 -0.6633
   36MPD2    H2  566   3.431   4.342  11.505 -0.2066 -2.2458 -2.1379
   36MPD2    H3  567   3.307   4.422  11.321 -1.3036 -0.6622 -1.5284
   36MPD2     N  568   2.910   4.282  11.476 -0.5135  0.7559  0.3752
   36MPD2    H5  569   2.865   4.223  11.546  1.6545  2.2578  3.0491
   36MPD2    N1  570   3.325   4.234  11.720  0.7906  0.2286  0.0241
   36MPD2    H7  571   3.416   4.276  11.736  0.4480  0.2204  1.9938
   37TMC2    C1  572   0.532   0.025  12.128  0.3581 -0.0919  0.3362
   37TMC2    C2  573   0.512   0.106  12.019  0.3441  0.2407 -0.4576
   37TMC2    C3  574   0.620   0.146  11.947  0.0496 -0.6910  0.3669
   37TMC2    C4  575   0.658   4.733  12.161  0.0718 -0.6433 -0.9010
   37TMC2    C5  576   0.765   0.042  12.094 -0.1266  0.7476  0.1588
   37TMC2    C6  577   0.752   0.125  11.985  0.7927 -0.0683  0.2702
   37TMC2     C  578   0.429   4.697  12.210  0.4013  0.6964 -0.1162
   37TMC2     O  579   0.315   4.735  12.190  0.3157  0.2684  0.1153
   37TMC2     H  580   0.407   0.127  12.000 -0.0546 -2.3084 -1.0737
   37TMC2    H1  581   0.687   4.667  12.242  1.1024 -0.8308 -1.4310
   37TMC2    H2  582   0.838   0.178  11.947 -0.1937  0.4508 -1.2174
   37TMC2    C7  583   0.902   4.731  12.132  0.5903 -0.3171  0.9541
   37TMC2    C8  584   0.596   0.252  11.859  0.6004 -0.3051  0.7574
   37TMC2    O1  585   0.905   4.658  12.229 -0.0038  0.0628  0.5046
   37TMC2    O2  586   0.531   0.345  11.906  0.3399  0.3535  0.4549
   37TMC2    O5  587   0.690   0.249  11.763 -0.1327 -0.1974 -0.1793
   37TMC2    H5  588   0.733   0.161  11.751 -2.4471 -0.9900 -2.7220
   38MPD2     C  589   0.235   4.350  12.523  0.5604  0.4249  0.6359
   38MPD2    C1  590   0.344   4.302  12.463  0.0424 -0.0257 -0.2907
   38MPD2    C2  591   0.420   4.375  12.370  0.2858 -0.4052  0.6093
   38MPD2    C3  592   0.391   4.504  12.358 -0.9213  0.4477  0.4534
   38MPD2    C4  593   0.277   4.551  12.418 -0.0558 -0.1201 -0.1256
   38MPD2    C5  594   0.201   4.481  12.500 -0.1595 -0.1598 -0.0783
   38MPD2     H  595   0.500   4.327  12.316  1.0344  1.4547  0.0904
   38MPD2    H1  596   0.246   4.654  12.401 -0.7401 -0.3830 -0.4759
   38MPD2    H2  597   0.166   4.301  12.591 -0.6355  0.3466 -0.6454
   38MPD2    H3  598   0.114   4.528  12.544  1.1336  0.8284  1.4335
   38MPD2     N  599   0.466   4.585  12.272  0.4966  0.1404 -0.0185
   38MPD2    H5  600   0.552   4.549  12.232  0.8457  0.3988  0.5088
   38MPD2    N1  601   0.388   4.167  12.492  0.4324  0.1290 -0.2532
   38MPD2    H7  602   0.466   4.130  12.438 -0.9951 -0.2555 -2.0405
   39TMC2    C1  603   3.746   1.901   1.650  0.0777  0.4807 -0.2039
   39TMC2    C2  604   3.654   1.998   1.668 -0.3302 -0.4953  0.3411
   39TMC2    C3  605   3.697   2.129   1.693  0.4567  0.4864  0.2107
   39TMC2    C4  606   3.877   1.920   1.674  0.1438  0.6896  0.2085
   39TMC2    C5  607   3.916   2.047   1.701  0.1678 -0.1512 -0.4959
   39TMC2    C6  608   3.824   2.152   1.712 -0.2180  0.5114 -0.1426
   39TMC2     C  609   3.695   1.771   1.594 -0.5803 -0.1916  0.4326
   39TMC2     O  610   3.575   1.763   1.566  0.4856  0.9006 -0.1123
   39TMC2     H  611   3.547   1.981   1.665 -0.8728  2.8724  0.0206
   39TMC2    H1  612   3.954   1.844   1.661 -1.2836 -0.4757 -1.3705
   39TMC2    H2  613   3.851   2.245   1.760  0.7721 -0.4153  1.0678
   39TMC2    C7  614   4.054   2.080   1.696  1.0865 -0.1441  0.1338
   39TMC2    C8  615   3.609   2.245   1.697 -0.1377 -0.2113  0.7474
   39TMC2    O1  616   4.128   1.986   1.724  0.4623  0.8609  0.1137
   39TMC2    O2  617   3.503   2.251   1.632  0.6995  0.2342 -0.1620
   39TMC2    O5  618   3.638   2.326   1.807  0.0040 -0.5226  1.0213
   39TMC2    H5  619   3.685   2.282   1.882 -1.2777 -4.2571 -0.3435
   40MPD2     C  620   3.884   1.458   1.586 -0.1101  0.3238  0.5777
   40MPD2    C1  621   3.771   1.537   1.572  0.0114 -0.0861  0.5596
   40MPD2    C2  622   3.651   1.484   1.516 -0.0888  1.3279 -0.0816
   40MPD2    C3  623   3.651   1.350   1.478 -0.6232 -0.6371 -0.1314
   40MPD2    C4  624   3.762   1.271   1.504  0.5118  0.2489 -0.3644
   40MPD2    C5  625   3.874   1.323   1.562  0.6008  0.6709  0.2536
   40MPD2     H  626   3.563   1.545   1.498 -2.2067 -1.7747 -0.2504
   40MPD2    H1  627   3.781   1.178   1.451 -1.0994 -1.3494  1.8608
   40MPD2    H2  628   3.976   1.497   1.628 -0.8898  0.9847  1.6714
   40MPD2    H3  629   3.964   1.264   1.569  2.4819  3.5275  0.0409
   40MPD2     N  630   3.558   1.295   1.386 -0.0599  0.3946  0.4340
   40MPD2    H5  631   3.583   1.201   1.358  1.5606  1.1005 -0.4585
   40MPD2    N1  632   3.787   1.672   1.608  0.2797 -0.4160  0.2885
   40MPD2    H7  633   3.874   1.694   1.655  0.4284 -1.4247  0.4821
   41TMC2    C1  634   2.925   4.212  13.809  0.3829  0.0278  0.8911
   41TMC2    C2  635   2.862   4.094  13.786 -0.4672 -0.1617  0.6859
   41TMC2    C3  636   2.842   4.050  13.659 -0.2021 -0.5502 -0.5598
   41TMC2    C4  637   2.973   4.297  13.713  0.3808 -0.3682 -0.2769
   41TMC2    C5  638   2.944   4.253  13.584 -0.4527  0.3350 -0.3799
   41TMC2    C6  639   2.881   4.129  13.555  0.6292 -0.7278 -0.0952
   41TMC2     C  640   2.970   4.232  13.943  0.0297 -0.6040  0.8895
   41TMC2     O  641   2.970   4.142  14.025  0.5278 -0.3973 -0.0471
   41TMC2     H  642   2.838   4.028  13.870  4.2400 -0.1629  2.0632
   41TMC2    H1  643   3.027   4.390  13.725  0.5517 -0.4447 -0.4537
   41TMC2    H2  644   2.854   4.100  13.454  1.0642  0.8853 -0.6776
   41TMC2    C7  645   2.960   4.346  13.479  0.1102 -0.1910  0.0941
   41TMC2    C8  646   2.755   3.950  13.629  0.0841  0.2485 -0.0795
   41TMC2    O1  647   2.958   4.460  13.520 -0.3000 -0.4437 -0.6326
   41TMC2    O2  648   2.742   3.888  13.528 -0.1277 -0.0224  0.3007
   41TMC2    O5  649   2.651   3.974  13.712 -0.4382  0.0825  0.1880
   41TMC2    H5  650   2.679   4.035  13.783 -0.1390 -0.2118  0.3269
   42MPD2     C  651   3.053   4.361  14.205 -0.0162 -0.3266 -0.6940
   42MPD2    C1  652   3.025   4.434  14.088  0.1664 -0.2589  0.6281
   42MPD2    C2  653   3.023   4.567  14.083 -0.4413  0.2649 -0.8312
   42MPD2    C3  654   3.060   4.637  14.196  0.5830 -0.1994 -0.1230
   42MPD2    C4  655   3.088   4.567  14.312 -0.5086  0.5151  0.6011
   42MPD2    C5  656   3.084   4.431  14.321 -0.5624  0.4982 -0.5954
   42MPD2     H  657   3.006   4.609  13.985 -1.1423 -0.1864 -0.9026
   42MPD2    H1  658   3.092   4.629  14.401 -0.9491 -0.2280  1.1384
   42MPD2    H2  659   3.057   4.253  14.212 -1.5017 -0.4194 -1.2115
   42MPD2    H3  660   3.111   4.377  14.411 -2.3584  2.9707  1.4314
   42MPD2     N  661   3.075   0.040  14.218  0.1355 -0.1160  0.0568
   42MPD2    H5  662   3.110   0.074  14.307  1.7818  0.0877 -0.6745
   42MPD2    N1  663   2.980   4.371  13.967 -0.1416 -0.1995 -0.4371
   42MPD2    H7  664   2.943   4.435  13.897 -0.4587  1.0124  0.8603
   43TMC2    C1  665   4.409   2.425   0.860  0.3415  0.0053 -0.5230
   43TMC2    C2  666   4.470   2.331   0.941  0.3355 -0.1944 -0.5784
   43TMC2    C3  667   4.603   2.350   0.971 -0.0824  0.2256  0.1476
   43TMC2    C4  668   4.468   2.545   0.818 -0.2455  0.1630  0.1708
   43TMC2    C5  669   4.603   2.560   0.855  0.4649 -0.3133 -0.4317
   43TMC2    C6  670   4.664   2.461   0.937  0.4726 -0.0395  0.1565
   43TMC2     C  671   4.300   2.390   0.775  0.6921  0.1521 -0.8474
   43TMC2     O  672   4.217   2.471   0.743 -0.5018 -0.0339  0.4602
   43TMC2     H  673   4.435   2.229   0.952 -0.7234  0.3852  1.4684
   43TMC2    H1  674   4.422   2.619   0.753  0.3333  0.0960 -0.3115
   43TMC2    H2  675   0.030   2.473   0.974 -0.3868  0.8915  2.1929
   43TMC2    C7  676   4.671   2.688   0.866  0.7906 -0.0505  0.2872
   43TMC2    C8  677   4.677   2.261   1.052 -0.1010 -0.4423 -0.2295
   43TMC2    O1  678   0.058   2.680   0.874  0.5151 -0.0367 -0.3642
   43TMC2    O2  679   4.630   2.151   1.063 -0.4080  0.5394  0.3966
   43TMC2    O5  680   4.704   2.328   1.162 -0.3135  0.3984 -0.1395
   43TMC2    H5  681   4.701   2.426   1.155  0.5614  0.5388  1.3382
   44MPD2     C  682   4.069   1.990   0.564  0.2991 -0.7593  0.3382
   44MPD2    C1  683   4.202   1.965   0.553 -0.0304  0.6763  0.2437
   44MPD2    C2  684   4.285   2.067   0.600  0.8658  0.1977  0.3566
   44MPD2    C3  685   4.242   2.180   0.659 -0.7646 -0.1628  0.3277
   44MPD2    C4  686   4.107   2.201   0.676 -0.0297 -0.5245  0.0764
   44MPD2    C5  687   4.025   2.103   0.627 -0.6297 -0.2764 -0.5759
   44MPD2     H  688   4.392   2.047   0.603  1.0276  1.2846  1.9150
   44MPD2    H1  689   4.069   2.290   0.725  0.1999 -0.3838 -0.0051
   44MPD2    H2  690   3.996   1.915   0.538  0.7718 -0.3025 -2.3903
   44MPD2    H3  691   3.918   2.117   0.640 -0.2945  1.3466  0.4124
   44MPD2     N  692   4.337   2.268   0.726 -0.3199  0.3399  0.4432
   44MPD2    H5  693   4.431   2.231   0.738  0.6150  2.9541  1.0971
   44MPD2    N1  694   4.268   1.853   0.507  0.0020 -0.0278 -0.2178
   44MPD2    H7  695   4.369   1.858   0.513  0.0934 -0.2671 -1.4205
   45TMC2    C1  696   4.552   0.621   9.817 -0.1910  0.3741 -0.3085
   45TMC2    C2  697   4.451   0.634   9.729 -0.9740  0.2038  0.1630
   45TMC2    C3  698   4.423   0.765   9.690  0.1031 -0.6634  0.0449
   45TMC2    C4  699   4.630   0.724   9.859 -0.4987 -0.3114 -0.7979
   45TMC2    C5  700   4.598   0.854   9.821  0.3434 -0.0701  0.4078
   45TMC2    C6  701   4.492   0.874   9.735 -0.3448  0.2878 -0.5798
   45TMC2     C  702   4.592   0.489   9.857 -0.8277  0.8267  0.5320
   45TMC2     O  703   4.701   0.483   9.907 -0.1214  0.1929  0.5490
   45TMC2     H  704   4.385   0.558   9.688 -1.7960  0.9446  0.1209
   45TMC2    H1  705   4.720   0.714   9.919 -0.5254 -0.3724 -0.7688
   45TMC2    H2  706   4.474   0.972   9.690  0.6871  0.2327 -1.1337
   45TMC2    C7  707   4.672   0.959   9.890  0.0960 -0.3960 -0.7953
   45TMC2    C8  708   4.315   0.790   9.595  0.0790  0.0048  0.5334
   45TMC2    O1  709   0.042   0.925   9.948 -0.3928 -0.3566  0.5174
   45TMC2    O2  710   4.212   0.724   9.595  0.1701  0.4187  0.1509
   45TMC2    O5  711   4.338   0.910   9.528  0.1503 -0.3227  0.2770
   45TMC2    H5  712   4.433   0.933   9.539  0.0396 -0.3838  1.3067
   46MPD2     C  713   4.632   0.198   9.893 -0.9158  0.4863 -0.7124
   46MPD2    C1  714   4.523   0.256   9.826  0.2658  0.5447  0.4043
   46MPD2    C2  715   4.442   0.169   9.765 -0.2066  0.2186 -0.0974
   46MPD2    C3  716   4.455   0.032   9.768  0.1094 -0.3242 -0.0945
   46MPD2    C4  717   4.557   4.711   9.841 -0.4506  0.2222 -0.1027
   46MPD2    C5  718   4.646   0.058   9.897 -0.9007  0.8515 -0.1180
   46MPD2     H  719   4.360   0.204   9.704 -1.0119 -0.7179  0.4538
   46MPD2    H1  720   4.568   4.604   9.851  1.1853  0.3311 -0.8383
   46MPD2    H2  721   4.707   0.254   9.948  0.3376 -0.8975 -1.0123
   46MPD2    H3  722   4.733   0.012   9.942  0.3599  2.4437 -0.9262
   46MPD2     N  723   4.343   4.696   9.723  0.7938  0.1068  0.1458
   46MPD2    H5  724   4.266   0.014   9.685  1.9311  0.4235 -1.7235
   46MPD2    N1  725   4.500   0.392   9.825  0.4906  0.5837 -0.1550
   46MPD2    H7  726   4.416   0.429   9.781 -0.5679 -1.5656  0.1095
   47TMC2    C1  727   2.410   0.867   9.344 -0.0154 -0.0481 -0.0327
   47TMC2    C2  728   2.343   0.940   9.257 -0.2847  0.0433  0.6289
   47TMC2    C3  729   2.220   0.891   9.214  0.3725  0.1937 -0.6809
   47TMC2    C4  730   2.349   0.770   9.417 -0.0335 -0.2998  0.3223
   47TMC2    C5  731   2.225   0.722   9.370 -0.2253  0.1276 -0.7404
   47TMC2    C6  732   2.154   0.785   9.278  0.2218 -0.5363  0.2004
   47TMC2     C  733   2.536   0.918   9.390 -0.9586  0.2915 -0.2987
   47TMC2     O  734   2.562   1.038   9.398  0.4406 -0.1821  0.2909
   47TMC2     H  735   2.381   1.036   9.224  3.6828 -2.2112 -1.3895
   47TMC2    H1  736   2.402   0.712   9.492  0.6115  1.2465  1.0644
   47TMC2    H2  737   2.065   0.742   9.235 -0.0497 -0.7210  0.9539
   47TMC2    C7  738   2.170   0.596   9.424 -0.1031 -0.2004  0.2898
   47TMC2    C8  739   2.172   0.942   9.083 -0.2846 -0.6686 -0.1469
   47TMC2    O1  740   2.082   0.541   9.365  0.0359 -0.1648 -0.2931
   47TMC2    O2  741   2.056   0.972   9.056  0.0056 -0.0374 -0.2327
   47TMC2    O5  742   2.279   0.993   9.013 -0.5939 -0.5482 -0.6716
   47TMC2    H5  743   2.360   0.939   9.025  0.1041  0.2419 -1.8639
   48MPD2     C  744   2.784   0.941   9.552  0.2110  0.7107 -0.5162
   48MPD2    C1  745   2.735   0.826   9.495 -0.0784  0.4212  0.6070
   48MPD2    C2  746   2.797   0.706   9.527 -0.2434 -0.2618 -0.3446
   48MPD2    C3  747   2.902   0.704   9.615  0.6294  0.2894 -0.5535
   48MPD2    C4  748   2.950   0.819   9.667 -0.5189  0.1582  0.4078
   48MPD2    C5  749   2.892   0.940   9.640  0.2680  0.1297 -0.6570
   48MPD2     H  750   2.764   0.614   9.479  0.1621 -1.3214  1.4277
   48MPD2    H1  751   3.032   0.824   9.738 -0.9018 -0.8945  0.9254
   48MPD2    H2  752   2.732   1.034   9.533 -0.4911  0.4071 -0.0884
   48MPD2    H3  753   2.933   1.032   9.680 -0.5105 -0.5329  1.6967
   48MPD2     N  754   2.965   0.582   9.652  0.8012 -0.1691 -0.3428
   48MPD2    H5  755   2.924   0.502   9.604 -3.0391  1.8003 -0.3598
   48MPD2    N1  756   2.615   0.818   9.419  0.7589 -0.4048 -0.6376
   48MPD2    H7  757   2.584   0.726   9.388  0.0808 -0.4638  0.2193
   49TMC2    C1  758   1.370   3.103  10.775  0.5519 -0.3180  0.1040
   49TMC2    C2  759   1.467   3.132  10.680  0.4394  0.3310  0.7230
   49TMC2    C3  760   1.467   3.254  10.621  0.0032 -0.4178  0.0735
   49TMC2    C4  761   1.270   3.200  10.802 -0.2299 -0.3546 -0.1697
   49TMC2    C5  762   1.272   3.325  10.746  0.5357  0.8242  1.0054
   49TMC2    C6  763   1.376   3.353  10.656 -0.4618  0.4470  0.1534
   49TMC2     C  764   1.364   2.974  10.833  0.4108 -0.6662  0.3316
   49TMC2     O  765   1.470   2.909  10.826  0.5175  0.4591  0.2591
   49TMC2     H  766   1.545   3.060  10.657 -0.1594 -0.3839  0.9229
   49TMC2    H1  767   1.208   3.185  10.890  2.1372  1.9168  1.8528
   49TMC2    H2  768   1.379   3.441  10.593 -0.2351  0.5608  0.3234
   49TMC2    C7  769   1.162   3.415  10.740  0.5754 -0.4378  0.3258
   49TMC2    C8  770   1.585   3.283  10.541  0.2427  0.5733 -0.3106
   49TMC2    O1  771   1.172   3.529  10.694  0.3528 -0.0608 -0.4024
   49TMC2    O2  772   1.696   3.230  10.551  0.1285 -0.0404 -0.1858
   49TMC2    O5  773   1.536   3.308  10.417 -0.4636 -0.6203  0.6981
   49TMC2    H5  774   1.442   3.338  10.416 -0.4689 -0.6117  1.5994
   50MPD2     C  775   1.326   2.725  10.977  0.0577 -0.0534 -0.2008
   50MPD2    C1  776   1.228   2.792  10.924  0.2231 -0.3722 -0.8376
   50MPD2    C2  777   1.097   2.742  10.921  0.2850  0.0146 -0.0721
   50MPD2    C3  778   1.057   2.622  10.976 -0.0791 -0.0721  0.0780
   50MPD2    C4  779   1.166   2.554  11.030  0.6833  0.8625  0.1462
   50MPD2    C5  780   1.296   2.604  11.030  0.0356 -1.2006 -0.6821
   50MPD2     H  781   1.025   2.805  10.871 -0.8227 -0.0700  1.4261
   50MPD2    H1  782   1.150   2.460  11.083 -0.4602  1.1232  0.2656
   50MPD2    H2  783   1.430   2.753  10.988  0.0320 -0.0010 -0.0863
   50MPD2    H3  784   1.381   2.549  11.068  0.8678  2.0232  2.1017
   50MPD2     N  785   0.936   2.561  10.957 -0.4582 -0.0927  0.6147
   50MPD2    H5  786   0.931   2.463  10.985  0.2198 -0.4999 -0.6962
   50MPD2    N1  787   1.250   2.922  10.876  0.4803 -0.2965 -0.3167
   50MPD2    H7  788   1.162   2.967  10.853  0.3298 -0.7624 -0.6461
   51TMC2    C1  789   0.750   2.121   1.075  0.2504 -1.1918 -0.5215
   51TMC2    C2  790   0.770   2.243   1.008 -0.0031  0.4963  0.5518
   51TMC2    C3  791   0.730   2.250   0.875  0.2210 -0.1782 -0.2681
   51TMC2    C4  792   0.683   2.020   1.009 -0.0117 -0.2359 -0.2121
   51TMC2    C5  793   0.654   2.029   0.874  0.4013  0.3289 -0.1986
   51TMC2    C6  794   0.671   2.148   0.812  0.4716  0.5829 -0.7560
   51TMC2     C  795   0.843   2.076   1.174  0.0946  0.4112 -0.5916
   51TMC2     O  796   0.816   1.978   1.244 -0.1796  0.7927 -0.4066
   51TMC2     H  797   0.825   2.323   1.055  1.2045  0.6201 -1.0772
   51TMC2    H1  798   0.685   1.921   1.053 -0.1088  0.4550  1.3340
   51TMC2    H2  799   0.664   2.148   0.704  2.5158 -0.5740 -0.8975
   51TMC2    C7  800   0.721   1.924   0.805  0.2248  0.6860  0.0829
   51TMC2    C8  801   0.728   2.374   0.805 -0.5646 -0.6124  0.3638
   51TMC2    O1  802   0.810   1.963   0.732 -0.1740  0.2634  0.4588
   51TMC2    O2  803   0.727   2.369   0.683 -0.2112 -0.0903 -0.8239
   51TMC2    O5  804   0.719   2.477   0.883 -0.1028 -0.7421 -0.3557
   51TMC2    H5  805   0.696   2.451   0.975 -0.1607  1.6918  0.3156
   52MPD2     C  806   1.339   1.948   1.215 -0.3116  0.3446  0.3405
   52MPD2    C1  807   1.222   1.881   1.215 -0.0572 -0.2833  0.0877
   52MPD2    C2  808   1.100   1.938   1.206 -1.1126  0.0691  0.1137
   52MPD2    C3  809   1.092   2.070   1.183 -0.6141 -0.5711  0.8586
   52MPD2    C4  810   1.211   2.144   1.181  0.0334  0.4522  0.8222
   52MPD2    C5  811   1.331   2.082   1.196 -0.0230  0.0272  0.5020
   52MPD2     H  812   1.013   1.874   1.194 -1.2819  0.3706 -0.2715
   52MPD2    H1  813   1.216   2.252   1.177  0.3637  0.3930 -0.4206
   52MPD2    H2  814   1.435   1.899   1.224  0.9454  2.2456 -2.8585
   52MPD2    H3  815   1.424   2.136   1.186  0.8205 -0.9767  2.9301
   52MPD2     N  816   0.968   2.133   1.154 -0.0107  0.5161  0.7347
   52MPD2    H5  817   0.973   2.221   1.104 -1.9348  0.7621  0.9406
   52MPD2    N1  818   1.208   1.738   1.206 -0.9147  0.4162 -0.0519
   52MPD2    H7  819   1.112   1.707   1.219  0.0260 -0.8923  3.6065
   53TMC2    C1  820   1.495   4.429  12.440  1.1629  0.1122  0.3981
   53TMC2    C2  821   1.609   4.368  12.480 -0.4292 -0.0452 -0.2743
   53TMC2    C3  822   1.602   4.292  12.592 -0.3799  0.4846 -0.3035
   53TMC2    C4  823   1.377   4.417  12.505 -0.0295 -0.2056 -0.3873
   53TMC2    C5  824   1.378   4.342  12.617 -0.2753  0.2895  0.5768
   53TMC2    C6  825   1.491   4.278  12.666 -0.5203 -0.3174  0.4943
   53TMC2     C  826   1.497   4.501  12.315 -0.5963  0.1278 -0.5333
   53TMC2     O  827   1.602   4.510  12.253 -0.3912 -0.4073  0.3579
   53TMC2     H  828   1.699   4.376  12.420  1.4864 -0.9075  2.4761
   53TMC2    H1  829   1.287   4.473  12.480 -0.0463 -0.6688 -1.3838
   53TMC2    H2  830   1.504   4.223  12.759  3.6615  1.6138  1.0430
   53TMC2    C7  831   1.249   4.308  12.663  0.3009  0.2181 -0.1195
   53TMC2    C8  832   1.712   4.202  12.632  0.1200  0.6496  0.1436
   53TMC2    O1  833   1.177   4.408  12.661  0.9521  0.2403  0.4880
   53TMC2    O2  834   1.724   4.151  12.741  0.3826 -0.0286  0.0260
   53TMC2    O5  835   1.768   4.151  12.518 -0.3016  0.5503 -0.2507
   53TMC2    H5  836   1.727   4.171  12.432 -0.9450 -1.3872 -0.3870
   54MPD2     C  837   1.404   4.666  12.072 -0.2498  0.6118  0.0359
   54MPD2    C1  838   1.325   4.629  12.174 -0.1146 -0.2087 -0.4197
   54MPD2    C2  839   1.189   4.666  12.165  0.1869  0.3988 -0.0986
   54MPD2    C3  840   1.142   0.003  12.057  0.2498  0.0415  0.7837
   54MPD2    C4  841   1.227   0.066  11.970 -0.5278 -0.2570  0.1466
   54MPD2    C5  842   1.356   0.018  11.976 -0.3052  0.8420 -0.1301
   54MPD2     H  843   1.116   4.626  12.233  0.4154 -1.1066 -0.7361
   54MPD2    H1  844   1.184   0.124  11.889  0.2179  0.9961  0.6490
   54MPD2    H2  845   1.509   4.643  12.058  0.0531  1.9993 -0.0361
   54MPD2    H3  846   1.412   0.044  11.888 -0.3188  2.0923  0.2262
   54MPD2     N  847   1.004   0.041  12.049 -0.4098 -0.2080 -0.4339
   54MPD2    H5  848   0.970   0.089  11.967 -1.7071 -1.5141 -0.6613
   54MPD2    N1  849   1.371   4.545  12.276 -1.0038 -0.0765 -0.1170
   54MPD2    H7  850   1.305   4.527  12.351  0.1392  1.2288  1.2071
   55TMC2    C1  851   2.712   2.768   0.178 -0.1078 -0.3686 -0.3189
   55TMC2    C2  852   2.820   2.856   0.169  0.3301 -0.6234 -1.1210
   55TMC2    C3  853   2.938   2.820   0.237  0.0612 -0.6043  1.1560
   55TMC2    C4  854   2.729   2.648   0.232 -0.1092  0.5540 -0.4780
   55TMC2    C5  855   2.842   2.622   0.300 -0.1716  0.1631  0.4932
   55TMC2    C6  856   2.951   2.711   0.313 -0.6990 -0.1208  0.7387
   55TMC2     C  857   2.584   2.831   0.185 -0.6142  0.5329  0.0315
   55TMC2     O  858   2.497   2.760   0.232 -0.5633 -0.4836  0.1904
   55TMC2     H  859   2.813   2.954   0.124  0.1001  0.4336  1.2047
   55TMC2    H1  860   2.655   2.570   0.220  1.3481 -0.9204  0.0968
   55TMC2    H2  861   3.046   2.684   0.358 -0.3589 -0.0301  0.0716
   55TMC2    C7  862   2.860   2.488   0.354 -0.0701  0.0441  0.0359
   55TMC2    C8  863   3.009   2.931   0.298  0.5765  0.9110  0.1820
   55TMC2    O1  864   2.962   2.431   0.330  0.1525  0.2934  0.8013
   55TMC2    O2  865   3.044   2.930   0.418 -0.3959 -0.3447 -0.0944
   55TMC2    O5  866   3.029   3.033   0.221 -0.0426 -0.7045  0.1906
   55TMC2    H5  867   3.020   3.021   0.124  0.8053  1.4024 -0.1563
   56MPD2     C  868   2.469   3.110  17.707 -0.1317  0.2116  0.1833
   56MPD2    C1  869   2.453   3.007   0.057 -0.1533  0.2619  0.2063
   56MPD2    C2  870   2.347   3.021   0.141  0.4448  0.3264  0.3864
   56MPD2    C3  871   2.258   3.128   0.138 -0.4030  0.4217  0.2601
   56MPD2    C4  872   2.268   3.218   0.034 -0.2208  0.3092  0.5041
   56MPD2    C5  873   2.368   3.204  17.690  0.0205  0.0734 -0.7474
   56MPD2     H  874   2.333   2.963   0.232 -1.7317  0.9516  0.4314
   56MPD2    H1  875   2.205   3.305   0.018  0.7881  0.9731  0.1578
   56MPD2    H2  876   2.562   3.119  17.652  0.4629  0.2597  1.1990
   56MPD2    H3  877   2.386   3.281  17.615  1.7163 -1.4248 -1.8709
   56MPD2     N  878   2.170   3.152   0.247 -0.0328 -0.9621 -0.0388
   56MPD2    H5  879   2.178   3.084   0.322 -2.0348  0.3648  1.3902
   56MPD2    N1  880   2.569   2.925   0.085  0.7957 -0.3492  0.1484
   56MPD2    H7  881   2.649   2.934   0.024 -0.1142 -2.5574 -1.3728
   57TMC2    C1  882   1.679   2.996  14.343 -0.0166  0.3527  1.1078
   57TMC2    C2  883   1.725   2.876  14.386  1.0199  0.5521 -0.0953
   57TMC2    C3  884   1.864   2.850  14.386  0.9399 -0.4869 -0.1827
   57TMC2    C4  885   1.768   3.100  14.323  0.4705 -0.1884  0.5936
   57TMC2    C5  886   1.905   3.075  14.339  0.7530  0.4129  0.5761
   57TMC2    C6  887   1.956   2.949  14.374 -0.0927  0.1607  0.5969
   57TMC2     C  888   1.545   3.013  14.279 -0.0784  0.5955 -0.1163
   57TMC2     O  889   1.498   3.121  14.246  0.1976 -0.0817 -0.5046
   57TMC2     H  890   1.648   2.800  14.396  0.9573  0.6707  0.3300
   57TMC2    H1  891   1.739   3.203  14.308  2.5628  0.1408 -1.2694
   57TMC2    H2  892   2.057   2.934  14.412 -0.4662 -1.8893  0.8029
   57TMC2    C7  893   1.973   3.132  14.224 -0.1487 -0.5225  0.2268
   57TMC2    C8  894   1.917   2.752  14.478  0.0665 -0.6654 -0.3436
   57TMC2    O1  895   1.968   3.251  14.213  0.7241  0.2355  0.0091
   57TMC2    O2  896   2.034   2.714  14.496 -0.4733  0.8407  0.9466
   57TMC2    O5  897   1.799   2.710  14.539  0.0049  0.1175 -0.2606
   57TMC2    H5  898   1.816   2.628  14.590  0.8450 -1.3481 -2.9054
   58MPD2     C  899   1.228   2.816  13.918  0.4846  0.4314 -0.3487
   58MPD2    C1  900   1.229   2.943  13.973  0.2297  0.2549 -0.2418
   58MPD2    C2  901   1.311   2.972  14.081  0.2060 -0.0751  0.1124
   58MPD2    C3  902   1.398   2.872  14.126  0.0119  0.8015 -0.2637
   58MPD2    C4  903   1.388   2.741  14.080  0.1245 -0.0075  0.0315
   58MPD2    C5  904   1.295   2.715  13.984  0.0032  0.4076  0.0700
   58MPD2     H  905   1.325   3.068  14.128 -0.3632  0.1364 -0.1465
   58MPD2    H1  906   1.446   2.659  14.121 -1.1406 -0.6313  0.5786
   58MPD2    H2  907   1.156   2.792  13.841  1.3588 -0.4670 -0.8799
   58MPD2    H3  908   1.291   2.615  13.942  3.9141  0.6748 -0.9941
   58MPD2     N  909   1.498   2.888  14.226 -0.2700 -0.4131 -0.4922
   58MPD2    H5  910   1.554   2.805  14.243  1.0910  0.5820 -0.1148
   58MPD2    N1  911   1.162   3.048  13.916 -0.5890 -0.6046  0.1720
   58MPD2    H7  912   1.169   3.137  13.965  0.3513 -1.2237  1.1428
   59TMC2    C1  913   3.538   3.445  12.899 -0.7978 -0.3283 -0.1273
   59TMC2    C2  914   3.523   3.327  12.968 -0.2722 -0.2532 -0.0953
   59TMC2    C3  915   3.475   3.221  12.896  0.1294  0.0430  0.4987
   59TMC2    C4  916   3.512   3.456  12.766 -0.3464 -0.5445  0.7270
   59TMC2    C5  917   3.461   3.346  12.703  0.3787 -0.4115 -0.3135
   59TMC2    C6  918   3.445   3.223  12.765  0.6781 -0.0737 -0.0558
   59TMC2     C  919   3.604   3.555  12.970  0.6933 -0.2108 -0.7130
   59TMC2     O  920   3.622   3.652  12.903  0.3689 -0.2916 -0.0923
   59TMC2     H  921   3.547   3.307  13.072 -0.9349 -4.7449 -0.8044
   59TMC2    H1  922   3.526   3.553  12.719 -1.2099 -1.9327 -2.4274
   59TMC2    H2  923   3.398   3.140  12.714  2.1825 -1.0630  0.1654
   59TMC2    C7  924   3.430   3.349  12.564  0.0987 -0.2263  0.4303
   59TMC2    C8  925   3.432   3.111  12.984  0.5104  0.6866 -0.2140
   59TMC2    O1  926   3.348   3.266  12.528 -0.0531 -0.6955  0.4148
   59TMC2    O2  927   3.417   3.132  13.101 -0.3917 -0.1810  0.0428
   59TMC2    O5  928   3.476   2.998  12.923 -0.1130 -0.3071 -0.5217
   59TMC2    H5  929   3.532   3.022  12.846 -0.4709 -1.1252 -1.0349
   60MPD2     C  930   3.760   3.745  13.134  0.5263 -0.3630 -0.5069
   60MPD2    C1  931   3.711   3.628  13.184 -0.3965 -0.0199 -0.8085
   60MPD2    C2  932   3.730   3.599  13.320  0.2253 -0.2004 -0.4485
   60MPD2    C3  933   3.802   3.681  13.408 -0.2996 -0.0196 -0.2777
   60MPD2    C4  934   3.840   3.803  13.356 -0.5421  0.1225 -0.0688
   60MPD2    C5  935   3.823   3.833  13.222 -0.1159 -0.5951  0.2332
   60MPD2     H  936   3.686   3.505  13.350 -1.4339  0.0917 -1.9606
   60MPD2    H1  937   3.890   3.877  13.418 -1.5410 -1.2081  2.3237
   60MPD2    H2  938   3.762   3.777  13.031  0.1787  1.1073 -0.0454
   60MPD2    H3  939   3.869   3.916  13.170 -0.7346 -0.1115  0.4619
   60MPD2     N  940   3.838   3.639  13.537 -0.1773 -0.2116 -0.3265
   60MPD2    H5  941   3.886   3.703  13.600 -0.5723 -0.0358 -0.2053
   60MPD2    N1  942   3.633   3.536  13.105  0.0848  0.4123 -0.3410
   60MPD2    H7  943   3.595   3.455  13.154  0.0848  1.0374  0.6877
   61TMC2    C1  944   3.316   0.008  15.330  0.0162 -0.5984  0.2280
   61TMC2    C2  945   3.220   4.702  15.423  1.2003  0.5600 -0.3336
   61TMC2    C3  946   3.161   0.062  15.494 -0.7349 -0.2331  0.0953
   61TMC2    C4  947   3.327   0.140  15.299  0.2812  0.4222 -0.3357
   61TMC2    C5  948   3.249   0.225  15.365  0.4695  0.0724  0.0940
   61TMC2    C6  949   3.171   0.195  15.467 -0.9339  0.4573  0.1027
   61TMC2     C  950   3.378   4.641  15.256 -0.3439 -0.2971  0.2233
   61TMC2     O  951   3.332   4.530  15.258 -0.1108 -0.3932 -0.6345
   61TMC2     H  952   3.207   4.595  15.437 -1.0630  0.8220 -0.5602
   61TMC2    H1  953   3.387   0.183  15.219 -2.5506  0.6848 -2.3372
   61TMC2    H2  954   3.108   0.266  15.518  0.0848  2.2740 -1.1594
   61TMC2    C7  955   3.243   0.362  15.319 -0.1758  0.6881  0.6570
   61TMC2    C8  956   3.088   0.017  15.612 -0.2682  0.0056  0.4211
   61TMC2    O1  957   3.336   0.397  15.251  0.1214  0.4289  0.4514
   61TMC2    O2  958   3.133   4.660  15.674 -0.3116  0.1907 -0.1416
   61TMC2    O5  959   2.963   0.062  15.599  0.2912 -0.1786  0.4161
   61TMC2    H5  960   2.950   0.137  15.537 -0.8400 -0.3558  0.4313
   62MPD2     C  961   3.529   4.482  15.043 -0.0603 -0.4797 -0.2005
   62MPD2    C1  962   3.562   4.611  15.086 -0.3133 -0.8597 -0.1312
   62MPD2    C2  963   3.674   4.671  15.028 -0.3536 -0.9238  0.3677
   62MPD2    C3  964   3.745   4.604  14.930 -0.3404 -0.1145 -0.5610
   62MPD2    C4  965   3.718   4.470  14.904 -0.5007  0.7470 -0.1893
   62MPD2    C5  966   3.613   4.411  14.961  0.0684 -0.1165 -0.0950
   62MPD2     H  967   3.706   0.034  15.060  1.2696 -1.0108 -0.9616
   62MPD2    H1  968   3.782   4.409  14.840  0.9429 -0.1099  2.0402
   62MPD2    H2  969   3.439   4.431  15.076 -0.5370  0.0540 -0.6726
   62MPD2    H3  970   3.594   4.306  14.942  1.8540 -0.6402  0.9352
   62MPD2     N  971   3.850   4.665  14.856 -0.1897  0.3178 -0.7155
   62MPD2    H5  972   3.875   4.620  14.768  2.1966 -1.2288  0.7489
   62MPD2    N1  973   3.488   4.683  15.188  0.0659  0.0665 -0.3779
   62MPD2    H7  974   3.517   0.042  15.210 -0.3000 -0.0978  0.8246
   63TMC2    C1  975   2.707   0.622  10.268  0.3809  0.3538  0.0766
   63TMC2    C2  976   2.695   0.624  10.401 -0.3826  0.0724 -0.5825
   63TMC2    C3  977   2.740   0.738  10.465 -0.1844 -0.0601  0.3061
   63TMC2    C4  978   2.765   0.724  10.194 -0.2168  0.1510 -0.1227
   63TMC2    C5  979   2.794   0.837  10.259  0.3433 -0.6201 -0.6146
   63TMC2    C6  980   2.770   0.848  10.391  0.2000 -1.0322  0.6027
   63TMC2     C  981   2.642   0.520  10.196 -1.0402  0.2138 -0.0560
   63TMC2     O  982   2.591   0.544  10.088  0.1436  0.1582  0.3790
   63TMC2     H  983   2.645   0.548  10.460 -0.7729  1.0289  0.3312
   63TMC2    H1  984   2.784   0.706  10.089 -0.7062 -0.8460 -0.0442
   63TMC2    H2  985   2.781   0.943  10.442  0.5427 -1.4169  1.2523
   63TMC2    C7  986   2.801   0.959  10.167 -0.3274 -0.1816 -0.3798
   63TMC2    C8  987   2.693   0.760  10.603  0.1743  0.6099  0.2269
   63TMC2    O1  988   2.809   0.942  10.047 -0.8733  0.0247  0.1587
   63TMC2    O2  989   2.599   0.835  10.635  0.3441 -0.6533 -0.3076
   63TMC2    O5  990   2.711   0.635  10.656 -0.2005  0.3260  0.2927
   63TMC2    H5  991   2.794   0.599  10.617 -0.1146  1.8130 -0.9075
   64MPD2     C  992   2.455   0.051  10.178 -0.2107 -0.1250 -0.0411
   64MPD2    C1  993   2.562   0.049  10.266 -0.2401  0.0449 -0.5989
   64MPD2    C2  994   2.634   0.164  10.283  0.6906  0.5334 -0.3725
   64MPD2    C3  995   2.594   0.281  10.220 -0.3009  0.0834 -0.3254
   64MPD2    C4  996   2.487   0.281  10.139  0.6085 -0.0840 -0.1345
   64MPD2    C5  997   2.415   0.169  10.124 -0.8984 -0.1023 -0.1344
   64MPD2     H  998   2.709   0.165  10.361 -0.7691  1.6421  1.0157
   64MPD2    H1  999   2.453   0.372  10.090  1.2315  0.2018 -0.0335
   64MPD2    H2 1000   2.401   4.700  10.142 -0.9382 -0.0943  0.9977
   64MPD2    H3 1001   2.333   0.174  10.053 -0.5550  0.4414 -0.5051
   64MPD2     N 1002   2.652   0.401  10.257  0.8184  0.5402 -0.9187
   64MPD2    H5 1003   2.718   0.399  10.334 -0.8110 -0.7492  0.4376
   64MPD2    N1 1004   2.602   4.658  10.329 -0.6164 -1.2400  0.2629
   64MPD2    H7 1005   2.680   4.665  10.394 -0.5789  0.4342  0.0323
   65TMC2    C1 1006   3.835   4.487  15.547 -0.6246 -0.6723  0.4309
   65TMC2    C2 1007   3.908   4.450  15.444  0.6262 -0.4979 -0.4594
   65TMC2    C3 1008   3.932   4.538  15.343  0.4422  0.1215  0.8719
   65TMC2    C4 1009   3.773   4.607  15.552 -0.8853 -0.3229  0.3929
   65TMC2    C5 1010   3.791   4.686  15.439 -0.3820  0.3722 -0.1606
   65TMC2    C6 1011   3.864   4.653  15.339  0.3937 -0.5328 -0.0329
   65TMC2     C 1012   3.802   4.391  15.653  0.1727  0.3972  0.2444
   65TMC2     O 1013   3.735   4.434  15.749 -0.0785 -0.1255 -0.4391
   65TMC2     H 1014   3.964   4.357  15.443  0.8197 -0.3765 -0.9286
   65TMC2    H1 1015   3.701   4.629  15.630  1.5395 -2.3154  3.1688
   65TMC2    H2 1016   3.864   4.719  15.252 -0.8444 -0.7848 -0.2276
   65TMC2    C7 1017   3.716   0.081  15.432  0.3799  0.5468  0.1238
   65TMC2    C8 1018   3.996   4.472  15.227  0.3145  0.4460 -0.0567
   65TMC2    O1 1019   3.706   0.138  15.326 -0.4919  0.1944  0.1731
   65TMC2    O2 1020   4.005   4.348  15.215 -0.4185 -0.3967  0.5826
   65TMC2    O5 1021   4.079   4.566  15.169  0.8299 -0.2629 -0.1767
   65TMC2    H5 1022   4.060   4.653  15.210  0.5935  0.4624 -1.7937
   66MPD2     C 1023   3.844   4.177  15.875 -0.4193  0.5324 -0.2376
   66MPD2    C1 1024   3.871   4.164  15.739 -0.0630 -0.5540  0.0218
   66MPD2    C2 1025   3.923   4.037  15.706 -0.0786 -0.2537 -0.3429
   66MPD2    C3 1026   3.922   3.927  15.789  0.3206  0.7429  0.0103
   66MPD2    C4 1027   3.874   3.942  15.919  0.4113 -0.0574  0.2213
   66MPD2    C5 1028   3.848   4.066  15.965 -0.4850  0.1020 -0.8377
   66MPD2     H 1029   3.953   4.030  15.602 -1.1520  1.6141 -0.7674
   66MPD2    H1 1030   3.886   3.862  15.991  0.2409 -0.1666  0.1279
   66MPD2    H2 1031   3.830   4.277  15.915  2.4347 -0.0368  2.2381
   66MPD2    H3 1032   3.821   4.071  16.070  0.2426 -1.2176 -0.5817
   66MPD2     N 1033   3.952   3.787  15.749  0.1231  0.3337  0.3853
   66MPD2    H5 1034   3.934   3.717  15.820  2.1143  0.2720  0.8355
   66MPD2    N1 1035   3.865   4.268  15.640 -0.0436 -0.1391 -0.5880
   66MPD2    H7 1036   3.910   4.253  15.550  0.8491  1.3079 -0.3790
   67TMC2    C1 1037   4.154   3.469  14.378 -0.2662  0.1419  0.6531
   67TMC2    C2 1038   4.079   3.583  14.381  0.3951  0.3468  0.0673
   67TMC2    C3 1039   4.114   3.682  14.464  0.9656  0.8099 -0.1975
   67TMC2    C4 1040   4.267   3.459  14.455 -0.1645 -0.3116 -0.1148
   67TMC2    C5 1041   4.281   3.551  14.555 -0.2079  0.5416  0.7789
   67TMC2    C6 1042   4.208   3.665  14.565 -0.0954 -0.6485 -0.1607
   67TMC2     C 1043   4.108   3.363  14.297  0.7084 -0.4438 -0.0257
   67TMC2     O 1044   4.189   3.278  14.266 -0.1700  0.2256  0.6729
   67TMC2     H 1045   3.994   3.599  14.315 -1.5515 -3.3923  1.6821
   67TMC2    H1 1046   4.333   3.373  14.449 -0.3964 -0.5173  0.3747
   67TMC2    H2 1047   4.247   3.748  14.624 -0.8893  0.3347 -1.0241
   67TMC2    C7 1048   4.405   3.551  14.635 -0.3072 -0.1870  0.6876
   67TMC2    C8 1049   4.066   3.812  14.447 -0.9309  0.2446 -0.3298
   67TMC2    O1 1050   4.508   3.501  14.586  0.2070 -0.4283  0.3341
   67TMC2    O2 1051   4.069   3.892  14.540 -0.6340  0.4801  0.1434
   67TMC2    O5 1052   4.042   3.837  14.317 -0.0223 -0.2220 -0.6258
   67TMC2    H5 1053   4.072   3.773  14.249 -2.7427 -2.3508  0.1568
   68MPD2     C 1054   3.942   3.193  14.109 -0.3059  0.0490 -0.1028
   68MPD2    C1 1055   3.890   3.290  14.194  0.2561  0.4326 -0.1171
   68MPD2    C2 1056   3.748   3.306  14.199  0.2240 -0.4790 -0.1436
   68MPD2    C3 1057   3.666   3.244  14.110  0.0350  0.7103  0.1235
   68MPD2    C4 1058   3.722   3.157  14.022  0.3343 -0.9122  0.4182
   68MPD2    C5 1059   3.853   3.133  14.027 -0.8745 -0.2042  0.1309
   68MPD2     H 1060   3.704   3.358  14.283  1.4777 -0.8213  0.7292
   68MPD2    H1 1061   3.665   3.097  13.952 -1.4560 -0.8874  1.8496
   68MPD2    H2 1062   4.049   3.182  14.096 -0.7772 -2.6693 -1.6350
   68MPD2    H3 1063   3.888   3.069  13.947  1.8455  1.0124  0.3822
   68MPD2     N 1064   3.530   3.258  14.105  0.6258 -0.4849  0.0202
   68MPD2    H5 1065   3.492   3.232  14.014 -0.4481  0.7457  0.1090
   68MPD2    N1 1066   3.976   3.367  14.281 -0.1558  0.2935 -0.3227
   68MPD2    H7 1067   3.925   3.432  14.340 -1.1951 -1.1233  0.3505
   69TMC2    C1 1068   1.483   0.127  12.490 -0.1230 -0.1575 -0.1440
   69TMC2    C2 1069   1.351   0.144  12.469 -0.4955 -0.4635  0.0087
   69TMC2    C3 1070   1.315   0.214  12.353  0.0436 -0.0806  0.6035
   69TMC2    C4 1071   1.575   0.150  12.385 -0.6013  1.0522 -0.2555
   69TMC2    C5 1072   1.538   0.206  12.268 -0.6205 -0.0124  0.3570
   69TMC2    C6 1073   1.401   0.243  12.253 -0.0643 -0.2790 -0.7174
   69TMC2     C 1074   1.523   0.041  12.599  0.0646  0.0793  0.0113
   69TMC2     O 1075   1.438   4.716  12.658 -0.1215  0.3416  0.3420
   69TMC2     H 1076   1.281   0.141  12.552  0.6643 -0.3693  0.9984
   69TMC2    H1 1077   1.677   0.113  12.378 -1.3405 -0.3056 -3.9012
   69TMC2    H2 1078   1.354   0.260  12.157 -0.9563 -2.0445 -0.5905
   69TMC2    C7 1079   1.631   0.220  12.160  0.9370  0.0922  0.1021
   69TMC2    C8 1080   1.174   0.247  12.333 -0.1404  0.2443  0.1894
   69TMC2    O1 1081   1.744   0.180  12.174  0.1118 -0.5340  0.0620
   69TMC2    O2 1082   1.143   0.326  12.245 -0.3613  0.5487  0.5234
   69TMC2    O5 1083   1.102   0.217  12.442  0.2253 -0.4397 -0.1275
   69TMC2    H5 1084   1.142   0.137  12.483 -0.6266 -0.5516  0.4776
   70MPD2     C 1085   1.852   4.717  12.745 -0.3191 -0.0960  1.1205
   70MPD2    C1 1086   1.714   4.716  12.747  0.2821 -0.4397 -0.0788
   70MPD2    C2 1087   1.643   4.624  12.827 -0.3628  0.4543  0.0015
   70MPD2    C3 1088   1.713   4.533  12.905 -0.0872 -0.2903  0.7450
   70MPD2    C4 1089   1.854   4.538  12.908  0.2757  0.6788  0.0986
   70MPD2    C5 1090   1.920   4.629  12.826 -0.8643  0.2184  0.2151
   70MPD2     H 1091   1.534   4.622  12.826 -0.3168 -1.4665 -1.0873
   70MPD2    H1 1092   1.914   4.467  12.964 -0.1144  2.4119  2.7601
   70MPD2    H2 1093   1.897   0.049  12.673 -0.7734  0.0887  1.0109
   70MPD2    H3 1094   2.028   4.624  12.820 -1.0993 -0.8053 -2.8134
   70MPD2     N 1095   1.658   4.431  12.987  0.4668  0.3745  0.2488
   70MPD2    H5 1096   1.728   4.378  13.039  0.0800 -0.2063  0.1818
   70MPD2    N1 1097   1.657   0.054  12.641 -0.2077 -0.4486  0.0273
   70MPD2    H7 1098   1.720   0.125  12.605 -0.4931  1.2767  2.8724
   71TMC2    C1 1099   3.198   0.985   1.594  0.6901  0.5557  0.4050
   71TMC2    C2 1100   3.241   1.116   1.615 -0.3802 -0.4807  0.1203
   71TMC2    C3 1101   3.156   1.202   1.680  0.2716 -0.3459  0.3837
   71TMC2    C4 1102   3.070   0.955   1.629  0.1337 -0.5027  0.3131
   71TMC2    C5 1103   3.003   1.034   1.718  0.7264  0.1156 -0.1258
   71TMC2    C6 1104   3.048   1.155   1.746 -0.4911  0.3365  0.5696
   71TMC2     C 1105   3.277   0.905   1.500 -0.1983  0.0449 -0.0601
   71TMC2     O 1106   3.373   0.966   1.450  0.2640  0.6815 -0.6603
   71TMC2     H 1107   3.340   1.149   1.587 -1.4759  0.4588 -2.6426
   71TMC2    H1 1108   3.037   0.853   1.612 -0.7094 -0.3468  1.0573
   71TMC2    H2 1109   2.979   1.222   1.796 -0.5105  0.2187  0.6984
   71TMC2    C7 1110   2.856   1.024   1.721  0.5174 -0.3865 -0.4918
   71TMC2    C8 1111   3.183   1.351   1.687 -0.5897  0.7219 -0.4927
   71TMC2    O1 1112   2.808   1.087   1.812 -0.2340  0.2064  0.2173
   71TMC2    O2 1113   3.298   1.391   1.692 -0.7765  0.7459  0.3018
   71TMC2    O5 1114   3.077   1.412   1.634  0.5186  0.1688  0.7970
   71TMC2    H5 1115   2.998   1.357   1.616 -1.6884  3.0074  1.6655
   72MPD2     C 1116   3.424   0.485   1.243  0.0275 -0.2422  0.3405
   72MPD2    C1 1117   3.477   0.610   1.245 -0.6264 -0.7114  0.0535
   72MPD2    C2 1118   3.418   0.704   1.322  1.0076  0.6549 -0.6627
   72MPD2    C3 1119   3.303   0.679   1.404  0.8452 -0.5177  0.0319
   72MPD2    C4 1120   3.259   0.548   1.401 -0.3306  0.2629 -0.0332
   72MPD2    C5 1121   3.321   0.454   1.326  0.5987 -0.2321 -0.4938
   72MPD2     H 1122   3.463   0.803   1.322  1.1331  0.5973 -0.7559
   72MPD2    H1 1123   3.174   0.517   1.461  0.8472 -1.3063  0.8321
   72MPD2    H2 1124   3.461   0.398   1.191  1.6626 -1.0276  2.8644
   72MPD2    H3 1125   3.278   0.355   1.326  0.5377 -0.1970  0.6134
   72MPD2     N 1126   3.240   0.774   1.486  0.4013  0.4995 -0.5119
   72MPD2    H5 1127   3.155   0.744   1.533  0.3324  1.5628  0.0567
   72MPD2    N1 1128   3.592   0.641   1.168  0.6390  0.2680 -0.2262
   72MPD2    H7 1129   3.628   0.734   1.184 -2.8347  1.2304  2.3150
   73TMC2    C1 1130   2.970   2.179  14.066 -0.3348 -0.2936 -0.0635
   73TMC2    C2 1131   2.963   2.161  14.205 -0.0521  0.3586  0.0604
   73TMC2    C3 1132   2.984   2.033  14.256 -0.6169 -0.2147  0.4670
   73TMC2    C4 1133   2.998   2.074  13.992 -0.3396  0.2454 -0.1115
   73TMC2    C5 1134   3.026   1.948  14.041  0.1907 -0.1820 -0.6480
   73TMC2    C6 1135   3.009   1.920  14.178 -0.2571  0.5506 -0.2091
   73TMC2     C 1136   3.059   2.289  14.028 -0.1959 -0.3305  0.6149
   73TMC2     O 1137   3.149   2.247  13.950  0.0734 -0.4100 -0.9748
   73TMC2     H 1138   2.948   2.248  14.268  1.6418  0.5796  0.1746
   73TMC2    H1 1139   2.998   2.091  13.885 -1.9133 -1.0210 -0.3244
   73TMC2    H2 1140   3.030   1.821  14.216  0.6831  1.1602  0.8369
   73TMC2    C7 1141   3.134   1.881  13.979 -0.2332  0.6988  0.2277
   73TMC2    C8 1142   2.962   2.014  14.399 -0.1492  0.6247  0.5764
   73TMC2    O1 1143   3.152   1.761  13.977 -0.3047  0.1702  0.0569
   73TMC2    O2 1144   2.931   1.905  14.445  0.1924  0.2368  0.7427
   73TMC2    O5 1145   3.016   2.118  14.465 -0.0268  0.3807  0.1246
   73TMC2    H5 1146   3.076   2.160  14.400 -1.1221  0.5302 -0.7772
   74MPD2     C 1147   3.199   2.742  13.868 -0.4121 -0.8279 -0.8704
   74MPD2    C1 1148   3.269   2.632  13.905 -0.7811  0.6815 -0.3896
   74MPD2    C2 1149   3.211   2.527  13.971  0.3750  0.1083 -0.0655
   74MPD2    C3 1150   3.069   2.522  13.987 -0.8164 -0.5115  0.3361
   74MPD2    C4 1151   2.994   2.621  13.925  0.5543 -0.7016  0.3653
   74MPD2    C5 1152   3.062   2.727  13.857 -0.6094 -0.7489 -0.4208
   74MPD2     H 1153   3.264   2.445  14.018 -1.8540 -2.2643 -1.6914
   74MPD2    H1 1154   2.887   2.611  13.914  0.5839 -1.7934  1.1184
   74MPD2    H2 1155   3.246   2.832  13.829 -0.1796 -0.9036 -0.7676
   74MPD2    H3 1156   3.008   2.807  13.808 -0.8427 -0.7719 -0.2005
   74MPD2     N 1157   3.009   2.409  14.039 -0.1765 -0.3546  0.5161
   74MPD2    H5 1158   2.912   2.412  14.069 -0.7953 -0.9270 -1.3991
   74MPD2    N1 1159   3.409   2.644  13.885 -0.4158  0.1398  0.8466
   74MPD2    H7 1160   3.438   2.732  13.844 -0.7337  0.2341  0.8218
   75TMC2    C1 1161   3.327   3.384  14.174  0.5599 -0.5562  0.1068
   75TMC2    C2 1162   3.262   3.443  14.278  0.7082 -0.2285  0.3809
   75TMC2    C3 1163   3.194   3.556  14.254  0.1824 -0.4373  0.4755
   75TMC2    C4 1164   3.312   3.429  14.043  0.0909  0.0620 -0.0608
   75TMC2    C5 1165   3.236   3.542  14.026  0.8939  0.2349 -0.6577
   75TMC2    C6 1166   3.179   3.607  14.125 -0.1626 -0.0396  0.0756
   75TMC2     C 1167   3.459   3.321  14.210  0.0529  0.9802 -0.1356
   75TMC2     O 1168   3.490   3.328  14.325 -0.2217  0.0730 -0.3271
   75TMC2     H 1169   3.269   3.403  14.379 -0.0532 -0.3962  0.3628
   75TMC2    H1 1170   3.365   3.403  13.952 -2.4960 -0.7518 -1.3108
   75TMC2    H2 1171   3.115   3.690  14.097  0.1487 -0.9025 -3.1503
   75TMC2    C7 1172   3.203   3.593  13.895  0.1683 -0.0480 -0.2534
   75TMC2    C8 1173   3.185   3.645  14.368  0.2674 -0.0124  0.0676
   75TMC2    O1 1174   3.197   3.508  13.802 -0.3135  0.1036  0.1915
   75TMC2    O2 1175   3.264   3.632  14.464  0.2869 -0.3820  0.1478
   75TMC2    O5 1176   3.066   3.705  14.362 -0.4501  0.2254 -0.2519
   75TMC2    H5 1177   3.008   3.680  14.286  0.9795 -3.1174 -0.2483
   76TMC2    C1 1178   2.098   3.905  12.008 -0.1547  0.2426 -0.5632
   76TMC2    C2 1179   1.987   3.840  11.955 -0.1848 -0.1364 -0.0123
   76TMC2    C3 1180   1.955   3.717  12.011  0.3086  0.1395 -0.1088
   76TMC2    C4 1181   2.178   3.847  12.111 -0.2175 -0.7829  0.6331
   76TMC2    C5 1182   2.152   3.714  12.148  0.1446  0.0510 -0.2108
   76TMC2    C6 1183   2.034   3.651  12.109  0.5292  0.2740  0.9317
   76TMC2     C 1184   2.142   4.033  11.951 -0.0049 -0.8810 -0.2533
   76TMC2     O 1185   2.059   4.113  11.923 -1.0612 -0.0419  0.4078
   76TMC2     H 1186   1.932   3.866  11.866 -0.4119 -0.6183 -0.0131
   76TMC2    H1 1187   2.263   3.901  12.150  0.3323 -0.8031 -0.5363
   76TMC2    H2 1188   2.015   3.548  12.135  1.1359 -0.2160 -0.5309
   76TMC2    C7 1189   2.228   3.657  12.254 -0.0479 -0.2339 -0.1394
   76TMC2    C8 1190   1.842   3.648  11.962  0.2370  0.4708 -0.5969
   76TMC2    O1 1191   2.178   3.563  12.317 -0.2980  0.5456 -0.5159
   76TMC2    O2 1192   1.788   3.673  11.855  0.3285  0.2287 -0.0212
   76TMC2    O5 1193   1.779   3.598  12.069  0.6570  0.0075 -0.5315
   76TMC2    H5 1194   1.833   3.603  12.151 -1.4115 -1.7595  0.9378
   77MPD2     C 1195   2.511   4.341  11.774 -0.0559  0.5844  0.4000
   77MPD2    C1 1196   2.378   4.367  11.795  0.0056  1.2053  0.7705
   77MPD2    C2 1197   2.299   4.274  11.841  0.0646 -0.0175 -0.7996
   77MPD2    C3 1198   2.350   4.145  11.876 -0.0251 -0.0412 -0.2063
   77MPD2    C4 1199   2.487   4.126  11.857 -0.5064 -0.7589  0.4043
   77MPD2    C5 1200   2.568   4.225  11.817  1.4124 -0.3579 -0.4988
   77MPD2     H 1201   2.192   4.291  11.832  0.2660  1.4586 -0.4233
   77MPD2    H1 1202   2.528   4.033  11.894  1.8816  0.1456 -0.0134
   77MPD2    H2 1203   2.583   4.407  11.726  0.4632 -0.5584 -0.4058
   77MPD2    H3 1204   2.677   4.224  11.819  1.3525 -0.0859  2.4474
   77MPD2     N 1205   2.276   4.042  11.937 -0.1777 -0.2066 -0.2309
   77MPD2    H5 1206   2.325   3.957  11.961  1.0053  0.1366 -1.4405
   77MPD2    N1 1207   2.320   4.492  11.767  0.4417  0.2896 -0.1684
   77MPD2    H7 1208   2.219   4.508  11.771  0.4431  0.9143 -2.3821
   78TMC2    C1 1209   3.472   0.483   1.696 -0.2196 -0.1754  0.9614
   78TMC2    C2 1210   3.371   0.396   1.671  0.1881 -0.2976  0.4714
   78TMC2    C3 1211   3.405   0.285   1.605 -0.0758  0.0112  0.3691
   78TMC2    C4 1212   3.604   0.463   1.664  0.2093  0.3559  0.0504
   78TMC2    C5 1213   3.629   0.345   1.601 -0.3032  0.8686 -0.2479
   78TMC2    C6 1214   3.533   0.246   1.582  0.4616 -0.7566 -0.0483
   78TMC2     C 1215   3.438   0.607   1.765 -0.2990  0.9245  0.1175
   78TMC2     O 1216   3.330   0.619   1.817 -0.5729  0.3788 -0.3858
   78TMC2     H 1217   3.272   0.417   1.710  0.7739  0.5146  1.5096
   78TMC2    H1 1218   3.686   0.528   1.692 -0.1318  0.9264 -0.2649
   78TMC2    H2 1219   3.549   0.153   1.529  0.7302 -1.1717  0.7536
   78TMC2    C7 1220   3.759   0.323   1.557  0.0265 -0.2028  0.3347
   78TMC2    C8 1221   3.298   0.194   1.582  0.3825 -0.3243 -0.3038
   78TMC2    O1 1222   3.825   0.418   1.514 -0.1196 -0.3935 -0.1060
   78TMC2    O2 1223   3.185   0.226   1.553  0.5291  0.8376 -0.0080
   78TMC2    O5 1224   3.339   0.066   1.582  0.2716 -0.3489  0.4377
   78TMC2    H5 1225   3.432   0.048   1.609  0.3754 -0.9503 -0.3294
   79MPD1     C 1226   3.578   1.094   1.840  0.1855 -0.0934 -0.3534
   79MPD1    C1 1227   3.454   1.032   1.875 -0.3035 -0.6079  0.0345
   79MPD1    C2 1228   3.436   0.897   1.845  0.0062  0.1164 -0.2356
   79MPD1    C3 1229   3.529   0.835   1.767  0.6862  0.1004 -0.4547
   79MPD1    C4 1230   3.646   0.902   1.724 -0.2886 -0.8745 -0.1768
   79MPD1    C5 1231   3.674   1.023   1.771 -0.2944 -0.0748 -0.0933
   79MPD1     H 1232   3.346   0.848   1.881  0.7372 -1.8334 -1.0864
   79MPD1    H1 1233   3.727   0.851   1.674  0.0037  0.6485 -1.2753
   79MPD1    H2 1234   3.610   1.193   1.871  0.8960 -0.5382  0.3355
   79MPD1    H3 1235   3.774   1.057   1.749 -1.0094  1.1050 -1.4957
   79MPD1     N 1236   3.529   0.701   1.730  0.3262 -0.4061 -0.2496
   79MPD1    H5 1237   3.614   0.673   1.681  0.3478 -1.4585  0.3824
   79MPD1    N1 1238   3.371   1.102   1.969  0.4008  0.4367 -0.1780
   79MPD1    H6 1239   3.271   1.083   1.965  0.4749 -0.3611  1.5905
   79MPD1    H7 1240   3.384   1.202   1.960 -0.4167  0.5532 -0.0210
   80TMC2    C1 1241   0.698   3.255  11.761 -0.5367  0.0259  0.1529
   80TMC2    C2 1242   0.693   3.200  11.637  0.3127 -0.1154  0.0074
   80TMC2    C3 1243   0.673   3.068  11.623 -0.4030 -0.3815 -0.1213
   80TMC2    C4 1244   0.700   3.181  11.876  0.0472 -0.2986 -0.2404
   80TMC2    C5 1245   0.676   3.045  11.858  0.2116 -0.1261 -0.4085
   80TMC2    C6 1246   0.658   2.986  11.731  0.3066  0.1316  0.2847
   80TMC2     C 1247   0.678   3.400  11.761 -0.0195  0.4843  0.2699
   80TMC2     O 1248   0.716   3.462  11.664 -0.5609 -0.4397  0.6979
   80TMC2     H 1249   0.684   3.268  11.553  2.4536 -0.6148 -0.6394
   80TMC2    H1 1250   0.711   3.225  11.974  0.5027  0.7326 -0.7593
   80TMC2    H2 1251   0.650   2.879  11.720  1.4488  0.1875 -1.1068
   80TMC2    C7 1252   0.704   2.953  11.966  1.0914  0.1550 -0.4507
   80TMC2    C8 1253   0.684   3.002  11.493 -0.4877  0.4103  0.2953
   80TMC2    O1 1254   0.702   2.835  11.940 -0.4359 -0.0033  0.3953
   80TMC2    O2 1255   0.654   2.883  11.475  0.1175 -0.0301  0.1267
   80TMC2    O5 1256   0.783   3.067  11.419  0.6779  0.0783  0.4067
   80TMC2    H5 1257   0.817   3.153  11.450  0.0045  0.6533 -0.4736
   81MPD2     C 1258   0.649   3.684  11.833 -0.3645 -1.2088 -0.5658
   81MPD2    C1 1259   0.615   3.579  11.921 -0.9668 -0.1133 -0.4719
   81MPD2    C2 1260   0.580   3.612  12.054  0.1543  0.6056  0.1030
   81MPD2    C3 1261   0.562   3.745  12.097 -0.1345  0.4079  0.1035
   81MPD2    C4 1262   0.580   3.845  12.009 -0.4502 -0.2183 -0.6506
   81MPD2    C5 1263   0.627   3.812  11.882  0.2224  0.3328 -0.7796
   81MPD2     H 1264   0.567   3.535  12.128 -0.5606 -0.0804 -0.7392
   81MPD2    H1 1265   0.562   3.950  12.030  0.2940  0.0548 -1.4315
   81MPD2    H2 1266   0.675   3.676  11.729 -0.0216 -0.9715 -0.4981
   81MPD2    H3 1267   0.662   3.896  11.822  2.5832 -1.0448 -1.3049
   81MPD2     N 1268   0.525   3.774  12.231  0.4378 -0.3985 -0.1508
   81MPD2    H5 1269   0.512   3.871  12.258  0.9898 -0.3047 -0.2144
   81MPD2    N1 1270   0.635   3.443  11.883 -0.2220  0.0836  0.5630
   81MPD2    H7 1271   0.610   3.372  11.951 -1.0699  1.1748  1.3890
   82TMC2    C1 1272   4.289   3.485  11.796 -0.0528 -0.2204  0.2966
   82TMC2    C2 1273   4.258   3.546  11.914  1.1690 -0.1903 -0.0752
   82TMC2    C3 1274   4.237   3.470  12.021  0.6481  0.7292  0.2395
   82TMC2    C4 1275   4.295   3.352  11.782  0.3034  0.1538  0.8052
   82TMC2    C5 1276   4.268   3.283  11.894  0.1974  0.4445 -0.2897
   82TMC2    C6 1277   4.245   3.334  12.020  0.0961 -0.3560 -0.2807
   82TMC2     C 1278   4.243   3.554  11.676  0.3716 -0.1144 -0.0068
   82TMC2     O 1279   4.195   3.485  11.588 -0.0730  0.6745  0.0221
   82TMC2     H 1280   4.252   3.653  11.932 -1.0338 -0.5077  1.1145
   82TMC2    H1 1281   4.294   3.310  11.682  0.8527  0.3997  0.6982
   82TMC2    H2 1282   4.220   3.280  12.110  1.7575 -1.5781 -0.5537
   82TMC2    C7 1283   4.267   3.141  11.891 -0.9414  0.2357 -0.7363
   82TMC2    C8 1284   4.229   3.533  12.153 -0.4398 -0.0458  0.1789
   82TMC2    O1 1285   4.246   3.097  12.007  0.6447  0.0295 -0.1241
   82TMC2    O2 1286   4.303   3.618  12.197 -0.2138  0.0140  0.2041
   82TMC2    O5 1287   4.108   3.498  12.198  0.2837 -0.0709  0.1532
   82TMC2    H5 1288   4.058   3.456  12.125  0.3687 -0.6808  0.4449
   83MPD2     C 1289   4.213   3.962  11.379 -0.8143 -0.1781 -0.4713
   83MPD2    C1 1290   4.137   3.846  11.378  0.4720 -0.2101 -0.7151
   83MPD2    C2 1291   4.169   3.749  11.469 -0.1165 -0.1760  0.1978
   83MPD2    C3 1292   4.257   3.783  11.579 -0.9643 -0.3910  0.2137
   83MPD2    C4 1293   4.324   3.902  11.579 -0.0008 -0.3450 -0.7439
   83MPD2    C5 1294   4.300   3.995  11.479  0.2080  0.4607 -0.9035
   83MPD2     H 1295   4.117   3.654  11.463  0.5560 -0.5182 -0.1690
   83MPD2    H1 1296   4.397   3.917  11.657 -0.1801  2.4260 -1.0871
   83MPD2    H2 1297   4.196   4.038  11.304 -0.1474  1.7473  1.3155
   83MPD2    H3 1298   4.346   4.092  11.493  1.5257 -0.3581  0.5383
   83MPD2     N 1299   4.277   3.687  11.681 -0.8527 -0.1406  0.2931
   83MPD2    H5 1300   4.331   3.708  11.765  0.7465  0.2580 -0.8280
   83MPD2    N1 1301   4.036   3.836  11.286 -0.1436  0.0680  0.4467
   83MPD2    H7 1302   4.028   3.895  11.204  0.5976  0.3129  0.5484
   84TMC2    C1 1303   0.461   2.547  10.938 -0.0461 -0.3222 -0.2838
   84TMC2    C2 1304   0.454   2.417  10.916 -0.3960 -0.5608  0.2694
   84TMC2    C3 1305   0.568   2.349  10.888 -0.0625 -0.1394 -0.5238
   84TMC2    C4 1306   0.584   2.615  10.930  0.2621 -0.0886 -0.1393
   84TMC2    C5 1307   0.695   2.542  10.917  0.6240  0.4901  0.0376
   84TMC2    C6 1308   0.690   2.404  10.892  0.4785 -0.3367 -0.0093
   84TMC2     C 1309   0.347   2.615  10.984 -0.1439  0.4808 -0.2290
   84TMC2     O 1310   0.365   2.737  10.984 -0.1394  0.1665  0.5010
   84TMC2     H 1311   0.357   2.373  10.900 -0.1191  0.6061 -4.7663
   84TMC2    H1 1312   0.590   2.722  10.950 -1.2073 -0.2262  1.0534
   84TMC2    H2 1313   0.785   2.355  10.875 -0.7308 -2.2577 -1.3243
   84TMC2    C7 1314   0.820   2.619  10.916 -0.1893  0.1739 -0.5163
   84TMC2    C8 1315   0.561   2.206  10.899 -0.1541 -0.3625 -0.0255
   84TMC2    O1 1316   0.798   2.739  10.894 -0.4614  0.2774  0.2327
   84TMC2    O2 1317   0.459   2.147  10.879  0.3687 -0.2358 -0.2240
   84TMC2    O5 1318   0.657   2.165  10.990  0.5796 -0.1040  0.4773
   84TMC2    H5 1319   0.713   2.240  11.019  1.5784 -0.8323  0.4510
   85TMC2    C1 1320   1.382   0.588  15.747  1.0417 -0.8199  0.3704
   85TMC2    C2 1321   1.247   0.568  15.733  0.0472 -0.0084  0.1699
   85TMC2    C3 1322   1.189   0.651  15.644  0.3833  0.4572  0.4841
   85TMC2    C4 1323   1.445   0.697  15.691  0.2332 -0.0047  0.6186
   85TMC2    C5 1324   1.377   0.774  15.606 -1.0395  0.1066  1.1653
   85TMC2    C6 1325   1.248   0.744  15.570  0.4150  0.7630 -0.6494
   85TMC2     C 1326   1.443   0.507  15.852 -0.3219  0.3009  1.0248
   85TMC2     O 1327   1.527   0.562  15.920 -0.2047 -0.3189 -0.2869
   85TMC2     H 1328   1.184   0.500  15.789 -0.8795  1.6662  1.1677
   85TMC2    H1 1329   1.550   0.717  15.709  0.8453 -3.5495  0.9850
   85TMC2    H2 1330   1.180   0.783  15.496 -2.0098 -0.4113  0.9766
   85TMC2    C7 1331   1.443   0.887  15.553  0.2903 -1.1320 -0.3668
   85TMC2    C8 1332   1.058   0.631  15.606 -0.1856 -0.8602 -0.3114
   85TMC2    O1 1333   1.557   0.913  15.595 -0.1613  0.0422 -0.0535
   85TMC2    O2 1334   1.002   0.521  15.609  0.3329  0.1897  0.9759
   85TMC2    O5 1335   0.994   0.737  15.649 -0.0926  0.4774  0.5916
   85TMC2    H5 1336   1.040   0.823  15.663  0.8558 -0.0145  0.5252
   86MPD2     C 1337   1.476   0.093  16.143 -0.1220 -0.1940 -0.1218
   86MPD2    C1 1338   1.388   0.071  16.045 -0.0393 -0.2943  0.4301
   86MPD2    C2 1339   1.369   0.159  15.938  0.3496 -0.7564 -0.5657
   86MPD2    C3 1340   1.422   0.285  15.947 -0.1255  0.3895 -0.6725
   86MPD2    C4 1341   1.505   0.315  16.057  0.0223  0.3238  0.4508
   86MPD2    C5 1342   1.533   0.216  16.149  0.5064 -0.0889 -0.9282
   86MPD2     H 1343   1.298   0.135  15.860  2.2813 -1.3063 -2.1487
   86MPD2    H1 1344   1.555   0.408  16.077  0.1320  0.2393  0.5686
   86MPD2    H2 1345   1.503   0.020  16.219  1.0628  1.3359  0.9187
   86MPD2    H3 1346   1.599   0.230  16.234 -0.3265 -0.9584 -0.1343
   86MPD2     N 1347   1.399   0.381  15.847  0.4123 -0.0884 -0.4043
   86MPD2    H5 1348   1.342   0.353  15.768  1.7736 -1.8735 -0.7769
   86MPD2    N1 1349   1.304   4.688  16.050  0.3231  0.9257  0.8134
   86MPD2    H7 1350   1.255   4.666  15.964  1.6294  3.1050 -0.4983
   87TMC2    C1 1351   4.414   3.874   0.629  0.9584  0.6822 -0.8761
   87TMC2    C2 1352   4.546   3.910   0.629  1.0738 -0.5276 -0.0391
   87TMC2    C3 1353   4.586   4.010   0.715 -0.2709  0.2855  0.4714
   87TMC2    C4 1354   4.328   3.924   0.722  0.0221  0.2506  0.4170
   87TMC2    C5 1355   4.380   4.003   0.820 -0.3800 -0.3359 -0.3144
   87TMC2    C6 1356   4.502   4.054   0.808 -0.1623  0.2198 -0.2164
   87TMC2     C 1357   4.385   3.758   0.537 -0.2859  0.3480  0.3276
   87TMC2     O 1358   4.472   3.707   0.469  0.3384  0.1495 -0.4531
   87TMC2     H 1359   4.610   3.856   0.560  1.8591  0.1685  0.1359
   87TMC2    H1 1360   4.221   3.908   0.709  0.3824  0.0230 -2.1512
   87TMC2    H2 1361   4.532   4.138   0.870 -1.6150  0.4866  0.1191
   87TMC2    C7 1362   4.290   4.067   0.921 -0.6784 -0.1979 -0.3173
   87TMC2    C8 1363   4.695   4.102   0.691 -0.0049  0.2922 -0.5763
   87TMC2    O1 1364   4.331   4.167   0.982  0.0075  0.0112 -0.4665
   87TMC2    O2 1365   4.667   4.221   0.679  0.6714  0.1325 -0.4513
   87TMC2    O5 1366   0.041   4.037   0.612 -0.2537 -0.1029 -0.2486
   87TMC2    H5 1367   0.072   3.945   0.628 -0.8646 -0.0805  1.0622
   88MPD2     C 1368   3.947   3.973   1.001  0.8017  0.6581 -0.2294
   88MPD2    C1 1369   4.049   4.062   0.989  0.1554 -0.3142 -0.6603
   88MPD2    C2 1370   4.045   4.187   1.044 -0.1021 -0.6451 -0.1688
   88MPD2    C3 1371   3.925   4.233   1.108  0.8393  0.4738  0.2321
   88MPD2    C4 1372   3.821   4.139   1.122  0.5286 -0.1976  0.5802
   88MPD2    C5 1373   3.836   4.015   1.074 -0.8003  0.7757  0.4364
   88MPD2     H 1374   4.117   4.264   1.020 -2.8401  1.0983 -2.7813
   88MPD2    H1 1375   3.733   4.167   1.179 -0.6583  0.1017 -1.3860
   88MPD2    H2 1376   3.950   3.868   0.974  0.8389  0.4355  0.6215
   88MPD2    H3 1377   3.768   3.933   1.094 -0.6150  0.4453 -0.2704
   88MPD2     N 1378   3.901   4.358   1.163 -0.0952 -0.2038 -0.7523
   88MPD2    H5 1379   3.803   4.373   1.186 -0.5116 -0.9982 -2.0365
   88MPD2    N1 1380   4.163   4.011   0.922 -0.2805  0.0422 -0.2238
   88MPD2    H7 1381   4.149   3.925   0.870 -1.3033  0.5748 -0.8348
   89TMC2    C1 1382   4.449   2.831   1.583 -0.5013 -0.0486 -0.4315
   89TMC2    C2 1383   4.343   2.889   1.636 -0.1934 -0.9997 -0.2738
   89TMC2    C3 1384   4.346   3.030   1.629  0.2124  0.0841 -0.7799
   89TMC2    C4 1385   4.563   2.903   1.541  0.3151 -0.7765  0.1676
   89TMC2    C5 1386   4.556   3.043   1.540  0.2061 -1.4914  0.3482
   89TMC2    C6 1387   4.448   3.103   1.585 -0.5142  0.1061 -0.1462
   89TMC2     C 1388   4.465   2.689   1.612 -0.3620  0.5148 -0.5305
   89TMC2     O 1389   4.575   2.642   1.597  0.7376 -0.2418 -0.0803
   89TMC2     H 1390   4.256   2.832   1.667  0.1316 -1.0186  0.6147
   89TMC2    H1 1391   4.657   2.852   1.523  1.0334  1.4904 -2.4218
   89TMC2    H2 1392   4.448   3.210   1.569  1.6123  0.1646  0.2470
   89TMC2    C7 1393   4.650   3.116   1.454 -0.8076  0.2763  0.7247
   89TMC2    C8 1394   4.241   3.097   1.704  0.2487  0.5033 -0.3992
   89TMC2    O1 1395   4.644   3.237   1.465  0.3875 -0.0243  0.0970
   89TMC2    O2 1396   4.129   3.051   1.714 -0.0139 -0.7070 -0.2068
   89TMC2    O5 1397   4.267   3.228   1.705 -0.2840 -0.1218  0.1010
   89TMC2    H5 1398   4.362   3.239   1.727 -0.4852  0.8329  0.5307
   90MPD2     C 1399   4.323   2.198   1.623 -0.6643  0.2734 -0.3052
   90MPD2    C1 1400   4.208   2.275   1.641 -0.2233  0.0726 -0.2236
   90MPD2    C2 1401   4.214   2.411   1.622 -0.1431 -0.5673  1.0525
   90MPD2    C3 1402   4.334   2.475   1.591 -0.2085  0.0279  0.2658
   90MPD2    C4 1403   4.436   2.393   1.552  0.2667 -0.1406 -0.0884
   90MPD2    C5 1404   4.431   2.260   1.566  0.0285  0.3952  0.5192
   90MPD2     H 1405   4.129   2.477   1.627 -1.7257 -2.4604 -1.2500
   90MPD2    H1 1406   4.523   2.442   1.510  0.4987  0.5993  1.2297
   90MPD2    H2 1407   4.312   2.090   1.617 -1.7023  0.5148 -2.9911
   90MPD2    H3 1408   4.519   2.205   1.533 -0.5725  0.2934 -0.8816
   90MPD2     N 1409   4.343   2.617   1.594 -0.3318 -0.1300  0.3529
   90MPD2    H5 1410   4.263   2.676   1.612  0.7678  1.0146  1.5636
   90MPD2    N1 1411   4.079   2.213   1.665 -0.0751 -0.0656 -0.5581
   90MPD2    H7 1412   3.999   2.276   1.664  0.5597  0.7871  1.3279
   91TMC2    C1 1413   1.281   1.379  16.651 -0.6216  0.3140  0.4975
   91TMC2    C2 1414   1.348   1.325  16.759  0.4824 -0.4819  0.1169
   91TMC2    C3 1415   1.284   1.221  16.816 -0.4722 -0.7091  0.0358
   91TMC2    C4 1416   1.162   1.338  16.604  0.8918  0.3526  0.5004
   91TMC2    C5 1417   1.106   1.234  16.667  0.0295  0.0697  0.0691
   91TMC2    C6 1418   1.165   1.165  16.765  0.1873 -0.0983 -0.4598
   91TMC2     C 1419   1.332   1.503  16.595 -0.2449  0.0248  0.1075
   91TMC2     O 1420   1.248   1.586  16.557  0.0691  0.0746 -0.2401
   91TMC2     H 1421   1.426   1.373  16.817 -0.3058  0.0886  0.7106
   91TMC2    H1 1422   1.119   1.378  16.513 -0.4425  0.4797  1.1903
   91TMC2    H2 1423   1.118   1.086  16.821 -1.2561  2.2874  1.6662
   91TMC2    C7 1424   0.982   1.176  16.616  0.1154 -0.6128  0.0129
   91TMC2    C8 1425   1.320   1.174  16.954  0.1464  0.4375  0.3561
   91TMC2    O1 1426   0.947   1.065  16.657 -0.2616 -0.1124  0.6113
   91TMC2    O2 1427   1.231   1.118  17.013 -0.1590  0.3566  0.2571
   91TMC2    O5 1428   1.453   1.150  16.951 -0.3299  0.3175  0.5300
   91TMC2    H5 1429   1.509   1.202  16.889 -1.5859 -0.6483 -1.4027
   92MPD2     C 1430   1.493   1.738  16.500 -1.0446 -0.1027  0.1218
   92MPD2    C1 1431   1.550   1.621  16.543 -0.7804  0.2625  0.3345
   92MPD2    C2 1432   1.688   1.609  16.552 -0.8693 -0.3167 -0.4598
   92MPD2    C3 1433   1.767   1.717  16.518 -0.0960 -0.9690 -0.7181
   92MPD2    C4 1434   1.708   1.839  16.477 -1.3457 -0.5062 -0.3780
   92MPD2    C5 1435   1.572   1.846  16.466 -0.1777 -0.5038  0.6651
   92MPD2     H 1436   1.735   1.517  16.585  1.3885  0.6919 -0.8622
   92MPD2    H1 1437   1.760   1.933  16.461 -2.1521  0.1558  0.8619
   92MPD2    H2 1438   1.386   1.745  16.489 -1.1331 -1.0315  0.4037
   92MPD2    H3 1439   1.533   1.936  16.420  1.0650  0.2026  0.9993
   92MPD2     N 1440   1.910   1.696  16.528 -0.4080 -0.2193  0.3699
   92MPD2    H5 1441   1.944   1.610  16.568 -0.7309  0.0860  1.3186
   92MPD2    N1 1442   1.474   1.510  16.587  0.1155 -0.3680 -0.5652
   92MPD2    H7 1443   1.512   1.417  16.600 -1.8774 -1.0883  0.2467
   93TMC2    C1 1444   3.490   1.649  14.095 -0.1066  0.8247  0.1868
   93TMC2    C2 1445   3.404   1.739  14.158 -0.3559 -0.3276 -0.2125
   93TMC2    C3 1446   3.461   1.852  14.194 -0.0516  0.2778 -0.6273
   93TMC2    C4 1447   3.619   1.674  14.061  0.2161  0.0703  0.9319
   93TMC2    C5 1448   3.670   1.799  14.087  0.0950 -0.1539 -0.1869
   93TMC2    C6 1449   3.595   1.891  14.166 -0.1903  0.1030  0.2713
   93TMC2     C 1450   3.443   1.518  14.059  0.2511 -0.3441  0.1308
   93TMC2     O 1451   3.525   1.427  14.054 -0.1745 -0.4547  0.0357
   93TMC2     H 1452   3.301   1.710  14.176 -0.3160 -0.9558 -0.9859
   93TMC2    H1 1453   3.673   1.598  14.006  1.8369  0.9392  1.3189
   93TMC2    H2 1454   3.645   1.981  14.199  1.8017 -1.1563  0.6694
   93TMC2    C7 1455   3.776   1.837  14.003 -0.7464 -0.2577 -0.2079
   93TMC2    C8 1456   3.371   1.958  14.231 -0.1840  0.2197 -0.0953
   93TMC2    O1 1457   3.849   1.742  13.967 -0.9869  0.2296 -0.6663
   93TMC2    O2 1458   3.380   2.073  14.188 -0.3188  0.0918 -0.1086
   93TMC2    O5 1459   3.280   1.921  14.330 -0.1306 -0.0622  0.3747
   93TMC2    H5 1460   3.301   1.831  14.361 -0.8450 -1.3462 -2.8145
   94MPD2     C 1461   3.265   1.279  14.064  1.0764  0.1995 -0.1115
   94MPD2    C1 1462   3.224   1.405  14.020  0.5041 -0.4200 -0.0500
   94MPD2    C2 1463   3.094   1.417  13.992 -0.3837  0.0475  0.2028
   94MPD2    C3 1464   2.996   1.314  13.992 -0.5870  0.0350  0.7251
   94MPD2    C4 1465   3.040   1.195  14.037  0.0415  0.0603  0.5225
   94MPD2    C5 1466   3.173   1.176  14.068  0.5582 -0.6014  0.4595
   94MPD2     H 1467   3.061   1.516  13.961  0.2550  0.5204  1.0258
   94MPD2    H1 1468   2.977   1.108  14.029 -0.1764  0.2798 -0.1738
   94MPD2    H2 1469   3.368   1.272  14.098  1.1825 -2.0013 -0.9199
   94MPD2    H3 1470   3.206   1.078  14.099  2.4793  0.4120  1.6208
   94MPD2     N 1471   2.858   1.335  13.956 -0.2808  0.3354  0.3272
   94MPD2    H5 1472   2.790   1.262  13.979  0.5590 -0.6605 -0.3296
   94MPD2    N1 1473   3.304   1.517  14.022  0.2411 -0.0046 -0.2850
   94MPD2    H7 1474   3.262   1.607  14.002 -0.5816 -0.0479  1.2585
   95TMC2    C1 1475   3.101   3.297  15.464  0.5051 -0.7026 -0.1954
   95TMC2    C2 1476   3.012   3.200  15.501 -0.6516  0.7485 -0.2400
   95TMC2    C3 1477   2.882   3.230  15.491 -0.1404 -0.0806 -0.5828
   95TMC2    C4 1478   3.069   3.429  15.439  0.0844 -0.9675 -0.0133
   95TMC2    C5 1479   2.938   3.455  15.442 -0.2539 -0.1944  1.1734
   95TMC2    C6 1480   2.841   3.361  15.459 -0.5567 -0.0995  0.1906
   95TMC2     C 1481   3.236   3.272  15.508 -0.3298 -0.0130  0.3226
   95TMC2     O 1482   3.293   3.366  15.554  0.2898  0.1723  0.1515
   95TMC2     H 1483   3.044   3.102  15.535 -1.9052 -0.5197 -2.6716
   95TMC2    H1 1484   3.142   3.498  15.398 -1.9810 -0.2754 -2.5033
   95TMC2    H2 1485   2.741   3.397  15.479 -0.1341  0.5403  1.1581
   95TMC2    C7 1486   2.893   3.596  15.444  0.4048 -0.5953  0.5749
   95TMC2    C8 1487   2.779   3.130  15.504  0.2553 -0.5163 -0.5321
   95TMC2    O1 1488   2.959   3.671  15.376  0.1933  0.2878  0.3634
   95TMC2    O2 1489   2.684   3.139  15.582 -0.4209 -1.0229  0.2818
   95TMC2    O5 1490   2.795   3.046  15.402 -0.2115  0.1467 -0.0271
   95TMC2    H5 1491   2.872   3.062  15.345 -1.6831  2.6337 -1.3347
   96MPD2     C 1492   3.681   3.013  15.481 -0.8548 -0.4518  0.3467
   96MPD2    C1 1493   3.657   3.135  15.541  0.4554 -0.6399  0.0462
   96MPD2    C2 1494   3.523   3.180  15.550  0.7807  0.3471 -0.6191
   96MPD2    C3 1495   3.419   3.103  15.518 -0.4916 -0.1561 -0.5228
   96MPD2    C4 1496   3.448   2.987  15.447 -0.7052 -0.2695 -0.0565
   96MPD2    C5 1497   3.578   2.940  15.436 -0.4737 -0.3620 -0.0359
   96MPD2     H 1498   3.508   3.275  15.599 -1.4652 -0.7798  0.8945
   96MPD2    H1 1499   3.379   2.915  15.405  1.1430 -1.2708 -1.3785
   96MPD2    H2 1500   3.781   2.984  15.449 -1.0348 -1.1341  0.4121
   96MPD2    H3 1501   3.599   2.851  15.379 -0.7053  0.5709 -1.5940
   96MPD2     N 1502   3.286   3.142  15.507 -0.0296  0.2703  0.2531
   96MPD2    H5 1503   3.222   3.071  15.473 -1.3365  1.8593 -0.5845
   96MPD2    N1 1504   3.773   3.215  15.573 -0.3468 -0.4794  0.0263
   96MPD2    H7 1505   3.866   3.178  15.555 -0.1165 -0.9575  2.1184
   97TMC2    C1 1506   1.087   1.460  17.503  0.1201  0.1085  0.2806
   97TMC2    C2 1507   1.003   1.420  17.402  0.2113 -0.2118 -0.5196
   97TMC2    C3 1508   1.011   1.489  17.284  0.2310  0.1610  0.2413
   97TMC2    C4 1509   1.165   1.572  17.488 -0.7098 -0.7454  0.3076
   97TMC2    C5 1510   1.161   1.647  17.375  0.4188 -0.4023  0.0088
   97TMC2    C6 1511   1.086   1.606  17.265  0.0361 -0.6845  0.1506
   97TMC2     C 1512   1.093   1.377  17.618  0.3783  0.3988  0.5260
   97TMC2     O 1513   1.015   1.288  17.631  0.3936 -0.1356 -0.5850
   97TMC2     H 1514   0.951   1.325  17.394 -1.5589  0.7795 -0.7134
   97TMC2    H1 1515   1.227   1.608  17.569  0.4842  0.0455 -0.9633
   97TMC2    H2 1516   1.083   1.658  17.170  0.1229  0.3394  0.7020
   97TMC2    C7 1517   1.235   1.769  17.373  0.2526  1.0067  0.1725
   97TMC2    C8 1518   0.937   1.441  17.170 -0.1944 -0.0989  0.0340
   97TMC2    O1 1519   1.326   1.781  17.454  0.0915  0.3871 -0.1907
   97TMC2    O2 1520   0.841   1.368  17.178 -0.0287 -0.2795  0.5415
   97TMC2    O5 1521   1.004   1.459  17.053  0.1569  0.1224  0.2268
   97TMC2    H5 1522   1.089   1.507  17.064  0.1187  0.4133 -0.7542
   98MPD2     C 1523   1.393   1.120   0.217 -0.1060  0.1771  0.8386
   98MPD2    C1 1524   1.255   1.120   0.207 -0.3919  0.0361 -0.6026
   98MPD2    C2 1525   1.198   1.206   0.110  0.2337  0.3602 -0.0581
   98MPD2    C3 1526   1.272   1.300   0.038 -0.5765  0.1226  0.5245
   98MPD2    C4 1527   1.407   1.297   0.059 -0.4530  0.3488  0.0769
   98MPD2    C5 1528   1.470   1.209   0.147  0.2584 -0.0076 -0.0294
   98MPD2     H 1529   1.093   1.213   0.086 -0.2913  0.2917  2.1936
   98MPD2    H1 1530   1.470   1.369   0.007  0.4005  0.5009  1.3188
   98MPD2    H2 1531   1.444   1.054   0.286 -1.8930 -2.7919 -0.7140
   98MPD2    H3 1532   1.577   1.221   0.158  0.0509  1.3942  0.5124
   98MPD2     N 1533   1.217   1.383  17.673 -0.1846  0.2436  0.0099
   98MPD2    H5 1534   1.277   1.454  17.631  1.9849 -0.5204  1.8099
   98MPD2    N1 1535   1.178   1.027   0.288  0.7114 -0.3836 -0.3375
   98MPD2    H7 1536   1.219   0.961   0.354  1.2473 -1.8759 -2.1779
   99TMC2    C1 1537   4.453   3.394   1.241 -0.0999 -0.0471 -0.1414
   99TMC2    C2 1538   4.503   3.496   1.316 -0.0973  0.7274  0.4514
   99TMC2    C3 1539   4.416   3.566   1.394 -0.6269 -0.4503  0.0152
   99TMC2    C4 1540   4.320   3.358   1.248 -0.3330 -0.6862  0.2204
   99TMC2    C5 1541   4.238   3.428   1.332 -0.0638  0.7313 -0.1460
   99TMC2    C6 1542   4.283   3.539   1.402  0.0428 -0.0411 -0.5908
   99TMC2     C 1543   4.533   3.348   1.130 -0.2055  0.0794 -0.4635
   99TMC2     O 1544   4.636   3.413   1.106  0.4274 -0.0461 -0.2430
   99TMC2     H 1545   4.609   3.518   1.313 -0.4128  2.0493 -0.5200
   99TMC2    H1 1546   4.284   3.280   1.181 -1.2704 -1.7074  1.8938
   99TMC2    H2 1547   4.213   3.612   1.441 -1.1939 -1.4005 -0.2570
   99TMC2    C7 1548   4.105   3.384   1.374  0.4514 -0.8412 -0.1431
   99TMC2    C8 1549   4.478   3.682   1.451  0.0652  0.0035 -0.2538
   99TMC2    O1 1550   4.056   3.468   1.447 -0.3428 -0.4076  0.6995
   99TMC2    O2 1551   4.575   3.754   1.412 -0.2520  0.0535 -0.2325
   99TMC2    O5 1552   4.398   3.726   1.548  0.0950  0.2020  0.1537
   99TMC2    H5 1553   4.351   3.653   1.594 -0.2494  0.4800  0.2387
  100MPD2     C 1554   4.698   3.204   0.927 -0.2713  0.2804  0.0685
  100MPD2    C1 1555   4.583   3.155   0.984  0.4474  0.3377  0.2311
  100MPD2    C2 1556   4.545   3.021   0.961 -0.4157  0.1268 -0.1771
  100MPD2    C3 1557   4.632   2.934   0.896 -0.1630  0.6413  0.2302
  100MPD2    C4 1558   0.017   2.980   0.841 -0.8910 -0.5507  0.4437
  100MPD2    C5 1559   0.047   3.116   0.854 -0.1611  0.1222 -0.4808
  100MPD2     H 1560   4.460   2.971   1.006 -2.2740  2.0789 -1.5153
  100MPD2    H1 1561   0.083   2.910   0.791  1.0405  0.4486  1.5945
  100MPD2    H2 1562   4.734   3.305   0.944  0.1582  0.0370  0.6006
  100MPD2    H3 1563   0.134   3.165   0.813  0.5059 -0.2668  0.4700
  100MPD2     N 1564   4.584   2.801   0.883  0.8367 -0.0661 -0.4958
  100MPD2    H5 1565   4.485   2.785   0.894  1.3485 -2.6108  0.2665
  100MPD2    N1 1566   4.501   3.230   1.073 -0.4546 -0.5497  0.2654
  100MPD2    H7 1567   4.420   3.181   1.111 -0.6860 -0.9917 -0.7997
  101TMC2    C1 1568   4.723   3.941  13.814  0.0754  0.4165  0.1382
  101TMC2    C2 1569   0.005   4.020  13.922  0.0077 -0.0541  0.6617
  101TMC2    C3 1570   0.063   4.140  13.917 -0.0426 -0.6397  0.4979
  101TMC2    C4 1571   0.002   3.993  13.692 -0.0753  0.1285  0.0341
  101TMC2    C5 1572   0.053   4.117  13.686 -0.1929  0.2990 -0.5166
  101TMC2    C6 1573   0.095   4.190  13.798  0.0938 -0.1123  0.4328
  101TMC2     C 1574   4.685   3.797  13.832  1.0982  0.1455  0.1137
  101TMC2     O 1575   4.643   3.772  13.943  0.0259  0.7619 -0.3609
  101TMC2     H 1576   4.732   3.990  14.026  0.9519  0.3635  0.8578
  101TMC2    H1 1577   4.716   3.943  13.599 -0.1666  0.4748 -0.1284
  101TMC2    H2 1578   0.121   4.295  13.793  1.4812 -0.4705  0.2205
  101TMC2    C7 1579   0.083   4.177  13.557 -0.3381  0.1438  0.1845
  101TMC2    C8 1580   0.062   4.215  14.042  0.1467  0.2311 -0.0985
  101TMC2    O1 1581   0.204   4.197  13.535 -0.3042  0.0852  0.4487
  101TMC2    O2 1582   4.721   4.203  14.136 -0.3606  0.0047 -0.2422
  101TMC2    O5 1583   0.138   4.331  14.025 -0.1570  0.2451 -0.2716
  101TMC2    H5 1584   0.201   4.322  13.951  1.2157 -0.8549  1.0364
  102MPD2     C 1585   4.666   3.514  13.621 -0.0270  0.3962  0.8561
  102MPD2    C1 1586   4.623   3.602  13.709  0.4248  1.5375  0.1144
  102MPD2    C2 1587   4.512   3.571  13.790 -0.2279  0.2981  0.1741
  102MPD2    C3 1588   4.442   3.455  13.760 -0.7685 -0.7494  0.0899
  102MPD2    C4 1589   4.485   3.368  13.666 -0.7672 -0.3118  0.7338
  102MPD2    C5 1590   4.595   3.403  13.597 -0.0544  0.3950  0.4321
  102MPD2     H 1591   4.476   3.646  13.859 -0.7834  0.3803 -0.2086
  102MPD2    H1 1592   4.428   3.282  13.631  1.0271 -2.0611  2.1649
  102MPD2    H2 1593   0.019   3.542  13.566  1.3894 -2.5049  1.6593
  102MPD2    H3 1594   4.619   3.338  13.514 -1.5141 -0.0219  0.3448
  102MPD2     N 1595   4.308   3.442  13.816 -0.2492  0.1217 -0.2682
  102MPD2    H5 1596   4.287   3.515  13.884 -1.7688  1.6457 -2.3684
  102MPD2    N1 1597   4.687   3.723  13.716  0.5379 -0.2661  0.2787
  102MPD2    H7 1598   0.012   3.746  13.638  0.3584 -2.0619 -0.3857
  103TMC2    C1 1599   2.894   3.999  12.544  0.0803 -0.3852  0.2749
  103TMC2    C2 1600   2.975   4.045  12.450 -0.4754  0.1587 -0.1750
  103TMC2    C3 1601   3.050   4.158  12.490  0.0147  0.1353  0.8126
  103TMC2    C4 1602   2.883   4.052  12.675  0.4279  0.1779 -0.1656
  103TMC2    C5 1603   2.954   4.164  12.709 -0.8023 -0.1036  0.1557
  103TMC2    C6 1604   3.037   4.220  12.620  0.5831  0.1819 -0.4658
  103TMC2     C 1605   2.783   3.929  12.485 -0.9123 -0.2567 -0.1354
  103TMC2     O 1606   2.751   3.969  12.373 -0.1586 -0.1328 -0.3165
  103TMC2     H 1607   2.970   4.016  12.346 -1.7709 -1.1544  0.2568
  103TMC2    H1 1608   2.818   3.994  12.738 -0.1173  0.1983 -0.7128
  103TMC2    H2 1609   3.092   4.312  12.629  1.3230 -0.3049 -0.0452
  103TMC2    C7 1610   2.960   4.194  12.853 -0.2033 -0.0472  0.0115
  103TMC2    C8 1611   3.157   4.209  12.406  0.1284 -0.3079 -0.0128
  103TMC2    O1 1612   2.916   4.110  12.928 -0.5093  0.2093 -0.1566
  103TMC2    O2 1613   3.225   4.305  12.439 -0.3472 -0.2899 -0.1159
  103TMC2    O5 1614   3.196   4.105  12.326 -0.7516 -0.2122  0.4602
  103TMC2    H5 1615   3.134   4.032  12.310 -1.3122  0.7788 -1.9248
  104MPD2     C 1616   2.552   3.717  12.654 -0.7784 -0.1278  0.3667
  104MPD2    C1 1617   2.606   3.779  12.548  0.3066 -0.2918  0.2683
  104MPD2    C2 1618   2.534   3.773  12.430 -0.5856  0.5268 -0.6716
  104MPD2    C3 1619   2.406   3.710  12.421  0.4959 -0.5503  0.3933
  104MPD2    C4 1620   2.352   3.657  12.537 -0.4526  0.7994 -0.7761
  104MPD2    C5 1621   2.433   3.642  12.643  0.2202 -0.0954 -0.3704
  104MPD2     H 1622   2.565   3.833  12.345 -0.2361  1.4111  0.0763
  104MPD2    H1 1623   2.255   3.609  12.537 -0.4980  0.8910  0.0505
  104MPD2    H2 1624   2.611   3.706  12.744  0.9250 -1.6066 -0.9245
  104MPD2    H3 1625   2.404   3.580  12.727 -1.9302 -2.3502 -2.7852
  104MPD2     N 1626   2.341   3.730  12.296  0.3989 -0.6588 -0.7627
  104MPD2    H5 1627   2.370   3.793  12.223  0.4386 -0.7844 -0.8552
  104MPD2    N1 1628   2.724   3.838  12.569  0.1326  0.3912  0.3590
  104MPD2    H7 1629   2.781   3.814  12.650 -0.7172 -0.8439  0.5860
  105TMC2    C1 1630   4.329   3.501  17.464 -0.6499 -0.0424  0.2894
  105TMC2    C2 1631   4.299   3.395  17.385 -0.2563  0.5671  0.3174
  105TMC2    C3 1632   4.275   3.272  17.439 -0.2766 -0.1445 -0.0573
  105TMC2    C4 1633   4.318   3.484  17.604 -0.0206  0.2665  0.1947
  105TMC2    C5 1634   4.273   3.359  17.657  0.8258  0.3429 -0.6582
  105TMC2    C6 1635   4.246   3.257  17.575  0.2825 -0.4328 -0.1967
  105TMC2     C 1636   4.384   3.624  17.414  0.1167 -0.2780 -0.4607
  105TMC2     O 1637   4.460   3.684  17.491 -0.5028  0.0804  0.5818
  105TMC2     H 1638   4.307   3.393  17.277 -0.9627  1.0319  0.2562
  105TMC2    H1 1639   4.352   3.563  17.670  3.4524  0.2719 -1.5661
  105TMC2    H2 1640   4.198   3.163  17.600 -0.5070  0.9075  3.1992
  105TMC2    C7 1641   4.205   3.352   0.045 -0.4449 -0.5636  0.0710
  105TMC2    C8 1642   4.239   3.165  17.355  0.5238 -0.4953  0.0279
  105TMC2    O1 1643   4.119   3.263   0.057 -0.8537  0.0934  0.5447
  105TMC2    O2 1644   4.141   3.088  17.368 -0.0375 -0.1965 -0.4617
  105TMC2    O5 1645   4.356   3.130  17.296  0.4860  0.1105  0.1683
  105TMC2    H5 1646   4.435   3.187  17.305 -0.2556  1.4632 -1.9968
  106MPD2     C 1647   4.415   3.992  17.053  0.4154  0.4693 -0.1794
  106MPD2    C1 1648   4.315   3.908  17.017  0.5751 -0.1070  0.0472
  106MPD2    C2 1649   4.302   3.784  17.091 -0.4023 -0.5488  0.4109
  106MPD2    C3 1650   4.370   3.767  17.209  0.1822 -0.0538  0.2291
  106MPD2    C4 1651   4.466   3.857  17.245 -0.6802  0.3207  0.4355
  106MPD2    C5 1652   4.485   3.970  17.172 -0.5946 -0.1036  0.0348
  106MPD2     H 1653   4.238   3.706  17.054  2.6484 -2.6080 -0.5157
  106MPD2    H1 1654   4.532   3.848  17.330  1.6234  3.9964 -0.9587
  106MPD2    H2 1655   4.423   4.094  17.017  0.8910 -0.0718 -1.5955
  106MPD2    H3 1656   4.556   4.041  17.211 -1.5739  0.4310  0.8250
  106MPD2     N 1657   4.335   3.656  17.289 -0.3247  0.4242  0.2512
  106MPD2    H5 1658   4.254   3.599  17.265 -0.3607  0.0497  1.2716
  106MPD2    N1 1659   4.232   3.921  16.904  0.4515 -0.2917  0.4511
  106MPD2    H7 1660   4.155   3.856  16.893  1.7549 -1.3576 -2.3474
  107TMC2    C1 1661   4.669   3.283  11.493  0.2264  0.4521  1.2025
  107TMC2    C2 1662   0.015   3.354  11.409 -0.5536 -0.1773 -0.2008
  107TMC2    C3 1663   0.039   3.309  11.281  0.5502 -0.0283 -0.3574
  107TMC2    C4 1664   4.623   3.162  11.456 -0.0986 -0.1117 -0.2617
  107TMC2    C5 1665   4.667   3.109  11.336  0.2099 -0.3790 -0.2831
  107TMC2    C6 1666   0.011   3.179  11.247 -0.1630 -0.4740 -0.6144
  107TMC2     C 1667   4.644   3.322  11.632 -0.5032 -0.2487 -0.0972
  107TMC2     O 1668   4.587   3.242  11.705  0.0191 -0.6285 -0.1068
  107TMC2     H 1669   0.071   3.440  11.444 -1.6449  0.5282 -0.1847
  107TMC2    H1 1670   4.555   3.106  11.519 -0.8264  1.0770 -0.0076
  107TMC2    H2 1671   0.025   3.139  11.147 -0.0962 -0.4606 -0.6103
  107TMC2    C7 1672   4.646   2.972  11.314 -0.3508 -0.6261  0.1210
  107TMC2    C8 1673   0.107   3.405  11.205  0.1078 -0.3302  0.1040
  107TMC2    O1 1674   4.565   2.913  11.386 -0.0868 -0.1274  0.4449
  107TMC2    O2 1675   0.097   3.525  11.212 -0.7292 -0.0654  0.1402
  107TMC2    O5 1676   0.207   3.346  11.141 -0.5645  0.0612  0.1291
  107TMC2    H5 1677   0.198   3.249  11.136  0.2044 -0.1464  3.0743
  108MPD2     C 1678   4.636   3.665  11.760 -0.6850 -0.7185 -0.2281
  108MPD2    C1 1679   4.642   3.524  11.772 -0.4073  0.2607  0.0578
  108MPD2    C2 1680   4.623   3.464  11.893  0.4488 -0.6169 -0.5696
  108MPD2    C3 1681   4.594   3.540  12.005  0.6825  0.0370 -0.1024
  108MPD2    C4 1682   4.587   3.674  11.990  0.0115  0.0563 -0.2088
  108MPD2    C5 1683   4.608   3.736  11.869 -0.0816 -0.2492 -0.0251
  108MPD2     H 1684   4.621   3.355  11.896  2.1255 -0.6881 -1.6746
  108MPD2    H1 1685   4.555   3.734  12.074 -1.9204 -0.0573 -0.8627
  108MPD2    H2 1686   4.650   3.724  11.670  0.4544 -0.1601  0.3079
  108MPD2    H3 1687   4.603   3.844  11.862 -1.9754 -0.3866 -0.8780
  108MPD2     N 1688   4.566   3.487  12.129 -0.4940  0.2508 -0.4279
  108MPD2    H5 1689   4.537   3.555  12.198  2.6237  0.7695  0.3544
  108MPD2    N1 1690   4.678   3.454  11.656  0.2710  0.0972 -1.2674
  108MPD2    H7 1691   4.713   3.515  11.583 -0.1197  0.1850 -1.3812
  109TMC2    C1 1692   4.695   0.249   0.307  0.0701  0.0476  0.5136
  109TMC2    C2 1693   4.688   0.227   0.171 -0.0894  0.6083  0.7907
  109TMC2    C3 1694   0.051   0.279   0.092  0.0713  0.4370 -0.4374
  109TMC2    C4 1695   0.053   0.336   0.357 -0.8982 -0.2332  0.1673
  109TMC2    C5 1696   0.124   0.402   0.268 -0.1536 -0.8916  0.1178
  109TMC2    C6 1697   0.129   0.380   0.134  0.2274 -0.1585 -0.3123
  109TMC2     C 1698   4.599   0.169   0.396 -0.3882  0.1731 -0.3881
  109TMC2     O 1699   4.547   0.072   0.346  0.3546 -0.1168 -0.4398
  109TMC2     H 1700   4.620   0.155   0.128  0.2590 -0.0377  1.3146
  109TMC2    H1 1701   0.069   0.336   0.464  1.0746 -0.4226 -0.1231
  109TMC2    H2 1702   0.196   0.435   0.069  0.9546 -2.3230 -1.3921
  109TMC2    C7 1703   0.231   0.497   0.311 -0.0906 -0.1926 -1.2922
  109TMC2    C8 1704   0.038   0.258  17.688 -0.7164 -0.0160 -0.4303
  109TMC2    O1 1705   0.333   0.503   0.245  0.4606  0.3067 -0.4955
  109TMC2    O2 1706   4.664   0.230  17.643  0.0162 -0.4390 -0.3036
  109TMC2    O5 1707   0.150   0.308  17.621  0.3488 -0.5907 -0.2288
  109TMC2    H5 1708   0.225   0.315  17.684 -0.8336 -1.4130  1.3043
  110MPD2     C 1709   4.306   0.110   0.807 -0.7489 -0.2342  0.2687
  110MPD2    C1 1710   4.399   0.207   0.834 -0.0619  0.1262  0.6772
  110MPD2    C2 1711   4.488   0.247   0.728 -0.0253 -0.3147  0.9375
  110MPD2    C3 1712   4.491   0.179   0.612 -0.3194  0.9526 -0.3970
  110MPD2    C4 1713   4.400   0.076   0.592 -0.1304 -0.3771  0.0805
  110MPD2    C5 1714   4.312   0.049   0.684  0.2290 -0.1887 -0.0886
  110MPD2     H 1715   4.567   0.320   0.737 -0.5331  0.4575 -0.7600
  110MPD2    H1 1716   4.399   0.010   0.507 -0.0070  1.0607 -1.0319
  110MPD2    H2 1717   4.228   0.075   0.873 -0.8217  0.2817  0.4545
  110MPD2    H3 1718   4.236   4.712   0.660  1.3157 -1.3858  0.0691
  110MPD2     N 1719   4.578   0.227   0.513 -0.4065  0.2103 -0.0884
  110MPD2    H5 1720   4.615   0.318   0.535  0.5556  0.7993 -4.0884
  110MPD2    N1 1721   4.385   0.272   0.957  0.2825  0.1471  0.1477
  110MPD2    H7 1722   4.310   0.237   1.016 -0.1226  0.8193  0.0366
  111TMC2    C1 1723   0.220   0.620  12.194 -0.5266  1.5449 -0.2885
  111TMC2    C2 1724   0.125   0.673  12.274  0.2700 -0.3906  0.3116
  111TMC2    C3 1725   0.081   0.605  12.379 -0.2274 -0.1080  0.0872
  111TMC2    C4 1726   0.276   0.497  12.225  0.3968  0.1129  0.0335
  111TMC2    C5 1727   0.229   0.435  12.337  0.6284  0.6409 -0.1919
  111TMC2    C6 1728   0.132   0.485  12.417  0.3201 -0.5307  0.6583
  111TMC2     C 1729   0.248   0.676  12.067  0.3501 -0.6772  0.7783
  111TMC2     O 1730   0.284   0.608  11.974 -0.2596 -0.8371  0.1991
  111TMC2     H 1731   0.081   0.765  12.239  2.4215  0.3265 -0.5310
  111TMC2    H1 1732   0.351   0.463  12.155 -0.6593 -3.2730  0.5517
  111TMC2    H2 1733   0.093   0.437  12.506 -0.4032 -0.2055  0.5136
  111TMC2    C7 1734   0.292   0.315  12.394 -0.6029 -0.1972 -0.1186
  111TMC2    C8 1735   4.701   0.650  12.452 -0.3928 -1.2430  0.7673
  111TMC2    O1 1736   0.227   0.255  12.476  0.2365 -0.2789  0.1431
  111TMC2    O2 1737   4.636   0.731  12.392 -0.1337 -0.0323  0.4023
  111TMC2    O5 1738   0.020   0.674  12.575  0.2189 -0.0336  0.6468
  111TMC2    H5 1739   0.094   0.613  12.598  0.9046  0.3399 -0.5940
  112MPD2     C 1740   0.064   1.040  11.769 -0.2200  0.3010  0.7068
  112MPD2    C1 1741   0.118   0.919  11.724  1.0336 -0.0894  0.7167
  112MPD2    C2 1742   0.166   0.835  11.830  0.2319  0.5134  0.5515
  112MPD2    C3 1743   0.172   0.882  11.960 -0.1655 -0.2436  0.1907
  112MPD2    C4 1744   0.114   0.999  11.994 -0.1613  0.7295  0.3645
  112MPD2    C5 1745   0.061   1.084  11.901 -1.0314  0.0941 -0.3687
  112MPD2     H 1746   0.210   0.742  11.796  0.8302  1.3778 -1.0006
  112MPD2    H1 1747   0.129   1.038  12.094 -0.4374  0.4432  0.5149
  112MPD2    H2 1748   0.027   1.115  11.699  1.3202 -0.0485 -0.4719
  112MPD2    H3 1749   0.028   1.186  11.919  1.7893  1.0136 -0.3791
  112MPD2     N 1750   0.219   0.808  12.070  0.9167 -0.4951  0.8127
  112MPD2    H5 1751   0.226   0.853  12.160  0.2510  0.6541  0.2992
  112MPD2    N1 1752   0.109   0.868  11.590 -0.1661  0.1035  0.5035
  112MPD2    H7 1753   0.180   0.802  11.559 -0.6441 -1.0102  1.7304
  113TMC2    C1 1754   3.126   2.647   0.696  0.0864  0.0329  0.4929
  113TMC2    C2 1755   3.005   2.683   0.658  0.0692 -0.2278  0.9865
  113TMC2    C3 1756   2.895   2.605   0.683  0.3802  0.0863 -0.7078
  113TMC2    C4 1757   3.143   2.515   0.741  0.2410  0.0223  0.3337
  113TMC2    C5 1758   3.034   2.432   0.748  0.3600  0.1077  0.0746
  113TMC2    C6 1759   2.907   2.477   0.727 -0.3659 -0.2667 -0.0017
  113TMC2     C 1760   3.227   2.751   0.693 -0.1005 -0.2369  0.4935
  113TMC2     O 1761   3.202   2.871   0.700  0.6877  0.0096 -0.3436
  113TMC2     H 1762   2.997   2.787   0.628  0.5850 -0.2650  0.7214
  113TMC2    H1 1763   3.240   2.484   0.776  0.6275  1.5587  0.6284
  113TMC2    H2 1764   2.818   2.423   0.755 -0.8829 -0.5051 -2.0469
  113TMC2    C7 1765   3.055   2.291   0.799 -0.9813 -0.2260 -0.6165
  113TMC2    C8 1766   2.765   2.661   0.646 -0.3610  0.6793 -1.2057
  113TMC2    O1 1767   3.166   2.260   0.835  0.1955 -0.4616  0.2997
  113TMC2    O2 1768   2.750   2.752   0.563  0.1009 -0.1613  0.0400
  113TMC2    O5 1769   2.680   2.639   0.742  0.4210 -0.1103 -0.2956
  113TMC2    H5 1770   2.727   2.586   0.810 -1.2332 -0.0101  0.9258
  114MPD2     C 1771   3.719   2.883   0.692  0.3061  0.4566  0.0988
  114MPD2    C1 1772   3.616   2.943   0.761  0.4124  0.3013 -0.0854
  114MPD2    C2 1773   3.493   2.890   0.742  0.1216  0.0549 -0.2357
  114MPD2    C3 1774   3.474   2.759   0.687 -0.0243 -0.3855  0.4379
  114MPD2    C4 1775   3.587   2.695   0.648 -0.4714  0.3827 -0.0073
  114MPD2    C5 1776   3.710   2.757   0.640  0.1885  0.4092  0.0408
  114MPD2     H 1777   3.411   2.947   0.784  1.1246  1.1258  0.2736
  114MPD2    H1 1778   3.593   2.595   0.607 -1.3974  0.1825  0.3473
  114MPD2    H2 1779   3.821   2.919   0.688  0.5844 -0.1246  2.2776
  114MPD2    H3 1780   3.798   2.710   0.600  0.3043 -0.3418  1.1801
  114MPD2     N 1781   3.351   2.695   0.672  0.3300  0.5162  0.1574
  114MPD2    H5 1782   3.361   2.596   0.656  1.4215  0.9128 -1.6005
  114MPD2    N1 1783   3.622   3.056   0.840 -0.8674 -0.7844 -0.8243
  114MPD2    H7 1784   3.534   3.084   0.884 -0.3797 -1.0016  0.2943
  115TMC2    C1 1785   4.408   0.583   0.092  0.5073 -0.2199 -0.0508
  115TMC2    C2 1786   4.530   0.631   0.128  0.1966  0.3779 -0.2670
  115TMC2    C3 1787   4.581   0.737   0.070 -0.1161 -0.5829 -0.3899
  115TMC2    C4 1788   4.325   0.657   0.009  0.5129  0.1826  0.3868
  115TMC2    C5 1789   4.389   0.758  17.682  0.2723 -0.1849 -0.1505
  115TMC2    C6 1790   4.520   0.795  17.708  0.5392 -0.0686  0.2992
  115TMC2     C 1791   4.368   0.459   0.155 -0.1219  0.1770 -0.1712
  115TMC2     O 1792   4.419   0.423   0.259  0.7446 -0.6880  0.2920
  115TMC2     H 1793   4.584   0.592   0.213  0.7481 -0.8640 -1.2000
  115TMC2    H1 1794   4.220   0.639  17.735  0.8190  0.4350 -1.9926
  115TMC2    H2 1795   4.566   0.867  17.642  0.4234  0.6474  0.9991
  115TMC2    C7 1796   4.293   0.834  17.606  0.8347  0.2606  0.5262
  115TMC2    C8 1797   4.723   0.747   0.086 -0.3519 -0.3531 -0.0383
  115TMC2    O1 1798   4.182   0.793  17.581 -0.0366  0.5043  0.3203
  115TMC2    O2 1799   0.063   0.650   0.058 -0.5000  0.1747 -0.2525
  115TMC2    O5 1800   0.010   0.884   0.063  0.0406 -0.4205 -0.2198
  115TMC2    H5 1801   4.678   0.952   0.078 -0.2410 -0.6171 -0.5894
  116MPD2     C 1802   4.182   4.717   0.079 -0.4056  0.5045  0.7786
  116MPD2    C1 1803   4.129   0.067  17.722  0.2732  0.1025 -0.5118
  116MPD2    C2 1804   4.158   0.201  17.730  0.4473  0.2068  0.6312
  116MPD2    C3 1805   4.242   0.250   0.084  0.3102  0.5841  0.0404
  116MPD2    C4 1806   4.289   0.171   0.188 -0.9044 -0.1670 -0.0052
  116MPD2    C5 1807   4.249   0.038   0.182 -0.2289 -0.1889  0.7124
  116MPD2     H 1808   4.115   0.272  17.660  1.1546  0.3941  0.3847
  116MPD2    H1 1809   4.361   0.200   0.264 -0.8000 -0.3779 -0.0235
  116MPD2    H2 1810   4.164   4.610   0.081 -1.1897  0.5634 -2.5901
  116MPD2    H3 1811   4.287   4.702   0.254 -0.6903 -2.3597 -1.1973
  116MPD2     N 1812   4.278   0.391   0.074  0.4477  0.0983 -0.0866
  116MPD2    H5 1813   4.266   0.428  17.723 -0.1082  0.4326  0.1205
  116MPD2    N1 1814   4.059   0.015  17.604  0.0744 -0.1094 -0.2305
  116MPD2    H7 1815   4.049   0.085  17.531 -0.2611 -1.2859 -1.3337
  117TMC2    C1 1816   2.064   2.272  14.016 -0.3099  0.4955 -0.1553
  117TMC2    C2 1817   2.111   2.148  14.005 -0.6568  0.0326  0.0142
  117TMC2    C3 1818   2.250   2.135  14.008 -0.0969  0.4000 -0.0723
  117TMC2    C4 1819   2.140   2.382  14.042 -0.0524 -0.1303 -0.3212
  117TMC2    C5 1820   2.277   2.365  14.049 -0.1684  0.0730  0.1178
  117TMC2    C6 1821   2.328   2.238  14.049 -0.1323 -0.0359 -0.3713
  117TMC2     C 1822   1.921   2.288  13.985 -0.4694 -0.6174  0.0196
  117TMC2     O 1823   1.866   2.385  14.039  0.4653 -0.4204  0.7259
  117TMC2     H 1824   2.048   2.061  13.989  1.6429 -1.7206  0.5353
  117TMC2    H1 1825   2.090   2.479  14.042  0.4318  0.1191 -0.2733
  117TMC2    H2 1826   2.435   2.224  14.057  0.0919  0.8526 -1.8371
  117TMC2    C7 1827   2.363   2.477  14.078  0.5308  0.4017 -0.8485
  117TMC2    C8 1828   2.314   2.001  14.006  0.0169  0.1572  0.2559
  117TMC2    O1 1829   2.482   2.458  14.063  0.0365  0.3221  0.3281
  117TMC2    O2 1830   2.421   1.975  14.051  0.0017 -0.2524 -0.6168
  117TMC2    O5 1831   2.251   1.920  13.915  0.2951 -0.3189  0.1669
  117TMC2    H5 1832   2.186   1.970  13.861 -0.9640 -0.7036  1.3004
  118MPD2     C 1833   2.262   2.796  14.227  0.5119 -0.3874  0.5252
  118MPD2    C1 1834   2.354   2.705  14.173  0.0899 -0.3492  0.7428
  118MPD2    C2 1835   2.485   2.742  14.156 -0.6788 -0.1939  0.0135
  118MPD2    C3 1836   2.524   2.869  14.185 -0.5059  0.0894 -0.2232
  118MPD2    C4 1837   2.437   2.961  14.219  0.3063 -0.8225  0.4033
  118MPD2    C5 1838   2.309   2.923  14.250 -0.0863 -1.0715 -0.6186
  118MPD2     H 1839   2.560   2.666  14.141  0.7063  0.6540  2.6545
  118MPD2    H1 1840   2.462   3.067  14.224  1.3007 -1.0424 -0.0788
  118MPD2    H2 1841   2.156   2.778  14.239  0.7649 -2.4731 -0.4410
  118MPD2    H3 1842   2.240   2.995  14.292 -1.2963 -1.5101 -1.8259
  118MPD2     N 1843   2.655   2.910  14.167  0.7079  0.7789  0.2338
  118MPD2    H5 1844   2.677   3.009  14.178  0.5673  1.0128 -1.5825
  118MPD2    N1 1845   2.303   2.576  14.145 -0.0681 -0.4517 -0.7892
  118MPD2    H7 1846   2.205   2.564  14.167 -0.0103  1.9329  0.7859
  119TMC2    C1 1847   1.464   2.960  13.584 -0.0165  0.0061  0.0818
  119TMC2    C2 1848   1.599   2.910  13.600  0.8391  0.6622 -0.0818
  119TMC2    C3 1849   1.617   2.785  13.625 -0.0142 -0.1034  0.8059
  119TMC2    C4 1850   1.358   2.877  13.609  0.0489  0.0736 -0.5059
  119TMC2    C5 1851   1.387   2.748  13.631  0.2525  0.2263  0.1969
  119TMC2    C6 1852   1.517   2.695  13.627  0.6048  0.0186 -0.7286
  119TMC2     C 1853   1.440   3.097  13.620  0.1938  0.5210  0.2040
  119TMC2     O 1854   1.334   3.144  13.587 -0.6198 -0.1852  0.1097
  119TMC2     H 1855   1.686   2.975  13.603  0.7945  0.7644 -1.3213
  119TMC2    H1 1856   1.266   2.920  13.645  1.2538  2.1392  0.0707
  119TMC2    H2 1857   1.538   2.589  13.622 -0.3450 -0.2293  0.8030
  119TMC2    C7 1858   1.283   2.650  13.590 -0.0353 -0.3901  0.0721
  119TMC2    C8 1859   1.745   2.732  13.597 -0.3253  0.2304  0.3199
  119TMC2    O1 1860   1.318   2.537  13.567  0.2509 -0.2736 -0.1331
  119TMC2    O2 1861   1.807   2.778  13.503 -0.2285 -0.0722 -0.5170
  119TMC2    O5 1862   1.764   2.615  13.661  0.6905  0.3030  0.0128
  119TMC2    H5 1863   1.720   2.607  13.749  0.0837 -2.1630 -0.5116
  120MPD2     C 1864   1.457   3.434  14.001 -0.0159 -0.2758 -0.2199
  120MPD2    C1 1865   1.390   3.434  13.884  0.4245 -0.3995  0.6810
  120MPD2    C2 1866   1.410   3.334  13.794  0.1646  0.3465  0.5732
  120MPD2    C3 1867   1.498   3.232  13.823  0.7155 -0.0666 -0.1334
  120MPD2    C4 1868   1.569   3.234  13.941  0.3322 -0.0421  0.0283
  120MPD2    C5 1869   1.555   3.340  14.027 -0.9172 -0.1586 -0.0790
  120MPD2     H 1870   1.366   3.341  13.695  0.9179  1.2134  0.3047
  120MPD2    H1 1871   1.631   3.148  13.962 -0.0728  0.2493  2.4144
  120MPD2    H2 1872   1.444   3.510  14.077  0.4927 -0.6005  0.1903
  120MPD2    H3 1873   1.612   3.345  14.119 -0.0366 -0.7048 -0.5878
  120MPD2     N 1874   1.525   3.131  13.724  0.9509  0.5244  0.0305
  120MPD2    H5 1875   1.595   3.063  13.751  1.3465  0.9467  0.0727
  120MPD2    N1 1876   1.297   3.541  13.869  0.1871  0.6725 -0.0020
  120MPD2    H7 1877   1.315   3.625  13.923  1.9582  0.1933  0.1597
  121TMC2    C1 1878   2.397   0.259  14.436  0.2503 -0.5238  0.2086
  121TMC2    C2 1879   2.343   0.175  14.527 -0.1811  0.3402  0.1169
  121TMC2    C3 1880   2.218   0.128  14.518 -0.0951  0.5297 -0.4021
  121TMC2    C4 1881   2.317   0.303  14.334  0.3760  0.0239  0.1696
  121TMC2    C5 1882   2.184   0.272  14.336 -0.0184  0.2685  0.0579
  121TMC2    C6 1883   2.132   0.184  14.424 -0.7622  0.7348  0.3419
  121TMC2     C 1884   2.523   0.333  14.457  0.7591 -0.0175 -0.4562
  121TMC2     O 1885   2.559   0.340  14.570 -0.1307  0.5538  0.1583
  121TMC2     H 1886   2.407   0.154  14.612 -0.2503 -0.2495  0.0237
  121TMC2    H1 1887   2.356   0.365  14.254 -0.9641  1.1196  0.3758
  121TMC2    H2 1888   2.025   0.174  14.440 -0.6494 -1.4183 -0.2284
  121TMC2    C7 1889   2.094   0.319  14.229  0.6024 -0.0326 -0.0882
  121TMC2    C8 1890   2.164   0.039  14.621 -0.5064 -0.3357 -0.3087
  121TMC2    O1 1891   2.138   0.405  14.155  0.8424  0.1541  0.2478
  121TMC2    O2 1892   2.048   0.035  14.651 -0.6974  0.3233 -0.0707
  121TMC2    O5 1893   2.266   4.701  14.668  0.1901  0.0959  0.0728
  121TMC2    H5 1894   2.351   4.711  14.620  0.1122  2.1109  0.3326
  122MPD2     C 1895   2.752   0.529  14.422  0.1618  0.0428  0.2107
  122MPD2    C1 1896   2.700   0.453  14.322  0.3797  0.1985 -0.0671
  122MPD2    C2 1897   2.759   0.470  14.192  0.3456 -0.1513 -0.2295
  122MPD2    C3 1898   2.867   0.556  14.164  0.1941 -0.1281  0.7302
  122MPD2    C4 1899   2.904   0.634  14.271  0.4164  0.0138 -0.2910
  122MPD2    C5 1900   2.853   0.618  14.398  0.0467  0.1283  0.6332
  122MPD2     H 1901   2.720   0.404  14.115 -2.5049 -0.6844  1.6655
  122MPD2    H1 1902   2.995   0.693  14.261 -0.3442  1.3061  0.2792
  122MPD2    H2 1903   2.711   0.538  14.523  0.8906 -0.0744  0.5163
  122MPD2    H3 1904   2.889   0.679  14.481 -0.0698 -1.9236  2.2025
  122MPD2     N 1905   2.934   0.568  14.037 -0.0600  0.1415  0.1592
  122MPD2    H5 1906   3.005   0.641  14.036  1.0569 -0.9441 -0.1282
  122MPD2    N1 1907   2.579   0.374  14.337 -0.0063 -0.2468  0.4454
  122MPD2    H7 1908   2.539   0.337  14.251 -3.7654 -0.0919  2.1199
  123TMC2    C1 1909   0.689   3.348  10.540  0.5610  0.5292 -0.1033
  123TMC2    C2 1910   0.803   3.397  10.488  0.3449 -0.1113 -0.2252
  123TMC2    C3 1911   0.792   3.511  10.412 -0.1536  0.3455 -0.4095
  123TMC2    C4 1912   0.565   3.413  10.521 -0.1182  0.0344 -0.3505
  123TMC2    C5 1913   0.556   3.517  10.429 -0.4574  0.2116 -0.5563
  123TMC2    C6 1914   0.676   3.570  10.374  0.2405  0.0984  0.0459
  123TMC2     C 1915   0.688   3.208  10.575  0.3907 -0.3366 -0.1406
  123TMC2     O 1916   0.798   3.162  10.601  0.2619  0.7295 -0.2374
  123TMC2     H 1917   0.890   3.335  10.506  1.7311  2.1425  0.8252
  123TMC2    H1 1918   0.471   3.398  10.572  0.9544  0.5470  1.7620
  123TMC2    H2 1919   0.685   3.655  10.308 -1.3119 -0.0140 -0.3138
  123TMC2    C7 1920   0.455   3.508  10.328 -0.5333 -0.0156  0.6236
  123TMC2    C8 1921   0.914   3.587  10.383  0.5778  0.9588  0.6704
  123TMC2    O1 1922   0.392   3.404  10.327  0.4215  1.1049 -0.2077
  123TMC2    O2 1923   0.919   3.711  10.392  0.2638  0.3327  0.1946
  123TMC2    O5 1924   1.019   3.499  10.363  0.9302 -0.1584 -0.2835
  123TMC2    H5 1925   0.984   3.415  10.326 -1.4191  0.5508  0.3068
  124MPD2     C 1926   0.457   2.748  10.578 -0.2902  0.4555 -0.0606
  124MPD2    C1 1927   0.370   2.839  10.524 -0.0279  0.2210 -0.3406
  124MPD2    C2 1928   0.401   2.978  10.522  0.5267 -0.9789  0.8199
  124MPD2    C3 1929   0.527   3.025  10.556  0.1427  0.3005  0.2001
  124MPD2    C4 1930   0.621   2.932  10.589 -0.1298  0.1681  0.7206
  124MPD2    C5 1931   0.583   2.798  10.608  0.5075  0.6554 -0.2972
  124MPD2     H 1932   0.324   3.052  10.506  1.3023 -0.7744 -1.9640
  124MPD2    H1 1933   0.725   2.948  10.616  0.0959  0.2607 -0.2121
  124MPD2    H2 1934   0.436   2.642  10.586 -2.4428  0.9082  0.0817
  124MPD2    H3 1935   0.661   2.728  10.636 -0.5859  0.0597  1.2424
  124MPD2     N 1936   0.563   3.158  10.548  0.3391 -0.2732  0.5701
  124MPD2    H5 1937   0.490   3.223  10.521 -0.1590 -1.1346 -0.1623
  124MPD2    N1 1938   0.246   2.791  10.478 -0.4554  0.2480 -0.6721
  124MPD2    H7 1939   0.236   2.691  10.491 -1.1024  0.4510  0.4087
  125TMC2    C1 1940   1.761   4.474   9.607 -0.3394  0.0429  0.0563
  125TMC2    C2 1941   1.727   4.494   9.476 -0.1895  0.1777 -0.2395
  125TMC2    C3 1942   1.798   4.582   9.404  0.1662  0.1604 -0.2516
  125TMC2    C4 1943   1.855   4.556   9.663 -0.0040  0.5057 -0.0149
  125TMC2    C5 1944   1.913   4.654   9.585 -0.1479  0.5143  0.5588
  125TMC2    C6 1945   1.881   4.671   9.459  0.4515 -0.3796 -0.7808
  125TMC2     C 1946   1.710   4.358   9.673 -0.8572 -0.0068  0.2306
  125TMC2     O 1947   1.602   4.314   9.635 -0.2817 -0.4758  0.3876
  125TMC2     H 1948   1.660   4.425   9.426 -0.2818  1.4722 -1.9252
  125TMC2    H1 1949   1.875   4.550   9.769 -0.1048 -0.4907 -0.0485
  125TMC2    H2 1950   1.926   0.014   9.399  2.0622  0.1019  1.0244
  125TMC2    C7 1951   2.015   4.733   9.656 -0.1962  0.2020 -0.6048
  125TMC2    C8 1952   1.757   4.601   9.268 -0.1308  0.4184  0.1713
  125TMC2    O1 1953   2.073   4.690   9.756 -0.3206  0.2242 -0.0569
  125TMC2    O2 1954   1.780   4.708   9.217 -0.1423  0.1849 -0.5472
  125TMC2    O5 1955   1.785   4.483   9.205  0.0326  0.0688 -0.4770
  125TMC2    H5 1956   1.755   4.396   9.241 -1.6518  0.7879 -0.1322
  126MPD1     C 1957   1.735   3.952   9.971 -0.1720  0.7001  0.9835
  126MPD1    C1 1958   1.864   3.994   9.950  0.6073  0.3941  0.2047
  126MPD1    C2 1959   1.881   4.099   9.863  0.0520 -0.0483  0.2372
  126MPD1    C3 1960   1.777   4.178   9.824  0.3860 -0.0204 -0.4699
  126MPD1    C4 1961   1.649   4.146   9.862 -0.1471 -0.0867 -0.2854
  126MPD1    C5 1962   1.628   4.026   9.928 -0.1831  0.7949  0.1022
  126MPD1     H 1963   1.983   4.123   9.835 -0.4397  2.0285  0.2583
  126MPD1    H1 1964   1.562   4.207   9.841 -0.1057 -0.2081 -0.8223
  126MPD1    H2 1965   1.722   3.861  10.029  0.6432  0.3976  0.6901
  126MPD1    H3 1966   1.529   4.003   9.966  0.3031  1.2489  1.6379
  126MPD1     N 1967   1.806   4.298   9.749 -0.2799 -0.5931 -0.4672
  126MPD1    H5 1968   1.902   4.331   9.747 -0.1464 -1.0933 -2.2761
  126MPD1    N1 1969   1.971   3.915   9.981  0.0323 -0.0753  0.0699
  126MPD1    H6 1970   1.963   3.869  10.071  0.7878 -2.5059 -1.0801
  126MPD1    H7 1971   2.050   3.979   9.987  0.3150 -0.6530  2.3862
  127TMC2    C1 1972   2.754   4.067   9.765 -0.5061 -0.5689 -0.2138
  127TMC2    C2 1973   2.797   4.005   9.878  0.0074 -0.1203  0.1134
  127TMC2    C3 1974   2.766   3.873   9.901  0.3134 -0.6025  0.2870
  127TMC2    C4 1975   2.666   4.001   9.678 -0.7207  0.5546 -0.5844
  127TMC2    C5 1976   2.644   3.867   9.696 -0.1063  0.6746 -0.0070
  127TMC2    C6 1977   2.682   3.804   9.817 -0.4612 -0.2460 -0.4866
  127TMC2     C 1978   2.780   4.213   9.742 -0.0402 -0.0652 -0.0122
  127TMC2     O 1979   2.870   4.258   9.811  0.3218  0.3062 -0.3972
  127TMC2     H 1980   2.852   4.061   9.952  0.3291 -0.4108  0.0927
  127TMC2    H1 1981   2.617   4.037   9.588 -3.7118 -1.0323  0.3781
  127TMC2    H2 1982   2.672   3.698   9.840 -1.7400 -0.3426 -1.4895
  127TMC2    C7 1983   2.549   3.807   9.601 -0.2077 -0.1088 -0.0975
  127TMC2    C8 1984   2.839   3.789   9.997  0.1283 -0.6941 -0.2337
  127TMC2    O1 1985   2.552   3.839   9.484  0.1080  0.0815  0.2241
  127TMC2    O2 1986   2.785   3.727  10.084 -0.0422 -0.5074 -0.0788
  127TMC2    O5 1987   2.959   3.853  10.005 -0.8458  0.0152  0.3361
  127TMC2    H5 1988   2.982   3.904   9.924 -0.1974  0.5702  0.8657
  128MPD2     C 1989   2.630   4.440   9.499  0.4381  0.3673  0.4260
  128MPD2    C1 1990   2.716   4.408   9.602 -0.5905  0.2489  0.1481
  128MPD2    C2 1991   2.808   4.498   9.642 -0.6432 -0.5578 -0.8486
  128MPD2    C3 1992   2.815   4.623   9.586  0.8800  0.4403 -0.0054
  128MPD2    C4 1993   2.739   4.643   9.476  0.0156 -0.8072 -0.0409
  128MPD2    C5 1994   2.648   4.555   9.429  0.5735  0.7472 -0.2445
  128MPD2     H 1995   2.879   4.473   9.719 -0.6921 -2.5609 -1.4688
  128MPD2    H1 1996   2.738   0.003   9.425  0.9077 -0.6069  0.3125
  128MPD2    H2 1997   2.555   4.375   9.456  0.9658 -0.2307  0.4168
  128MPD2    H3 1998   2.588   4.591   9.347 -1.4027 -0.2824  0.7305
  128MPD2     N 1999   2.903   4.714   9.644 -0.5176 -0.1897 -0.3486
  128MPD2    H5 2000   2.942   4.683   9.732 -0.3098 -1.2596 -0.8165
  128MPD2    N1 2001   2.696   4.273   9.654 -0.0828 -0.5759 -0.0694
  128MPD2    H7 2002   2.621   4.216   9.615  0.3009 -1.8643  1.0766
  129TMC2    C1 2003   0.453   0.661   1.469 -0.2018 -0.0916 -0.6664
  129TMC2    C2 2004   0.363   0.617   1.559 -0.1574 -0.0330  0.4364
  129TMC2    C3 2005   0.296   0.502   1.528  0.3600  0.0066 -0.1763
  129TMC2    C4 2006   0.490   0.588   1.364 -0.3538 -0.3358  0.2385
  129TMC2    C5 2007   0.428   0.467   1.337 -0.1911 -0.7036  0.5016
  129TMC2    C6 2008   0.323   0.427   1.416 -0.6837  0.6781 -0.4791
  129TMC2     C 2009   0.487   0.799   1.472  0.6655 -0.9183  0.4669
  129TMC2     O 2010   0.429   0.868   1.554  0.2968 -0.5876  0.2192
  129TMC2     H 2011   0.328   0.678   1.641  0.0162  1.7758 -0.8415
  129TMC2    H1 2012   0.545   0.632   1.281 -1.2713  1.7960  0.7592
  129TMC2    H2 2013   0.270   0.335   1.394  1.4029 -0.9011  1.0511
  129TMC2    C7 2014   0.472   0.384   1.222 -0.8190 -0.4068 -0.2510
  129TMC2    C8 2015   0.204   0.439   1.626 -1.1485  0.3693 -0.0772
  129TMC2    O1 2016   0.390   0.305   1.174  0.1407  0.0896 -0.5374
  129TMC2    O2 2017   0.190   0.318   1.630  0.7030 -0.2062 -0.0531
  129TMC2    O5 2018   0.152   0.532   1.701 -0.1816  0.0721  0.5372
  129TMC2    H5 2019   0.173   0.617   1.656  1.2743  0.4981  2.0327
  130MPD2     C 2020   0.550   1.073   1.373 -0.4012 -0.5879  0.2922
  130MPD2    C1 2021   0.643   0.977   1.388  0.1788  0.2077  0.6759
  130MPD2    C2 2022   0.775   1.009   1.358  0.0775 -0.0696 -1.1618
  130MPD2    C3 2023   0.821   1.141   1.340  0.1404 -0.4230 -0.1110
  130MPD2    C4 2024   0.719   1.232   1.348  0.1218  0.9154  0.3392
  130MPD2    C5 2025   0.584   1.204   1.370 -0.8610 -0.7635 -0.5508
  130MPD2     H 2026   0.840   0.928   1.329  1.9113  0.3314  1.8276
  130MPD2    H1 2027   0.724   1.339   1.332 -1.4763  0.6473 -1.9640
  130MPD2    H2 2028   0.445   1.050   1.389 -0.6581  0.3978  0.0334
  130MPD2    H3 2029   0.506   1.279   1.373 -1.0223 -0.9253 -0.6900
  130MPD2     N 2030   0.954   1.170   1.301  0.4409  0.7230 -0.2830
  130MPD2    H5 2031   1.016   1.092   1.285 -1.2433 -0.4034 -1.2402
  130MPD2    N1 2032   0.600   0.840   1.403  0.6074  0.1794 -0.2938
  130MPD2    H7 2033   0.661   0.767   1.369  1.8712 -0.1053  2.5428
  131TMC2    C1 2034   4.581   3.747  10.106 -0.8821 -0.0362  0.4618
  131TMC2    C2 2035   4.547   3.882  10.083 -0.4968  0.1905  0.0321
  131TMC2    C3 2036   4.609   3.984  10.147 -0.4220  0.2167 -0.2221
  131TMC2    C4 2037   4.680   3.713  10.194 -1.0111  0.9782  0.1500
  131TMC2    C5 2038   4.735   3.820  10.260 -0.5795  0.2426 -0.4727
  131TMC2    C6 2039   4.708   3.950  10.240 -0.1967  0.0142 -0.4326
  131TMC2     C 2040   4.503   3.644  10.046 -0.1710 -0.5815  0.5895
  131TMC2     O 2041   4.424   3.674   9.958 -0.1917  0.3011 -0.4405
  131TMC2     H 2042   4.457   3.900  10.026  0.0876  1.9032 -0.3427
  131TMC2    H1 2043   4.728   3.616  10.199 -2.4292  0.2208 -1.1786
  131TMC2    H2 2044   0.018   4.029  10.299 -0.8230  0.6710 -0.8086
  131TMC2    C7 2045   0.104   3.788  10.356 -0.0456 -0.7899 -0.5581
  131TMC2    C8 2046   4.573   4.112  10.112  0.9562 -0.4260 -0.6380
  131TMC2    O1 2047   0.099   3.679  10.410 -0.2389 -0.2224  0.1067
  131TMC2    O2 2048   4.484   4.132  10.035  0.2012  0.2896  0.4960
  131TMC2    O5 2049   4.658   4.207  10.162 -0.7877 -0.7215  0.2632
  131TMC2    H5 2050   4.735   4.179  10.216 -2.2380 -1.1184  2.1432
  132MPD2     C 2051   4.383   3.375   9.964  0.3457 -0.2238 -0.3050
  132MPD2    C1 2052   4.460   3.396  10.077  0.0051 -0.5185  0.5339
  132MPD2    C2 2053   4.496   3.292  10.161 -0.1075  0.3486 -0.1014
  132MPD2    C3 2054   4.446   3.168  10.133 -0.0568  0.1206 -0.5575
  132MPD2    C4 2055   4.354   3.148  10.028 -0.9009 -0.2731  0.7378
  132MPD2    C5 2056   4.342   3.242   9.934  0.7164 -0.4185  0.3814
  132MPD2     H 2057   4.554   3.307  10.252  1.0085  0.4673 -0.8312
  132MPD2    H1 2058   4.335   3.044  10.007 -0.7001 -0.1967  0.1916
  132MPD2    H2 2059   4.343   3.442   9.888  0.5124  0.5668  0.3127
  132MPD2    H3 2060   4.275   3.231   9.850  1.7927 -1.6812 -0.3163
  132MPD2     N 2061   4.475   3.070  10.228 -0.4021  0.6313 -0.1090
  132MPD2    H5 2062   4.534   3.099  10.305  0.7706  0.0734 -0.7938
  132MPD2    N1 2063   4.523   3.523  10.109  0.4518 -0.4282  0.2578
  132MPD2    H7 2064   4.586   3.523  10.189 -3.4456 -0.5582  3.3795
  133TMC2    C1 2065   3.694   3.634  10.116 -0.4082  0.8458  0.6227
  133TMC2    C2 2066   3.622   3.526  10.150  0.1303  0.4102 -0.3608
  133TMC2    C3 2067   3.680   3.450  10.250 -0.2409  0.4475 -0.1292
  133TMC2    C4 2068   3.800   3.681  10.187  0.1360  0.3586 -0.0975
  133TMC2    C5 2069   3.856   3.605  10.284  0.5277  0.3453 -0.8027
  133TMC2    C6 2070   3.794   3.488  10.319  0.0458  0.5715 -0.4238
  133TMC2     C 2071   3.651   3.689   9.988 -0.6446 -0.2565  0.2448
  133TMC2     O 2072   3.566   3.628   9.919  0.3599  0.1311 -0.2614
  133TMC2     H 2073   3.534   3.491  10.097 -1.9415  0.1431  3.3089
  133TMC2    H1 2074   3.852   3.772  10.161  0.8038 -0.1260 -0.4330
  133TMC2    H2 2075   3.848   3.411  10.371  0.7408  1.5497  0.3053
  133TMC2    C7 2076   3.994   3.624  10.313  0.6039 -0.7822 -0.7532
  133TMC2    C8 2077   3.614   3.328  10.285 -0.1427  0.0760 -0.0468
  133TMC2    O1 2078   4.061   3.691  10.239 -0.2504 -0.0476 -0.4650
  133TMC2    O2 2079   3.671   3.232  10.340  0.8074  0.8238 -0.1506
  133TMC2    O5 2080   3.496   3.382  10.318  0.3095 -0.2136  0.0635
  133TMC2    H5 2081   3.486   3.474  10.285 -0.8385  0.0024  1.0021
  134MPD2     C 2082   3.628   3.844   9.723  0.5100  0.0508  0.3998
  134MPD2    C1 2083   3.725   3.862   9.817 -0.1012 -0.6561 -0.3926
  134MPD2    C2 2084   3.816   3.966   9.796 -1.3378  0.4219 -0.0747
  134MPD2    C3 2085   3.799   4.063   9.693 -0.5472 -0.1158  0.2496
  134MPD2    C4 2086   3.686   4.053   9.615 -0.2158 -0.0373  0.5575
  134MPD2    C5 2087   3.607   3.939   9.627 -0.2600 -0.4177 -0.0507
  134MPD2     H 2088   3.894   3.973   9.870 -0.1388 -0.5156 -1.2470
  134MPD2    H1 2089   3.674   4.128   9.537  0.4801 -1.8816 -1.3298
  134MPD2    H2 2090   3.560   3.759   9.731  1.5779 -0.4854  3.6919
  134MPD2    H3 2091   3.526   3.915   9.560 -0.5677 -1.2506  0.6198
  134MPD2     N 2092   3.875   4.178   9.674  0.0902 -0.1395  0.0088
  134MPD2    H5 2093   3.846   4.243   9.602  0.4701  0.3714  0.3235
  134MPD2    N1 2094   3.742   3.778   9.936  0.2429 -0.4095  0.5498
  134MPD2    H7 2095   3.818   3.808   9.997  2.6468 -1.7686 -1.7869
  135TMC2    C1 2096   1.618   1.634  10.352 -0.1914 -0.1366 -0.2928
  135TMC2    C2 2097   1.632   1.766  10.378 -0.6137 -0.4694  0.1860
  135TMC2    C3 2098   1.594   1.811  10.501  0.3541  0.4565  0.0442
  135TMC2    C4 2099   1.556   1.544  10.433  0.3577  0.0027 -1.3482
  135TMC2    C5 2100   1.527   1.595  10.557 -0.4746  0.3180 -0.2540
  135TMC2    C6 2101   1.549   1.729  10.594 -0.7043  0.2188  0.4500
  135TMC2     C 2102   1.618   1.578  10.210 -0.3021 -0.6139  0.6823
  135TMC2     O 2103   1.521   1.503  10.187  0.5112 -0.0454 -0.6506
  135TMC2     H 2104   1.649   1.833  10.294  0.3175 -0.1591  0.6242
  135TMC2    H1 2105   1.551   1.439  10.410  2.1519 -0.4167  0.2281
  135TMC2    H2 2106   1.523   1.767  10.692 -1.8815  1.3138 -0.2862
  135TMC2    C7 2107   1.431   1.512  10.637  0.1184  1.0049  0.0917
  135TMC2    C8 2108   1.555   1.957  10.510  0.5180  0.3159  0.4303
  135TMC2    O1 2109   1.372   1.583  10.717 -0.5162  0.2078  0.2837
  135TMC2    O2 2110   1.456   1.980  10.578 -0.4082  0.3649  0.0947
  135TMC2    O5 2111   1.584   2.021  10.396 -0.2169  0.2694  0.2709
  135TMC2    H5 2112   1.679   2.002  10.382 -0.4404 -0.1225 -0.6652
  136MPD2     C 2113   1.652   1.540   9.919  0.1969  0.7484 -0.2359
  136MPD2    C1 2114   1.744   1.605   9.995  0.3259 -0.2023  0.8676
  136MPD2    C2 2115   1.841   1.679   9.928 -0.6038  0.3297 -0.1127
  136MPD2    C3 2116   1.853   1.677   9.788  0.0397 -0.5469 -0.4627
  136MPD2    C4 2117   1.764   1.600   9.717 -0.2644 -0.2997 -0.2028
  136MPD2    C5 2118   1.655   1.539   9.781  0.2218 -0.3180  0.3740
  136MPD2     H 2119   1.900   1.747   9.988  0.6969 -0.8998  0.0176
  136MPD2    H1 2120   1.766   1.577   9.611 -0.0869  0.5283 -0.3768
  136MPD2    H2 2121   1.565   1.494   9.964 -0.2730 -0.5736 -2.4928
  136MPD2    H3 2122   1.586   1.481   9.720 -0.7654 -0.6697  1.8378
  136MPD2     N 2123   1.950   1.757   9.714  0.3471  0.2353  0.4916
  136MPD2    H5 2124   1.972   1.729   9.618 -0.4088 -1.2945  0.7585
  136MPD2    N1 2125   1.725   1.621  10.133 -0.0780  0.1950 -0.0941
  136MPD2    H7 2126   1.796   1.677  10.178  0.4785  0.0348 -0.7695
  137TMC2    C1 2127   1.888   4.245  10.195  0.6131 -0.7546  0.4028
  137TMC2    C2 2128   2.011   4.220  10.251 -0.2646 -0.6137  0.2387
  137TMC2    C3 2129   2.026   4.119  10.337 -0.1009  0.8563  0.2601
  137TMC2    C4 2130   1.781   4.158  10.219 -0.1249 -0.3103 -0.1853
  137TMC2    C5 2131   1.803   4.054  10.307 -0.4361 -0.0700  0.0857
  137TMC2    C6 2132   1.921   4.027  10.377  0.0995  0.1754  0.0970
  137TMC2     C 2133   1.868   4.385  10.138  0.2494 -0.0485 -0.0425
  137TMC2     O 2134   1.963   4.460  10.149  0.0119  0.1972  0.6178
  137TMC2     H 2135   2.094   4.288  10.235 -0.4393 -0.2348  0.9462
  137TMC2    H1 2136   1.680   4.169  10.183  0.8578  0.6623 -2.6501
  137TMC2    H2 2137   1.931   3.954  10.456  2.5170 -1.0803 -1.3887
  137TMC2    C7 2138   1.695   3.970  10.347 -0.1031 -0.7177  0.3487
  137TMC2    C8 2139   2.130   4.134  10.434  0.0748 -0.5047 -0.5235
  137TMC2    O1 2140   1.727   3.868  10.403  0.1968  0.1629 -0.0407
  137TMC2    O2 2141   2.195   4.238  10.453  0.4212 -0.3308  0.0640
  137TMC2    O5 2142   2.167   4.012  10.468  0.3865  0.3651  0.1660
  137TMC2    H5 2143   2.130   3.941  10.411  0.8000 -0.5201  1.0075
  138MPD2     C 2144   1.585   4.526   9.955  0.2413  0.0879 -0.2493
  138MPD2    C1 2145   1.709   4.530  10.014  0.1159  0.2666 -0.0008
  138MPD2    C2 2146   1.790   4.648   9.997 -0.2440 -0.4480 -0.1488
  138MPD2    C3 2147   1.738   0.027   9.942  0.1540  0.1567  0.7960
  138MPD2    C4 2148   1.603   0.022   9.897  0.4233  0.1554  0.0196
  138MPD2    C5 2149   1.530   4.639   9.901  0.6151  0.5178 -0.2077
  138MPD2     H 2150   1.896   4.645  10.021 -0.6222  0.9928  1.6971
  138MPD2    H1 2151   1.546   0.105   9.858 -0.6803 -1.1161 -1.0716
  138MPD2    H2 2152   1.515   4.443   9.955 -1.3836  1.4529  2.5290
  138MPD2    H3 2153   1.430   4.626   9.860 -0.6545  0.4776  2.9530
  138MPD2     N 2154   1.822   0.149   9.930 -0.3576 -0.6394  0.1934
  138MPD2    H5 2155   1.919   0.143   9.959 -0.2905  1.6508  0.3900
  138MPD2    N1 2156   1.744   4.415  10.084 -0.2623  0.2811  0.4207
  138MPD2    H7 2157   1.670   4.347  10.097 -1.4856  1.6623  0.6640
  139TMC2    C1 2158   2.565   3.325  13.654 -0.0212 -0.5217  0.1271
  139TMC2    C2 2159   2.681   3.402  13.661 -0.0653 -0.4734  0.1765
  139TMC2    C3 2160   2.687   3.528  13.724  0.6596 -0.0052  0.2071
  139TMC2    C4 2161   2.462   3.356  13.731  0.1424 -0.3185 -0.0233
  139TMC2    C5 2162   2.484   3.472  13.812 -0.6155  0.3983  0.0825
  139TMC2    C6 2163   2.587   3.558  13.814 -0.3714  0.9081  0.2631
  139TMC2     C 2164   2.601   3.187  13.629  0.7942  0.5393 -0.4519
  139TMC2     O 2165   2.672   3.172  13.536 -0.0316 -0.4169 -0.1857
  139TMC2     H 2166   2.774   3.364  13.620 -0.2528 -1.3875  0.6093
  139TMC2    H1 2167   2.387   3.284  13.758  0.6405 -0.6569  0.4437
  139TMC2    H2 2168   2.572   3.661  13.843  0.8030  1.3705 -0.7527
  139TMC2    C7 2169   2.383   3.528  13.898 -0.1977  0.3985  0.0452
  139TMC2    C8 2170   2.822   3.571  13.731  0.5365 -0.0274  0.6539
  139TMC2    O1 2171   2.271   3.494  13.866 -0.8075  0.4024 -0.0633
  139TMC2    O2 2172   2.903   3.572  13.637  0.1143 -0.1245 -0.3314
  139TMC2    O5 2173   2.826   3.650  13.842 -0.0134  0.5447  0.1883
  139TMC2    H5 2174   2.774   3.619  13.919 -0.6514  1.5074  0.1326
  140MPD2     C 2175   2.503   2.891  13.826 -0.7256 -0.3128  0.5192
  140MPD2    C1 2176   2.583   2.960  13.740  0.1729 -0.1098 -0.2311
  140MPD2    C2 2177   2.667   2.888  13.649 -0.2249  0.1664  0.0698
  140MPD2    C3 2178   2.692   2.751  13.674  0.5381  0.1033 -0.4046
  140MPD2    C4 2179   2.610   2.685  13.771 -0.1490  0.1426 -0.1827
  140MPD2    C5 2180   2.518   2.758  13.840 -0.3336  0.1594 -0.7596
  140MPD2     H 2181   2.738   2.935  13.584  2.4683 -1.3016  1.9409
  140MPD2    H1 2182   2.614   2.580  13.798  1.9591  0.0757 -0.7650
  140MPD2    H2 2183   2.423   2.933  13.886 -1.6772  0.4536 -1.2770
  140MPD2    H3 2184   2.454   2.720  13.919 -2.0014 -0.5006 -2.4146
  140MPD2     N 2185   2.800   2.679  13.607 -0.1469  0.4756  0.4398
  140MPD2    H5 2186   2.854   2.730  13.538  1.5024 -2.1160 -0.1663
  140MPD2    N1 2187   2.553   3.100  13.725 -0.2753  0.1502  0.2960
  140MPD2    H7 2188   2.491   3.141  13.794  0.3580  3.9826 -1.4482
  141TMC2    C1 2189   3.087   0.273  14.163 -0.2341 -0.5775 -0.2629
  141TMC2    C2 2190   3.070   0.290  14.296  0.1057  0.9567  0.0572
  141TMC2    C3 2191   3.144   0.376  14.364 -0.5068  0.3444  0.4401
  141TMC2    C4 2192   3.177   0.349  14.096 -0.6632 -0.0191 -0.0667
  141TMC2    C5 2193   3.253   0.440  14.167  0.5225 -0.0536  0.2467
  141TMC2    C6 2194   3.244   0.454  14.303  0.4835 -0.7728 -0.6472
  141TMC2     C 2195   3.082   0.136  14.120  0.4478 -0.1420  0.2668
  141TMC2     O 2196   3.066   0.118  13.997  0.0080  0.1956 -0.0535
  141TMC2     H 2197   2.996   0.235  14.354  0.2870  2.1904  1.4666
  141TMC2    H1 2198   3.199   0.325  13.993 -0.4372 -0.5070  0.0968
  141TMC2    H2 2199   3.305   0.531  14.348  0.6885 -1.8931  0.9966
  141TMC2    C7 2200   3.387   0.462  14.104 -0.2988 -0.3700  0.4837
  141TMC2    C8 2201   3.108   0.403  14.501 -0.9045 -0.5621  0.2790
  141TMC2    O1 2202   3.400   0.465  13.980 -0.1376 -0.1458 -0.3618
  141TMC2    O2 2203   2.994   0.398  14.544  0.1243  0.1072  0.1369
  141TMC2    O5 2204   3.216   0.459  14.558 -0.0209 -0.4025 -0.0488
  141TMC2    H5 2205   3.303   0.440  14.518  0.9315  1.7796  1.0021
  142TMC2    C1 2206   4.671   3.009   9.913 -0.2692 -0.6026  0.4577
  142TMC2    C2 2207   4.625   3.031   9.785 -0.0656 -0.1187 -0.4400
  142TMC2    C3 2208   4.644   3.156   9.733 -1.0661 -0.8084 -0.1812
  142TMC2    C4 2209   0.007   3.102   9.983  0.2678 -0.4958  0.7999
  142TMC2    C5 2210   0.020   3.224   9.925 -0.3631 -0.4465  0.4219
  142TMC2    C6 2211   4.716   3.254   9.795  0.0392 -0.4773 -0.0118
  142TMC2     C 2212   4.670   2.874   9.953  0.7321  0.5841 -0.2162
  142TMC2     O 2213   4.571   2.803   9.936  0.5109  0.2486 -0.0304
  142TMC2     H 2214   4.576   2.948   9.735  0.8504 -1.0049  0.1356
  142TMC2    H1 2215   0.015   3.076  10.088 -0.6046  0.3282  1.0756
  142TMC2    H2 2216   4.730   3.354   9.755 -0.3403 -0.2372  0.4618
  142TMC2    C7 2217   0.081   3.322  10.008  0.3870 -0.8688 -0.1715
  142TMC2    C8 2218   4.604   3.182   9.590 -0.2454  0.4074  0.3863
  142TMC2    O1 2219   0.113   3.277  10.119  0.6712  0.0570  0.2887
  142TMC2    O2 2220   4.613   3.293   9.543  0.1607  0.0186  0.5451
  142TMC2    O5 2221   4.630   3.069   9.518 -0.1423 -0.0596  1.0273
  142TMC2    H5 2222   4.639   2.997   9.585  0.0343 -0.4140  0.6183
  143MPD2     C 2223   0.197   2.500  10.199 -0.0309 -0.5510  0.3673
  143MPD2    C1 2224   0.067   2.500  10.139  0.1603  0.4020 -0.7716
  143MPD2    C2 2225   0.021   2.603  10.069 -0.2984  0.6253  0.1710
  143MPD2    C3 2226   0.095   2.718  10.056 -0.6454  0.2958  0.1972
  143MPD2    C4 2227   0.223   2.716  10.106 -1.0080  0.2263  0.0787
  143MPD2    C5 2228   0.278   2.615  10.183  0.8274  0.1827 -0.6346
  143MPD2     H 2229   4.655   2.607  10.031  0.2433 -0.7563 -1.4487
  143MPD2    H1 2230   0.282   2.807  10.109 -1.2634  0.4601 -1.5523
  143MPD2    H2 2231   0.243   2.413  10.245  0.0822 -0.3006  0.7305
  143MPD2    H3 2232   0.377   2.611  10.228  0.2924  0.5447  0.5619
  143MPD2     N 2233   0.054   2.844  10.010 -0.0937 -0.2352 -0.0182
  143MPD2    H5 2234   0.124   2.918  10.011 -2.1833  1.7608  0.4972
  143MPD2    N1 2235   4.728   2.382  10.155 -0.1713  0.5072 -0.2689
  143MPD2    H7 2236   0.041   2.314  10.211 -1.2469  0.8797  1.1124
  144TMC2    C1 2237   3.539   1.660   0.723 -1.1214 -0.2439  0.6335
  144TMC2    C2 2238   3.527   1.548   0.781  0.3685 -0.6609 -0.1302
  144TMC2    C3 2239   3.610   1.515   0.885 -0.8241 -0.3880 -0.0541
  144TMC2    C4 2240   3.632   1.753   0.761  1.2049  0.8046  0.2915
  144TMC2    C5 2241   3.717   1.715   0.856 -0.1387 -0.4067 -0.0175
  144TMC2    C6 2242   3.716   1.596   0.925  0.8045 -0.1244  0.5218
  144TMC2     C 2243   3.450   1.687   0.614 -0.7854 -0.1101 -0.2118
  144TMC2     O 2244   3.425   1.604   0.523 -0.1540  0.6132 -0.0366
  144TMC2     H 2245   3.443   1.481   0.769 -1.4883  1.4186  1.2806
  144TMC2    H1 2246   3.652   1.839   0.697  2.3085 -0.1511 -0.6345
  144TMC2    H2 2247   3.791   1.581   1.002  0.5662  1.3147  1.0293
  144TMC2    C7 2248   3.826   1.796   0.891  0.4250  0.1988 -0.0199
  144TMC2    C8 2249   3.548   1.430   0.982  0.0491 -0.0201  0.7085
  144TMC2    O1 2250   3.931   1.734   0.910  0.3072 -0.1292 -0.1998
  144TMC2    O2 2251   3.488   1.328   0.954 -0.0645  0.2338  0.6020
  144TMC2    O5 2252   3.623   1.443   1.090 -0.0645  0.3488  0.0217
  144TMC2    H5 2253   3.627   1.537   1.119 -1.1387  0.3484  0.1733
  145MPD2     C 2254   3.143   2.034   0.407 -0.0977 -0.2811  0.3663
  145MPD2    C1 2255   3.166   1.912   0.362 -0.1361 -1.3700  0.2491
  145MPD2    C2 2256   3.259   1.838   0.431 -0.4776 -0.5826 -0.7279
  145MPD2    C3 2257   3.317   1.890   0.552  0.5622 -0.1312 -0.0716
  145MPD2    C4 2258   3.288   2.014   0.592  0.0958  0.7187  0.0566
  145MPD2    C5 2259   3.205   2.093   0.519  0.0843  0.5213  0.9304
  145MPD2     H 2260   3.289   1.740   0.398 -0.8775  0.0105 -2.8728
  145MPD2    H1 2261   3.329   2.054   0.685 -0.2476 -1.7847  1.2790
  145MPD2    H2 2262   3.073   2.096   0.351 -3.2060 -2.7672  1.4864
  145MPD2    H3 2263   3.175   2.191   0.552 -0.2761  1.0564 -1.0055
  145MPD2     N 2264   3.415   1.821   0.625  0.1393  0.5069 -0.1620
  145MPD2    H5 2265   3.446   1.866   0.710 -0.5829  1.0896 -0.2126
  145MPD2    N1 2266   3.114   1.859   0.242 -0.3057  0.8216 -0.6964
  145MPD2    H7 2267   3.137   1.763   0.219 -0.7727  0.3480  0.7891
  146TMC2    C1 2268   0.035   1.172  12.660 -0.1670  0.5742  0.0066
  146TMC2    C2 2269   4.667   1.200  12.581 -0.0318  0.3856  0.7081
  146TMC2    C3 2270   4.667   1.160  12.449  0.4818 -0.7735 -0.2679
  146TMC2    C4 2271   0.138   1.095  12.606 -0.5474  0.0060  0.0234
  146TMC2    C5 2272   0.135   1.054  12.481  0.4385  0.4397  0.1097
  146TMC2    C6 2273   0.024   1.078  12.402 -0.3522 -0.0280 -0.0380
  146TMC2     C 2274   0.004   1.168  12.801  0.1238  0.5997 -0.5498
  146TMC2     O 2275   4.643   1.229  12.838  0.2291  0.5583  0.4201
  146TMC2     H 2276   4.578   1.244  12.626 -1.4478 -0.1797 -1.5410
  146TMC2    H1 2277   0.229   1.084  12.665 -0.9953 -0.8722  0.5553
  146TMC2    H2 2278   0.027   1.045  12.299 -1.2416 -3.1453  0.9322
  146TMC2    C7 2279   0.250   0.982  12.424  0.2927  0.1243 -0.1188
  146TMC2    C8 2280   4.612   1.248  12.348  0.6620 -0.5742 -0.2161
  146TMC2    O1 2281   0.249   0.960  12.302  0.0597  0.0655  0.0200
  146TMC2    O2 2282   4.606   1.219  12.231  0.2259 -0.2536  0.6729
  146TMC2    O5 2283   4.616   1.371  12.400 -0.6714 -0.0323 -0.1453
  146TMC2    H5 2284   4.651   1.374  12.491  0.7263  1.3007 -0.7194
  147MPD2     C 2285   0.621   0.635  12.391 -0.1312  0.2852  0.6456
  147MPD2    C1 2286   0.572   0.618  12.521  0.3996  0.2356  0.2815
  147MPD2    C2 2287   0.471   0.715  12.556 -0.9112 -0.2540  0.3697
  147MPD2    C3 2288   0.432   0.821  12.475  0.3763 -0.1014 -0.3589
  147MPD2    C4 2289   0.487   0.819  12.345 -0.4859 -0.1170 -0.1236
  147MPD2    C5 2290   0.580   0.732  12.304  0.2834  0.0364  0.2648
  147MPD2     H 2291   0.435   0.713  12.659  0.2324  2.3587  0.8407
  147MPD2    H1 2292   0.455   0.888  12.268 -2.5826  2.0955  2.7160
  147MPD2    H2 2293   0.697   0.565  12.357  1.0263  1.9496 -0.2197
  147MPD2    H3 2294   0.614   0.742  12.201  0.8416 -0.4448  0.4042
  147MPD2     N 2295   0.338   0.924  12.513  0.2440 -0.6206 -0.1883
  147MPD2    H5 2296   0.303   0.917  12.608 -0.2190 -0.9060 -0.3772
  147MPD2    N1 2297   0.615   0.512  12.604  0.6083 -0.1540  0.3742
  147MPD2    H7 2298   0.698   0.467  12.566  0.7477  1.4638 -1.2125
  148TMC2    C1 2299   4.409   0.138  10.591  0.7016 -0.7587  0.8710
  148TMC2    C2 2300   4.495   0.245  10.574  0.8916  0.5364 -0.2819
  148TMC2    C3 2301   4.604   0.248  10.657 -0.2559 -0.0582  0.4959
  148TMC2    C4 2302   4.437   0.033  10.673 -0.4325  0.0538  0.7955
  148TMC2    C5 2303   4.535   0.047  10.766  0.3290 -0.1454  0.5532
  148TMC2    C6 2304   4.622   0.152  10.755 -0.0228  0.3067  0.3167
  148TMC2     C 2305   4.323   0.118  10.478 -0.5255  0.1680  0.5022
  148TMC2     O 2306   4.328   0.194  10.382  0.6134 -0.1717  0.1041
  148TMC2     H 2307   4.483   0.318  10.495 -0.9567  1.8625  1.2157
  148TMC2    H1 2308   4.363   4.697  10.707 -1.5793  0.7613 -0.2478
  148TMC2    H2 2309   4.708   0.155  10.822 -0.5550  0.0845  1.0154
  148TMC2    C7 2310   4.592   4.650  10.808  0.1650  0.2630 -0.1372
  148TMC2    C8 2311   4.689   0.368  10.651 -0.2067  0.4282  0.0599
  148TMC2    O1 2312   4.558   4.551  10.742 -0.0922 -0.1303 -0.1095
  148TMC2    O2 2313   4.647   0.479  10.633 -0.2086  0.4484 -0.1413
  148TMC2    O5 2314   0.081   0.323  10.680 -0.8709 -0.3836  0.3430
  148TMC2    H5 2315   0.093   0.227  10.666 -1.8037 -0.6301  1.2958
  149MPD2     C 2316   4.082   0.031  10.330 -0.2439 -0.2748 -0.2303
  149MPD2    C1 2317   4.163   4.686  10.404  0.9372  0.7993 -0.3577
  149MPD2    C2 2318   4.139   4.547  10.411  0.0908  0.0814 -0.5629
  149MPD2    C3 2319   4.029   4.489  10.345 -0.0444  0.0385  1.2711
  149MPD2    C4 2320   3.954   4.575  10.264 -0.4442  0.2474  0.2749
  149MPD2    C5 2321   3.980   4.713  10.254  0.2004 -0.3222 -0.0947
  149MPD2     H 2322   4.208   4.484  10.466 -0.9141 -0.1908  0.3789
  149MPD2    H1 2323   3.868   4.535  10.210  1.5630 -2.1065 -1.1312
  149MPD2    H2 2324   4.089   0.139  10.325 -1.9584 -0.2254 -1.6110
  149MPD2    H3 2325   3.914   0.036  10.192 -1.3391 -0.7297  1.1629
  149MPD2     N 2326   3.987   4.350  10.359 -0.0719  0.6558  0.0139
  149MPD2    H5 2327   3.913   4.321  10.295  0.1100 -0.4717  0.3273
  149MPD2    N1 2328   4.274   4.728  10.475  0.7238 -0.0836  0.0167
  149MPD2    H7 2329   4.300   4.666  10.551 -1.7653 -0.5857  0.4642
  150TMC2    C1 2330   1.549   3.394  12.919 -0.6712  0.6163 -0.4173
  150TMC2    C2 2331   1.453   3.482  12.950 -0.4338 -0.0106 -0.2775
  150TMC2    C3 2332   1.491   3.606  13.007  0.6122  0.3247 -0.5646
  150TMC2    C4 2333   1.678   3.418  12.944 -0.0464 -0.0066 -0.2869
  150TMC2    C5 2334   1.710   3.541  12.982  0.3201  0.3989 -0.6011
  150TMC2    C6 2335   1.619   3.639  13.015 -0.0009 -0.3174 -0.1189
  150TMC2     C 2336   1.504   3.273  12.855  0.2980 -0.3579 -0.4132
  150TMC2     O 2337   1.541   3.162  12.876 -0.0058  0.4711  0.0979
  150TMC2     H 2338   1.348   3.458  12.936  0.1096 -1.8488 -1.1616
  150TMC2    H1 2339   1.749   3.348  12.900 -0.3441 -0.8659  0.6055
  150TMC2    H2 2340   1.651   3.740  13.037 -0.5839 -0.0039 -0.7143
  150TMC2    C7 2341   1.847   3.578  12.988  0.2302 -0.0429  0.3390
  150TMC2    C8 2342   1.394   3.709  13.038 -0.0391 -0.3400 -0.5238
  150TMC2    O1 2343   1.886   3.694  12.959 -0.9112  0.1563 -0.3203
  150TMC2    O2 2344   1.426   3.790  13.123  0.4434 -0.2956  0.0887
  150TMC2    O5 2345   1.368   3.751  12.910  0.0913  0.3308 -0.4008
  150TMC2    H5 2346   1.322   3.685  12.854  0.2146 -0.9853  1.0447
  151MPD2     C 2347   1.280   3.026  12.453 -0.1718  0.5232 -0.0264
  151MPD2    C1 2348   1.270   3.162  12.428  0.5618  0.4718  0.3003
  151MPD2    C2 2349   1.323   3.255  12.526 -0.5025 -0.1160  0.1879
  151MPD2    C3 2350   1.383   3.212  12.643 -0.9393  0.2870 -0.0638
  151MPD2    C4 2351   1.396   3.070  12.654  0.5082 -0.1071 -0.0529
  151MPD2    C5 2352   1.351   2.983  12.559  0.2878  0.0189  0.4143
  151MPD2     H 2353   1.316   3.362  12.513  1.7551  0.0207  0.0926
  151MPD2    H1 2354   1.445   3.022  12.738 -0.3847  1.2300  1.2279
  151MPD2    H2 2355   1.239   2.951  12.386 -0.5603  0.2229  0.5410
  151MPD2    H3 2356   1.363   2.876  12.568 -0.0781 -0.3917 -3.7042
  151MPD2     N 2357   1.431   3.305  12.736  0.6855 -0.0708 -0.4579
  151MPD2    H5 2358   1.424   3.403  12.712  1.6803 -0.4533 -2.3155
  151MPD2    N1 2359   1.217   3.200  12.305  0.1668 -0.2315 -0.2559
  151MPD2    H7 2360   1.201   3.122  12.242 -1.2581  0.6531 -0.9626
  152TMC2    C1 2361   1.891   3.083  13.310  0.0711 -0.8328  0.0581
  152TMC2    C2 2362   1.969   2.973  13.319 -0.6577  0.2135 -0.6387
  152TMC2    C3 2363   2.103   2.996  13.334 -0.1986  0.3561 -0.1426
  152TMC2    C4 2364   1.937   3.209  13.328 -0.3297  0.0759  0.7931
  152TMC2    C5 2365   2.069   3.222  13.358  0.8098  0.4942 -0.4512
  152TMC2    C6 2366   2.161   3.118  13.360 -0.0551 -0.3885 -0.5771
  152TMC2     C 2367   1.760   3.072  13.252 -0.1479  0.7164  0.0443
  152TMC2     O 2368   1.715   3.165  13.188  0.0345 -0.2395 -0.2021
  152TMC2     H 2369   1.924   2.874  13.312  0.5906 -0.4631  0.7614
  152TMC2    H1 2370   1.861   3.283  13.351  1.0426  1.3048  1.3857
  152TMC2    H2 2371   2.262   3.127  13.397 -0.5612 -0.8484  0.8938
  152TMC2    C7 2372   2.116   3.340  13.419 -0.5129 -0.2720 -0.1967
  152TMC2    C8 2373   2.187   2.888  13.386 -0.4380 -0.0858 -0.4953
  152TMC2    O1 2374   2.037   3.412  13.477 -0.2208  0.0444 -0.6630
  152TMC2    O2 2375   2.276   2.905  13.471  0.9806  0.3517 -0.1772
  152TMC2    O5 2376   2.125   2.768  13.371  0.3847  0.5307 -0.0003
  152TMC2    H5 2377   2.057   2.767  13.301  2.4750 -0.2867 -1.9867
  153MPD2     C 2378   1.534   2.772  13.274 -0.2825  0.2643  0.5933
  153MPD2    C1 2379   1.567   2.904  13.245 -0.0816 -0.2342 -0.0624
  153MPD2    C2 2380   1.478   2.976  13.163 -0.2563 -0.7585 -0.0034
  153MPD2    C3 2381   1.361   2.916  13.116  0.2825 -0.1936  0.3890
  153MPD2    C4 2382   1.326   2.790  13.151 -0.4701  0.9120 -0.5339
  153MPD2    C5 2383   1.421   2.718  13.223  0.2476 -0.0336 -0.2168
  153MPD2     H 2384   1.511   3.076  13.138  0.8941 -1.4773 -1.3797
  153MPD2    H1 2385   1.236   2.742  13.113 -0.1727 -1.2275  1.4615
  153MPD2    H2 2386   1.586   2.704  13.340 -0.2292  0.1354  0.4165
  153MPD2    H3 2387   1.401   2.613  13.239  0.6201 -0.2168 -0.9405
  153MPD2     N 2388   1.285   2.986  13.027  0.1959  0.0729 -0.6503
  153MPD2    H5 2389   1.318   3.080  13.007 -2.5537  1.4187  1.0680
  153MPD2    N1 2390   1.697   2.951  13.284  0.6341  0.0269  0.3292
  153MPD2    H7 2391   1.742   2.891  13.353  0.2706  1.9104  2.1897
  154TMC2    C1 2392   2.302   3.369   1.108  0.7009 -0.2996 -0.3331
  154TMC2    C2 2393   2.164   3.385   1.127 -0.4216  0.1418 -1.0098
  154TMC2    C3 2394   2.090   3.291   1.200 -0.8518  0.4334  0.6585
  154TMC2    C4 2395   2.360   3.253   1.158 -0.5558  0.4646  0.2335
  154TMC2    C5 2396   2.287   3.164   1.232  0.1882 -0.6174  0.0005
  154TMC2    C6 2397   2.153   3.187   1.258 -0.0593 -0.5689  0.3467
  154TMC2     C 2398   2.393   3.471   1.047 -0.8506  0.4350  0.3639
  154TMC2     O 2399   2.515   3.450   1.069 -0.2893  0.0935  0.8258
  154TMC2     H 2400   2.118   3.478   1.095  1.1065  1.7584  1.4567
  154TMC2    H1 2401   2.463   3.230   1.137 -0.5946  0.7040 -0.2289
  154TMC2    H2 2402   2.103   3.119   1.325 -0.8594  1.0080  1.3345
  154TMC2    C7 2403   2.342   3.030   1.263  0.3115  0.7816 -1.0887
  154TMC2    C8 2404   1.962   3.329   1.251  0.7929  0.2020  0.6130
  154TMC2    O1 2405   2.263   2.942   1.252 -0.2304 -0.5795  0.2210
  154TMC2    O2 2406   1.916   3.442   1.235 -0.0148 -0.2909  0.1389
  154TMC2    O5 2407   1.885   3.215   1.241 -0.3701  0.2442  0.8172
  154TMC2    H5 2408   1.933   3.131   1.226  0.2828  0.4055  2.0373
  155MPD2     C 2409   2.289   3.734   0.820 -0.0299  0.2931  0.5324
  155MPD2    C1 2410   2.372   3.671   0.915  0.4572 -0.1560  0.1697
  155MPD2    C2 2411   2.490   3.734   0.953 -0.5704 -0.0690 -0.5579
  155MPD2    C3 2412   2.519   3.850   0.889 -0.5916 -0.3830 -0.1623
  155MPD2    C4 2413   2.442   3.912   0.804 -0.5099 -0.0307 -0.4759
  155MPD2    C5 2414   2.317   3.859   0.778 -0.7578  0.9943  0.3374
  155MPD2     H 2415   2.554   3.694   1.031 -1.1467 -0.6855 -0.4029
  155MPD2    H1 2416   2.459   4.005   0.752 -3.6701  0.6403 -0.3007
  155MPD2    H2 2417   2.193   3.690   0.795  0.3217 -0.0170 -0.2909
  155MPD2    H3 2418   2.249   3.908   0.709 -0.3349 -0.0551 -0.8338
  155MPD2     N 2419   2.648   3.901   0.922 -0.7230  0.3005 -0.1631
  155MPD2    H5 2420   2.706   3.856   0.992  0.3465 -0.2701 -1.4178
  155MPD2    N1 2421   2.324   3.555   0.968 -0.1135 -0.2935 -0.1419
  155MPD2    H7 2422   2.224   3.546   0.952  0.1351 -0.1837 -1.7215
  156TMC2    C1 2423   3.036   0.702  11.876  0.5541 -0.3660 -0.2686
  156TMC2    C2 2424   3.156   0.640  11.883  0.3978  0.0864 -0.1428
  156TMC2    C3 2425   3.210   0.575  11.767  0.5573 -0.2734  0.4680
  156TMC2    C4 2426   2.959   0.699  11.765  0.5629 -0.3656  0.1262
  156TMC2    C5 2427   3.015   0.634  11.657 -0.1720 -0.4009 -0.3362
  156TMC2    C6 2428   3.136   0.572  11.656 -0.5909 -0.2958  0.1513
  156TMC2     C 2429   2.965   0.749  11.990 -0.4663 -0.4988 -0.2555
  156TMC2     O 2430   2.844   0.721  11.994  0.2771  0.8316  0.6598
  156TMC2     H 2431   3.221   0.666  11.966 -1.5547  1.8648  0.8421
  156TMC2    H1 2432   2.859   0.741  11.764 -0.7518 -3.5612 -2.7349
  156TMC2    H2 2433   3.179   0.526  11.568  0.9514 -1.1856  1.3712
  156TMC2    C7 2434   2.933   0.599  11.545 -0.4731 -0.2131 -0.3156
  156TMC2    C8 2435   3.362   0.552  11.771 -0.7350 -0.1981  0.7857
  156TMC2    O1 2436   2.979   0.510  11.476  0.0340  0.7396  0.5586
  156TMC2    O2 2437   3.412   0.511  11.876  0.1951 -0.1307 -0.3454
  156TMC2    O5 2438   3.399   0.662  11.700 -0.3009 -0.2032 -0.7019
  156TMC2    H5 2439   3.342   0.668  11.621 -0.4448 -1.5699 -0.6996
  157MPD2     C 2440   3.110   0.841  12.312  0.1976 -0.4328 -0.1120
  157MPD2    C1 2441   3.017   0.814  12.225 -0.1081  0.0062  0.1680
  157MPD2    C2 2442   2.884   0.833  12.264 -0.3704  0.3517 -0.3332
  157MPD2    C3 2443   2.847   0.864  12.390  0.4623 -0.3331 -0.6685
  157MPD2    C4 2444   2.946   0.898  12.480 -0.3584  0.1451 -0.4003
  157MPD2    C5 2445   3.076   0.881  12.440 -0.4431  0.4553  0.3507
  157MPD2     H 2446   2.809   0.796  12.194  1.2617 -2.8947 -0.3447
  157MPD2    H1 2447   2.924   0.910  12.586 -1.8882 -1.8540 -0.4791
  157MPD2    H2 2448   3.211   0.821  12.279  0.5410  0.9215  0.1348
  157MPD2    H3 2449   3.161   0.905  12.503 -2.1847  0.3104  2.7453
  157MPD2     N 2450   2.719   0.889  12.440  0.2734  0.1012  0.8890
  157MPD2    H5 2451   2.718   0.942  12.527 -0.5365 -1.2930  1.7437
  157MPD2    N1 2452   3.051   0.785  12.095  0.2983 -0.2191  0.3633
  157MPD2    H7 2453   3.148   0.811  12.082  0.3349  0.2875  1.6601
  158TMC2    C1 2454   1.833   4.563  13.520 -0.2928  0.1653 -0.5167
  158TMC2    C2 2455   1.827   4.625  13.397  0.0656  0.5275  0.0870
  158TMC2    C3 2456   1.711   4.618  13.328  0.3724  0.5886  0.2434
  158TMC2    C4 2457   1.719   4.506  13.577  0.6013  0.9277 -0.3824
  158TMC2    C5 2458   1.608   4.492  13.497  0.6151  0.7346  0.1623
  158TMC2    C6 2459   1.596   4.554  13.377  0.3451 -0.4134  1.5030
  158TMC2     C 2460   1.964   4.565  13.582 -0.9049 -0.2987 -0.4307
  158TMC2     O 2461   2.025   4.667  13.550 -0.4066  0.4371  0.5813
  158TMC2     H 2462   1.915   4.668  13.350 -0.4364 -1.0835 -2.3424
  158TMC2    H1 2463   1.734   4.464  13.676 -1.8583  1.5418  0.2621
  158TMC2    H2 2464   1.508   4.541  13.317  1.9573 -0.0520 -0.9333
  158TMC2    C7 2465   1.504   4.398  13.532  0.0062  0.2620  0.1198
  158TMC2    C8 2466   1.717   4.694  13.203 -0.1582  0.1296  0.8065
  158TMC2    O1 2467   1.399   4.410  13.467  0.1886 -0.2032 -0.1097
  158TMC2    O2 2468   1.816   0.005  13.155 -0.2802  0.1722 -0.0170
  158TMC2    O5 2469   1.593   4.703  13.146  0.2097  0.3573 -0.5807
  158TMC2    H5 2470   1.520   4.699  13.211  0.3477 -0.4508 -0.4745
  159MPD2     C 2471   2.320   4.431  13.929 -0.0300 -0.6040  0.8972
  159MPD2    C1 2472   2.200   4.373  13.962 -0.2495 -0.2764  0.4182
  159MPD2    C2 2473   2.094   4.388  13.875  0.4714 -0.3353 -0.9465
  159MPD2    C3 2474   2.104   4.471  13.762 -0.3249 -0.4784 -0.4230
  159MPD2    C4 2475   2.221   4.538  13.738 -0.5271 -0.4019  0.3422
  159MPD2    C5 2476   2.326   4.515  13.818  0.1723  0.4416 -0.1500
  159MPD2     H 2477   1.998   4.341  13.892  0.7560 -0.9289 -1.0006
  159MPD2    H1 2478   2.235   4.593  13.646  4.3504 -0.4395  1.0715
  159MPD2    H2 2479   2.405   4.417  13.994  0.7550 -1.4456 -0.3302
  159MPD2    H3 2480   2.419   4.560  13.786 -0.2579 -0.2599 -2.3819
  159MPD2     N 2481   1.991   4.469  13.678  0.1445 -0.1398  0.1734
  159MPD2    H5 2482   1.935   4.385  13.677 -2.1915  1.4382 -3.1437
  159MPD2    N1 2483   2.199   4.302  14.081  0.0917  0.1438  0.6914
  159MPD2    H7 2484   2.281   4.301  14.141  0.8542  2.2478 -0.3234
  160TMC2    C1 2485   1.579   2.620   1.712  0.0685 -0.4352  0.7398
  160TMC2    C2 2486   1.538   2.548   1.824 -0.8704 -0.1984 -0.5490
  160TMC2    C3 2487   1.580   2.422   1.831 -0.1981  0.4557  0.0880
  160TMC2    C4 2488   1.672   2.569   1.623  0.5094  0.1965 -0.2787
  160TMC2    C5 2489   1.711   2.436   1.639 -0.3870  0.2519 -0.2792
  160TMC2    C6 2490   1.663   2.363   1.746 -0.1789  0.2392 -0.3163
  160TMC2     C 2491   1.503   2.748   1.695 -0.1620 -0.0796  0.0672
  160TMC2     O 2492   1.417   2.769   1.782  1.4334  0.1109  0.0802
  160TMC2     H 2493   1.482   2.598   1.902 -2.1371 -2.2513 -0.1407
  160TMC2    H1 2494   1.693   2.630   1.536 -1.7334 -0.4817 -1.2893
  160TMC2    H2 2495   1.685   2.258   1.759  1.0194  0.4261 -0.7790
  160TMC2    C7 2496   1.819   2.377   1.563  0.0327  0.1647 -0.2648
  160TMC2    C8 2497   1.498   2.335   1.914  0.0245 -0.2551  0.5910
  160TMC2    O1 2498   1.849   2.263   1.596  0.0524  0.0030  0.3465
  160TMC2    O2 2499   1.491   2.215   1.898 -1.0257  0.2889  0.3838
  160TMC2    O5 2500   1.448   2.396   2.020  0.2397  0.0512  0.5363
  160TMC2    H5 2501   1.509   2.470   2.040 -0.6048  0.9559 -0.2989
  161MPD2     C 2502   1.344   2.983   1.606  0.1769 -0.0292  0.6903
  161MPD2    C1 2503   1.451   2.933   1.538  0.3896  0.0294  0.5627
  161MPD2    C2 2504   1.478   2.990   1.416 -0.2044 -0.3821 -0.1072
  161MPD2    C3 2505   1.401   3.101   1.367 -0.2399 -0.2622  0.3175
  161MPD2    C4 2506   1.304   3.158   1.448  0.1505 -0.6373  1.3630
  161MPD2    C5 2507   1.279   3.100   1.570  0.3777  0.2640 -0.1476
  161MPD2     H 2508   1.554   2.943   1.353 -1.5001 -0.0443 -1.9352
  161MPD2    H1 2509   1.236   3.227   1.398 -0.2214 -0.9186  1.4814
  161MPD2    H2 2510   1.310   2.933   1.696  1.1254 -0.5273  0.7672
  161MPD2    H3 2511   1.195   3.139   1.628 -0.1265 -1.1769  0.0954
  161MPD2     N 2512   1.422   3.159   1.238  0.4436 -0.2496  0.0441
  161MPD2    H5 2513   1.354   3.230   1.212  3.5589  2.7126 -0.0091
  161MPD2    N1 2514   1.533   2.830   1.586 -0.5688 -0.2922  0.0397
  161MPD2    H7 2515   1.612   2.809   1.526 -0.2040  1.4095 -0.0754
  162TMC2    C1 2516   4.207   4.303   0.551  0.4937  0.1748  0.4753
  162TMC2    C2 2517   4.077   4.327   0.582 -0.3821  0.3874 -0.0575
  162TMC2    C3 2518   4.051   4.380   0.709  0.0137  0.3957  0.2035
  162TMC2    C4 2519   4.310   4.340   0.636  0.1045  0.1089 -0.7447
  162TMC2    C5 2520   4.282   4.397   0.758 -1.1935 -0.4682 -0.3024
  162TMC2    C6 2521   4.152   4.408   0.802 -0.2168  0.7734  0.6721
  162TMC2     C 2522   4.248   4.221   0.437  0.1428 -0.9304  0.6730
  162TMC2     O 2523   4.370   4.233   0.408 -0.4457 -0.0680  0.5571
  162TMC2     H 2524   4.001   4.320   0.505 -1.6748  2.0664  1.0555
  162TMC2    H1 2525   4.408   4.304   0.607 -0.8259 -1.3846 -2.0398
  162TMC2    H2 2526   4.123   4.453   0.897  0.3352 -0.9053  1.6453
  162TMC2    C7 2527   4.383   4.477   0.829 -0.8580 -0.2871 -0.4846
  162TMC2    C8 2528   3.913   4.394   0.766 -0.2284 -0.7370  0.0587
  162TMC2    O1 2529   4.340   4.532   0.929  0.5093  0.2129 -0.0942
  162TMC2    O2 2530   3.888   4.473   0.852 -0.0128 -1.0266  0.1736
  162TMC2    O5 2531   3.839   4.338   0.673  0.1402  0.6383  0.1014
  162TMC2    H5 2532   3.891   4.267   0.630 -2.5425 -1.5122  0.4036
  163MPD2     C 2533   4.193   3.849   0.086  0.0868 -0.1633 -1.0172
  163MPD2    C1 2534   4.287   3.957   0.094 -0.2763  0.3561  0.1439
  163MPD2    C2 2535   4.281   4.050   0.199 -0.2454  0.6900  0.4215
  163MPD2    C3 2536   4.177   4.042   0.298 -0.6454  0.6088  0.1982
  163MPD2    C4 2537   4.094   3.930   0.288 -0.1291 -1.0030  0.0041
  163MPD2    C5 2538   4.104   3.836   0.193  0.9698  0.4848 -0.0601
  163MPD2     H 2539   4.349   4.134   0.194  0.1448  0.3522 -0.0732
  163MPD2    H1 2540   4.015   3.913   0.360  0.5835 -0.9469  0.7894
  163MPD2    H2 2541   4.187   3.779   0.004 -0.8484 -0.8742 -0.3480
  163MPD2    H3 2542   4.035   3.753   0.201 -0.7666  2.0082  0.6639
  163MPD2     N 2543   4.149   4.136   0.393 -0.7718  0.1437 -0.0242
  163MPD2    H5 2544   4.065   4.113   0.446  0.0461 -1.9225  0.3575
  163MPD2    N1 2545   4.376   3.970  17.721 -0.5067  0.1915  0.3609
  163MPD2    H7 2546   4.370   3.899  17.648 -2.1887 -0.8645  1.5103
  164TMC2    C1 2547   0.752   4.682  10.888  0.1526  0.6002 -0.3357
  164TMC2    C2 2548   0.869   0.003  10.927 -0.2642 -0.8012  0.5778
  164TMC2    C3 2549   0.855   0.109  11.006  0.3646  0.5809 -0.3294
  164TMC2    C4 2550   0.626   0.011  10.888  0.4680  0.7337  0.8104
  164TMC2    C5 2551   0.630   0.133  10.956 -0.0948 -0.0262 -0.2380
  164TMC2    C6 2552   0.739   0.177  11.021  0.0211 -0.6644  0.0268
  164TMC2     C 2553   0.748   4.538  10.849 -0.0439  0.1101 -0.2025
  164TMC2     O 2554   0.636   4.495  10.823  0.5081  0.1958  0.6835
  164TMC2     H 2555   0.963   4.685  10.921  0.4918  0.8610 -2.3837
  164TMC2    H1 2556   0.533   4.708  10.847  1.0013  1.5254 -1.1520
  164TMC2    H2 2557   0.723   0.230  11.114  1.5227  2.2208 -1.3433
  164TMC2    C7 2558   0.504   0.188  10.987 -0.1683  0.2553 -1.4190
  164TMC2    C8 2559   0.975   0.158  11.068 -0.4080 -0.2310 -0.6925
  164TMC2    O1 2560   0.404   0.126  10.954  0.0972 -0.0859 -0.0782
  164TMC2    O2 2561   1.072   0.090  11.084  0.1438  0.3448  0.1380
  164TMC2    O5 2562   0.973   0.288  11.065  0.1934 -0.6538 -0.5788
  164TMC2    H5 2563   0.885   0.320  11.035  0.9408 -0.3186 -2.4072
  165TMC2    C1 2564   1.235   1.493   0.651  0.0341 -1.2986 -1.3481
  165TMC2    C2 2565   1.231   1.354   0.654  0.1101 -0.4838  0.7594
  165TMC2    C3 2566   1.342   1.283   0.695  0.1506 -0.5242 -0.1084
  165TMC2    C4 2567   1.347   1.557   0.702  0.3744 -0.1657  0.0717
  165TMC2    C5 2568   1.456   1.480   0.741  0.1676 -0.2253 -0.5963
  165TMC2    C6 2569   1.452   1.344   0.744  0.0309  0.4194 -0.0417
  165TMC2     C 2570   1.112   1.582   0.642  0.0317  1.1461  0.2713
  165TMC2     O 2571   1.123   1.698   0.674 -0.1646  0.0210 -0.1165
  165TMC2     H 2572   1.136   1.304   0.645  0.6181 -1.1200 -1.1238
  165TMC2    H1 2573   1.340   1.665   0.695  3.1329  0.1572  1.9830
  165TMC2    H2 2574   1.537   1.287   0.779 -0.6117  0.1849  1.1218
  165TMC2    C7 2575   1.574   1.528   0.811 -1.7530  0.4961 -0.2213
  165TMC2    C8 2576   1.336   1.139   0.712  0.2659  0.6865 -0.1408
  165TMC2    O1 2577   1.671   1.455   0.820  0.4476 -0.1275 -0.6873
  165TMC2    O2 2578   1.242   1.077   0.755  0.8890  0.3416  0.0524
  165TMC2    O5 2579   1.397   1.119   0.592 -0.1657  0.4118  0.4271
  165TMC2    H5 2580   1.466   1.188   0.580 -1.8650  1.9126 -0.5534
  166MPD2     C 2581   0.612   1.577   0.772 -0.4891 -0.7210 -0.3340
  166MPD2    C1 2582   0.704   1.680   0.772 -0.2817 -0.0123  0.1144
  166MPD2    C2 2583   0.835   1.669   0.712  0.9729  0.5503  0.2830
  166MPD2    C3 2584   0.871   1.549   0.662  0.1479  0.2831  0.1480
  166MPD2    C4 2585   0.775   1.446   0.662  0.1798 -0.3289 -0.2579
  166MPD2    C5 2586   0.648   1.463   0.716 -0.1345  0.0375 -0.8100
  166MPD2     H 2587   0.901   1.755   0.706  1.3393  0.2532  0.1091
  166MPD2    H1 2588   0.800   1.345   0.631 -0.2481 -1.0368  1.7141
  166MPD2    H2 2589   0.513   1.585   0.815 -0.7294  0.8483 -1.1659
  166MPD2    H3 2590   0.581   1.378   0.707 -2.4775  1.6241  1.7304
  166MPD2     N 2591   0.999   1.514   0.622  0.4401 -0.6227  0.1187
  166MPD2    H5 2592   1.002   1.426   0.571  0.6152  0.4189 -1.6689
  166MPD2    N1 2593   0.663   1.802   0.830 -0.2896 -0.4981  0.3217
  166MPD2    H7 2594   0.574   1.799   0.878 -0.4090  0.7540  0.1894
  167TMC2    C1 2595   4.667   4.125  12.903  0.2417 -0.2088  0.6241
  167TMC2    C2 2596   4.597   4.131  13.023 -0.8195  0.7667 -0.2817
  167TMC2    C3 2597   4.609   4.028  13.112  0.2231 -0.4055 -0.1472
  167TMC2    C4 2598   4.736   4.014  12.871 -0.1805  0.3460  0.2468
  167TMC2    C5 2599   0.001   3.908  12.962 -0.3471  0.1492  0.0578
  167TMC2    C6 2600   4.687   3.916  13.088 -0.1622 -1.0155 -0.0532
  167TMC2     C 2601   4.647   4.246  12.814  0.0306 -0.7529  0.0248
  167TMC2     O 2602   4.613   4.348  12.873  0.0309 -0.3313  0.0689
  167TMC2     H 2603   4.541   4.218  13.057  0.9398  2.4272 -1.6089
  167TMC2    H1 2604   0.057   4.003  12.780 -0.3888  0.7574  0.0661
  167TMC2    H2 2605   4.672   3.831  13.155  1.3560 -2.3027 -1.3551
  167TMC2    C7 2606   0.043   3.777  12.921 -0.4524  0.1736 -0.2424
  167TMC2    C8 2607   4.527   4.038  13.235 -0.2031  0.0072  0.6077
  167TMC2    O1 2608   0.069   3.699  13.013  0.0799  0.2770  0.1943
  167TMC2    O2 2609   4.545   3.955  13.324  0.1582  0.3030  0.4235
  167TMC2    O5 2610   4.408   4.072  13.195  0.4792 -0.1736  0.1792
  167TMC2    H5 2611   4.415   4.122  13.111  2.9007 -0.3032  0.3043
  168MPD2     C 2612   4.586   4.422  12.580  0.5014 -0.8212 -0.1423
  168MPD2    C1 2613   4.622   4.294  12.570  0.2957  0.0176 -0.3750
  168MPD2    C2 2614   4.625   4.239  12.445 -0.0537  0.7984  0.2064
  168MPD2    C3 2615   4.598   4.328  12.337  0.0238  0.5480 -0.5649
  168MPD2    C4 2616   4.570   4.454  12.350  0.4571  0.3802 -0.1393
  168MPD2    C5 2617   4.574   4.503  12.479 -0.3897 -0.0820 -0.4561
  168MPD2     H 2618   4.648   4.133  12.433 -0.7154  0.5337  1.3070
  168MPD2    H1 2619   4.551   4.522  12.268 -0.9865 -0.1653 -0.2589
  168MPD2    H2 2620   4.567   4.465  12.677  1.0214  0.1755 -0.4804
  168MPD2    H3 2621   4.559   4.609  12.496 -0.7893  0.0457 -1.6412
  168MPD2     N 2622   4.588   4.286  12.201 -0.3061 -0.0982 -0.6222
  168MPD2    H5 2623   4.538   4.351  12.141  0.9104  0.1521 -1.3592
  168MPD2    N1 2624   4.658   4.214  12.680 -0.9022 -0.0716  0.1174
  168MPD2    H7 2625   4.677   4.116  12.663 -1.3243 -0.3083  0.9828
  169MPD1     C 2626   2.317   4.155   9.059  1.1246  0.3716 -0.0161
  169MPD1    C1 2627   2.359   4.157   9.190 -0.6797  0.2266  0.3472
  169MPD1    C2 2628   2.427   4.043   9.230 -0.1807 -0.4931 -0.1979
  169MPD1    C3 2629   2.437   3.923   9.155 -0.0243  0.6940  0.8816
  169MPD1    C4 2630   2.391   3.923   9.026  0.0851  0.1447 -0.0124
  169MPD1    C5 2631   2.340   4.044   8.978 -0.3275  0.4593  0.5332
  169MPD1     H 2632   2.468   4.042   9.330 -1.3807 -1.3622  0.2888
  169MPD1    H1 2633   2.413   3.840   8.959 -2.2201 -0.7160  0.3111
  169MPD1    H2 2634   2.278   4.247   9.017 -1.1075  0.1996  1.6538
  169MPD1    H3 2635   2.302   4.053   8.877 -1.4222  0.3623  0.9377
  169MPD1     N 2636   2.504   3.807   9.205 -0.2197  0.1851  0.4190
  169MPD1    H5 2637   2.538   3.812   9.301 -2.4022  2.6464  1.0659
  169MPD1    N1 2638   2.358   4.276   9.266 -0.1331 -0.2620  0.7461
  169MPD1    H6 2639   2.357   4.272   9.368 -3.1071  1.0603  0.7843
  169MPD1    H7 2640   2.271   4.326   9.248  0.7460  0.5872 -1.1169
  170MPD1     C 2641   1.186   1.360  12.511  0.2509  0.0427 -0.1356
  170MPD1    C1 2642   1.050   1.383  12.511  1.0835  0.2930 -0.4104
  170MPD1    C2 2643   0.985   1.426  12.625  0.1260 -0.4470 -0.2700
  170MPD1    C3 2644   1.047   1.401  12.746  0.1632 -0.1633  0.4073
  170MPD1    C4 2645   1.188   1.385  12.748  0.0891 -0.3757  0.2028
  170MPD1    C5 2646   1.248   1.359  12.630  0.1120  0.4339 -0.3624
  170MPD1     H 2647   0.879   1.443  12.613  0.0922 -0.8682 -0.5565
  170MPD1    H1 2648   1.242   1.381  12.841 -0.8525 -0.7077  0.7356
  170MPD1    H2 2649   1.246   1.350  12.420  0.1574  1.7837 -0.3840
  170MPD1    H3 2650   1.357   1.351  12.628 -0.0630 -1.6664 -1.5422
  170MPD1     N 2651   0.970   1.421  12.862 -0.8832  0.0296  0.0835
  170MPD1    H5 2652   0.869   1.424  12.855 -0.9337 -1.4917  0.1601
  170MPD1    N1 2653   0.985   1.386  12.384  0.1670 -0.0745  0.1912
  170MPD1    H6 2654   1.038   1.333  12.316 -0.2772  2.3770 -2.0772
  170MPD1    H7 2655   0.888   1.358  12.398  0.2350 -0.6988 -0.5489
  171MPD1     C 2656   3.927   2.488  15.270  0.4038 -0.1552 -0.4163
  171MPD1    C1 2657   3.859   2.513  15.382 -0.0673  0.5937  0.0916
  171MPD1    C2 2658   3.879   2.431  15.492  0.2557  0.2503 -0.3773
  171MPD1    C3 2659   3.964   2.327  15.485 -0.0912  0.0188 -0.2939
  171MPD1    C4 2660   4.016   2.296  15.368  0.0685 -0.3431 -0.2316
  171MPD1    C5 2661   3.990   2.367  15.260  0.3631  0.5931 -0.4659
  171MPD1     H 2662   3.826   2.458  15.583 -0.8130  0.1105 -0.9543
  171MPD1    H1 2663   4.067   2.201  15.356 -1.8838 -1.3072 -0.7999
  171MPD1    H2 2664   3.924   2.552  15.182 -0.2433  0.9163  0.3814
  171MPD1    H3 2665   4.033   2.340  15.164 -1.9342 -3.0309 -0.4802
  171MPD1     N 2666   3.992   2.238  15.592  0.0231 -0.0155  0.3515
  171MPD1    H5 2667   4.061   2.167  15.569  1.1484  0.8479  1.0334
  171MPD1    N1 2668   3.795   2.637  15.395 -0.3464  0.8986 -0.1243
  171MPD1    H6 2669   3.761   2.675  15.307 -2.4537 -1.5826 -0.3771
  171MPD1    H7 2670   3.730   2.633  15.473  0.8667  2.0306  0.9589
  172MPD1     C 2671   3.553   1.690  17.429 -0.1517  0.3258  0.0578
  172MPD1    C1 2672   3.572   1.827  17.427  0.4349 -0.0904 -0.0527
  172MPD1    C2 2673   3.533   1.891  17.543  0.2486 -0.4372 -0.5633
  172MPD1    C3 2674   3.471   1.832  17.651 -0.5655  0.1265  0.2543
  172MPD1    C4 2675   3.456   1.702  17.650 -0.3331 -0.4257 -0.5135
  172MPD1    C5 2676   3.503   1.634  17.538  0.5569 -0.3351 -0.1676
  172MPD1     H 2677   3.545   1.999  17.535 -1.4576 -0.2168 -0.2297
  172MPD1    H1 2678   3.424   1.648  17.738  0.0722  2.4948  1.4107
  172MPD1    H2 2679   3.576   1.621  17.348  0.4912 -0.4987  0.9305
  172MPD1    H3 2680   3.506   1.525  17.539 -1.4161 -0.3911 -0.0859
  172MPD1     N 2681   3.445   1.905   0.029  0.1851 -0.4435 -0.3001
  172MPD1    H5 2682   3.434   1.847   0.111 -0.5905  3.6857  2.5207
  172MPD1    N1 2683   3.636   1.899  17.322  0.4938  0.6517  0.4643
  172MPD1    H6 2684   3.625   1.871  17.224  0.0802 -1.0647  0.9987
  172MPD1    H7 2685   3.606   1.997  17.324  1.3144  0.9440 -1.4958
  173MPD1     C 2686   0.294   2.844  14.445  0.1435  0.0337 -0.2289
  173MPD1    C1 2687   0.380   2.770  14.514 -0.4692 -1.2133  0.2175
  173MPD1    C2 2688   0.359   2.634  14.515 -0.2470 -0.4979  0.4104
  173MPD1    C3 2689   0.253   2.570  14.445  1.2062 -0.0340  0.3392
  173MPD1    C4 2690   0.164   2.654  14.380  0.2674 -0.2983  0.1253
  173MPD1    C5 2691   0.189   2.784  14.377 -0.6003 -0.3101  0.2513
  173MPD1     H 2692   0.434   2.578  14.570  0.5892 -0.7827 -1.0330
  173MPD1    H1 2693   0.076   2.620  14.325  0.9923 -2.2851  0.2012
  173MPD1    H2 2694   0.308   2.951  14.456 -0.8705 -0.1308  2.4921
  173MPD1    H3 2695   0.122   2.852  14.325  2.0812  0.7308 -1.8031
  173MPD1     N 2696   0.247   2.428  14.438  0.6304  0.2355  0.1515
  173MPD1    H5 2697   0.320   2.377  14.487  2.4345  1.7596 -0.9643
  173MPD1    N1 2698   0.486   2.821  14.602  0.8099  0.4125  0.5539
  173MPD1    H6 2699   0.547   2.747  14.635 -1.5160 -1.5854  0.3721
  173MPD1    H7 2700   0.523   2.910  14.571 -0.4270  0.3827 -1.0031
  174MPD1     C 2701   0.066   1.862  13.667  0.2495 -0.6933  0.2408
  174MPD1    C1 2702   0.101   1.768  13.761 -0.0787 -0.6741 -0.6774
  174MPD1    C2 2703   0.103   1.817  13.892 -0.0289  0.3360 -0.4125
  174MPD1    C3 2704   0.045   1.939  13.925 -0.2042  0.2566  0.2107
  174MPD1    C4 2705   0.002   2.029  13.830  0.0515 -0.7103 -1.3000
  174MPD1    C5 2706   0.015   1.990  13.698 -1.2115 -0.3249 -0.2278
  174MPD1     H 2707   0.140   1.749  13.968  0.5420  0.3032 -0.7166
  174MPD1    H1 2708   4.698   2.124  13.863  1.1792 -0.4947 -0.5393
  174MPD1    H2 2709   0.070   1.830  13.564 -1.1655  2.1162 -0.6591
  174MPD1    H3 2710   4.729   2.060  13.618  0.9730  0.0604 -0.4777
  174MPD1     N 2711   0.045   1.979  14.056  1.2764 -0.7304  0.3343
  174MPD1    H5 2712   0.014   2.075  14.072  0.2570 -0.5314 -2.8558
  174MPD1    N1 2713   0.158   1.645  13.726  0.1132 -0.8736  0.8518
  174MPD1    H6 2714   0.128   1.580  13.798  0.7008 -0.9648  1.0104
  174MPD1    H7 2715   0.119   1.619  13.635  0.4857  2.4172 -0.2613
  175MPD1     C 2716   2.940   2.602  15.302 -0.1021  0.0638 -0.2459
  175MPD1    C1 2717   2.987   2.502  15.376 -0.0127  0.3021  0.2742
  175MPD1    C2 2718   2.987   2.526  15.516  0.4909  0.6573 -0.0978
  175MPD1    C3 2719   2.919   2.631  15.572  0.4998 -0.0465  0.4939
  175MPD1    C4 2720   2.859   2.722  15.486  0.9257  0.2493  0.6890
  175MPD1    C5 2721   2.871   2.705  15.351 -0.1227  0.0715  0.3357
  175MPD1     H 2722   3.047   2.465  15.582 -1.8629 -0.4669  0.9912
  175MPD1    H1 2723   2.795   2.801  15.523  0.7621  0.2553  0.3915
  175MPD1    H2 2724   2.934   2.603  15.194 -0.0401 -2.6801 -0.2908
  175MPD1    H3 2725   2.821   2.782  15.293 -0.7359 -0.1935  0.5103
  175MPD1     N 2726   2.911   2.662  15.710 -0.0638  0.0670 -0.1323
  175MPD1    H5 2727   2.848   2.739  15.729  2.2255  1.7832  0.5221
  175MPD1    N1 2728   3.069   2.402  15.323  0.9546  0.7641 -0.1991
  175MPD1    H6 2729   3.068   2.322  15.385 -1.0416 -0.3536 -1.6482
  175MPD1    H7 2730   3.030   2.364  15.237  0.2208 -0.3921  0.6430
  176MPD1     C 2731   0.005   4.601  16.597 -0.0099  0.2504 -0.4758
  176MPD1    C1 2732   0.114   4.682  16.567 -0.1663  0.6691 -0.4686
  176MPD1    C2 2733   0.157   0.024  16.680 -0.2228 -0.0574 -0.6297
  176MPD1    C3 2734   0.104   0.007  16.809  0.0998  0.7517  0.1671
  176MPD1    C4 2735   0.001   4.655  16.829  0.4459 -0.5532 -0.2054
  176MPD1    C5 2736   4.693   4.585  16.722 -0.2433  0.0327 -0.5718
  176MPD1     H 2737   0.230   0.103  16.666 -0.0278 -0.6790 -3.1530
  176MPD1    H1 2738   4.682   4.641  16.921 -1.9054 -1.0693 -1.6995
  176MPD1    H2 2739   4.690   4.533  16.529 -1.4589  1.9531 -1.1017
  176MPD1    H3 2740   4.613   4.512  16.731  0.1143 -0.4809 -1.5368
  176MPD1     N 2741   0.153   0.102  16.902  0.4704 -0.2023 -0.1159
  176MPD1    H5 2742   0.216   0.174  16.868  0.3822 -0.2933 -0.4771
  176MPD1    N1 2743   0.164   4.701  16.439  0.5885  0.1764 -0.1347
  176MPD1    H6 2744   0.266   4.705  16.441  0.5185  1.6608  1.1641
  176MPD1    H7 2745   0.134   4.635  16.369 -0.9623  1.3250 -0.5602
  177MPD1     C 2746   3.607   0.131  10.286 -0.7958  0.6470 -0.3677
  177MPD1    C1 2747   3.581   0.265  10.258  0.2638 -0.0271 -0.3295
  177MPD1    C2 2748   3.495   0.298  10.151 -0.2678  0.2195 -0.0691
  177MPD1    C3 2749   3.441   0.201  10.078 -0.0022  0.3437 -0.3563
  177MPD1    C4 2750   3.476   0.072  10.102 -0.1353  0.5417 -0.0322
  177MPD1    C5 2751   3.563   0.036  10.204 -0.0309 -0.2735 -0.5870
  177MPD1     H 2752   3.485   0.404  10.131  0.6414  0.4044  0.4463
  177MPD1    H1 2753   3.446   4.729  10.034 -1.3897  0.0458  1.0938
  177MPD1    H2 2754   3.670   0.105  10.370 -1.4312  0.9481  0.1996
  177MPD1    H3 2755   3.595   4.671  10.229  1.0606  0.2596  0.1638
  177MPD1     N 2756   3.351   0.242   9.973 -0.1135 -0.5979 -0.3155
  177MPD1    H5 2757   3.325   0.340   9.966 -0.5665 -0.8393 -2.0358
  177MPD1    N1 2758   3.672   0.360  10.315 -0.5003  0.3931  0.3692
  177MPD1    H6 2759   3.706   0.341  10.409 -1.4556  1.2240  0.8857
  177MPD1    H7 2760   3.746   0.370  10.246 -1.6149  0.8781 -0.7724
  178MPD1     C 2761   0.912   4.717   0.212  0.1372 -0.1021 -0.0792
  178MPD1    C1 2762   0.797   0.007   0.142  0.1172 -0.0554 -0.1928
  178MPD1    C2 2763   0.776   0.132   0.102 -0.1716  0.4996  0.4800
  178MPD1    C3 2764   0.858   0.237   0.143 -0.7070  0.7431 -0.1394
  178MPD1    C4 2765   0.971   0.211   0.208 -0.1390  0.1970  0.7547
  178MPD1    C5 2766   1.000   0.083   0.238 -0.4825 -0.3993 -0.1647
  178MPD1     H 2767   0.697   0.152   0.031 -0.5090 -3.0001 -0.1343
  178MPD1    H1 2768   1.045   0.288   0.231  2.2702 -2.4232  1.8238
  178MPD1    H2 2769   0.930   4.612   0.230 -2.3545 -0.9324 -2.4346
  178MPD1    H3 2770   1.097   0.058   0.280  0.2336  1.0988 -0.9194
  178MPD1     N 2771   0.844   0.371   0.108 -0.1067 -0.4421  0.2763
  178MPD1    H5 2772   0.923   0.434   0.120  0.7938 -1.3087 -1.0267
  178MPD1    N1 2773   0.719   4.634   0.084 -0.0264  0.2155 -0.5640
  178MPD1    H6 2774   0.714   4.550   0.141  1.0064  2.3111  2.6062
  178MPD1    H7 2775   0.622   4.663   0.069 -0.0302 -0.6561 -2.1896
  179MPD1     C 2776   0.319   3.560  14.966  0.2070 -0.0202 -0.1938
  179MPD1    C1 2777   0.346   3.425  14.990  0.0726 -0.6403 -0.1471
  179MPD1    C2 2778   0.284   3.368  15.101 -0.9410  0.4481  0.0065
  179MPD1    C3 2779   0.220   3.444  15.197  0.1054  0.4899 -0.0405
  179MPD1    C4 2780   0.204   3.580  15.178  0.1101 -0.5800 -0.5576
  179MPD1    C5 2781   0.254   3.634  15.065  0.1553 -0.0280  0.2602
  179MPD1     H 2782   0.285   3.261  15.118 -3.2910  0.7801  2.2180
  179MPD1    H1 2783   0.148   3.638  15.251 -0.3383 -0.4207 -1.0260
  179MPD1    H2 2784   0.353   3.616  14.880  0.8291 -0.8277 -0.4727
  179MPD1    H3 2785   0.230   3.739  15.053 -0.0546 -0.0823  0.2060
  179MPD1     N 2786   0.163   3.390  15.314 -0.4094  0.0739  0.7719
  179MPD1    H5 2787   0.095   3.451  15.358 -0.1721  1.4200 -0.7323
  179MPD1    N1 2788   0.398   3.347  14.883 -0.7012 -0.3457  0.0481
  179MPD1    H6 2789   0.466   3.403  14.830  0.2920 -0.0590  1.6403
  179MPD1    H7 2790   0.432   3.256  14.912  1.5033  0.2266 -0.7482
  180MPD1     C 2791   4.615   3.940  15.139 -0.2140 -0.1444  0.6161
  180MPD1    C1 2792   4.666   4.066  15.157  0.3241 -0.0522 -0.2448
  180MPD1    C2 2793   4.640   4.157  15.054 -0.6840  0.0074  0.0760
  180MPD1    C3 2794   4.558   4.127  14.947 -0.3985 -0.0262  0.5363
  180MPD1    C4 2795   4.497   4.003  14.939  0.0873 -0.1465  0.0453
  180MPD1    C5 2796   4.529   3.911  15.034  0.2835 -0.1820 -0.1498
  180MPD1     H 2797   4.695   4.250  15.064 -0.9376  0.3026 -1.2116
  180MPD1    H1 2798   4.422   3.986  14.863  0.0107  0.6813 -0.0618
  180MPD1    H2 2799   4.637   3.860  15.209  0.4607 -0.7037 -0.2317
  180MPD1    H3 2800   4.471   3.819  15.038  0.8661 -0.4407  2.0690
  180MPD1     N 2801   4.554   4.218  14.845 -0.0362 -0.0157  0.2226
  180MPD1    H5 2802   4.616   4.298  14.854 -0.2334  0.5093 -2.7915
  180MPD1    N1 2803   0.020   4.090  15.258 -0.0777  0.1379  0.5550
  180MPD1    H6 2804   0.007   4.030  15.339  1.8000 -2.2874 -0.9135
  180MPD1    H7 2805   0.016   4.183  15.298  1.7289  1.0696 -1.4012
  181MPD1     C 2806   2.085   1.646  10.132 -0.2343 -0.0188 -0.0331
  181MPD1    C1 2807   2.061   1.672  10.263 -0.1013 -0.1603 -0.0187
  181MPD1    C2 2808   2.129   1.781  10.318  0.1218  0.3366 -0.0943
  181MPD1    C3 2809   2.217   1.861  10.247 -0.3399 -0.2581  0.2536
  181MPD1    C4 2810   2.237   1.828  10.109 -0.2753 -0.3656 -0.2676
  181MPD1    C5 2811   2.166   1.725  10.055  0.2457 -0.4956  0.6616
  181MPD1     H 2812   2.115   1.804  10.423  1.7327  2.1454 -0.2503
  181MPD1    H1 2813   2.305   1.890  10.052 -1.2577  1.5815  0.6653
  181MPD1    H2 2814   2.026   1.572  10.080  0.0464 -0.0546 -0.3077
  181MPD1    H3 2815   2.183   1.686   9.956 -1.7054 -1.1401  0.5786
  181MPD1     N 2816   2.284   1.981  10.291  0.1691  0.0335  0.2102
  181MPD1    H5 2817   2.326   2.039  10.220  1.0817 -0.4105  0.3930
  181MPD1    N1 2818   1.959   1.609  10.330 -0.3192  0.0893  0.1486
  181MPD1    H6 2819   1.966   1.600  10.432 -0.6992  1.0374  0.2588
  181MPD1    H7 2820   1.933   1.516  10.299 -0.0269 -0.8222  2.6302
  182MPD1     C 2821   2.982   0.316   1.200  0.5324 -0.4673  0.4289
  182MPD1    C1 2822   2.905   0.429   1.228  0.6875  0.1657 -0.0520
  182MPD1    C2 2823   2.914   0.536   1.145 -0.4611 -0.1424  0.5090
  182MPD1    C3 2824   2.986   0.528   1.031 -0.7690 -0.0034 -0.5751
  182MPD1    C4 2825   3.063   0.416   1.002  0.2590  1.5736  0.0771
  182MPD1    C5 2826   3.053   0.309   1.086 -0.2982 -0.5422  0.0099
  182MPD1     H 2827   2.856   0.621   1.177  0.9188  0.8524  0.3825
  182MPD1    H1 2828   3.130   0.418   0.917  2.2932 -0.1229  1.6516
  182MPD1    H2 2829   2.990   0.230   1.266 -0.2446 -1.9128 -1.3790
  182MPD1    H3 2830   3.103   0.215   1.070  1.4769  0.7643 -1.9433
  182MPD1     N 2831   3.005   0.645   0.948  0.2158  0.6131 -0.5597
  182MPD1    H5 2832   3.071   0.632   0.873  0.3518  1.9488 -0.6640
  182MPD1    N1 2833   2.830   0.435   1.350  0.2673 -0.1425  0.2506
  182MPD1    H6 2834   2.800   0.342   1.382 -3.7090  1.4333  1.1222
  182MPD1    H7 2835   2.747   0.494   1.350  1.2701  1.2569 -0.8785
  183MPD1     C 2836   3.956   3.503   9.435  0.5631  0.3080  0.0047
  183MPD1    C1 2837   3.834   3.486   9.502  1.0619 -0.5242  0.2534
  183MPD1    C2 2838   3.820   3.369   9.583  0.0615 -0.1676  0.4625
  183MPD1    C3 2839   3.925   3.286   9.617 -0.1819  0.1851 -0.3622
  183MPD1    C4 2840   4.042   3.306   9.543 -0.4653 -0.2107 -0.3046
  183MPD1    C5 2841   4.053   3.407   9.451  0.3750 -0.4877  0.5211
  183MPD1     H 2842   3.726   3.355   9.635  0.5656 -0.3767  1.3231
  183MPD1    H1 2843   4.131   3.246   9.550 -0.9603 -1.0164 -0.9184
  183MPD1    H2 2844   3.968   3.584   9.364 -2.7375  1.7412  1.0717
  183MPD1    H3 2845   4.142   3.410   9.388 -0.3921 -1.3810 -0.5891
  183MPD1     N 2846   3.905   3.169   9.696  0.2276 -0.0723  0.3182
  183MPD1    H5 2847   3.816   3.154   9.742  1.1219 -0.6084  1.8911
  183MPD1    N1 2848   3.721   3.564   9.470  0.1787 -0.1700  0.2338
  183MPD1    H6 2849   3.748   3.659   9.444  0.2319 -0.2206  0.1045
  183MPD1    H7 2850   3.654   3.573   9.546  1.6359 -0.5219  1.5341
  184MPD1     C 2851   2.642   3.956  10.297 -0.0126  0.3549 -0.2536
  184MPD1    C1 2852   2.748   4.030  10.248  0.1122  0.6933  0.6610
  184MPD1    C2 2853   2.714   4.135  10.170 -0.6301 -0.3396 -0.3486
  184MPD1    C3 2854   2.585   4.184  10.147 -0.4659  0.2172  0.0903
  184MPD1    C4 2855   2.484   4.110  10.206  0.2107  0.1692  0.3308
  184MPD1    C5 2856   2.515   3.995  10.283  0.7245  0.2714  0.2994
  184MPD1     H 2857   2.797   4.192  10.128  0.3306 -0.1709  1.7853
  184MPD1    H1 2858   2.381   4.139  10.186 -0.3678 -2.5962 -0.7370
  184MPD1    H2 2859   2.656   3.864  10.353 -0.2799  1.1110  1.0487
  184MPD1    H3 2860   2.443   3.943  10.345  0.9785  1.5441  1.6516
  184MPD1     N 2861   2.554   4.296  10.063 -0.5175  0.5827  0.0934
  184MPD1    H5 2862   2.455   4.317  10.058 -0.7097  0.3285  2.6605
  184MPD1    N1 2863   2.884   4.004  10.280  0.0092  0.2995  0.2415
  184MPD1    H6 2864   2.903   3.910  10.315  0.9407  0.2047 -0.5325
  184MPD1    H7 2865   2.943   4.016  10.198  0.0284 -1.9182 -0.0674
  185MPD1     C 2866   2.139   4.625   9.199 -0.2214  0.6072 -0.1244
  185MPD1    C1 2867   2.149   4.522   9.284 -0.7455 -0.1887  0.0078
  185MPD1    C2 2868   2.227   4.527   9.398  0.1139  0.0903  0.5775
  185MPD1    C3 2869   2.288   4.651   9.437  0.0207 -0.4918 -0.9719
  185MPD1    C4 2870   2.261   0.022   9.362  0.0579  0.4501  0.7029
  185MPD1    C5 2871   2.177   0.011   9.256  0.5400  0.5766 -0.1142
  185MPD1     H 2872   2.232   4.441   9.463  0.3901  0.8088  1.5015
  185MPD1    H1 2873   2.296   0.123   9.382  1.1003  0.2530 -0.1778
  185MPD1    H2 2874   2.083   4.619   9.106  0.5648  2.3092 -0.7017
  185MPD1    H3 2875   2.156   0.094   9.190 -1.1995  0.5985  0.4752
  185MPD1     N 2876   2.360   4.660   9.557 -0.1398 -0.0708 -0.0166
  185MPD1    H5 2877   2.413   0.011   9.566  0.7128 -0.4497 -1.3594
  185MPD1    N1 2878   2.089   4.401   9.256 -0.4005 -0.6156  0.6828
  185MPD1    H6 2879   2.020   4.396   9.181 -0.9700 -0.1469  1.1665
  185MPD1    H7 2880   2.054   4.342   9.331 -0.4329 -0.2195  0.9771
  186MPD1     C 2881   0.793   3.519  15.442 -0.2333  0.2111  0.2548
  186MPD1    C1 2882   0.676   3.486  15.499 -0.2422  1.2725  0.4102
  186MPD1    C2 2883   0.669   3.521  15.636  0.2582 -0.1125  0.5557
  186MPD1    C3 2884   0.766   3.601  15.700 -0.0172 -0.0340  0.1611
  186MPD1    C4 2885   0.877   3.638  15.625  0.3657  0.1871 -0.3627
  186MPD1    C5 2886   0.897   3.591  15.497  1.0041 -0.4130  0.1440
  186MPD1     H 2887   0.589   3.481  15.697 -0.2818 -0.8560 -0.6525
  186MPD1    H1 2888   0.969   3.681  15.662  1.2272 -1.0996 -1.0277
  186MPD1    H2 2889   0.814   3.483  15.342 -0.5164 -0.8720  0.5791
  186MPD1    H3 2890   0.988   3.613  15.442  0.3813 -1.5545 -1.3292
  186MPD1     N 2891   0.762   3.635  15.840 -0.0251  0.7541  0.0098
  186MPD1    H5 2892   0.834   3.694  15.881  1.0335 -0.9792  0.6091
  186MPD1    N1 2893   0.584   3.407  15.430  0.2425  0.0070  0.3775
  186MPD1    H6 2894   0.575   3.437  15.333  0.4750  0.9305  0.6401
  186MPD1    H7 2895   0.491   3.424  15.468 -0.2592  2.3173 -1.9197
  187MPD1     C 2896   0.707   0.976  17.734  0.3423  0.4517 -0.0957
  187MPD1    C1 2897   0.592   0.913  17.714 -0.3488 -0.2584 -0.2085
  187MPD1    C2 2898   0.531   0.939  17.596  0.1273  0.8074 -0.1714
  187MPD1    C3 2899   0.585   1.013  17.489 -0.0031 -0.3212 -0.0434
  187MPD1    C4 2900   0.709   1.065  17.512  0.3181  0.3685 -0.1025
  187MPD1    C5 2901   0.766   1.050  17.635 -0.8127  0.6940  0.6830
  187MPD1     H 2902   0.429   0.903  17.591  0.0916  1.0792 -1.3887
  187MPD1    H1 2903   0.759   1.136  17.447 -0.3226  0.7391 -0.1982
  187MPD1    H2 2904   0.755   0.963   0.089  0.9797 -0.5757 -0.5431
  187MPD1    H3 2905   0.857   1.098  17.669 -0.1501 -0.3488  0.3736
  187MPD1     N 2906   0.531   1.020  17.362 -0.6013  0.8296 -0.0533
  187MPD1    H5 2907   0.575   1.082  17.294 -1.9088  1.8262  0.0187
  187MPD1    N1 2908   0.530   0.854   0.084  0.3565 -0.2198  0.0488
  187MPD1    H6 2909   0.469   0.777   0.059 -0.3813  0.3887 -0.0399
  187MPD1    H7 2910   0.601   0.815   0.145  1.4831  1.6158 -0.0848
  188MPD1     C 2911   4.548   1.571  10.451 -0.4431 -0.4326 -0.3323
  188MPD1    C1 2912   4.672   1.521  10.432  0.0191 -0.3262 -0.4457
  188MPD1    C2 2913   4.683   1.387  10.401 -0.5172 -0.1885 -0.7031
  188MPD1    C3 2914   4.569   1.308  10.380 -0.6948 -0.1419  0.9152
  188MPD1    C4 2915   4.444   1.367  10.381 -0.7583 -0.6829 -0.7061
  188MPD1    C5 2916   4.438   1.499  10.415 -0.4026 -0.1255 -0.3495
  188MPD1     H 2917   0.044   1.340  10.391 -1.7504 -2.8204 -0.3341
  188MPD1    H1 2918   4.356   1.315  10.346 -2.8075  0.8816  2.1071
  188MPD1    H2 2919   4.537   1.677  10.468  1.6084 -0.0336 -1.4982
  188MPD1    H3 2920   4.346   1.556  10.420  0.5243  1.2501  1.1679
  188MPD1     N 2921   4.577   1.175  10.344  0.1347 -0.2981  0.2057
  188MPD1    H5 2922   4.490   1.125  10.329 -0.1115 -0.1392  1.0871
  188MPD1    N1 2923   0.056   1.590  10.469  0.4156 -0.0661  0.3762
  188MPD1    H6 2924   0.128   1.585  10.398  1.8881 -0.6157  1.9243
  188MPD1    H7 2925   0.040   1.690  10.481 -0.3476 -0.4924  2.8716
  189MPD1     C 2926   2.178   2.302   0.525  0.0790 -0.0089 -0.8203
  189MPD1    C1 2927   2.117   2.427   0.526 -0.0306  0.2280 -0.3766
  189MPD1    C2 2928   1.986   2.445   0.474  0.4121 -0.1136  1.0005
  189MPD1    C3 2929   1.929   2.346   0.400 -0.1059 -0.2811 -0.9781
  189MPD1    C4 2930   1.981   2.216   0.413  0.4778  0.2209  0.1960
  189MPD1    C5 2931   2.107   2.198   0.464  0.1963 -0.4145 -0.3369
  189MPD1     H 2932   1.942   2.544   0.488 -0.6775 -0.7961  2.4264
  189MPD1    H1 2933   1.940   2.130   0.360  2.1982  1.0184 -2.4298
  189MPD1    H2 2934   2.276   2.280   0.564 -0.5946 -0.9191  0.3246
  189MPD1    H3 2935   2.155   2.102   0.449  0.4181 -0.3634  0.0537
  189MPD1     N 2936   1.808   2.370   0.328 -0.1643  0.0390  0.2204
  189MPD1    H5 2937   1.762   2.460   0.331  1.5333  0.9533 -1.5372
  189MPD1    N1 2938   2.176   2.526   0.605  0.1980 -0.0821  0.1140
  189MPD1    H6 2939   2.154   2.615   0.561 -0.8503 -0.3899  0.0042
  189MPD1    H7 2940   2.277   2.525   0.614  0.1717  1.4769  0.4702
  190MPD1     C 2941   0.304   4.200  15.464  0.3218  0.2483  0.2306
  190MPD1    C1 2942   0.321   4.332  15.504 -0.8025 -0.0885 -0.5051
  190MPD1    C2 2943   0.454   4.372  15.531  0.2026 -0.7132  1.2236
  190MPD1    C3 2944   0.558   4.284  15.507  0.4826 -0.5857 -0.0577
  190MPD1    C4 2945   0.527   4.157  15.454  0.3938 -0.4206 -0.1447
  190MPD1    C5 2946   0.398   4.115  15.441 -0.0074 -0.0716  0.5134
  190MPD1     H 2947   0.472   4.472  15.569  0.9665  0.2954 -1.8205
  190MPD1    H1 2948   0.606   4.087  15.427  1.6347  0.7164  0.5458
  190MPD1    H2 2949   0.202   4.162  15.466  0.0474  0.9584 -0.0067
  190MPD1    H3 2950   0.377   4.015  15.403 -0.1195 -0.6309  2.0447
  190MPD1     N 2951   0.693   4.327  15.540 -0.7235 -0.1390  0.1889
  190MPD1    H5 2952   0.698   4.414  15.592 -2.1093  0.8957 -1.3699
  190MPD1    N1 2953   0.202   4.400  15.538 -0.0339 -0.3637 -0.3030
  190MPD1    H6 2954   0.215   4.501  15.535  0.0321 -0.3558  0.2113
  190MPD1    H7 2955   0.124   4.367  15.482 -1.6223  1.6631  0.7110
  191MPD1     C 2956   0.111   2.937  11.732  0.8570 -0.2818  0.7696
  191MPD1    C1 2957   0.164   2.848  11.822  0.3860 -0.0544 -0.3630
  191MPD1    C2 2958   0.274   2.775  11.786 -0.8671  0.1034 -0.4353
  191MPD1    C3 2959   0.307   2.758  11.652 -0.4297  0.0082  0.1464
  191MPD1    C4 2960   0.247   2.834  11.561 -0.6432  0.0069  0.0778
  191MPD1    C5 2961   0.151   2.924  11.600 -0.4059 -0.5786  0.1531
  191MPD1     H 2962   0.328   2.707  11.852 -0.8950 -0.6035 -1.1346
  191MPD1    H1 2963   0.285   2.841  11.460  0.8764  4.3739  0.9421
  191MPD1    H2 2964   0.032   3.006  11.762  0.8071  0.3644 -0.8111
  191MPD1    H3 2965   0.108   2.997  11.533  1.1316 -0.4985 -0.7453
  191MPD1     N 2966   0.414   2.665  11.620  0.5602  0.7551  0.2013
  191MPD1    H5 2967   0.446   2.613  11.701  1.4078  0.0934 -0.5678
  191MPD1    N1 2968   0.129   2.865  11.959 -0.2783  0.6510  0.0549
  191MPD1    H6 2969   0.039   2.908  11.979 -0.2113  1.6395 -1.8031
  191MPD1    H7 2970   0.180   2.813  12.031  0.1043 -1.1807 -1.5279
  192MPD1     C 2971   4.588   2.047  11.112  0.4004 -0.3719 -0.0683
  192MPD1    C1 2972   4.703   2.064  11.044  0.0496 -0.3968 -0.3688
  192MPD1    C2 2973   0.069   2.116  11.117  0.1318  0.4423 -0.0279
  192MPD1    C3 2974   0.064   2.135  11.258 -0.5887 -0.1298  0.4504
  192MPD1    C4 2975   4.688   2.079  11.320 -0.1173 -0.3150  0.2284
  192MPD1    C5 2976   4.575   2.045  11.248 -0.5356 -0.0510  0.3831
  192MPD1     H 2977   0.162   2.147  11.071  1.8992 -3.0644  1.1314
  192MPD1    H1 2978   4.678   2.084  11.428  0.3069  2.3385  0.1514
  192MPD1    H2 2979   4.499   2.048  11.050  0.9189  0.7523 -0.7975
  192MPD1    H3 2980   4.484   2.010  11.295  0.5131 -0.1424  2.3531
  192MPD1     N 2981   0.170   2.187  11.339  0.0288  0.4804 -0.5711
  192MPD1    H5 2982   0.153   2.177  11.439  0.0546 -0.1606 -0.6319
  192MPD1    N1 2983   4.700   2.067  10.906 -0.3030  0.9850  0.2249
  192MPD1    H6 2984   0.052   2.056  10.857 -1.6469  1.1702 -2.2083
  192MPD1    H7 2985   4.634   1.999  10.869  1.3055  0.0219 -0.8280
  193MPD1     C 2986   4.008   2.240  17.170  0.5278  0.2756 -0.2605
  193MPD1    C1 2987   4.108   2.271  17.259  0.4317 -0.1113  0.4978
  193MPD1    C2 2988   4.187   2.377  17.230  0.0005  0.2492  0.1828
  193MPD1    C3 2989   4.155   2.465  17.121 -0.2720 -0.6511  0.5413
  193MPD1    C4 2990   4.050   2.433  17.043  0.0369  0.5181  0.8065
  193MPD1    C5 2991   3.977   2.318  17.059  0.1027 -0.4863 -0.3752
  193MPD1     H 2992   4.270   2.390  17.299  0.2078  2.5861 -0.5084
  193MPD1    H1 2993   4.035   2.490  16.952 -1.5632 -2.1091 -0.5909
  193MPD1    H2 2994   3.928   2.170  17.192  1.5537 -1.4116 -1.8937
  193MPD1    H3 2995   3.892   2.302  16.995 -1.8382  1.3672  1.7501
  193MPD1     N 2996   4.241   2.566  17.081  0.1558  0.1163 -0.2913
  193MPD1    H5 2997   4.232   2.620  16.995 -0.7954 -2.1000 -1.6035
  193MPD1    N1 2998   4.134   2.171  17.353 -0.0617 -0.6604 -0.5853
  193MPD1    H6 2999   4.051   2.115  17.369  0.4184 -0.7022  1.8766
  193MPD1    H7 3000   4.184   2.208  17.434 -0.2186 -0.5231 -0.5519
  194MPD1     C 3001   3.308   0.038  17.056 -0.1771 -0.2783  0.7853
  194MPD1    C1 3002   3.199   0.019  16.969  1.0133  0.6263 -0.0986
  194MPD1    C2 3003   3.128   4.635  16.978  0.1601  0.4877  0.0791
  194MPD1    C3 3004   3.172   4.536  17.059  0.0690 -0.3544 -0.4168
  194MPD1    C4 3005   3.289   4.555  17.134  0.7072  0.3632  0.4067
  194MPD1    C5 3006   3.355   4.677  17.131 -0.5918  0.9261 -0.5245
  194MPD1     H 3007   3.034   4.631  16.924  0.4611 -1.0968 -0.3342
  194MPD1    H1 3008   3.327   4.480  17.202 -0.2945 -1.4983 -1.1100
  194MPD1    H2 3009   3.363   0.132  17.053 -0.2764 -0.2851 -1.0165
  194MPD1    H3 3010   3.442   4.692  17.193 -1.5596 -0.9245  1.2778
  194MPD1     N 3011   3.111   4.411  17.071  0.3926  0.6199  0.0854
  194MPD1    H5 3012   3.152   4.352  17.142  0.7110 -1.1538 -1.5847
  194MPD1    N1 3013   3.148   0.124  16.893  0.3664  0.4747  0.0842
  194MPD1    H6 3014   3.124   0.097  16.797 -1.2399 -2.8706  1.4241
  194MPD1    H7 3015   3.219   0.192  16.865  0.6684  0.1597  0.0843
  195MPD1     C 3016   4.620   2.053  17.346  0.6628 -0.3706 -0.0637
  195MPD1    C1 3017   4.551   2.011  17.461  0.4046 -0.1542  0.6043
  195MPD1    C2 3018   4.565   1.878  17.501 -0.0796 -0.2597  0.5345
  195MPD1    C3 3019   4.655   1.794  17.435 -0.0919  0.4545 -0.2370
  195MPD1    C4 3020   0.003   1.846  17.340  0.8406 -0.0899  0.5973
  195MPD1    C5 3021   4.711   1.972  17.287  0.0078  0.2773  0.2501
  195MPD1     H 3022   4.511   1.835  17.585 -0.7679  0.4239  0.4377
  195MPD1    H1 3023   0.066   1.788  17.273  2.5622 -0.0463  2.1942
  195MPD1    H2 3024   4.597   2.146  17.294  1.3223  0.1043  0.4899
  195MPD1    H3 3025   0.025   2.008  17.198  2.1021  0.6259  1.5648
  195MPD1     N 3026   4.675   1.662  17.479  0.4413 -0.6032 -0.1471
  195MPD1    H5 3027   0.022   1.615  17.444  0.3711 -0.3910 -0.6092
  195MPD1    N1 3028   4.450   2.086  17.517 -0.3277  0.6592  0.5494
  195MPD1    H6 3029   4.429   2.043  17.606  0.9566 -0.3057  0.3907
  195MPD1    H7 3030   4.469   2.185  17.528 -0.6441  0.4731  2.6497
  196MPD1     C 3031   3.701   0.371   0.247 -0.0761  0.3867 -0.6954
  196MPD1    C1 3032   3.772   0.482   0.253  0.2474  1.0212 -0.7784
  196MPD1    C2 3033   3.790   0.537   0.374 -0.1234 -0.0739  0.0300
  196MPD1    C3 3034   3.755   0.467   0.487 -0.3133 -0.0720 -0.1861
  196MPD1    C4 3035   3.684   0.351   0.483 -1.3932 -0.1653 -0.7082
  196MPD1    C5 3036   3.659   0.307   0.355 -0.1771 -0.0355  0.6094
  196MPD1     H 3037   3.831   0.636   0.389  1.0396 -0.8664  2.0671
  196MPD1    H1 3038   3.655   0.300   0.575  0.4890 -1.1379 -0.6516
  196MPD1    H2 3039   3.680   0.322   0.153  0.0397 -0.4448 -0.2880
  196MPD1    H3 3040   3.618   0.208   0.335 -0.5998  0.1520  0.5353
  196MPD1     N 3041   3.772   0.515   0.614 -0.7137 -0.3972 -0.4463
  196MPD1    H5 3042   3.726   0.463   0.688 -0.6514  0.8030  0.4396
  196MPD1    N1 3043   3.808   0.538   0.129  0.1571  0.6654 -0.2328
  196MPD1    H6 3044   3.907   0.563   0.135  0.8983 -2.4431  1.0057
  196MPD1    H7 3045   3.790   0.475   0.051 -0.4362 -0.2857  0.6649
  197MPD1     C 3046   3.351   3.177   0.082  0.2486 -0.0212 -0.3150
  197MPD1    C1 3047   3.323   3.314   0.077 -0.2424  0.0845 -0.0876
  197MPD1    C2 3048   3.339   3.373  17.696  0.5566 -0.3544  0.1065
  197MPD1    C3 3049   3.336   3.301  17.578 -0.2635 -0.1395 -0.4919
  197MPD1    C4 3050   3.357   3.162  17.587 -0.3675  0.2483 -0.1050
  197MPD1    C5 3051   3.375   3.106  17.709 -0.2769  0.3152  0.4533
  197MPD1     H 3052   3.336   3.481  17.689  1.6386 -0.3547 -0.3261
  197MPD1    H1 3053   3.373   3.105  17.496 -0.0679  0.2901 -0.0774
  197MPD1    H2 3054   3.348   3.129   0.179 -0.1424  1.3755  0.3681
  197MPD1    H3 3055   3.388   2.999  17.717  1.7051  0.6351  1.6249
  197MPD1     N 3056   3.305   3.355  17.453  0.3990  0.1749  0.2138
  197MPD1    H5 3057   3.292   3.285  17.380 -2.5486 -0.0768  0.9733
  197MPD1    N1 3058   3.317   3.393   0.198  0.6964 -0.2615 -1.0522
  197MPD1    H6 3059   3.261   3.475   0.174 -1.9486 -1.6242  0.5028
  197MPD1    H7 3060   3.269   3.345   0.274  1.0027 -0.7002 -1.1411
  198MPD1     C 3061   4.402   1.339  15.997 -0.1112 -0.4233 -0.0485
  198MPD1    C1 3062   4.476   1.248  16.065  0.3376 -0.7102  0.3768
  198MPD1    C2 3063   4.613   1.245  16.034  0.4314  0.1204  1.1269
  198MPD1    C3 3064   4.677   1.319  15.935  0.3278  0.4545 -0.3177
  198MPD1    C4 3065   4.591   1.410  15.864 -0.8926 -0.5486  0.7067
  198MPD1    C5 3066   4.460   1.422  15.902  0.3953 -0.1417 -0.2123
  198MPD1     H 3067   4.670   1.174  16.093  1.1032 -0.7180 -0.5310
  198MPD1    H1 3068   4.636   1.478  15.792 -1.9801 -0.2426  0.3277
  198MPD1    H2 3069   4.296   1.359  16.014  0.4682  2.6351 -0.0624
  198MPD1    H3 3070   4.401   1.504  15.862  1.7744  1.0418  0.1849
  198MPD1     N 3071   0.080   1.327  15.928  0.2609  0.5109  0.2564
  198MPD1    H5 3072   0.132   1.286  16.005  0.8534  0.7815  0.0008
  198MPD1    N1 3073   4.422   1.176  16.172  0.4150 -0.3755 -0.0297
  198MPD1    H6 3074   4.321   1.171  16.174  0.2575  2.5957 -0.2121
  198MPD1    H7 3075   4.441   1.077  16.154 -1.5941 -0.7363 -0.1679
  199MPD1     C 3076   2.864   2.860  10.785 -0.2210  0.3128 -0.7045
  199MPD1    C1 3077   2.759   2.945  10.795 -0.1609 -0.6736  0.2501
  199MPD1    C2 3078   2.675   2.938  10.687 -0.4543 -0.3883 -0.7183
  199MPD1    C3 3079   2.674   2.826  10.600  0.1268  0.3921 -0.4008
  199MPD1    C4 3080   2.770   2.729  10.622 -0.2961 -0.0338  0.3445
  199MPD1    C5 3081   2.877   2.758  10.697  0.1570 -0.1287  0.1279
  199MPD1     H 3082   2.600   3.017  10.679  1.5336  1.4815 -0.8130
  199MPD1    H1 3083   2.773   2.635  10.568 -0.2336  0.4375 -0.4737
  199MPD1    H2 3084   2.953   2.863  10.848 -1.0835  0.5558  0.4936
  199MPD1    H3 3085   2.962   2.691  10.693  1.3123  1.3061  0.5950
  199MPD1     N 3086   2.585   2.807  10.493  0.0982 -0.0485  0.3668
  199MPD1    H5 3087   2.600   2.723  10.438 -1.6776 -0.7408  0.9274
  199MPD1    N1 3088   2.756   3.054  10.883  0.5598 -0.0363  0.2328
  199MPD1    H6 3089   2.800   3.030  10.972 -0.1436 -2.9949 -0.2007
  199MPD1    H7 3090   2.663   3.079  10.916  1.2776 -0.2515  2.3906
  200MPD1     C 3091   0.340   1.647  15.500 -0.1266 -0.3277  0.7170
  200MPD1    C1 3092   0.340   1.555  15.394  0.3937 -0.7276  0.3430
  200MPD1    C2 3093   0.449   1.556  15.314 -0.1396  0.1745  0.2688
  200MPD1    C3 3094   0.551   1.648  15.329 -0.0009 -0.9438 -0.3036
  200MPD1    C4 3095   0.546   1.745  15.427 -0.2935 -0.0642 -0.3206
  200MPD1    C5 3096   0.435   1.745  15.507 -1.3089  0.1281 -0.0859
  200MPD1     H 3097   0.449   1.487  15.230 -0.0920 -0.6514  0.9510
  200MPD1    H1 3098   0.608   1.834  15.429  2.9067 -2.2411 -2.0764
  200MPD1    H2 3099   0.255   1.658  15.566 -0.8456  0.2642 -0.2930
  200MPD1    H3 3100   0.425   1.828  15.576 -1.4694  0.9488 -1.0961
  200MPD1     N 3101   0.649   1.662  15.227 -0.4711 -0.0032  0.1255
  200MPD1    H5 3102   0.645   1.584  15.162 -1.5060  0.2189 -0.0769
  200MPD1    N1 3103   0.227   1.505  15.343 -0.8061 -0.7161 -0.0638
  200MPD1    H6 3104   0.158   1.473  15.410  0.3212 -1.3893  0.7594
  200MPD1    H7 3105   0.240   1.428  15.278  0.7875  0.7791 -1.5414
  201MPD1     C 3106   3.259   2.069  13.323 -0.2729  0.3080  0.0154
  201MPD1    C1 3107   3.281   2.007  13.442  0.2486 -0.1558  0.0209
  201MPD1    C2 3108   3.316   1.867  13.437 -0.3160  0.3123  0.0555
  201MPD1    C3 3109   3.333   1.801  13.315  0.1309 -0.2703 -0.4510
  201MPD1    C4 3110   3.315   1.874  13.198 -0.3871 -0.1830 -0.1844
  201MPD1    C5 3111   3.286   2.009  13.211 -0.6800  0.1150 -0.2279
  201MPD1     H 3112   3.328   1.815  13.531  2.5070 -0.6534 -0.8362
  201MPD1    H1 3113   3.291   1.834  13.100 -2.6131 -2.1145  1.1713
  201MPD1    H2 3114   3.235   2.175  13.319  0.4228  0.5326  1.8568
  201MPD1    H3 3115   3.275   2.068  13.121  0.3819 -0.3868 -0.6932
  201MPD1     N 3116   3.368   1.664  13.310  0.3063 -0.4321  0.0375
  201MPD1    H5 3117   3.374   1.624  13.403 -1.9239  2.1220  1.2640
  201MPD1    N1 3118   3.246   2.075  13.566 -0.7256  0.2319  0.3667
  201MPD1    H6 3119   3.306   2.037  13.640 -2.0583  1.1627  1.9303
  201MPD1    H7 3120   3.245   2.177  13.566  3.1379  0.2659 -1.7937
  202MPD1     C 3121   3.214   1.651   9.277  0.2949 -0.2888 -0.1924
  202MPD1    C1 3122   3.229   1.742   9.377  0.4087 -0.2951 -0.3248
  202MPD1    C2 3123   3.353   1.762   9.423  0.0012  0.6356  0.7638
  202MPD1    C3 3124   3.457   1.680   9.385  0.2687 -0.9378  0.8405
  202MPD1    C4 3125   3.431   1.574   9.298 -0.9820 -0.7713  0.1213
  202MPD1    C5 3126   3.308   1.558   9.244 -0.3986  0.1461  0.0444
  202MPD1     H 3127   3.357   1.840   9.497 -0.8796 -0.7615  2.3018
  202MPD1    H1 3128   3.509   1.506   9.267 -1.0745 -0.5388 -0.6184
  202MPD1    H2 3129   3.120   1.657   9.224 -0.6402 -1.6565  1.3188
  202MPD1    H3 3130   3.290   1.481   9.170  2.7387 -3.4648  3.0712
  202MPD1     N 3131   3.586   1.684   9.444  0.3305  0.7717  0.3534
  202MPD1    H5 3132   3.646   1.604   9.424  0.8615  0.5796  2.6382
  202MPD1    N1 3133   3.125   1.835   9.380  0.2073  0.3154 -0.5249
  202MPD1    H6 3134   3.118   1.890   9.465 -0.1070 -0.9514  0.2711
  202MPD1    H7 3135   3.040   1.780   9.373  0.0917  0.0274  2.8686
  203MPD1     C 3136   2.431   2.030  12.764  0.1022  0.7437 -0.1904
  203MPD1    C1 3137   2.473   1.973  12.643  0.1072  0.2098  0.1706
  203MPD1    C2 3138   2.515   1.837  12.646 -0.2478  0.3140 -0.4696
  203MPD1    C3 3139   2.550   1.776  12.768 -0.6647  0.0955  0.0562
  203MPD1    C4 3140   2.528   1.850  12.888 -0.2935 -0.1765 -0.8527
  203MPD1    C5 3141   2.455   1.969  12.886 -0.2879  0.4751 -0.2575
  203MPD1     H 3142   2.534   1.789  12.551  0.1498 -0.4886  0.0084
  203MPD1    H1 3143   2.561   1.804  12.981 -0.3786  0.7922 -0.3363
  203MPD1    H2 3144   2.367   2.118  12.769 -1.7971 -0.5394 -1.9610
  203MPD1    H3 3145   2.417   2.021  12.973 -0.4605  0.4086 -0.2933
  203MPD1     N 3146   2.625   1.658  12.773 -0.4707  0.1116 -0.7154
  203MPD1    H5 3147   2.666   1.627  12.685 -1.9502  0.6558 -1.5937
  203MPD1    N1 3148   2.435   2.035  12.523 -0.1430 -0.2225 -0.1295
  203MPD1    H6 3149   2.493   2.001  12.447  0.1049  0.4376 -0.2326
  203MPD1    H7 3150   2.445   2.135  12.536  0.9511 -0.1921 -1.2111
  204MPD1     C 3151   1.710   3.205  17.721  0.7611  0.3216 -1.1778
  204MPD1    C1 3152   1.779   3.245  17.609 -0.0062 -0.1660 -0.7144
  204MPD1    C2 3153   1.890   3.164  17.575 -0.1037 -0.2769  0.1797
  204MPD1    C3 3154   1.924   3.046  17.637  0.5548  0.0937 -0.2551
  204MPD1    C4 3155   1.858   3.021   0.012  0.1630  0.2993  0.3706
  204MPD1    C5 3156   1.743   3.089   0.041 -0.4490  0.4714  0.0640
  204MPD1     H 3157   1.955   3.186  17.490 -0.9934 -1.3552 -0.7861
  204MPD1    H1 3158   1.882   2.940   0.080 -2.0145 -1.2105 -0.6648
  204MPD1    H2 3159   1.624   3.265   0.004  1.9692  1.6793 -0.2310
  204MPD1    H3 3160   1.683   3.057   0.124 -3.5283  0.6608 -2.1015
  204MPD1     N 3161   2.038   2.973  17.589  0.3756  0.9197  0.1128
  204MPD1    H5 3162   2.100   3.010  17.518 -0.5445  2.0257 -0.1111
  204MPD1    N1 3163   1.744   3.369  17.547  0.2986  0.1236 -0.0987
  204MPD1    H6 3164   1.758   3.357  17.447  1.4444 -0.6803  0.1590
  204MPD1    H7 3165   1.646   3.384  17.573 -0.2333 -1.2814 -1.3382
  205MPD1     C 3166   2.053   1.689  16.891 -0.4898  0.7149  0.1589
  205MPD1    C1 3167   2.102   1.581  16.963 -0.4686 -0.6070  0.2449
  205MPD1    C2 3168   2.189   1.609  17.069  0.2535 -0.3957  0.4535
  205MPD1    C3 3169   2.222   1.740  17.104  0.0262 -0.1044 -0.1092
  205MPD1    C4 3170   2.177   1.846  17.027  0.4066  0.0595  0.2209
  205MPD1    C5 3171   2.081   1.818  16.928 -0.1268  0.1962  0.6343
  205MPD1     H 3172   2.226   1.522  17.121 -2.0828 -0.7320  1.5792
  205MPD1    H1 3173   2.211   1.946  17.048 -3.1149  1.5097 -0.9767
  205MPD1    H2 3174   1.971   1.671  16.823 -1.5654 -1.0460  1.9094
  205MPD1    H3 3175   2.032   1.902  16.882  0.6517 -0.3075 -1.1198
  205MPD1     N 3176   2.307   1.772  17.211  0.1654 -0.3840 -0.4952
  205MPD1    H5 3177   2.309   1.872  17.231 -3.9303 -0.3611 -0.1288
  205MPD1    N1 3178   2.048   1.449  16.950 -0.3693  0.5154 -0.4008
  205MPD1    H6 3179   2.028   1.436  16.851  0.1241 -0.3896 -0.3825
  205MPD1    H7 3180   2.115   1.375  16.972 -2.9943 -1.0312  2.3640
  206MPD1     C 3181   2.056   3.216  16.572 -0.9751 -0.2295  0.4417
  206MPD1    C1 3182   2.039   3.336  16.623 -1.3024 -0.7415  0.0388
  206MPD1    C2 3183   2.053   3.447  16.536 -0.5991 -0.8559  0.1347
  206MPD1    C3 3184   2.061   3.439  16.398 -0.4145 -0.9545  0.0681
  206MPD1    C4 3185   2.060   3.314  16.341  0.7162 -0.7552 -0.3772
  206MPD1    C5 3186   2.055   3.205  16.431  0.1605  0.0318  0.4308
  206MPD1     H 3187   2.043   3.542  16.587 -0.4575 -1.3802  1.1482
  206MPD1    H1 3188   2.062   3.300  16.234 -0.7961  0.9027 -0.6244
  206MPD1    H2 3189   2.060   3.130  16.638 -0.2462  1.5698  2.7344
  206MPD1    H3 3190   2.057   3.106  16.389 -0.8463 -0.1611  0.8329
  206MPD1     N 3191   2.038   3.547  16.314  0.0993  0.2024 -0.0080
  206MPD1    H5 3192   2.007   3.541  16.218 -2.6260  0.1194  0.8725
  206MPD1    N1 3193   2.060   3.353  16.766 -0.2465 -0.0999  0.5140
  206MPD1    H6 3194   2.016   3.279  16.820 -0.2795  0.4371  1.2112
  206MPD1    H7 3195   2.030   3.444  16.799  1.9717  0.4537  0.9938
  207MPD1     C 3196   3.849   1.725  10.175  0.5105 -0.6659  0.4852
  207MPD1    C1 3197   3.842   1.857  10.131 -0.3980  0.1323 -0.3100
  207MPD1    C2 3198   3.957   1.934  10.145  0.1312 -0.4885 -1.3496
  207MPD1    C3 3199   4.075   1.875  10.200  0.3939 -0.2525 -0.2693
  207MPD1    C4 3200   4.079   1.742  10.233 -0.2441 -0.0661  0.8344
  207MPD1    C5 3201   3.962   1.661  10.223  0.2060 -0.0575 -0.8808
  207MPD1     H 3202   3.958   2.038  10.113  2.9474 -0.1915 -0.2862
  207MPD1    H1 3203   4.160   1.703  10.294 -0.5648  0.0232  1.3156
  207MPD1    H2 3204   3.760   1.664  10.186  0.2987 -0.3748  0.3884
  207MPD1    H3 3205   3.966   1.561  10.264  0.2780  0.7298  0.9866
  207MPD1     N 3206   4.197   1.941  10.228  0.1082 -0.0464  0.3292
  207MPD1    H5 3207   4.271   1.876  10.253  0.1880  0.5573  1.6120
  207MPD1    N1 3208   3.727   1.914  10.083  0.5376  0.4454  0.2602
  207MPD1    H6 3209   3.662   1.916  10.160 -0.5049  1.3794 -0.6415
  207MPD1    H7 3210   3.748   2.012  10.066 -1.1391  0.8647  0.6237
  208MPD1     C 3211   3.934   1.452  17.552 -0.0617  0.0310  0.2437
  208MPD1    C1 3212   3.852   1.467  17.447 -0.2850  0.1291 -0.2066
  208MPD1    C2 3213   3.737   1.394  17.422 -0.1452  0.1894 -0.0538
  208MPD1    C3 3214   3.707   1.298  17.527  0.0329 -0.3582 -0.0409
  208MPD1    C4 3215   3.792   1.284  17.636  0.7223 -0.0512 -0.5014
  208MPD1    C5 3216   3.902   1.367  17.651 -0.0685  0.2654 -1.1889
  208MPD1     H 3217   3.676   1.409  17.334  2.2792  0.4181 -1.6999
  208MPD1    H1 3218   3.760   1.232  17.726  1.2573 -0.1783 -0.3826
  208MPD1    H2 3219   4.022   1.514  17.565 -1.7306  2.0880  1.9934
  208MPD1    H3 3220   3.959   1.370   0.001 -1.3393 -0.4288 -0.3737
  208MPD1     N 3221   3.587   1.228  17.521  0.4222  0.0744 -0.2094
  208MPD1    H5 3222   3.523   1.254  17.447  0.0138 -1.8562 -0.5426
  208MPD1    N1 3223   3.895   1.548  17.346 -0.4729 -0.1359 -0.0739
  208MPD1    H6 3224   3.952   1.628  17.368  0.1616 -0.1446 -1.6398
  208MPD1    H7 3225   3.820   1.579  17.284 -2.4289 -1.2367  1.7386
  209MPD1     C 3226   4.044   1.879  11.128 -0.0278  0.1262 -0.0824
  209MPD1    C1 3227   4.131   1.853  11.028 -0.0283 -0.2312 -0.2393
  209MPD1    C2 3228   4.254   1.807  11.051  0.4467 -0.3921 -0.3298
  209MPD1    C3 3229   4.306   1.805  11.175  0.3947  0.4958 -0.0023
  209MPD1    C4 3230   4.224   1.842  11.280 -0.1958  0.0848  0.2275
  209MPD1    C5 3231   4.090   1.868  11.252  0.5659  0.5759 -0.1000
  209MPD1     H 3232   4.310   1.768  10.966 -0.2573  1.5273 -1.6780
  209MPD1    H1 3233   4.257   1.839  11.383 -0.9093 -2.9741  0.3606
  209MPD1    H2 3234   3.939   1.903  11.118 -0.7515 -3.2485 -0.5933
  209MPD1    H3 3235   4.025   1.874  11.339 -1.1350  1.8378 -1.4730
  209MPD1     N 3236   4.438   1.755  11.190  0.6735  0.0446 -0.4653
  209MPD1    H5 3237   4.497   1.743  11.109  1.2801 -0.8191  0.1019
  209MPD1    N1 3238   4.074   1.861  10.898  0.1208  0.0234  0.1769
  209MPD1    H6 3239   4.150   1.876  10.832 -0.6003  0.6877 -0.5057
  209MPD1    H7 3240   4.006   1.937  10.895  0.3142  0.1530 -0.8373
  210MPD1     C 3241   0.665   2.060  11.486 -0.0867  0.7838  0.1425
  210MPD1    C1 3242   0.581   1.979  11.558 -0.7989 -0.2309  0.4287
  210MPD1    C2 3243   0.467   1.933  11.491 -0.6022 -0.1853  0.4949
  210MPD1    C3 3244   0.435   1.947  11.362 -0.7321  0.1015  0.0812
  210MPD1    C4 3245   0.523   2.025  11.296  0.2526  0.6036  0.0511
  210MPD1    C5 3246   0.630   2.084  11.354 -0.2035  0.1331  0.0576
  210MPD1     H 3247   0.417   1.854  11.545  1.1533 -1.9897 -0.5289
  210MPD1    H1 3248   0.504   2.040  11.190  0.1764  0.6904  0.0770
  210MPD1    H2 3249   0.756   2.107  11.521  0.9475  0.5787 -2.2511
  210MPD1    H3 3250   0.704   2.137  11.296 -1.6286 -0.4229 -2.2560
  210MPD1     N 3251   0.318   1.904  11.292  0.2225 -0.0004 -0.4585
  210MPD1    H5 3252   0.312   1.918  11.191  0.6751  2.5626 -0.1095
  210MPD1    N1 3253   0.619   1.920  11.678  0.5551  0.4601 -0.4386
  210MPD1    H6 3254   0.677   1.980  11.737 -1.5616  1.3127  0.7646
  210MPD1    H7 3255   0.536   1.910  11.737  1.0438  0.9680  0.3419
  211MPD1     C 3256   2.695   1.128  16.673 -0.0037 -0.4368  0.4344
  211MPD1    C1 3257   2.739   1.249  16.724 -0.2304 -0.3336  0.8344
  211MPD1    C2 3258   2.652   1.357  16.734 -0.1016  0.0677 -0.0992
  211MPD1    C3 3259   2.525   1.353  16.689 -0.3942  0.3708  1.3014
  211MPD1    C4 3260   2.482   1.237  16.628  0.3753 -0.0869  1.1521
  211MPD1    C5 3261   2.564   1.126  16.627  0.4768 -0.5208  0.3202
  211MPD1     H 3262   2.682   1.450  16.781 -0.8025  0.6912 -0.9042
  211MPD1    H1 3263   2.384   1.224  16.583  0.1841 -0.0984  1.5735
  211MPD1    H2 3264   2.746   1.033  16.676 -0.0671 -0.4733  0.3565
  211MPD1    H3 3265   2.528   1.040  16.572  1.8298 -1.1069  0.3697
  211MPD1     N 3266   2.449   1.466  16.690  0.2676 -0.4331 -0.2210
  211MPD1    H5 3267   2.502   1.551  16.712  0.9188 -1.2567  1.3996
  211MPD1    N1 3268   2.864   1.255  16.787 -0.1328 -0.4085 -0.4420
  211MPD1    H6 3269   2.892   1.352  16.797 -0.6991 -0.2872 -0.0653
  211MPD1    H7 3270   2.932   1.201  16.732  1.0252 -1.1718  1.7243
  212MPD1     C 3271   1.838   3.920  16.679  0.3813 -0.6010 -0.0967
  212MPD1    C1 3272   1.776   4.038  16.715 -0.0952  0.8049  0.1760
  212MPD1    C2 3273   1.643   4.036  16.742 -0.1151  0.8756  0.6398
  212MPD1    C3 3274   1.571   3.917  16.742 -0.3512 -0.1984 -0.2360
  212MPD1    C4 3275   1.635   3.797  16.713 -0.2352 -0.1440  0.3981
  212MPD1    C5 3276   1.770   3.801  16.679 -0.8374  0.0859 -0.4030
  212MPD1     H 3277   1.588   4.129  16.750 -2.7036 -0.6749  0.9131
  212MPD1    H1 3278   1.579   3.705  16.714 -0.1460 -0.1978  0.4266
  212MPD1    H2 3279   1.943   3.925  16.652  1.3265  0.7414  3.7175
  212MPD1    H3 3280   1.818   3.710  16.645 -0.5306 -0.3561  1.2127
  212MPD1     N 3281   1.437   3.912  16.781 -0.6950 -0.2099  0.0532
  212MPD1    H5 3282   1.392   3.821  16.775 -2.0782  0.4994 -0.3114
  212MPD1    N1 3283   1.837   4.156  16.669 -0.5990 -0.3226 -0.5255
  212MPD1    H6 3284   1.939   4.162  16.678 -0.5380 -0.3393 -1.2421
  212MPD1    H7 3285   1.803   4.245  16.704 -0.8385 -0.7561  0.3651
  213MPD1     C 3286   4.467   4.639  15.577 -0.1987 -0.4443 -0.0304
  213MPD1    C1 3287   4.491   0.033  15.605 -0.2189 -0.1441  0.5619
  213MPD1    C2 3288   4.443   0.121  15.515 -0.3667  0.7952  0.1181
  213MPD1    C3 3289   4.342   0.087  15.426  0.5704  0.3056  0.4585
  213MPD1    C4 3290   4.296   4.697  15.429 -0.4008  0.5714  0.5598
  213MPD1    C5 3291   4.360   4.607  15.507 -0.4870 -0.1629 -0.6347
  213MPD1     H 3292   4.484   0.221  15.515  3.3438 -0.7437  0.5478
  213MPD1    H1 3293   4.217   4.652  15.369 -2.4018  3.5649  0.9345
  213MPD1    H2 3294   4.499   4.562  15.646 -0.9228 -0.1996  0.5882
  213MPD1    H3 3295   4.330   4.504  15.495  0.9320 -0.5237 -1.0000
  213MPD1     N 3296   4.292   0.185  15.335 -0.1948 -0.3815  0.4879
  213MPD1    H5 3297   4.324   0.281  15.345 -2.0427  0.3645 -0.8333
  213MPD1    N1 3298   4.614   0.060  15.660  0.0445 -0.1770  0.7287
  213MPD1    H6 3299   4.630   4.727  15.733 -0.7888  0.4603  1.5131
  213MPD1    H7 3300   4.620   0.152  15.702  3.5228 -0.3963  0.6601
  214MPD1     C 3301   3.392   0.351  14.830  0.2869 -0.0088  0.5181
  214MPD1    C1 3302   3.420   0.460  14.909  1.1042 -0.3532  0.6493
  214MPD1    C2 3303   3.538   0.459  14.984  0.1006 -0.1069  0.1446
  214MPD1    C3 3304   3.624   0.351  14.977  0.4078  0.4706  0.6565
  214MPD1    C4 3305   3.587   0.247  14.894  0.0427 -0.2581  0.0663
  214MPD1    C5 3306   3.464   0.239  14.837 -0.2998  0.1885 -0.2488
  214MPD1     H 3307   3.555   0.549  15.042 -1.5376  0.0255  0.4179
  214MPD1    H1 3308   3.645   0.158  14.872  0.6900  0.5492 -1.4107
  214MPD1    H2 3309   3.307   0.346  14.763  1.4487  0.2551 -0.9714
  214MPD1    H3 3310   3.443   0.149  14.781 -1.1391  0.6962 -0.7450
  214MPD1     N 3311   3.751   0.355  15.037  0.7931 -0.0792  0.2901
  214MPD1    H5 3312   3.809   0.273  15.027  1.5966  0.3747  1.2268
  214MPD1    N1 3313   3.342   0.576  14.894  0.3367 -0.6944 -0.1115
  214MPD1    H6 3314   3.331   0.630  14.979  3.0569 -0.2526 -0.0528
  214MPD1    H7 3315   3.251   0.556  14.853  0.0509  2.0621 -0.8448
  215MPD1     C 3316   3.492   1.942  11.254  0.1532 -0.4434 -0.3342
  215MPD1    C1 3317   3.534   2.035  11.158 -0.2746  0.2202 -0.3711
  215MPD1    C2 3318   3.665   2.082  11.176 -0.0245  0.8110 -0.1272
  215MPD1    C3 3319   3.734   2.070  11.293 -0.3706  0.0747  0.3157
  215MPD1    C4 3320   3.685   1.990  11.390 -0.5339 -0.0054 -0.0278
  215MPD1    C5 3321   3.560   1.930  11.378  0.5110  0.0200 -0.0764
  215MPD1     H 3322   3.698   2.147  11.096 -0.2302 -0.7134 -1.4575
  215MPD1    H1 3323   3.740   1.975  11.482 -2.1670  0.2713  1.0028
  215MPD1    H2 3324   3.394   1.894  11.254 -0.2729  0.4323 -1.3135
  215MPD1    H3 3325   3.516   1.876  11.461  1.5260  2.2327  1.9049
  215MPD1     N 3326   3.864   2.122  11.310  0.2110  0.5864  0.4163
  215MPD1    H5 3327   3.896   2.104  11.405  1.6000 -2.0363 -0.5581
  215MPD1    N1 3328   3.470   2.055  11.031  0.4416 -0.6204  0.3851
  215MPD1    H6 3329   3.371   2.035  11.029  0.4439 -1.0186  4.7186
  215MPD1    H7 3330   3.481   2.153  11.006  1.2398 -0.2891  2.0733
  216MPD1     C 3331   1.199   4.504  17.426  0.0353  0.4258  0.6016
  216MPD1    C1 3332   1.308   4.488  17.505 -0.0076 -0.1296  0.9527
  216MPD1    C2 3333   1.400   4.394  17.458 -0.8228  1.0178 -0.1661
  216MPD1    C3 3334   1.381   4.301  17.363 -0.7124 -0.0779 -0.4847
  216MPD1    C4 3335   1.272   4.322  17.276  0.2932 -0.7153  0.0011
  216MPD1    C5 3336   1.194   4.431  17.308  0.4238  0.2636  1.0407
  216MPD1     H 3337   1.493   4.393  17.514 -1.6758  0.8777  1.2386
  216MPD1    H1 3338   1.241   4.260  17.193 -1.9395 -0.7602  0.8816
  216MPD1    H2 3339   1.124   4.581  17.440  1.1626  1.6993 -0.2232
  216MPD1    H3 3340   1.104   4.453  17.252  1.2353  0.3847 -0.2163
  216MPD1     N 3341   1.475   4.195  17.342  0.7038 -0.3593 -0.2901
  216MPD1    H5 3342   1.557   4.198  17.402 -1.2804  0.0473  2.4095
  216MPD1    N1 3343   1.332   4.577  17.612  0.3424  0.1987  0.6773
  216MPD1    H6 3344   1.253   4.626  17.654  0.2313  0.9381 -0.4068
  216MPD1    H7 3345   1.393   4.548  17.689  2.9211  1.2298 -0.9925
  217MPD1     C 3346   2.859   2.385   9.765 -0.5922  0.4317 -0.4893
  217MPD1    C1 3347   2.809   2.310   9.866 -0.5983  0.9134  0.1988
  217MPD1    C2 3348   2.704   2.228   9.828 -0.0565  0.0872  0.9715
  217MPD1    C3 3349   2.623   2.248   9.711  0.3845 -0.3042  0.4756
  217MPD1    C4 3350   2.676   2.334   9.619 -0.0517  0.0280  0.3261
  217MPD1    C5 3351   2.791   2.399   9.651 -0.3579 -0.3229 -0.8105
  217MPD1     H 3352   2.687   2.143   9.894 -0.1637 -0.1444  0.6448
  217MPD1    H1 3353   2.623   2.342   9.525 -2.7383  1.0112  1.9330
  217MPD1    H2 3354   2.956   2.432   9.769 -0.3909 -0.0120 -0.1320
  217MPD1    H3 3355   2.831   2.465   9.575  0.7435 -0.6337 -0.4996
  217MPD1     N 3356   2.518   2.165   9.663 -0.2705 -0.2194 -0.1781
  217MPD1    H5 3357   2.500   2.178   9.564 -0.7970 -3.5981 -0.5411
  217MPD1    N1 3358   2.884   2.277   9.978  0.0917  0.1062 -0.3022
  217MPD1    H6 3359   2.821   2.256  10.056 -0.7738  1.5261 -0.6336
  217MPD1    H7 3360   2.947   2.355   9.997  0.4662 -0.7732  2.0816
  218MPD1     C 3361   3.683   2.014  13.242  0.5808  0.3723 -0.7974
  218MPD1    C1 3362   3.791   2.095  13.220 -0.6434  0.0884 -0.4657
  218MPD1    C2 3363   3.884   2.061  13.128 -0.0167  0.1935 -0.2785
  218MPD1    C3 3364   3.869   1.950  13.052 -0.1247  0.7607  0.1623
  218MPD1    C4 3365   3.763   1.875  13.077 -0.0138 -0.0863  0.0015
  218MPD1    C5 3366   3.666   1.908  13.163 -0.3305  0.4410 -0.1447
  218MPD1     H 3367   3.967   2.125  13.102 -0.7277  1.1805 -0.1160
  218MPD1    H1 3368   3.740   1.791  13.012  0.1117  1.6576 -2.2970
  218MPD1    H2 3369   3.597   2.039  13.303  0.4683  2.1563 -1.6655
  218MPD1    H3 3370   3.588   1.833  13.163 -2.2712  2.4534 -0.9183
  218MPD1     N 3371   3.973   1.922  12.959  0.3188 -0.2508  0.1848
  218MPD1    H5 3372   4.060   1.974  12.961  0.4963 -0.5167 -0.3910
  218MPD1    N1 3373   3.800   2.224  13.281 -0.2437  0.3478 -0.2142
  218MPD1    H6 3374   3.778   2.208  13.379 -0.7469  1.5334 -0.1396
  218MPD1    H7 3375   3.897   2.250  13.265  0.0917 -0.4339  0.5259
  219MPD1     C 3376   3.954   1.767  11.996 -0.0853 -0.1991 -0.0905
  219MPD1    C1 3377   4.047   1.857  12.047  0.2336 -0.3929 -0.3352
  219MPD1    C2 3378   4.075   1.837  12.183  0.5153 -0.2496 -0.7041
  219MPD1    C3 3379   4.025   1.724  12.256  0.1152 -0.5446  0.3210
  219MPD1    C4 3380   3.927   1.639  12.198 -0.3989  0.0045 -0.0356
  219MPD1    C5 3381   3.893   1.673  12.071  0.3248  0.0880  0.7166
  219MPD1     H 3382   4.138   1.908  12.236  0.2431 -0.2646 -0.3633
  219MPD1    H1 3383   3.888   1.558  12.259  2.5223 -1.4699 -0.1508
  219MPD1    H2 3384   3.911   1.782  11.897 -0.8303 -1.7147  0.0116
  219MPD1    H3 3385   3.818   1.611  12.022  0.0712  0.1302  1.0486
  219MPD1     N 3386   4.075   1.695  12.387 -0.4318 -0.1811  0.2210
  219MPD1    H5 3387   4.036   1.618  12.440  1.2012 -0.7850  0.5456
  219MPD1    N1 3388   4.074   1.974  11.976 -0.7069  0.0168 -0.2361
  219MPD1    H6 3389   4.062   1.969  11.875  0.8800 -0.8987 -0.3814
  219MPD1    H7 3390   4.161   2.020  11.998 -0.6053 -1.4018  2.3834
  220MPD1     C 3391   3.862   3.317  10.019  0.4105  0.6612  0.4790
  220MPD1    C1 3392   3.984   3.296  10.068 -0.6580 -0.0562 -0.2770
  220MPD1    C2 3393   4.022   3.176  10.123  0.3862 -0.6565 -0.1135
  220MPD1    C3 3394   3.931   3.070  10.119 -0.3486 -0.3146 -0.7342
  220MPD1    C4 3395   3.803   3.091  10.075  0.0536 -0.3194 -0.2567
  220MPD1    C5 3396   3.775   3.216  10.019 -0.3341 -0.6104  0.2213
  220MPD1     H 3397   4.124   3.164  10.160  1.1134 -0.4059 -2.0497
  220MPD1    H1 3398   3.715   3.031  10.095 -0.1995  0.4650  1.0492
  220MPD1    H2 3399   3.831   3.409   9.971 -0.1621 -0.7773 -1.9576
  220MPD1    H3 3400   3.673   3.242   9.993  0.2177 -0.4006 -1.7378
  220MPD1     N 3401   3.971   2.949  10.176  0.1136 -0.6540  0.2609
  220MPD1    H5 3402   4.065   2.942  10.214  0.5822 -0.0916 -0.7835
  220MPD1    N1 3403   4.071   3.414  10.082  0.4981  0.2617  0.2702
  220MPD1    H6 3404   4.060   3.482  10.007  1.3030  1.0033  0.8190
  220MPD1    H7 3405   4.172   3.402  10.088  0.5067 -0.4707 -1.3346
  221MPD1     C 3406   2.645   0.358  16.859  0.3856  0.1373 -0.3831
  221MPD1    C1 3407   2.522   0.414  16.832 -0.6220 -0.2140 -0.2284
  221MPD1    C2 3408   2.505   0.469  16.702 -0.2077 -0.5012  0.4028
  221MPD1    C3 3409   2.609   0.467  16.616 -0.0860 -0.1746  0.6066
  221MPD1    C4 3410   2.732   0.412  16.649  0.5501 -0.3667 -0.5212
  221MPD1    C5 3411   2.750   0.356  16.773  0.1153  0.0846  0.5047
  221MPD1     H 3412   2.409   0.519  16.689 -1.1600 -2.0602  1.4069
  221MPD1    H1 3413   2.805   0.394  16.571  0.0799 -2.5965 -0.4446
  221MPD1    H2 3414   2.653   0.308  16.955 -0.8580  1.1804  0.2730
  221MPD1    H3 3415   2.844   0.309  16.794  0.0217 -0.6215 -0.6937
  221MPD1     N 3416   2.585   0.501  16.481 -0.1946 -0.4418 -0.6612
  221MPD1    H5 3417   2.656   0.472  16.414  1.0521  0.4249  0.2929
  221MPD1    N1 3418   2.434   0.438  16.937 -0.0927 -0.0605  0.3384
  221MPD1    H6 3419   2.335   0.435  16.911 -0.5420 -1.6415  2.2449
  221MPD1    H7 3420   2.445   0.368  17.010 -0.3642  0.9301  1.3310
  222MPD1     C 3421   1.672   4.638  17.382 -0.2916  1.0563  0.4479
  222MPD1    C1 3422   1.673   4.707  17.505 -0.1822 -0.5270  0.1945
  222MPD1    C2 3423   1.800   0.005  17.553 -0.2793  0.0841  0.0267
  222MPD1    C3 3424   1.913   4.702  17.495 -0.1963 -0.0013  0.1308
  222MPD1    C4 3425   1.908   4.624  17.383 -0.3129 -0.1215  0.2636
  222MPD1    C5 3426   1.786   4.594  17.328  0.6831  0.4011 -0.1593
  222MPD1     H 3427   1.798   0.079  17.633 -3.1709  0.8008 -0.6879
  222MPD1    H1 3428   1.991   4.577  17.332 -0.9900  1.9671 -2.7766
  222MPD1    H2 3429   1.577   4.609  17.338  1.0349 -3.3744  0.5202
  222MPD1    H3 3430   1.785   4.524  17.246 -0.6763  1.5121 -1.0880
  222MPD1     N 3431   2.048   4.733  17.538 -0.3345 -0.1249  0.0165
  222MPD1    H5 3432   2.119   4.690  17.480  1.3618  0.8750  1.3395
  222MPD1    N1 3433   1.559   0.034  17.560  0.1450  0.5528  0.5115
  222MPD1    H6 3434   1.565   0.049  17.660  0.2066 -1.9276  0.8868
  222MPD1    H7 3435   1.475   4.712  17.553  0.1435  0.7660 -1.2473
  223MPD1     C 3436   3.009   0.037  17.330 -0.3150 -0.6557  0.2929
  223MPD1    C1 3437   3.010   0.134  17.431 -0.5280 -0.3042  0.6708
  223MPD1    C2 3438   2.885   0.151  17.495 -0.5361  0.4402 -1.1357
  223MPD1    C3 3439   2.775   0.078  17.464 -0.2481 -0.1239  0.3271
  223MPD1    C4 3440   2.781   4.711  17.372  0.3109  0.0762 -0.3564
  223MPD1    C5 3441   2.896   4.703  17.299 -0.3547  0.0732  0.3794
  223MPD1     H 3442   2.878   0.227  17.572 -2.3518  0.3617 -1.2230
  223MPD1    H1 3443   2.690   4.657  17.346  0.4176  0.4275 -1.4700
  223MPD1    H2 3444   3.095   0.007  17.271 -1.1906  1.6585 -2.1508
  223MPD1    H3 3445   2.891   4.634  17.215 -2.1343  1.2067 -0.4400
  223MPD1     N 3446   2.652   0.106  17.533  0.5364  0.5957  0.0800
  223MPD1    H5 3447   2.658   0.168  17.613 -3.5497 -0.2589  1.0440
  223MPD1    N1 3448   3.126   0.196  17.463 -0.7502 -0.6207 -0.3146
  223MPD1    H6 3449   3.109   0.293  17.489 -0.1848 -0.1191 -1.8483
  223MPD1    H7 3450   3.195   0.199  17.388 -2.3707  3.1959 -1.6470
  224MPD1     C 3451   3.699   2.531   9.546 -0.6069  0.4528  0.1186
  224MPD1    C1 3452   3.776   2.420   9.581  0.5497 -0.7712 -0.0358
  224MPD1    C2 3453   3.725   2.315   9.652  0.1222  0.3718  0.3856
  224MPD1    C3 3454   3.598   2.326   9.706 -0.7555 -0.1063  0.3822
  224MPD1    C4 3455   3.532   2.445   9.684  0.4687  0.4444  0.3731
  224MPD1    C5 3456   3.580   2.545   9.604  0.2792  0.3469  0.4487
  224MPD1     H 3457   3.781   2.223   9.659 -1.4894 -0.6057  0.3743
  224MPD1    H1 3458   3.440   2.470   9.735 -0.3269 -2.9087  0.6166
  224MPD1    H2 3459   3.726   2.613   9.479  0.0334  0.1100 -0.0455
  224MPD1    H3 3460   3.521   2.635   9.588  0.0200  0.3470  1.4355
  224MPD1     N 3461   3.528   2.231   9.778 -0.1848 -0.1553 -0.4450
  224MPD1    H5 3462   3.430   2.255   9.788  0.0600  0.7113 -0.0911
  224MPD1    N1 3463   3.892   2.395   9.510  0.8283  0.6728 -0.5048
  224MPD1    H6 3464   3.940   2.483   9.495 -0.4611  1.3765 -0.4659
  224MPD1    H7 3465   3.951   2.341   9.573  0.5014 -0.8651 -1.5113
  225MPD1     C 3466   4.161   2.714  12.517 -0.3341  0.5328 -0.1616
  225MPD1    C1 3467   4.078   2.608  12.484 -0.0969 -0.8099 -0.1747
  225MPD1    C2 3468   3.954   2.597  12.545  0.1768 -0.3297  0.3546
  225MPD1    C3 3469   3.902   2.693  12.626 -0.3391 -0.1013 -0.2467
  225MPD1    C4 3470   3.978   2.804  12.652  0.2344  0.2638  0.5494
  225MPD1    C5 3471   4.107   2.814  12.597 -0.0500  0.3867  0.3643
  225MPD1     H 3472   3.899   2.506  12.522  0.4722 -0.1308 -1.1492
  225MPD1    H1 3473   3.956   2.893  12.709  0.6764  0.4027  0.5037
  225MPD1    H2 3474   4.261   2.721  12.476  0.6122  0.1927  2.0953
  225MPD1    H3 3475   4.153   2.907  12.631 -3.3461  1.6745  1.2718
  225MPD1     N 3476   3.777   2.686  12.691 -0.1437  0.2007  0.4353
  225MPD1    H5 3477   3.740   2.771  12.731 -2.1550 -0.1115 -0.7500
  225MPD1    N1 3478   4.116   2.513  12.385 -0.3583  0.0571 -0.1523
  225MPD1    H6 3479   4.038   2.462  12.345  0.2852 -2.3060  1.6063
  225MPD1    H7 3480   4.159   2.570  12.312 -0.5490 -2.1885 -2.0475
  226MPD1     C 3481   2.921   3.234   9.269  0.1185 -0.4991  0.0681
  226MPD1    C1 3482   2.799   3.168   9.262  0.5386  0.0858  0.1299
  226MPD1    C2 3483   2.766   3.091   9.374  0.4025 -0.5590 -0.1833
  226MPD1    C3 3484   2.835   3.092   9.492  0.0070  0.1609  0.2166
  226MPD1    C4 3485   2.945   3.172   9.497  0.0373 -0.4137 -0.1137
  226MPD1    C5 3486   2.992   3.237   9.388  0.4659  0.6827  0.1713
  226MPD1     H 3487   2.686   3.020   9.356  1.3822 -1.7358  0.1434
  226MPD1    H1 3488   3.004   3.176   9.587 -1.4841 -1.4535  0.9153
  226MPD1    H2 3489   2.963   3.291   9.187 -0.3089  0.5874  0.5999
  226MPD1    H3 3490   3.087   3.289   9.384  0.8190  0.0769  0.6799
  226MPD1     N 3491   2.794   3.003   9.597 -0.3984 -0.0696 -0.0660
  226MPD1    H5 3492   2.727   2.931   9.571  1.7130 -1.7333 -0.9454
  226MPD1    N1 3493   2.746   3.154   9.139  0.4055  0.6383 -0.7190
  226MPD1    H6 3494   2.759   3.240   9.085  2.0856  1.5735  1.2122
  226MPD1    H7 3495   2.647   3.135   9.126  0.3638 -0.6158  1.5631
  227MPD1     C 3496   2.159   2.315   9.772  0.7365  0.3779 -0.4372
  227MPD1    C1 3497   2.172   2.354   9.903 -0.0116 -0.1190  0.2459
  227MPD1    C2 3498   2.278   2.438   9.932  0.1145 -0.1965 -0.1060
  227MPD1    C3 3499   2.361   2.490   9.836  1.0897  0.4612 -0.1769
  227MPD1    C4 3500   2.340   2.458   9.703  0.5647 -0.1085 -0.0670
  227MPD1    C5 3501   2.234   2.371   9.672 -0.3700  0.4656 -0.2284
  227MPD1     H 3502   2.304   2.458  10.035  0.2567 -0.3968 -0.1015
  227MPD1    H1 3503   2.398   2.500   9.622 -0.3414  1.2377 -0.0241
  227MPD1    H2 3504   2.084   2.241   9.746 -0.9296  1.9712 -0.1476
  227MPD1    H3 3505   2.220   2.332   9.572 -0.3617  0.2438 -0.1439
  227MPD1     N 3506   2.479   2.578   9.878 -0.2582  0.4353 -0.3898
  227MPD1    H5 3507   2.502   2.592   9.976 -0.1168  0.1937 -0.3864
  227MPD1    N1 3508   2.097   2.292  10.007 -0.0436  0.2078  0.1406
  227MPD1    H6 3509   2.095   2.346  10.093 -1.0586 -1.9122  1.4703
  227MPD1    H7 3510   1.999   2.268   9.992  0.7533 -0.9588 -3.1785
  228MPD1     C 3511   1.426   0.446  12.718  0.1230 -0.9993  0.5883
  228MPD1    C1 3512   1.332   0.503  12.637  0.3025  0.4049 -0.6121
  228MPD1    C2 3513   1.201   0.472  12.658  0.7472 -0.4088 -0.6430
  228MPD1    C3 3514   1.163   0.377  12.756 -0.1648 -0.4011 -0.2711
  228MPD1    C4 3515   1.265   0.309  12.825  0.0468 -0.0502 -0.3775
  228MPD1    C5 3516   1.395   0.336  12.800 -0.3439  0.2407 -0.3855
  228MPD1     H 3517   1.123   0.516  12.596  0.3330 -0.5882 -0.2521
  228MPD1    H1 3518   1.252   0.222  12.888  0.0688 -0.1891 -0.5665
  228MPD1    H2 3519   1.534   0.456  12.711 -0.5508  4.3091 -1.9315
  228MPD1    H3 3520   1.470   0.276  12.850  0.5080  0.7727 -1.0052
  228MPD1     N 3521   1.024   0.336  12.757 -0.2914  0.0007 -0.4001
  228MPD1    H5 3522   0.958   0.388  12.700 -1.2169  0.6128  1.2522
  228MPD1    N1 3523   1.367   0.601  12.548 -0.0533  0.4456 -0.3754
  228MPD1    H6 3524   1.453   0.601  12.493  0.5188 -3.4754  0.5785
  228MPD1    H7 3525   1.291   0.641  12.493 -0.8807  0.3518  0.7069
  229MPD1     C 3526   0.525   3.710  14.643  0.2791  1.0073 -0.0466
  229MPD1    C1 3527   0.518   3.576  14.605 -0.3602  0.8032 -0.1507
  229MPD1    C2 3528   0.602   3.484  14.664  0.6527  0.4046 -0.1536
  229MPD1    C3 3529   0.668   3.514  14.784  0.8566 -0.4176  0.1465
  229MPD1    C4 3530   0.662   3.640  14.826 -0.6134 -0.4947  0.1196
  229MPD1    C5 3531   0.599   3.740  14.756  0.0507 -0.0114  0.4172
  229MPD1     H 3532   0.615   3.386  14.620  0.5697 -1.3324  3.7073
  229MPD1    H1 3533   0.699   3.667  14.925 -1.9271 -0.2390  0.5424
  229MPD1    H2 3534   0.468   3.794  14.606 -1.4998  0.4368  1.4195
  229MPD1    H3 3535   0.583   3.838  14.799  1.7322  1.7056 -2.8213
  229MPD1     N 3536   0.731   3.416  14.866  0.2401  0.0300  0.2023
  229MPD1    H5 3537   0.794   3.450  14.938  1.5525 -0.9451 -0.4798
  229MPD1    N1 3538   0.446   3.534  14.491 -0.0720  0.4519  0.8018
  229MPD1    H6 3539   0.374   3.603  14.469 -0.7668 -0.4429  0.2966
  229MPD1    H7 3540   0.400   3.446  14.514  0.7553  0.8470  4.0890
  230MPD1     C 3541   1.176   3.242  15.694 -0.4474 -0.8915 -0.0082
  230MPD1    C1 3542   1.159   3.113  15.661  0.7513 -0.4014 -0.1592
  230MPD1    C2 3543   1.118   3.073  15.533 -0.5753  0.5013 -0.1283
  230MPD1    C3 3544   1.082   3.174  15.444 -0.8694  0.3452 -0.2494
  230MPD1    C4 3545   1.095   3.307  15.479  0.2144 -0.5421  0.0622
  230MPD1    C5 3546   1.134   3.343  15.609  0.1914 -0.1835 -0.3699
  230MPD1     H 3547   1.109   2.966  15.516 -0.7706  0.0678  2.6052
  230MPD1    H1 3548   1.083   3.384  15.403  0.9263 -0.0625  0.4311
  230MPD1    H2 3549   1.211   3.267  15.794 -0.0985 -0.2644 -0.2894
  230MPD1    H3 3550   1.143   3.443  15.650  0.6366 -0.6834  0.7488
  230MPD1     N 3551   1.040   3.129  15.319 -0.1006  0.2314 -0.1351
  230MPD1    H5 3552   1.051   3.028  15.308 -1.6425  0.0906 -0.5106
  230MPD1    N1 3553   1.203   3.013  15.749 -0.5485 -0.0070 -0.6206
  230MPD1    H6 3554   1.167   2.927  15.709  0.5703 -0.9976  0.4967
  230MPD1    H7 3555   1.160   3.036  15.838  1.5218  1.3802  0.0285
  231MPD1     C 3556   3.884   0.977  15.595 -0.4765 -0.0779  0.0446
  231MPD1    C1 3557   3.841   0.930  15.472 -0.1568  0.0292  0.4766
  231MPD1    C2 3558   3.889   0.986  15.358  0.3046 -0.7730 -0.1693
  231MPD1    C3 3559   4.003   1.054  15.354  0.2317 -0.5260 -0.0838
  231MPD1    C4 3560   4.049   1.109  15.470 -0.3684  1.1442 -0.2298
  231MPD1    C5 3561   3.988   1.068  15.590 -0.0767 -0.2205 -0.2791
  231MPD1     H 3562   3.832   0.972  15.266  0.0496 -1.8927  0.1585
  231MPD1    H1 3563   4.131   1.179  15.479 -1.5958  2.4119  1.2780
  231MPD1    H2 3564   3.839   0.954  15.691 -0.1128 -2.1614 -0.2786
  231MPD1    H3 3565   4.019   1.109  15.685 -0.0872 -1.1777  0.1315
  231MPD1     N 3566   4.047   1.093  15.227 -1.1818  1.5505  0.5767
  231MPD1    H5 3567   3.994   1.054  15.149  0.7148 -2.5109  1.3327
  231MPD1    N1 3568   3.727   0.850  15.467 -0.6681 -0.0380 -0.6456
  231MPD1    H6 3569   3.706   0.813  15.375  1.0125  0.1335 -1.0998
  231MPD1    H7 3570   3.727   0.776  15.537 -2.6064  0.3157 -0.2540
  232MPD1     C 3571   0.700   1.173   0.344  0.2450 -0.4482 -0.9212
  232MPD1    C1 3572   0.703   1.276   0.254  1.1115 -0.1010 -0.0905
  232MPD1    C2 3573   0.628   1.390   0.287  0.1922 -0.5473 -0.5434
  232MPD1    C3 3574   0.533   1.382   0.386 -0.2428 -0.1048  0.2169
  232MPD1    C4 3575   0.519   1.268   0.466 -0.0291 -0.1251 -0.3315
  232MPD1    C5 3576   0.614   1.175   0.446 -0.4123  0.0905 -0.0753
  232MPD1     H 3577   0.641   1.482   0.231 -1.5830  1.3945  2.2289
  232MPD1    H1 3578   0.455   1.257   0.552 -0.0152 -0.7937 -0.4076
  232MPD1    H2 3579   0.763   1.084   0.347 -0.0806 -0.6232  0.3435
  232MPD1    H3 3580   0.610   1.086   0.509 -0.0635  0.9913  1.2196
  232MPD1     N 3581   0.447   1.492   0.416  0.1713  0.8760  0.6237
  232MPD1    H5 3582   0.467   1.572   0.356  0.3365  0.0090 -0.4862
  232MPD1    N1 3583   0.812   1.283   0.168 -0.2641  0.3050  0.2825
  232MPD1    H6 3584   0.778   1.334   0.086  1.0368 -0.9992 -1.0678
  232MPD1    H7 3585   0.850   1.192   0.142 -0.8447  0.1420 -0.0082
  233MPD1     C 3586   1.919   1.987   0.090  0.7330 -0.0462 -0.0861
  233MPD1    C1 3587   2.053   2.010   0.108  0.1597  0.4296 -0.1761
  233MPD1    C2 3588   2.110   1.935   0.207  0.5194  0.0572  0.2752
  233MPD1    C3 3589   2.045   1.834   0.272  0.2481 -0.2209  0.4546
  233MPD1    C4 3590   1.921   1.800   0.226  0.1695 -0.5377 -0.1989
  233MPD1    C5 3591   1.849   1.878   0.147  0.0552  0.1276  0.2590
  233MPD1     H 3592   2.204   1.971   0.246  0.3865 -0.6211  1.2246
  233MPD1    H1 3593   1.855   1.723   0.265  1.4147 -0.4436  2.1124
  233MPD1    H2 3594   1.877   2.054   0.016 -1.2838 -0.3438  0.8039
  233MPD1    H3 3595   1.743   1.858   0.140 -0.0606  0.6129  0.6046
  233MPD1     N 3596   2.098   1.756   0.379 -0.3742 -0.6217  0.3282
  233MPD1    H5 3597   2.039   1.680   0.411 -3.2841  0.8797 -1.4050
  233MPD1    N1 3598   2.130   2.108   0.037  0.2339  0.1571 -0.3806
  233MPD1    H6 3599   2.232   2.103   0.046  0.0782 -1.5220  0.4301
  233MPD1    H7 3600   2.124   2.086  17.680  0.7707  0.1003 -0.4028
  234MPD1     C 3601   3.007   0.469   9.084  0.7438 -0.3948 -0.9042
  234MPD1    C1 3602   3.046   0.505   9.211 -0.7006 -0.5230 -0.0625
  234MPD1    C2 3603   3.024   0.638   9.252 -0.7281 -0.0189 -0.5851
  234MPD1    C3 3604   2.953   0.724   9.165 -0.2135 -0.2094 -0.9985
  234MPD1    C4 3605   2.911   0.687   9.035 -0.0977  0.3253 -0.2505
  234MPD1    C5 3606   2.944   0.558   8.997 -0.5122 -0.2318 -0.0694
  234MPD1     H 3607   3.045   0.672   9.353  1.0476  0.2695 -1.0559
  234MPD1    H1 3608   2.847   0.740   8.966 -0.7927  0.8392  0.7924
  234MPD1    H2 3609   3.030   0.372   9.042 -1.9774 -0.5743 -1.9929
  234MPD1    H3 3610   2.917   0.517   8.901  1.8306 -0.2389 -0.7343
  234MPD1     N 3611   2.933   0.861   9.213  0.2942  0.3387  0.0176
  234MPD1    H5 3612   2.963   0.883   9.308 -0.6416  1.1376  0.1352
  234MPD1    N1 3613   3.099   0.407   9.298  0.2269 -0.7970 -0.2259
  234MPD1    H6 3614   3.132   0.323   9.252  1.2516 -0.7808  0.4642
  234MPD1    H7 3615   3.171   0.435   9.365  0.1110  1.0846 -0.8809
  235MPD1     C 3616   4.203   2.185  10.621 -0.8543  0.2497  0.1702
  235MPD1    C1 3617   4.148   2.245  10.513  0.4391 -0.2844  0.0169
  235MPD1    C2 3618   4.225   2.338  10.444 -0.3238  0.2009 -0.4531
  235MPD1    C3 3619   4.356   2.368  10.489  0.5908 -0.0185  0.6617
  235MPD1    C4 3620   4.393   2.312  10.610 -0.3750 -0.6921 -0.5688
  235MPD1    C5 3621   4.319   2.229  10.686  0.5802  0.0218 -0.2476
  235MPD1     H 3622   4.191   2.377  10.349 -0.6747 -1.3364 -0.9582
  235MPD1    H1 3623   4.487   2.340  10.656 -0.8750 -1.6401  1.0248
  235MPD1    H2 3624   4.149   2.107  10.673  1.0021 -0.9568  0.3190
  235MPD1    H3 3625   4.360   2.177  10.772 -0.8398  2.8062  2.1030
  235MPD1     N 3626   4.429   2.471  10.424 -0.0010  0.1859  0.1117
  235MPD1    H5 3627   4.373   2.527  10.361 -0.8585  1.2532  1.8378
  235MPD1    N1 3628   4.017   2.215  10.473 -0.3642  0.0402 -0.4424
  235MPD1    H6 3629   4.013   2.115  10.494 -2.4327  0.1883 -0.1930
  235MPD1    H7 3630   4.001   2.233  10.374 -4.1546 -0.7429  0.0558
  236MPD1     C 3631   3.348   3.953  10.008  0.4030  0.3780 -0.0817
  236MPD1    C1 3632   3.322   3.919  10.140 -0.3604  0.8552  0.1677
  236MPD1    C2 3633   3.432   3.923  10.223  0.4924 -0.1501 -0.1022
  236MPD1    C3 3634   3.555   3.982  10.187  0.2840  0.1000  0.2248
  236MPD1    C4 3635   3.573   4.025  10.063 -0.3120 -0.4043 -0.0575
  236MPD1    C5 3636   3.466   4.008   9.969  0.3420  0.0954 -0.2153
  236MPD1     H 3637   3.424   3.860  10.311 -0.2430  0.3513  0.1868
  236MPD1    H1 3638   3.668   4.066  10.030  0.7046 -2.9094 -0.2265
  236MPD1    H2 3639   3.279   3.941   9.925 -0.5875 -1.6739  1.0490
  236MPD1    H3 3640   3.488   4.044   9.869 -0.5014 -0.4580 -0.5986
  236MPD1     N 3641   3.658   4.004  10.274  0.2268  0.4315  0.3139
  236MPD1    H5 3642   3.719   4.083  10.257  1.2324 -0.1301  1.3576
  236MPD1    N1 3643   3.214   3.841  10.172  0.1560  0.2603 -0.1231
  236MPD1    H6 3644   3.185   3.844  10.269 -0.3599 -1.6101 -0.2184
  236MPD1    H7 3645   3.138   3.870  10.110 -0.5021 -2.5490 -0.6228
  237MPD1     C 3646   3.916   1.845  15.504  0.1850 -0.2943 -0.2110
  237MPD1    C1 3647   3.842   1.800  15.611  0.1979  0.0020 -0.0128
  237MPD1    C2 3648   3.706   1.789  15.590  0.1453 -0.5578  0.0819
  237MPD1    C3 3649   3.652   1.841  15.474  0.0845 -0.2198 -0.4183
  237MPD1    C4 3650   3.727   1.886  15.372  0.1762 -0.2171 -0.1206
  237MPD1    C5 3651   3.862   1.878  15.381  0.4195  0.1137  0.4356
  237MPD1     H 3652   3.648   1.761  15.677 -0.5790 -0.9913 -0.5409
  237MPD1    H1 3653   3.681   1.922  15.281  1.5418 -0.6617 -0.9919
  237MPD1    H2 3654   4.024   1.847  15.517  0.2787 -0.2454 -1.0439
  237MPD1    H3 3655   3.920   1.916  15.298 -1.2021  0.9874 -0.3010
  237MPD1     N 3656   3.513   1.858  15.447  0.3933  0.1117 -0.1544
  237MPD1    H5 3657   3.473   1.898  15.362 -0.1318 -0.3170 -0.1049
  237MPD1    N1 3658   3.896   1.748  15.728  0.6200 -0.4867  0.0059
  237MPD1    H6 3659   3.992   1.773  15.751 -0.4016  2.0375  1.5283
  237MPD1    H7 3660   3.844   1.768  15.813  1.6208  0.8481  0.3131
  238MPD1     C 3661   1.324   0.168  15.063  0.5850  0.6171  0.3003
  238MPD1    C1 3662   1.221   0.080  15.078  0.4665  1.0106  0.1859
  238MPD1    C2 3663   1.099   0.111  15.025  0.3572  0.5627 -0.4963
  238MPD1    C3 3664   1.076   0.234  14.968 -0.4176  1.1806 -0.2956
  238MPD1    C4 3665   1.177   0.325  14.965 -0.4597  0.7232 -0.4999
  238MPD1    C5 3666   1.299   0.291  15.010  0.1950 -0.0942  0.0269
  238MPD1     H 3667   1.021   0.036  15.039  1.5068 -0.7156 -0.9670
  238MPD1    H1 3668   1.163   0.425  14.926 -1.6245  0.4669 -0.7277
  238MPD1    H2 3669   1.425   0.150  15.100  0.6399  0.5135  0.1028
  238MPD1    H3 3670   1.380   0.362  15.002 -0.2473  0.1882 -1.8986
  238MPD1     N 3671   0.949   0.286  14.926 -0.4973  0.2274  0.1648
  238MPD1    H5 3672   0.948   0.371  14.872  1.6759 -1.7195 -2.9196
  238MPD1    N1 3673   1.242   4.688  15.126  0.6445 -0.1850 -0.4736
  238MPD1    H6 3674   1.157   4.651  15.167  1.2666 -0.9697  0.1290
  238MPD1    H7 3675   1.311   4.672  15.200  1.4896  0.4150 -1.1251
  239MPD1     C 3676   0.066   1.132  13.731  0.3380  0.2654 -0.1917
  239MPD1    C1 3677   0.041   1.131  13.865  0.1200  0.3871 -0.8143
  239MPD1    C2 3678   0.106   1.225  13.939 -0.0871  0.0897  0.6775
  239MPD1    C3 3679   0.195   1.320  13.887 -0.7528  0.0246 -0.0458
  239MPD1    C4 3680   0.216   1.316  13.753  0.2743  0.4915  0.3170
  239MPD1    C5 3681   0.156   1.219  13.677  0.2125  0.2079  0.0667
  239MPD1     H 3682   0.096   1.209  14.046  0.4248  0.2691  0.7495
  239MPD1    H1 3683   0.288   1.379  13.701  2.0853 -1.2301  0.7434
  239MPD1    H2 3684   0.025   1.052  13.671  1.2200  1.7741 -2.7905
  239MPD1    H3 3685   0.173   1.200  13.572 -2.3964  0.5729 -0.3986
  239MPD1     N 3686   0.273   1.418  13.963  0.0485  0.0967  0.6847
  239MPD1    H5 3687   0.342   1.471  13.910 -0.5501  1.6597  1.4778
  239MPD1    N1 3688   4.715   1.026  13.933 -0.4072 -0.2383 -0.2476
  239MPD1    H6 3689   4.656   1.063  14.007 -0.1927 -0.7700  0.1847
  239MPD1    H7 3690   4.652   0.965  13.880  1.0963 -2.3562  0.3957
  240MPD1     C 3691   0.907   1.391  14.294  0.5097  0.4391 -0.0903
  240MPD1    C1 3692   0.805   1.348  14.206  0.0645 -0.1699 -0.3980
  240MPD1    C2 3693   0.701   1.257  14.251 -0.1195 -0.1941 -0.0731
  240MPD1    C3 3694   0.694   1.221  14.383  0.2798 -1.1813  0.0527
  240MPD1    C4 3695   0.798   1.263  14.467 -0.0847  0.8582 -0.2757
  240MPD1    C5 3696   0.897   1.356  14.430  0.8474  0.5830 -0.1249
  240MPD1     H 3697   0.626   1.216  14.185 -0.7516 -0.1471  0.6221
  240MPD1    H1 3698   0.801   1.242  14.573  1.3345  1.2979 -0.2235
  240MPD1    H2 3699   0.983   1.459  14.259  0.5057 -0.1355 -1.2179
  240MPD1    H3 3700   0.981   1.365  14.498  0.3093  1.6670  0.3969
  240MPD1     N 3701   0.583   1.140  14.423 -0.3346  0.4292  0.0067
  240MPD1    H5 3702   0.514   1.114  14.353  2.1381 -0.3582 -2.0983
  240MPD1    N1 3703   0.823   1.358  14.064 -0.0074 -0.2891  0.0100
  240MPD1    H6 3704   0.739   1.363  14.006  0.0810 -0.2699 -0.1167
  240MPD1    H7 3705   0.878   1.441  14.043 -1.0602  0.4153  0.0382
  241MPD1     C 3706   0.380   0.758  15.367 -0.5544 -0.0916 -0.3090
  241MPD1    C1 3707   0.407   0.653  15.285 -0.5728  0.4254 -0.1574
  241MPD1    C2 3708   0.407   0.676  15.146  0.1193  0.4590  0.2304
  241MPD1    C3 3709   0.383   0.801  15.094 -0.6343 -0.0099  0.4057
  241MPD1    C4 3710   0.347   0.899  15.177  0.3116 -0.2648  0.5041
  241MPD1    C5 3711   0.349   0.880  15.314 -0.3114 -0.5686  0.4277
  241MPD1     H 3712   0.450   0.599  15.083 -0.6656  0.0042  0.2515
  241MPD1    H1 3713   0.323   0.999  15.142  0.4551 -0.9319 -1.5301
  241MPD1    H2 3714   0.372   0.753  15.475 -0.7087 -1.6348 -0.4005
  241MPD1    H3 3715   0.322   0.964  15.378  1.7976 -0.7168  1.5006
  241MPD1     N 3716   0.398   0.839  14.955  0.1949 -0.1979 -0.8653
  241MPD1    H5 3717   0.364   0.931  14.930  1.2409 -0.2904 -2.6241
  241MPD1    N1 3718   0.440   0.530  15.340  0.3426  0.2864 -0.4522
  241MPD1    H6 3719   0.401   0.510  15.432  0.8425 -1.5771 -0.6442
  241MPD1    H7 3720   0.412   0.449  15.285 -1.6006 -0.2930  1.4110
  242MPD1     C 3721   0.733   0.087  15.520  0.5814 -0.1256  0.0903
  242MPD1    C1 3722   0.857   0.080  15.462  0.6227 -0.5972  0.3349
  242MPD1    C2 3723   0.870   4.728  15.349 -0.8036 -0.2722  0.5910
  242MPD1    C3 3724   0.770   4.635  15.317  0.3747  0.4501 -0.1091
  242MPD1    C4 3725   0.652   4.639  15.394  0.0131 -0.0415  0.2619
  242MPD1    C5 3726   0.631   4.732  15.492 -0.3781  0.1437  0.5780
  242MPD1     H 3727   0.963   4.720  15.293  0.1760  1.5249  1.9530
  242MPD1    H1 3728   0.572   4.572  15.367  0.9305 -0.2291 -1.9464
  242MPD1    H2 3729   0.724   0.162  15.598  1.9652 -0.9161  1.0319
  242MPD1    H3 3730   0.541   0.013  15.551 -1.0722 -1.9299  0.0988
  242MPD1     N 3731   0.779   4.534  15.216 -0.2863 -0.1947 -0.2531
  242MPD1    H5 3732   0.692   4.486  15.198  0.0507 -0.5340 -0.9896
  242MPD1    N1 3733   0.958   0.175  15.490 -0.7189  0.0411  0.2993
  242MPD1    H6 3734   1.047   0.132  15.465  0.1695  1.4503  1.0501
  242MPD1    H7 3735   0.960   0.213  15.584  3.2660  1.2712 -0.2612
  243MPD1     C 3736   1.268   3.272  17.577  0.6549  0.0100  0.7680
  243MPD1    C1 3737   1.326   3.366  17.495  0.0387  0.0040  0.1482
  243MPD1    C2 3738   1.436   3.319  17.429  0.5908 -0.4781  0.2511
  243MPD1    C3 3739   1.484   3.198  17.452 -0.6655  0.2916  0.3737
  243MPD1    C4 3740   1.425   3.109  17.538  0.1562  0.3723 -0.1453
  243MPD1    C5 3741   1.319   3.151  17.606  0.0776 -0.1748  0.2191
  243MPD1     H 3742   1.484   3.382  17.355 -1.5373  0.1307 -0.6286
  243MPD1    H1 3743   1.462   3.009  17.553 -0.5943  0.3308  1.4250
  243MPD1    H2 3744   1.174   3.292  17.626  0.6093  0.6463  0.4224
  243MPD1    H3 3745   1.273   3.085  17.678 -1.5333  0.1012 -0.5508
  243MPD1     N 3746   1.591   3.151  17.366  0.4942 -0.2079  0.1049
  243MPD1    H5 3747   1.629   3.221  17.304  2.0147 -0.5809  0.6131
  243MPD1    N1 3748   1.249   3.479  17.453 -0.9505 -0.2780 -0.6770
  243MPD1    H6 3749   1.193   3.517  17.528 -1.1710 -3.5509  0.8298
  243MPD1    H7 3750   1.313   3.552  17.422  0.2156 -0.2733  1.6712
  244MPD1     C 3751   2.107   2.333  17.518  0.5525 -0.0865 -0.1251
  244MPD1    C1 3752   2.000   2.396  17.578  0.8002  0.2333 -0.5615
  244MPD1    C2 3753   1.953   2.507  17.514 -0.4619  0.1427 -0.2674
  244MPD1    C3 3754   2.009   2.553  17.399  0.3544  0.0727  0.8388
  244MPD1    C4 3755   2.117   2.485  17.335  0.7501  0.2394 -0.5019
  244MPD1    C5 3756   2.166   2.377  17.401  0.5159 -0.0248  0.5254
  244MPD1     H 3757   1.868   2.553  17.562 -0.4156 -0.8664  0.7909
  244MPD1    H1 3758   2.168   2.529  17.249  2.5552 -2.3126 -0.7452
  244MPD1    H2 3759   2.155   2.247  17.564 -0.1268  0.3123  1.3473
  244MPD1    H3 3760   2.253   2.328  17.360 -1.7556 -0.7712 -3.4143
  244MPD1     N 3761   1.962   2.676  17.358 -0.8064  0.0122 -0.3231
  244MPD1    H5 3762   1.888   2.711  17.419 -0.2786 -1.6480  1.2871
  244MPD1    N1 3763   1.958   2.357  17.701  0.2255  0.1270  0.3372
  244MPD1    H6 3764   2.000   2.269  17.729  0.4979  0.3188  0.5339
  244MPD1    H7 3765   1.859   2.334  17.707 -0.1179  1.7271  0.8269
  245MPD1     C 3766   2.971   3.318  12.944 -0.1484  0.5977 -0.3591
  245MPD1    C1 3767   2.978   3.310  13.081  0.9146  0.0547 -0.4170
  245MPD1    C2 3768   3.061   3.396  13.145  0.4934 -0.6482  0.1386
  245MPD1    C3 3769   3.134   3.494  13.082 -0.0990  0.0674 -0.7820
  245MPD1    C4 3770   3.120   3.503  12.948 -0.2095  0.6158  0.2480
  245MPD1    C5 3771   3.040   3.414  12.882 -0.6459  0.4448 -0.2667
  245MPD1     H 3772   3.072   3.374  13.251 -0.9707 -3.0114 -0.1878
  245MPD1    H1 3773   3.171   3.578  12.888  0.5575 -1.7452 -2.0482
  245MPD1    H2 3774   2.911   3.250  12.886 -1.0534  1.0809  0.0193
  245MPD1    H3 3775   3.035   3.415  12.774  0.5137 -1.8370 -0.3333
  245MPD1     N 3776   3.217   3.579  13.159  0.2963 -0.3223 -0.1843
  245MPD1    H5 3777   3.223   3.569  13.260 -0.5631 -1.0197 -0.2080
  245MPD1    N1 3778   2.934   3.191  13.143  0.2945 -0.1557  0.2262
  245MPD1    H6 3779   2.935   3.211  13.243  1.1339 -1.2176  0.4365
  245MPD1    H7 3780   2.837   3.177  13.115  0.6159  0.4415 -1.1759
  246MPD1     C 3781   4.411   3.539  10.603  0.2857  0.2630  0.0179
  246MPD1    C1 3782   4.302   3.535  10.690  0.2318 -0.4818  0.1353
  246MPD1    C2 3783   4.177   3.543  10.624 -1.2018  0.5337 -0.0209
  246MPD1    C3 3784   4.165   3.567  10.492  0.5969 -0.2063  0.7657
  246MPD1    C4 3785   4.274   3.578  10.414  0.3238 -0.2577  0.2389
  246MPD1    C5 3786   4.396   3.558  10.466 -0.2979 -0.1424  0.1183
  246MPD1     H 3787   4.086   3.537  10.683 -0.0663  1.2629  1.7746
  246MPD1    H1 3788   4.259   3.583  10.306 -1.6975  2.6926  0.6527
  246MPD1    H2 3789   4.511   3.537  10.646  0.9123  0.4919 -1.4183
  246MPD1    H3 3790   4.482   3.562  10.401  0.2215 -0.8248  0.7545
  246MPD1     N 3791   4.031   3.561  10.435  0.8517  0.5733 -0.1184
  246MPD1    H5 3792   3.954   3.522  10.488 -0.6621  1.1453 -1.8904
  246MPD1    N1 3793   4.316   3.494  10.825 -0.0472  0.3502  0.0096
  246MPD1    H6 3794   4.235   3.525  10.877  0.2528  0.2557  0.5281
  246MPD1    H7 3795   4.403   3.529  10.863  1.0807 -1.9334 -0.4227
  247MPD1     C 3796   2.712   4.020  15.643 -0.2861  0.1042 -0.3116
  247MPD1    C1 3797   2.733   3.988  15.509  0.0513  0.3981 -0.1545
  247MPD1    C2 3798   2.773   3.855  15.488 -0.5321 -0.0975 -0.4093
  247MPD1    C3 3799   2.783   3.760  15.592  0.0720  0.3088  1.0259
  247MPD1    C4 3800   2.748   3.797  15.722  0.1002  0.2866 -0.4850
  247MPD1    C5 3801   2.730   3.929  15.745  0.7079 -0.7445  0.1415
  247MPD1     H 3802   2.791   3.830  15.384  4.0132 -0.8537  0.5453
  247MPD1    H1 3803   2.744   3.730  15.807  0.2667  1.7749  0.6969
  247MPD1    H2 3804   2.687   4.118  15.683 -0.8938  0.0341 -0.5164
  247MPD1    H3 3805   2.709   3.970  15.843 -1.3257  0.5238 -0.8228
  247MPD1     N 3806   2.810   3.622  15.554  0.0053  0.7433 -0.6045
  247MPD1    H5 3807   2.795   3.545  15.618 -1.2637  2.1539  0.8020
  247MPD1    N1 3808   2.747   4.085  15.412  0.2857  0.2841  0.7362
  247MPD1    H6 3809   2.696   4.170  15.435 -1.7133 -1.2540  2.0793
  247MPD1    H7 3810   2.745   4.049  15.317  0.5060  0.9755  0.4724
  248MPD1     C 3811   2.677   2.705   1.467  0.8375  0.2441 -0.0771
  248MPD1    C1 3812   2.745   2.817   1.422  0.8515  0.0329 -0.3587
  248MPD1    C2 3813   2.666   2.932   1.389 -0.0727 -0.3278 -0.4601
  248MPD1    C3 3814   2.534   2.920   1.371  0.0200  0.3695  0.1308
  248MPD1    C4 3815   2.468   2.804   1.407  0.3005 -0.4930 -0.5366
  248MPD1    C5 3816   2.539   2.703   1.461  0.1002 -0.8598 -0.7286
  248MPD1     H 3817   2.720   3.020   1.357 -0.3578 -0.5384 -1.5139
  248MPD1    H1 3818   2.360   2.797   1.401  0.4025 -0.8021 -2.1273
  248MPD1    H2 3819   2.722   2.625   1.525 -2.5282 -0.5421  1.4491
  248MPD1    H3 3820   2.486   2.614   1.492  1.7301 -1.1307  1.3051
  248MPD1     N 3821   2.465   3.035   1.322  0.1581  0.1227  0.1395
  248MPD1    H5 3822   2.509   3.126   1.321 -0.7249  0.5854  2.0616
  248MPD1    N1 3823   2.887   2.822   1.422  0.0768 -0.2876 -0.4983
  248MPD1    H6 3824   2.929   2.729   1.421  4.2734  1.6176  0.0470
  248MPD1    H7 3825   2.925   2.884   1.351 -0.9378  0.2262 -0.5966
  249MPD1     C 3826   0.670   3.536  10.869  0.1225 -0.0878  0.6385
  249MPD1    C1 3827   0.686   3.402  10.876  0.5763 -0.5750 -0.4171
  249MPD1    C2 3828   0.820   3.344  10.864  0.2769 -0.0387  0.1555
  249MPD1    C3 3829   0.924   3.419  10.815 -0.1181 -0.1841  0.2458
  249MPD1    C4 3830   0.900   3.556  10.784 -0.4023  0.5903  0.1201
  249MPD1    C5 3831   0.780   3.605  10.822  0.2296  0.5619  0.0652
  249MPD1     H 3832   0.843   3.239  10.880  0.0125 -0.0244  0.6275
  249MPD1    H1 3833   0.975   3.630  10.760 -0.2097 -0.8211 -3.5517
  249MPD1    H2 3834   0.576   3.581  10.898 -0.5407 -0.4624 -0.9585
  249MPD1    H3 3835   0.780   3.711  10.798  1.3562  1.0303  2.1421
  249MPD1     N 3836   1.051   3.356  10.796 -0.9202 -0.2443  0.6358
  249MPD1    H5 3837   1.054   3.261  10.830  1.5077 -0.4522 -0.1410
  249MPD1    N1 3838   0.578   3.322  10.925  0.1295 -0.0978  0.0604
  249MPD1    H6 3839   0.594   3.303  11.023 -0.4558 -0.3016  0.1146
  249MPD1    H7 3840   0.558   3.230  10.888  1.5898 -0.2125 -0.4464
  250MPD2     C 3841   1.693   2.388  13.407  0.3842 -0.0067  0.2115
  250MPD2    C1 3842   1.814   2.322  13.390 -0.4682 -0.1150 -0.6896
  250MPD2    C2 3843   1.831   2.210  13.298 -0.1200  0.2523  0.4721
  250MPD2    C3 3844   1.717   2.177  13.224  0.4850  0.4122  0.6080
  250MPD2    C4 3845   1.602   2.251  13.236 -0.5368  0.1729  0.1192
  250MPD2    C5 3846   1.587   2.355  13.324 -0.8719 -0.1845 -0.3845
  250MPD2     H 3847   1.927   2.160  13.294 -0.2342 -0.0591  1.6661
  250MPD2    H1 3848   1.511   2.232  13.179 -0.3885 -0.4791  0.0930
  250MPD2    H2 3849   1.673   2.466  13.480  1.7022  0.1375  0.4200
  250MPD2    H3 3850   1.487   2.391  13.347 -0.0555  0.4321  2.2262
  250MPD2     N 3851   1.712   2.062  13.142  0.2201 -0.2900  0.2690
  250MPD2    H5 3852   1.623   2.050  13.095 -0.1236 -0.5006  0.9827
  250MPD2    N1 3853   1.922   2.375  13.464  0.1059  0.8674 -0.3002
  250MPD2    H7 3854   1.911   2.460  13.519 -2.2176  0.4832 -0.1512
  251TMC3    C1 3855   2.140   2.397  13.554 -0.8679 -0.3291  0.5815
  251TMC3    C2 3856   2.095   2.496  13.636  0.4341  0.6893 -0.1207
  251TMC3    C3 3857   2.180   2.605  13.666  0.2256  0.1326  0.9383
  251TMC3    C4 3858   2.263   2.408  13.507 -0.1637  0.0508  0.2140
  251TMC3    C5 3859   2.339   2.519  13.524  0.1513  0.0179 -0.1575
  251TMC3    C6 3860   2.304   2.617  13.608 -0.2360 -0.4135 -0.3600
  251TMC3     C 3861   2.051   2.322  13.464  0.0425  0.0297 -0.0285
  251TMC3     O 3862   2.105   2.229  13.406 -0.3659  0.6388 -0.4897
  251TMC3     H 3863   1.996   2.513  13.677  0.4569  0.3755  0.0577
  251TMC3    H1 3864   2.295   2.339  13.430  1.8631  0.6742  0.4810
  251TMC3    H2 3865   2.372   2.700  13.620 -2.3161  1.6319 -2.8500
  251TMC3    C7 3866   2.461   2.531  13.443 -0.0379 -0.4792  0.1820
  251TMC3    C8 3867   2.154   2.688  13.779  0.1272  0.1544  0.3697
  251TMC3    O1 3868   2.543   2.439  13.452  0.5254  0.2430 -0.3224
  251TMC3    O2 3869   2.116   2.642  13.887  0.3165  0.5590 -0.6880
  252TMC3    C1 3870   2.547   3.571   9.234 -0.0907  0.0771  0.0295
  252TMC3    C2 3871   2.651   3.613   9.308  0.0885 -0.3460  0.1227
  252TMC3    C3 3872   2.700   3.528   9.403  0.0653 -0.2766  0.5037
  252TMC3    C4 3873   2.480   3.456   9.260  0.1433  0.6771 -0.4529
  252TMC3    C5 3874   2.531   3.379   9.365  0.3310  0.0793  0.0275
  252TMC3    C6 3875   2.644   3.407   9.431  0.2228  0.0904  0.3847
  252TMC3     C 3876   2.491   3.675   9.150 -0.0981  0.4107 -0.2733
  252TMC3     O 3877   2.427   3.640   9.050 -0.1998 -0.2110  0.1284
  252TMC3     H 3878   2.703   3.704   9.279  2.5311 -1.8836 -0.3229
  252TMC3    H1 3879   2.390   3.424   9.209 -0.0909 -0.4444  0.6933
  252TMC3    H2 3880   2.694   3.346   9.505  2.1713  2.0431  0.6798
  252TMC3    C7 3881   2.465   3.256   9.386  0.3681 -0.3888 -0.1901
  252TMC3    C8 3882   2.825   3.573   9.465 -0.3458 -0.1744 -0.0405
  252TMC3    O1 3883   2.424   3.204   9.282 -0.4795  0.0177 -0.2201
  252TMC3    O2 3884   2.900   3.646   9.402  0.2140  0.5977 -0.9306
  253MPD2     C 3885   3.511   2.275  15.146 -0.4265  0.6820 -0.0249
  253MPD2    C1 3886   3.372   2.250  15.147  0.5557 -0.0833 -0.1409
  253MPD2    C2 3887   3.318   2.208  15.269  0.3486 -0.6037  0.1593
  253MPD2    C3 3888   3.387   2.204  15.385 -0.0049 -0.5776  0.1944
  253MPD2    C4 3889   3.521   2.233  15.379  0.1597  0.6824  0.2994
  253MPD2    C5 3890   3.583   2.268  15.266 -0.4552 -0.8358 -0.0147
  253MPD2     H 3891   3.213   2.181  15.273 -0.0374  1.1698  2.2898
  253MPD2    H1 3892   3.582   2.224  15.469  0.8346  3.6441  0.1262
  253MPD2    H2 3893   3.560   2.324  15.062 -0.4923 -0.1930 -0.5753
  253MPD2    H3 3894   3.688   2.296  15.276 -0.2148 -0.6995 -2.8597
  253MPD2     N 3895   3.334   2.177  15.513  0.2355 -0.3791  0.4825
  253MPD2    H5 3896   3.402   2.167  15.587  0.0632  1.2186  0.8450
  253MPD2    N1 3897   3.281   2.259  15.040  0.2356 -0.3477  0.2485
  253MPD2    H7 3898   3.184   2.235  15.059  0.5612 -1.0750  0.9554
  254TMC3    C1 3899   3.171   2.151  15.692  0.2749 -0.5152  0.1844
  254TMC3    C2 3900   3.054   2.208  15.731  0.0012  0.1183 -0.1567
  254TMC3    C3 3901   3.015   2.179  15.860  0.2004 -0.2931  0.3762
  254TMC3    C4 3902   3.253   2.076  15.768 -0.1586 -0.5168  0.3569
  254TMC3    C5 3903   3.214   2.048  15.890  0.6227 -0.6102  0.1664
  254TMC3    C6 3904   3.093   2.087  15.940  0.1800  0.6798  0.2219
  254TMC3     C 3905   3.199   2.168  15.545 -0.4153  0.4569  0.1589
  254TMC3     O 3906   3.100   2.183  15.473  0.1153 -0.4276  0.0305
  254TMC3     H 3907   2.995   2.263  15.659 -1.4540 -0.8590  0.2845
  254TMC3    H1 3908   3.352   2.042  15.740  0.5439  1.6526  0.2620
  254TMC3    H2 3909   3.075   2.058  16.043  2.0680 -1.3413 -0.0015
  254TMC3    C7 3910   3.307   1.999  15.985 -0.3125 -0.0764  0.8414
  254TMC3    C8 3911   2.890   2.205  15.920 -0.3221  0.4970 -0.4144
  254TMC3    O1 3912   3.265   1.936  16.083 -0.0807  0.1210  0.9009
  254TMC3    O2 3913   2.863   2.147  16.023  0.1291  0.4126  0.2108
  255MPD2     C 3914   1.787   0.731  10.551 -0.3896 -0.3876 -0.9205
  255MPD2    C1 3915   1.711   0.635  10.488 -0.5417  0.2560  0.1577
  255MPD2    C2 3916   1.759   0.558  10.387  0.7081 -0.0169  0.0999
  255MPD2    C3 3917   1.886   0.589  10.336  0.5708 -0.6064 -0.0782
  255MPD2    C4 3918   1.970   0.672  10.403 -0.1872  0.0498  1.0136
  255MPD2    C5 3919   1.917   0.743  10.506  0.7180  0.1642  0.0568
  255MPD2     H 3920   1.687   0.496  10.334 -1.3835  0.6202  2.1744
  255MPD2    H1 3921   2.070   0.698  10.370  0.2953 -2.5293  0.4952
  255MPD2    H2 3922   1.745   0.803  10.620 -1.5072 -3.5774  1.7148
  255MPD2    H3 3923   1.979   0.818  10.552  3.6714 -1.8477 -0.6619
  255MPD2     N 3924   1.925   0.535  10.213 -0.3267 -0.0454 -0.6005
  255MPD2    H5 3925   1.866   0.461  10.177 -0.1662 -1.1103  1.3191
  255MPD2    N1 3926   1.574   0.637  10.533  0.2511 -0.0698 -0.2344
  255MPD2    H7 3927   1.545   0.725  10.574  0.8368 -0.0178  0.0679
  256TMC3    C1 3928   1.350   0.566  10.537  0.4339  0.1170  0.0204
  256TMC3    C2 3929   1.316   0.698  10.558 -0.5836 -0.1742 -0.2796
  256TMC3    C3 3930   1.181   0.711  10.576  0.0832 -0.3336 -0.1551
  256TMC3    C4 3931   1.262   0.462  10.524  0.3814  0.3384 -0.2093
  256TMC3    C5 3932   1.130   0.488  10.545 -0.0486  0.0945  0.5864
  256TMC3    C6 3933   1.082   0.614  10.576 -0.0124  0.0551 -0.5483
  256TMC3     C 3934   1.489   0.538  10.516  0.6069  0.0687 -0.1169
  256TMC3     O 3935   1.518   0.423  10.482 -0.2697 -0.4165  0.0486
  256TMC3     H 3936   1.380   0.780  10.586 -1.4889  0.7411 -0.8902
  256TMC3    H1 3937   1.296   0.361  10.503 -2.3933 -0.6036 -0.2814
  256TMC3    H2 3938   0.981   0.650  10.590  0.5347  0.7492  1.6691
  256TMC3    C7 3939   1.040   0.375  10.545 -0.0877  0.0798  0.1940
  256TMC3    C8 3940   1.130   0.845  10.605  0.1498  0.0223 -0.4123
  256TMC3    O1 3941   1.094   0.266  10.523 -0.4200  0.1112  0.0569
  256TMC3    O2 3942   1.020   0.851  10.663  0.6953  0.7225 -0.5106
  257MPD2     C 3943   0.311   1.994  12.871 -0.3579 -0.0307  0.5751
  257MPD2    C1 3944   0.445   2.017  12.847 -0.0938  0.3060  0.0002
  257MPD2    C2 3945   0.534   1.913  12.884  0.3847  0.3109 -0.2396
  257MPD2    C3 3946   0.499   1.797  12.957 -0.1480 -0.9894 -0.1302
  257MPD2    C4 3947   0.358   1.780  12.982 -0.5633 -0.4462  0.4717
  257MPD2    C5 3948   0.267   1.883  12.942 -0.0788  0.4115 -0.4620
  257MPD2     H 3949   0.641   1.924  12.867  0.1201  0.0401 -2.0531
  257MPD2    H1 3950   0.321   1.691  13.031  1.5126 -1.1999  0.6945
  257MPD2    H2 3951   0.246   2.073  12.834  0.9341 -0.1207 -1.8935
  257MPD2    H3 3952   0.163   1.873  12.969 -0.1572  1.9348 -0.2246
  257MPD2     N 3953   0.599   1.702  13.001 -0.5559  0.0948 -0.1959
  257MPD2    H5 3954   0.692   1.713  12.960 -1.2405  1.7721 -1.2968
  257MPD2    N1 3955   0.491   2.128  12.778  0.1723  0.4561 -0.2571
  257MPD2    H7 3956   0.426   2.193  12.733  1.2455  0.6706 -1.5040
  258TMC3    C1 3957   0.690   1.513  13.110 -0.3843  0.1945  0.4124
  258TMC3    C2 3958   0.801   1.520  13.033 -0.1461  0.0089  0.1981
  258TMC3    C3 3959   0.913   1.457  13.074  0.5754 -0.0096  0.7019
  258TMC3    C4 3960   0.693   1.448  13.232 -0.5837 -0.3131  0.4476
  258TMC3    C5 3961   0.811   1.397  13.276 -0.4054 -0.4330  0.1868
  258TMC3    C6 3962   0.925   1.403  13.199  0.2045 -0.0448 -0.2952
  258TMC3     C 3963   0.576   1.599  13.090 -0.4656 -0.6073  0.3065
  258TMC3     O 3964   0.483   1.572  13.163  0.2579  0.6336 -0.3372
  258TMC3     H 3965   0.799   1.562  12.934 -0.1054 -2.4092 -0.8271
  258TMC3    H1 3966   0.605   1.440  13.295 -0.4067  0.2398  0.7642
  258TMC3    H2 3967   1.017   1.352  13.227  0.3992  0.5627  0.1490
  258TMC3    C7 3968   0.825   1.347  13.417  0.6002 -0.2223 -0.4439
  258TMC3    C8 3969   1.018   1.435  12.984  0.3609 -0.0524  1.1631
  258TMC3    O1 3970   0.721   1.346  13.479 -0.7430  0.5129 -0.0417
  258TMC3    O2 3971   1.131   1.441  13.033 -0.2467  0.3342 -0.1585
  259MPD2     C 3972   4.543   3.227   0.248  0.0772 -0.7659  0.0341
  259MPD2    C1 3973   4.657   3.208   0.321  0.5013 -0.4218 -0.7018
  259MPD2    C2 3974   0.012   3.113   0.283 -0.2410 -0.3317 -0.2822
  259MPD2    C3 3975   4.721   3.036   0.171  0.0829  0.2818 -0.0571
  259MPD2    C4 3976   4.607   3.051   0.097 -0.4053  0.1097 -0.1498
  259MPD2    C5 3977   4.519   3.147   0.139 -0.0472 -0.0181  0.4765
  259MPD2     H 3978   0.095   3.081   0.344  0.4297 -0.3011 -1.1906
  259MPD2    H1 3979   4.579   2.993   0.009 -0.9418  0.6254 -0.3196
  259MPD2    H2 3980   4.460   3.291   0.276  1.1447  1.6077 -2.2048
  259MPD2    H3 3981   4.428   3.164   0.084  0.8574  0.4976 -0.8772
  259MPD2     N 3982   0.077   2.925   0.148  0.4592 -0.0846 -0.8787
  259MPD2    H5 3983   0.171   2.938   0.185 -0.2187 -0.4211  0.9479
  259MPD2    N1 3984   4.673   3.290   0.433 -0.2806  0.1027 -0.5177
  259MPD2    H7 3985   4.603   3.363   0.448 -0.6504 -0.4332  0.3413
  260TMC3    C1 3986   0.174   2.731   0.056  0.2059  0.3320 -0.5711
  260TMC3    C2 3987   0.167   2.600   0.032 -0.0069  0.4081  0.5171
  260TMC3    C3 3988   0.286   2.531   0.030  0.1035  0.0335  0.3367
  260TMC3    C4 3989   0.306   2.786   0.083  0.2194  0.3735 -0.2435
  260TMC3    C5 3990   0.417   2.704   0.103 -0.4621 -0.4973 -0.8145
  260TMC3    C6 3991   0.412   2.577   0.060  0.2876  0.1698 -0.0821
  260TMC3     C 3992   0.055   2.813   0.073 -0.0600  0.5838  0.1102
  260TMC3     O 3993   4.687   2.754   0.055  0.1987 -0.0106  0.5322
  260TMC3     H 3994   0.070   2.553   0.019  0.4587 -0.4648  0.2015
  260TMC3    H1 3995   0.330   2.890   0.100 -1.7179  1.1223 -2.0819
  260TMC3    H2 3996   0.497   2.511   0.069  0.7064  0.5814 -1.0270
  260TMC3    C7 3997   0.535   2.757   0.167 -0.7838  0.0549  0.7416
  260TMC3    C8 3998   0.280   2.388   0.032 -1.0939  0.5845 -0.6823
  260TMC3    O1 3999   0.639   2.730   0.103  0.1839  0.1742  0.1076
  260TMC3    O2 4000   0.179   2.330   0.067 -0.4381  0.1606 -0.0807
  261MPD2     C 4001   1.361   1.720  12.494 -0.0313 -0.5940  0.5567
  261MPD2    C1 4002   1.458   1.821  12.505 -0.7330  0.1687 -0.4488
  261MPD2    C2 4003   1.451   1.930  12.420 -0.6580 -0.0660 -0.2439
  261MPD2    C3 4004   1.352   1.933  12.322  0.0168 -0.3567  0.1627
  261MPD2    C4 4005   1.258   1.827  12.303  0.4281 -0.2977 -0.3669
  261MPD2    C5 4006   1.271   1.723  12.392 -0.1349  0.6341  0.4124
  261MPD2     H 4007   1.529   2.006  12.431  0.6446 -1.5977  1.1002
  261MPD2    H1 4008   1.193   1.824  12.217  1.5637  1.0554 -1.2754
  261MPD2    H2 4009   1.360   1.640  12.567 -0.8542 -1.3567 -0.2752
  261MPD2    H3 4010   1.198   1.643  12.392  0.4081  0.1391 -1.5128
  261MPD2     N 4011   1.360   2.036  12.225 -0.2408 -0.2032  0.2096
  261MPD2    H5 4012   1.446   2.090  12.219 -0.0377 -0.1980  2.9193
  261MPD2    N1 4013   1.549   1.803  12.614  1.3940 -0.3935 -0.0457
  261MPD2    H7 4014   1.540   1.721  12.674  0.6723  0.1119  0.5434
  262TMC3    C1 4015   1.296   2.172  12.048 -0.5050 -0.2561 -0.0191
  262TMC3    C2 4016   1.210   2.275  12.024  0.4052 -0.2207  0.0753
  262TMC3    C3 4017   1.260   2.377  11.947 -0.3991 -0.9583 -0.1030
  262TMC3    C4 4018   1.418   2.162  11.984  0.3838 -0.0284  0.0808
  262TMC3    C5 4019   1.461   2.267  11.906 -0.3598  0.3287  0.7476
  262TMC3    C6 4020   1.375   2.372  11.873  0.0080 -0.0192 -0.3089
  262TMC3     C 4021   1.256   2.072  12.149 -0.8697 -0.3515 -0.5776
  262TMC3     O 4022   1.137   2.051  12.159  0.1460  0.1025  0.2222
  262TMC3     H 4023   1.112   2.284  12.068 -0.0517  2.0251 -1.3953
  262TMC3    H1 4024   1.484   2.078  12.004 -2.1268 -2.3009 -1.2372
  262TMC3    H2 4025   1.405   2.453  11.807 -2.9768  1.5221  0.2081
  262TMC3    C7 4026   1.603   2.275  11.878 -0.2444  0.0273  0.4745
  262TMC3    C8 4027   1.196   2.500  11.964 -0.2081  0.1673  0.0965
  262TMC3    O1 4028   1.679   2.191  11.920  0.2197 -0.0555  0.4044
  262TMC3    O2 4029   1.229   2.566  12.060  0.4449 -0.3292  0.3735
  263MPD2     C 4030   2.417   1.328  11.653  0.1722  0.2258 -0.3271
  263MPD2    C1 4031   2.540   1.356  11.605 -0.1044  0.0962 -0.3331
  263MPD2    C2 4032   2.546   1.455  11.507 -0.2066  0.5376 -0.8847
  263MPD2    C3 4033   2.435   1.533  11.468 -0.0739 -0.6324  0.3476
  263MPD2    C4 4034   2.317   1.507  11.523  0.2582  0.2232 -0.2662
  263MPD2    C5 4035   2.304   1.396  11.601 -1.1361 -0.1504  0.5399
  263MPD2     H 4036   2.646   1.480  11.474 -0.0703 -0.1257 -0.9603
  263MPD2    H1 4037   2.225   1.545  11.481 -0.3680  0.2625  1.1483
  263MPD2    H2 4038   2.396   1.259  11.734 -2.3168  0.0822 -1.0987
  263MPD2    H3 4039   2.207   1.373  11.643 -1.0245 -0.6873  0.5108
  263MPD2     N 4040   2.456   1.638  11.373 -0.6387  0.1321  0.7671
  263MPD2    H5 4041   2.543   1.646  11.320 -0.0308  0.6430  1.8364
  263MPD2    N1 4042   2.646   1.295  11.661 -0.3660 -0.2268  0.5241
  263MPD2    H7 4043   2.628   1.247  11.748 -1.8613  2.2128  1.5524
  264TMC3    C1 4044   2.450   1.852  11.301 -1.0328  0.1966  0.5041
  264TMC3    C2 4045   2.496   1.964  11.370  0.2426 -0.1430 -0.5201
  264TMC3    C3 4046   2.595   2.038  11.316 -0.5478 -0.1796  0.6751
  264TMC3    C4 4047   2.509   1.815  11.181  0.7117 -0.0898 -0.0970
  264TMC3    C5 4048   2.598   1.904  11.123 -0.0828  0.2709 -0.5153
  264TMC3    C6 4049   2.648   2.007  11.194 -0.1108  0.3226  0.0802
  264TMC3     C 4050   2.375   1.749  11.370 -0.1188  0.8723 -0.0686
  264TMC3     O 4051   2.277   1.781  11.435 -0.1058 -0.1835 -0.5367
  264TMC3     H 4052   2.448   1.988  11.464 -2.1286 -0.9253 -1.5191
  264TMC3    H1 4053   2.481   1.724  11.129  0.9456 -1.3062  1.9428
  264TMC3    H2 4054   2.728   2.061  11.146 -1.9912  2.0005 -1.1629
  264TMC3    C7 4055   2.675   1.863  11.004 -0.2597 -0.8796 -0.3992
  264TMC3    C8 4056   2.656   2.160  11.373 -1.0622 -0.1977  0.3117
  264TMC3    O1 4057   2.743   1.950  10.954 -1.0257  0.3509 -0.5485
  264TMC3    O2 4058   2.762   2.193  11.322 -0.3184 -0.6894 -0.4066
  265MPD2     C 4059   4.192   1.568  15.712 -0.8931 -0.1014  0.1386
  265MPD2    C1 4060   4.234   1.669  15.636  0.1598 -0.1551  0.2721
  265MPD2    C2 4061   4.292   1.650  15.514  0.4985 -0.4165  0.2012
  265MPD2    C3 4062   4.322   1.521  15.476 -0.1484  0.5763 -0.3525
  265MPD2    C4 4063   4.286   1.416  15.552 -0.5109  0.6281 -1.0283
  265MPD2    C5 4064   4.218   1.441  15.671  0.1910  0.8715 -0.2091
  265MPD2     H 4065   4.324   1.732  15.451  0.9152 -2.5125 -2.3016
  265MPD2    H1 4066   4.303   1.314  15.520  0.8961  0.6369 -0.3000
  265MPD2    H2 4067   4.143   1.578  15.808 -2.8316  1.7278 -1.0418
  265MPD2    H3 4068   4.178   1.364  15.736  2.5429 -0.0623  0.1519
  265MPD2     N 4069   4.394   1.491  15.361  0.6175 -0.1052 -0.0756
  265MPD2    H5 4070   4.401   1.391  15.345  0.4453  0.6264 -4.6262
  265MPD2    N1 4071   4.229   1.805  15.685  1.0154  0.0894 -0.3934
  265MPD2    H7 4072   4.249   1.885  15.627  2.1505  1.0902  1.3859
  266TMC3    C1 4073   4.177   1.979  15.848  0.4387 -0.2948  0.0644
  266TMC3    C2 4074   4.197   2.014  15.979 -0.2708 -0.5654  0.5862
  266TMC3    C3 4075   4.098   2.105  16.021  0.3127  0.0025 -0.0410
  266TMC3    C4 4076   4.083   2.043  15.764  0.2711 -0.2984  0.3089
  266TMC3    C5 4077   4.005   2.147  15.807 -0.0272 -0.8570 -0.0955
  266TMC3    C6 4078   4.006   2.169  15.940 -0.1048 -0.4304  0.4308
  266TMC3     C 4079   4.211   1.838  15.824  0.3800 -0.1213  0.0091
  266TMC3     O 4080   4.224   1.765  15.923  0.7085 -0.1076  0.1208
  266TMC3     H 4081   4.267   1.957  16.038  0.1165  0.3664  1.0153
  266TMC3    H1 4082   4.080   2.005  15.662  1.6098  0.2948  0.0520
  266TMC3    H2 4083   3.924   2.226  15.983  0.8913  0.7184  0.8325
  266TMC3    C7 4084   3.943   2.241  15.716 -0.5108 -0.2242  0.1292
  266TMC3    C8 4085   4.093   2.120  16.174  0.5345 -0.0409  0.4204
  266TMC3    O1 4086   3.843   2.298  15.759  0.2911  0.1389 -0.2506
  266TMC3    O2 4087   4.135   2.032  16.246  0.8969  0.3711  0.3665
  267MPD2     C 4088   1.970   3.916   0.189 -0.0632  0.1210  0.3239
  267MPD2    C1 4089   2.040   3.852   0.090 -0.6871 -0.0351 -0.4845
  267MPD2    C2 4090   1.999   3.876  17.706  0.2137 -0.0018  0.4385
  267MPD2    C3 4091   1.889   3.961  17.675  0.3182  0.1916 -0.0676
  267MPD2    C4 4092   1.819   4.025   0.034  0.0211  0.2508 -0.1695
  267MPD2    C5 4093   1.864   3.999   0.163  0.0266 -0.5496 -0.5885
  267MPD2     H 4094   2.055   3.834  17.622 -0.1190  2.2845 -0.9274
  267MPD2    H1 4095   1.743   4.102   0.023 -0.5456 -0.1073  1.1741
  267MPD2    H2 4096   2.009   3.918   0.290 -0.4769  1.4701  0.4524
  267MPD2    H3 4097   1.822   4.049   0.250  0.9191 -0.2671 -0.3223
  267MPD2     N 4098   1.837   3.994  17.547 -0.1076  0.7438  0.6253
  267MPD2    H5 4099   1.745   4.037  17.550 -0.7791 -0.7354  1.5263
  267MPD2    N1 4100   2.140   3.761   0.127 -0.0429  0.2464  0.2265
  267MPD2    H7 4101   2.156   3.757   0.228  2.2358 -0.0099 -0.1450
  268TMC3    C1 4102   2.335   3.616   0.105  0.2565  0.0353 -0.5868
  268TMC3    C2 4103   2.446   3.592   0.037 -0.9977  0.2344  0.4164
  268TMC3    C3 4104   2.549   3.524   0.092 -0.0907 -0.5631  0.1766
  268TMC3    C4 4105   2.313   3.579   0.234  0.1334  0.5157  0.1390
  268TMC3    C5 4106   2.417   3.499   0.286 -0.5949 -0.3246 -0.0976
  268TMC3    C6 4107   2.535   3.473   0.221 -0.0594 -0.0472  0.6362
  268TMC3     C 4108   2.222   3.686   0.039  0.3400 -0.9689 -0.4206
  268TMC3     O 4109   2.218   3.674  17.660 -0.1851  0.1430 -0.2615
  268TMC3     H 4110   2.455   3.625  17.676 -0.9377  1.2111  0.7322
  268TMC3    H1 4111   2.221   3.597   0.288 -1.8639 -1.5049 -2.5700
  268TMC3    H2 4112   2.619   3.427   0.270  1.0172 -0.5354 -1.6746
  268TMC3    C7 4113   2.393   3.428   0.411 -0.1799 -0.2511 -0.6315
  268TMC3    C8 4114   2.686   3.540   0.048 -0.2422 -0.5483 -0.8463
  268TMC3    O1 4115   2.476   3.341   0.443  0.1609 -0.2696  0.3789
  268TMC3    O2 4116   2.759   3.441   0.055  0.0742  0.3004 -0.6434
  269MPD2     C 4117   2.649   2.229  15.543  0.4539  0.4298 -0.0454
  269MPD2    C1 4118   2.508   2.226  15.560 -0.5058 -0.1146 -0.3013
  269MPD2    C2 4119   2.434   2.342  15.536  0.4762 -0.2809  0.6427
  269MPD2    C3 4120   2.498   2.453  15.492 -0.5135  0.8011  0.6319
  269MPD2    C4 4121   2.629   2.452  15.462 -0.8854  0.1519 -1.0178
  269MPD2    C5 4122   2.704   2.338  15.481 -0.0045  0.4834  0.3145
  269MPD2     H 4123   2.329   2.343  15.563  0.5998 -0.9815  1.1734
  269MPD2    H1 4124   2.672   2.534  15.407 -0.4096 -0.2082 -1.1772
  269MPD2    H2 4125   2.718   2.148  15.562  1.5151  0.6504 -2.9030
  269MPD2    H3 4126   2.810   2.338  15.456 -0.3291  2.0882 -1.0612
  269MPD2     N 4127   2.428   2.577  15.482  0.5189 -0.0510 -0.6958
  269MPD2    H5 4128   2.335   2.576  15.523 -0.5724  0.8489 -3.1256
  269MPD2    N1 4129   2.447   2.105  15.586 -0.8311 -0.8172 -0.1553
  269MPD2    H7 4130   2.503   2.021  15.582 -1.3135 -1.1152 -0.5812
  270TMC3    C1 4131   2.275   1.946  15.637  0.4389  0.5317  0.0870
  270TMC3    C2 4132   2.167   1.904  15.573  1.1651  0.5055  0.5022
  270TMC3    C3 4133   2.099   1.799  15.626  0.2003 -0.1458  0.0088
  270TMC3    C4 4134   2.315   1.898  15.759 -0.1295 -0.2511 -0.1872
  270TMC3    C5 4135   2.227   1.815  15.823  0.7535  0.6022 -0.0649
  270TMC3    C6 4136   2.124   1.760  15.754 -0.3743  0.1698  0.4872
  270TMC3     C 4137   2.312   2.083  15.595 -0.1839  0.0060 -0.1212
  270TMC3     O 4138   2.211   2.149  15.566  0.0465  0.4055  0.5229
  270TMC3     H 4139   2.132   1.949  15.481  0.9187  1.6550  1.1548
  270TMC3    H1 4140   2.396   1.948  15.812 -1.1292  0.6727  0.4665
  270TMC3    H2 4141   2.060   1.687  15.801  0.1099 -1.6098 -1.6108
  270TMC3    C7 4142   2.264   1.756  15.957 -0.2161 -0.5410  0.4652
  270TMC3    C8 4143   2.011   1.720  15.551 -0.1126 -0.2994  0.6192
  270TMC3    O1 4144   2.385   1.752  15.982 -0.6301  0.0576 -0.3150
  270TMC3    O2 4145   1.958   1.631  15.619 -0.4858 -0.0421  0.0303
  271MPD2     C 4146   1.371   1.933  13.691 -0.0275  0.2825  0.1919
  271MPD2    C1 4147   1.337   1.948  13.825  0.0622  0.5892 -0.6053
  271MPD2    C2 4148   1.208   1.981  13.849  1.2089  0.5169 -0.1495
  271MPD2    C3 4149   1.118   2.000  13.743  0.2024  0.0574 -0.0055
  271MPD2    C4 4150   1.153   1.989  13.613 -0.4502 -0.6659 -0.2912
  271MPD2    C5 4151   1.279   1.942  13.590 -0.3984  0.3047  0.0420
  271MPD2     H 4152   1.179   1.976  13.954  2.9832  0.7615  0.3530
  271MPD2    H1 4153   1.095   1.992  13.521  0.9692 -1.4551 -1.2118
  271MPD2    H2 4154   1.472   1.919  13.653 -0.7195 -0.3737 -1.4123
  271MPD2    H3 4155   1.306   1.935  13.485  0.3932  1.3482  0.1749
  271MPD2     N 4156   0.979   2.017  13.763 -0.3144  0.2433 -0.0217
  271MPD2    H5 4157   0.916   2.007  13.683  2.9276 -0.7932 -2.4344
  271MPD2    N1 4158   1.424   1.944  13.935  0.0425  0.2954  0.2253
  271MPD2    H7 4159   1.388   1.957  14.029  1.1325 -1.5485  0.8880
  272TMC3    C1 4160   1.634   1.924  14.049  0.3960  0.0377  0.5472
  272TMC3    C2 4161   1.748   1.853  14.046 -0.4538  0.2100  0.6566
  272TMC3    C3 4162   1.810   1.828  14.166  0.0015 -0.0778  0.0136
  272TMC3    C4 4163   1.576   1.963  14.166  0.6295  0.2478  0.1475
  272TMC3    C5 4164   1.642   1.934  14.279  0.2925 -0.6838 -0.6777
  272TMC3    C6 4165   1.759   1.866  14.287  0.3537 -0.6377  0.2560
  272TMC3     C 4166   1.560   1.919  13.920  0.5711  0.3214  0.2033
  272TMC3     O 4167   1.623   1.868  13.826  0.1822  0.2884 -0.3845
  272TMC3     H 4168   1.788   1.809  13.955  1.2819  0.5131  1.2697
  272TMC3    H1 4169   1.481   2.014  14.163  0.8284  0.4785 -1.8768
  272TMC3    H2 4170   1.809   1.839  14.379  2.3237 -1.5211 -1.0413
  272TMC3    C7 4171   1.567   1.965  14.401 -0.3562  0.3029  0.1450
  272TMC3    C8 4172   1.952   1.787  14.158 -0.0119  0.4620  0.6507
  272TMC3    O1 4173   1.446   1.981  14.387 -0.0255  0.4345 -0.1560
  272TMC3    O2 4174   2.013   1.819  14.057 -0.3419  0.2576 -0.0665
  273MPD2     C 4175   3.081   0.239  12.000 -0.1001  0.5524 -0.1209
  273MPD2    C1 4176   3.208   0.209  11.956  0.4714 -0.0333  0.0234
  273MPD2    C2 4177   3.243   0.217  11.824 -0.0313  0.3572 -0.5301
  273MPD2    C3 4178   3.146   0.239  11.727 -0.4325 -0.2005 -0.0452
  273MPD2    C4 4179   3.017   0.273  11.765 -0.4608 -0.4364  0.6014
  273MPD2    C5 4180   2.991   0.271  11.909  0.6629  0.2110 -0.5919
  273MPD2     H 4181   3.340   0.182  11.792  0.3284  0.2567  0.7010
  273MPD2    H1 4182   2.941   0.307  11.695  0.4587  0.9313  0.2704
  273MPD2    H2 4183   3.057   0.233  12.105 -2.3468  1.7925 -0.5612
  273MPD2    H3 4184   2.893   0.292  11.951  1.3688 -2.7734  2.5450
  273MPD2     N 4185   3.181   0.240  11.589 -0.6155 -0.3633 -0.3591
  273MPD2    H5 4186   3.109   0.270  11.525  0.1487  1.8993 -0.1610
  273MPD2    N1 4187   3.306   0.190  12.061  0.0037 -0.0352  0.4904
  273MPD2    H7 4188   3.290   0.216  12.158  1.2132  0.1310  0.6511
  274TMC3    C1 4189   3.289   0.276  11.397 -0.2399 -0.3069 -0.1299
  274TMC3    C2 4190   3.171   0.269  11.325  0.0583  0.0737 -0.8789
  274TMC3    C3 4191   3.148   0.364  11.227  0.6986  0.9570  0.3235
  274TMC3    C4 4192   3.376   0.378  11.370 -0.2545 -0.2978  0.0499
  274TMC3    C5 4193   3.341   0.470  11.278 -0.1657 -0.3033 -0.6199
  274TMC3    C6 4194   3.241   0.459  11.192 -0.4520  0.4348  0.6929
  274TMC3     C 4195   3.299   0.219  11.526 -0.1340  0.4568  0.1857
  274TMC3     O 4196   3.413   0.195  11.560  0.3420 -0.0573  0.1086
  274TMC3     H 4197   3.103   0.186  11.341  0.3335 -0.2297 -1.2950
  274TMC3    H1 4198   3.444   0.405  11.450 -2.4539  0.0598  1.7765
  274TMC3    H2 4199   3.205   0.539  11.129 -2.0643 -1.0981 -0.3334
  274TMC3    C7 4200   3.355   0.609  11.325 -0.0045 -0.5240  0.6245
  274TMC3    C8 4201   3.042   0.353  11.134  0.2503  0.0875  0.1247
  274TMC3    O1 4202   3.343   0.621  11.448  0.1007 -0.2189 -0.4753
  274TMC3    O2 4203   3.015   0.448  11.065  0.4784 -0.9394  0.3079
  275MPD2     C 4204   3.236   2.744  14.511 -0.4264 -0.0326 -0.2121
  275MPD2    C1 4205   3.161   2.853  14.526  0.6575  0.1259 -0.0225
  275MPD2    C2 4206   3.023   2.829  14.530  0.1807  0.2911  0.4146
  275MPD2    C3 4207   2.967   2.705  14.500  0.3547  0.3231 -0.3696
  275MPD2    C4 4208   3.046   2.597  14.475  1.0495  0.0569  0.5870
  275MPD2    C5 4209   3.179   2.618  14.485  1.1433  0.6352  0.3027
  275MPD2     H 4210   2.963   2.917  14.550  0.4005  0.3182  0.9344
  275MPD2    H1 4211   2.997   2.501  14.463 -0.9470  0.8282  2.5628
  275MPD2    H2 4212   3.344   2.750  14.512 -0.3716 -1.1413  0.7457
  275MPD2    H3 4213   3.244   2.537  14.453  1.5841  1.1038  0.0030
  275MPD2     N 4214   2.827   2.688  14.499  0.4704  0.0821  0.4472
  275MPD2    H5 4215   2.798   2.592  14.511 -1.1520  0.7051  1.5215
  275MPD2    N1 4216   3.211   2.988  14.538  0.1354 -0.4918  0.0339
  275MPD2    H7 4217   3.140   3.061  14.545 -0.6530 -1.4681  2.1484
  276TMC3    C1 4218   3.350   3.167  14.568 -0.6053  0.6191 -0.4180
  276TMC3    C2 4219   3.228   3.232  14.574 -0.0777 -1.0000 -0.1271
  276TMC3    C3 4220   3.205   3.322  14.675 -0.0353  0.1643 -0.0743
  276TMC3    C4 4221   3.457   3.200  14.652 -0.2378 -0.5913  0.0653
  276TMC3    C5 4222   3.421   3.278  14.756 -0.0070 -0.4495  0.2170
  276TMC3    C6 4223   3.297   3.331  14.777  0.1134  0.1785 -0.8336
  276TMC3     C 4224   3.344   3.029  14.537 -0.2483  0.1542  0.6864
  276TMC3     O 4225   3.450   2.968  14.539 -0.3838 -0.0155  0.4185
  276TMC3     H 4226   3.159   3.222  14.492  1.2966 -3.9514 -0.9241
  276TMC3    H1 4227   3.548   3.140  14.658  0.8576  0.8340 -2.0884
  276TMC3    H2 4228   3.278   3.391  14.865  1.7868 -1.3510  0.5510
  276TMC3    C7 4229   3.526   3.315  14.849 -0.2149  0.1781  0.1391
  276TMC3    C8 4230   3.073   3.299  14.735  0.0788 -0.5177 -1.2540
  276TMC3    O1 4231   3.485   3.343  14.961  0.0530  0.3577 -0.2097
  276TMC3    O2 4232   2.975   3.367  14.711 -0.0073 -0.3268  0.3291
  277MPD2     C 4233   4.575   1.959  12.853 -0.0497 -0.2335 -0.4777
  277MPD2    C1 4234   4.472   2.021  12.918 -0.0196 -0.1171 -0.0873
  277MPD2    C2 4235   4.448   1.990  13.047 -0.2920 -0.5129 -0.1237
  277MPD2    C3 4236   4.531   1.915  13.122 -0.6688  0.5821  0.7676
  277MPD2    C4 4237   4.635   1.857  13.061  0.0954  0.1798 -0.0968
  277MPD2    C5 4238   4.650   1.870  12.922 -0.6303 -0.3240  0.0544
  277MPD2     H 4239   4.366   2.042  13.096  1.6213  1.6511  0.8226
  277MPD2    H1 4240   4.715   1.796  13.102 -0.0265  0.4332  0.5175
  277MPD2    H2 4241   4.603   1.990  12.752 -0.2768 -1.3811 -0.8901
  277MPD2    H3 4242   0.000   1.819  12.882  1.3615  0.9425  2.7157
  277MPD2     N 4243   4.502   1.906  13.265  0.3350  0.0520 -0.2299
  277MPD2    H5 4244   4.425   1.965  13.294 -0.1193 -1.9334  2.6289
  277MPD2    N1 4245   4.396   2.117  12.845  0.2698  0.2687  0.0656
  277MPD2    H7 4246   4.435   2.151  12.757  1.0852 -3.6802 -1.1027
  278TMC3    C1 4247   4.522   1.828  13.483  0.4850 -0.5040  0.1544
  278TMC3    C2 4248   4.516   1.713  13.553 -0.5426  0.4246 -1.2346
  278TMC3    C3 4249   4.473   1.721  13.688 -0.2432 -0.5440 -0.2699
  278TMC3    C4 4250   4.476   1.950  13.531  0.8069 -0.3070 -0.1894
  278TMC3    C5 4251   4.422   1.946  13.658 -0.4792 -0.3900  0.3422
  278TMC3    C6 4252   4.428   1.839  13.745  0.4905 -0.1007 -0.1086
  278TMC3     C 4253   4.568   1.823  13.352  0.5738  0.0703  0.6025
  278TMC3     O 4254   4.656   1.747  13.321  0.2300  0.2475 -0.1299
  278TMC3     H 4255   4.529   1.618  13.503  0.4152  0.8305 -1.7416
  278TMC3    H1 4256   4.493   2.046  13.485 -0.1141 -0.9585 -1.8737
  278TMC3    H2 4257   4.392   1.839  13.847 -0.1401  0.1871 -0.3338
  278TMC3    C7 4258   4.329   2.048  13.707 -0.4241  0.2301 -0.1346
  278TMC3    C8 4259   4.390   1.613  13.714 -0.8954  0.4253  0.3329
  278TMC3    O1 4260   4.354   2.160  13.667  0.0212  0.2523 -0.2670
  278TMC3    O2 4261   4.402   1.554  13.823 -0.6081  0.6712 -0.4214
  279MPD2     C 4262   3.832   1.758   0.237  0.2485 -0.1840 -0.2208
  279MPD2    C1 4263   3.791   1.881   0.281  0.5817  0.0987 -0.2222
  279MPD2    C2 4264   3.814   1.988   0.195 -0.8797  0.2635  0.3855
  279MPD2    C3 4265   3.859   1.977   0.065 -0.1805 -0.2076  0.3293
  279MPD2    C4 4266   3.876   1.843   0.012 -0.6843 -0.0413 -0.0907
  279MPD2    C5 4267   3.862   1.739   0.104 -0.0263  0.2244  0.9168
  279MPD2     H 4268   3.794   2.084   0.241 -1.7016  0.6743 -0.8297
  279MPD2    H1 4269   3.907   1.821  17.652 -2.0771 -2.0077 -0.0847
  279MPD2    H2 4270   3.823   1.674   0.304  0.4486 -0.2463 -0.2713
  279MPD2    H3 4271   3.868   1.634   0.077 -2.0338  0.1594  0.7080
  279MPD2     N 4272   3.877   2.086  17.722 -0.5683 -0.1039  0.1062
  279MPD2    H5 4273   3.889   2.069  17.623  0.2321 -0.5437  0.2763
  279MPD2    N1 4274   3.745   1.894   0.419 -0.1403 -0.1184 -0.2136
  279MPD2    H7 4275   3.786   1.827   0.484 -1.0260 -1.3491 -0.9131
  280TMC3    C1 4276   3.575   2.065   0.382  0.9274 -0.2700 -0.9535
  280TMC3    C2 4277   3.525   1.999   0.273 -1.5182 -0.7046 -0.4326
  280TMC3    C3 4278   3.449   2.074   0.187  0.4697  0.5762 -0.6629
  280TMC3    C4 4279   3.544   2.195   0.417 -0.3019  0.0756 -0.1461
  280TMC3    C5 4280   3.461   2.265   0.334  0.6160 -0.9154  0.1811
  280TMC3    C6 4281   3.420   2.209   0.216 -0.2446 -0.2036  0.2101
  280TMC3     C 4282   3.670   1.995   0.470  0.3895  0.4481  0.3994
  280TMC3     O 4283   3.658   2.035   0.587 -0.2679 -0.0555  0.2405
  280TMC3     H 4284   3.543   1.895   0.251  0.4085 -0.8715  1.9277
  280TMC3    H1 4285   3.598   2.245   0.497 -1.0612 -0.5945  0.7879
  280TMC3    H2 4286   3.361   2.262   0.142 -0.2749  0.0570  0.4194
  280TMC3    C7 4287   3.443   2.401   0.357  0.1839  0.0189 -0.0060
  280TMC3    C8 4288   3.450   2.043   0.047 -0.8992  0.3182  0.0053
  280TMC3    O1 4289   3.524   2.459   0.429  0.3100  0.1214  0.3669
  280TMC3    O2 4290   3.443   2.136  17.707 -0.0117  0.0707  0.8466
  281TMC3    C1 4291   2.923   2.487  13.535 -0.1323  0.0283 -0.8784
  281TMC3    C2 4292   2.910   2.535  13.404  0.5158 -0.0152 -0.2394
  281TMC3    C3 4293   2.890   2.461  13.298 -1.1221 -0.0887 -0.0514
  281TMC3    C4 4294   2.923   2.352  13.552 -0.3466  0.1961 -0.4374
  281TMC3    C5 4295   2.904   2.281  13.440  0.2892  0.6281  0.5265
  281TMC3    C6 4296   2.897   2.326  13.308  0.2997  0.7420 -0.0277
  281TMC3     C 4297   2.827   2.542  13.627  0.2874  1.1157  0.1943
  281TMC3     O 4298   2.774   2.460  13.706  0.3270 -0.5763  0.1923
  281TMC3     H 4299   2.917   2.642  13.388  0.8832  0.0502  0.3490
  281TMC3    H1 4300   2.919   2.302  13.648  0.2775 -0.3188 -0.6728
  281TMC3    H2 4301   2.877   2.266  13.221  0.6395  1.0326 -0.3045
  281TMC3    C7 4302   2.820   2.163  13.470  0.1732 -1.0499  0.4068
  281TMC3    C8 4303   2.909   2.517  13.160  0.2293  0.3686  0.7663
  281TMC3    O1 4304   2.866   2.056  13.435 -0.7168 -0.4669  0.8442
  281TMC3    O2 4305   2.965   2.450  13.077 -0.0484  0.0326 -0.1460
  282MPD2     C 4306   4.614   3.494  15.100  0.3835  0.0685 -0.4411
  282MPD2    C1 4307   4.479   3.535  15.122  0.5186 -0.1943 -0.1113
  282MPD2    C2 4308   4.409   3.560  15.002 -0.5546  0.5554 -0.6023
  282MPD2    C3 4309   4.460   3.539  14.879 -0.3722  0.1659  0.7115
  282MPD2    C4 4310   4.594   3.498  14.863 -0.2005 -0.3490 -0.6083
  282MPD2    C5 4311   4.666   3.477  14.973  0.1876 -0.3357  0.5762
  282MPD2     H 4312   4.306   3.593  15.011 -0.9027 -0.3456 -1.3214
  282MPD2    H1 4313   4.646   3.490  14.768  1.3540  0.0736  0.2034
  282MPD2    H2 4314   4.681   3.474  15.183  0.5271  3.2231  0.1791
  282MPD2    H3 4315   0.035   3.453  14.955  0.4357  0.0641  1.5179
  282MPD2     N 4316   4.377   3.570  14.773 -0.1643  0.3141  0.6546
  282MPD2    H5 4317   4.288   3.614  14.793  1.0754  1.7351  3.0191
  282MPD2    N1 4318   4.411   3.561  15.245  0.1388 -0.3824  0.2600
  282MPD2    H7 4319   4.312   3.575  15.228  0.2830  0.1335 -0.1578
  283TMC3    C1 4320   4.404   3.613  15.465 -0.2720 -0.9050  0.1000
  283TMC3    C2 4321   4.443   3.743  15.490 -0.2662  0.5314 -0.2926
  283TMC3    C3 4322   4.435   3.779  15.620  0.5951  0.3057 -0.2293
  283TMC3    C4 4323   4.356   3.523  15.563  0.3189  0.2510 -0.0509
  283TMC3    C5 4324   4.353   3.570  15.690  0.1424 -0.2233 -0.0094
  283TMC3    C6 4325   4.398   3.690  15.724 -0.7669 -0.5267  0.7821
  283TMC3     C 4326   4.481   3.556  15.360  0.2412 -0.2531 -0.0567
  283TMC3     O 4327   4.598   3.530  15.381 -0.3833 -0.3375  0.0979
  283TMC3     H 4328   4.484   3.795  15.404 -0.5563  1.3260  0.0496
  283TMC3    H1 4329   4.334   3.419  15.543  0.3699  0.5148 -1.5179
  283TMC3    H2 4330   4.394   3.733  15.824 -1.8670  1.0803  0.0476
  283TMC3    C7 4331   4.271   3.509  15.789 -0.0084 -0.3516 -0.3793
  283TMC3    C8 4332   4.480   3.914  15.651  0.2251 -0.6741  0.0178
  283TMC3    O1 4333   4.227   3.598  15.858 -0.5631  0.5519 -0.4236
  283TMC3    O2 4334   4.522   3.940  15.767  0.4190  0.0218 -0.0530
  284MPD2     C 4335   1.975   2.981  11.896 -0.0315  0.2171 -0.0926
  284MPD2    C1 4336   2.103   2.941  11.881 -0.2909  0.1321  0.3102
  284MPD2    C2 4337   2.147   2.818  11.932  0.0758  0.4347 -0.0804
  284MPD2    C3 4338   2.065   2.744  12.012  0.0022  0.4608  0.5385
  284MPD2    C4 4339   1.937   2.787  12.033 -0.1055 -0.4640  0.0396
  284MPD2    C5 4340   1.894   2.902  11.973 -0.0598 -0.9908  0.6101
  284MPD2     H 4341   2.253   2.798  11.920 -0.1766 -0.6291 -0.5143
  284MPD2    H1 4342   1.870   2.738  12.102 -0.8865 -2.4528 -2.1417
  284MPD2    H2 4343   1.917   3.065  11.859 -0.9670 -0.7093 -0.7236
  284MPD2    H3 4344   1.789   2.928  11.976  0.0431 -0.7602  1.8127
  284MPD2     N 4345   2.108   2.630  12.087  0.4342  0.0673  0.1819
  284MPD2    H5 4346   2.041   2.591  12.152 -0.6261  0.1286 -0.8675
  284MPD2    N1 4347   2.202   3.033  11.849  0.4709 -0.2170 -0.0098
  284MPD2    H7 4348   2.296   3.006  11.875  0.3016 -0.8565 -0.0556
  285TMC3    C1 4349   2.299   3.245  11.811 -0.2297 -0.2176  0.3345
  285TMC3    C2 4350   2.427   3.197  11.807  0.4469 -0.2618  0.5058
  285TMC3    C3 4351   2.528   3.288  11.790 -0.2928  0.2729  1.0191
  285TMC3    C4 4352   2.272   3.379  11.800 -0.1684 -0.3523 -0.0402
  285TMC3    C5 4353   2.380   3.467  11.788 -0.1422 -1.0713 -0.3569
  285TMC3    C6 4354   2.504   3.421  11.788 -0.2462 -0.0149 -0.8030
  285TMC3     C 4355   2.172   3.163  11.814  0.0028  0.5894 -0.3884
  285TMC3     O 4356   2.065   3.218  11.792 -0.1162  0.0644  0.2783
  285TMC3     H 4357   2.455   3.093  11.804  1.8914  0.1069  1.4833
  285TMC3    H1 4358   2.173   3.424  11.810  1.2651  2.4032  1.7912
  285TMC3    H2 4359   2.584   3.491  11.805  0.2100 -0.9027  0.7362
  285TMC3    C7 4360   2.358   3.609  11.761  0.1815  0.1454  0.0252
  285TMC3    C8 4361   2.661   3.239  11.744 -0.3747 -0.5348  0.5970
  285TMC3    O1 4362   2.448   3.689  11.781 -0.8801  0.2725 -0.2519
  285TMC3    O2 4363   2.682   3.117  11.746 -0.4770  0.1185  0.3556
  286MPD2     C 4364   2.496   1.171   1.185  0.5899  0.6185 -0.6909
  286MPD2    C1 4365   2.576   1.284   1.180  0.4580 -0.5617  0.3002
  286MPD2    C2 4366   2.715   1.279   1.203  0.3207 -0.4081 -0.1372
  286MPD2    C3 4367   2.770   1.156   1.218  0.0699 -0.2059  0.2456
  286MPD2    C4 4368   2.694   1.043   1.215 -0.2990  0.0437  0.4411
  286MPD2    C5 4369   2.556   1.048   1.194 -0.3143 -0.5408  0.1243
  286MPD2     H 4370   2.764   1.374   1.187  1.1705 -0.9765 -0.9469
  286MPD2    H1 4371   2.740   0.945   1.223 -0.9821 -0.1918  1.4757
  286MPD2    H2 4372   2.392   1.165   1.155 -0.3303 -1.8007  2.9060
  286MPD2    H3 4373   2.507   0.951   1.192  2.0427 -1.7062 -1.2488
  286MPD2     N 4374   2.911   1.141   1.232 -0.7082  0.0838 -0.0801
  286MPD2    H5 4375   2.942   1.047   1.252 -2.9170 -0.9774 -1.6446
  286MPD2    N1 4376   2.523   1.412   1.140  0.1676 -0.1316 -0.6142
  286MPD2    H7 4377   2.591   1.487   1.148  1.4350 -1.4225  0.8132
  287TMC3    C1 4378   3.132   1.212   1.231 -0.4242 -0.1193 -0.2981
  287TMC3    C2 4379   3.174   1.096   1.171  0.0378 -0.3838 -0.4507
  287TMC3    C3 4380   3.310   1.073   1.172  0.1387 -0.5362 -0.6827
  287TMC3    C4 4381   3.219   1.295   1.284  0.2701  0.3101 -0.2274
  287TMC3    C5 4382   3.354   1.262   1.281  0.1229  0.1657  0.4540
  287TMC3    C6 4383   3.410   1.149   1.218 -0.1849 -0.4919 -0.8354
  287TMC3     C 4384   2.996   1.252   1.249  0.5564 -0.2704  0.1948
  287TMC3     O 4385   2.967   1.371   1.253 -0.2989  0.1499 -0.0139
  287TMC3     H 4386   3.108   1.023   1.126  0.3108 -1.0324  0.2010
  287TMC3    H1 4387   3.195   1.389   1.333 -1.5652 -0.6769  0.7435
  287TMC3    H2 4388   3.513   1.117   1.227 -0.2986 -1.3530 -2.6903
  287TMC3    C7 4389   3.441   1.350   1.344  0.6315 -0.3222  0.3647
  287TMC3    C8 4390   3.350   0.992   1.057  0.7128 -0.5126 -0.1848
  287TMC3    O1 4391   3.399   1.466   1.354  0.3053  0.1636 -0.2509
  287TMC3    O2 4392   3.278   0.902   1.017 -0.1742  0.1982  0.0767
  288TMC3    C1 4393   0.108   2.001  14.275  1.4863 -0.6639 -0.4330
  288TMC3    C2 4394   0.048   1.957  14.387  0.0941 -0.0224  0.5957
  288TMC3    C3 4395   0.042   2.043  14.489 -0.1313 -0.6496 -0.7374
  288TMC3    C4 4396   0.154   2.135  14.262  0.1464  0.0799  0.0495
  288TMC3    C5 4397   0.165   2.215  14.373 -0.6353  0.1562  0.5610
  288TMC3    C6 4398   0.106   2.167  14.488 -0.7927 -0.1207  0.2341
  288TMC3     C 4399   0.085   1.912  14.164  0.5460 -0.4076  0.2365
  288TMC3     O 4400   0.086   1.792  14.191  0.5204 -0.1660 -0.2388
  288TMC3     H 4401   4.724   1.867  14.382  0.7795 -0.3751 -1.3487
  288TMC3    H1 4402   0.206   2.168  14.173  1.0307 -0.8052  0.2380
  288TMC3    H2 4403   0.083   2.243  14.561  0.9740 -0.7501  1.4515
  288TMC3    C7 4404   0.163   2.361  14.356  0.0710 -0.6683  0.2360
  288TMC3    C8 4405   4.664   2.043  14.576 -0.0244 -0.4331 -0.1232
  288TMC3    O1 4406   0.085   2.392  14.273  0.0193 -0.6318 -0.9727
  288TMC3    O2 4407   4.617   2.153  14.606 -0.1505  0.2025 -0.0672
  289MPD2     C 4408   0.305   0.361  14.285  0.3086  0.3923  0.4108
  289MPD2    C1 4409   0.251   0.495  14.296 -0.3907 -0.1007 -0.4720
  289MPD2    C2 4410   0.128   0.520  14.230  0.4364  0.1970  0.4444
  289MPD2    C3 4411   0.075   0.416  14.155  0.3989  0.2975 -0.5630
  289MPD2    C4 4412   0.126   0.290  14.144 -0.3617  0.4340  0.0828
  289MPD2    C5 4413   0.244   0.268  14.205  0.2845  0.2326  0.7928
  289MPD2     H 4414   0.086   0.619  14.229 -0.7423 -0.2921  1.9623
  289MPD2    H1 4415   0.084   0.218  14.075 -1.6339  1.9967 -0.7720
  289MPD2    H2 4416   0.397   0.341  14.337  0.2289  0.3255  0.5271
  289MPD2    H3 4417   0.299   0.175  14.197  1.3774  0.9510 -0.0985
  289MPD2     N 4418   4.689   0.454  14.089  0.7642 -0.0212  0.1427
  289MPD2    H5 4419   4.648   0.546  14.100 -0.1903 -0.3175 -0.9194
  289MPD2    N1 4420   0.316   0.588  14.381 -0.0005 -0.0473 -0.3357
  289MPD2    H7 4421   0.402   0.551  14.420  1.9637  3.7545 -1.1094
  290TMC3    C1 4422   4.529   0.429  13.926 -0.0715 -0.1762  0.4801
  290TMC3    C2 4423   4.549   0.560  13.889 -0.4187 -0.2690  0.3416
  290TMC3    C3 4424   4.447   0.622  13.826  0.4412  0.3652  0.5363
  290TMC3    C4 4425   4.412   0.363  13.901  0.4019 -0.3361 -0.1098
  290TMC3    C5 4426   4.314   0.433  13.836  0.2198  0.7524  0.1591
  290TMC3    C6 4427   4.328   0.561  13.808  0.3991  0.5800 -0.6961
  290TMC3     C 4428   4.617   0.364  14.015  0.5698 -0.8620 -0.3091
  290TMC3     O 4429   4.606   0.242  14.029 -0.0149  0.2879 -0.3344
  290TMC3     H 4430   4.642   0.613  13.903 -1.5041  1.3813  1.3515
  290TMC3    H1 4431   4.402   0.262  13.938  3.1068 -1.0285 -1.2261
  290TMC3    H2 4432   4.246   0.622  13.771 -0.4488 -0.1767 -0.0622
  290TMC3    C7 4433   4.178   0.390  13.863  0.5228  0.1868  0.2372
  290TMC3    C8 4434   4.452   0.766  13.838  0.1669 -0.3214 -0.2490
  290TMC3    O1 4435   4.094   0.465  13.817 -0.0187  0.6736  0.7327
  290TMC3    O2 4436   4.504   0.807  13.942 -0.2150 -0.0131  0.0515
  291MPD2     C 4437   4.061   0.963   0.140  0.7091 -0.0360 -0.2821
  291MPD2    C1 4438   4.183   0.929   0.195  0.9908  0.9808  0.3142
  291MPD2    C2 4439   4.288   1.018   0.178  1.1982 -0.6592 -0.2036
  291MPD2    C3 4440   4.285   1.122   0.085 -0.0755 -0.8665 -0.3797
  291MPD2    C4 4441   4.161   1.156   0.033 -0.1559  0.2115 -0.3568
  291MPD2    C5 4442   4.053   1.075   0.060  0.0030 -0.1785 -0.1272
  291MPD2     H 4443   4.380   0.987   0.226  1.9319 -0.2779 -1.3627
  291MPD2    H1 4444   4.145   1.230  17.698  0.9022 -0.9258 -1.6647
  291MPD2    H2 4445   3.968   0.908   0.153  1.3193 -0.6828  1.3730
  291MPD2    H3 4446   3.960   1.091   0.007  0.7443 -0.1442 -1.4261
  291MPD2     N 4447   4.387   1.208   0.038 -0.1787  0.2710 -0.5948
  291MPD2    H5 4448   4.351   1.280  17.717 -0.5146  0.8471  0.2610
  291MPD2    N1 4449   4.197   0.817   0.283 -0.6668 -0.0959 -0.4137
  291MPD2    H7 4450   4.288   0.811   0.329 -0.3355 -3.5118 -1.5323
  292TMC3    C1 4451   4.166   0.604   0.388 -0.3017 -0.4166  0.3428
  292TMC3    C2 4452   4.241   0.633   0.501  0.0185  0.5087 -0.1018
  292TMC3    C3 4453   4.269   0.532   0.600  0.0211 -0.4966  0.3937
  292TMC3    C4 4454   4.108   0.486   0.381 -0.0487 -0.2037  0.0369
  292TMC3    C5 4455   4.144   0.389   0.472 -0.4358 -0.0530 -0.1503
  292TMC3    C6 4456   4.225   0.405   0.581  0.2312 -0.2557 -0.2996
  292TMC3     C 4457   4.114   0.710   0.295  0.2631  0.1581 -0.2053
  292TMC3     O 4458   4.020   0.680   0.225  0.6035 -0.2528  0.6490
  292TMC3     H 4459   4.264   0.738   0.516  0.7261  0.2340  0.6765
  292TMC3    H1 4460   4.021   0.466   0.319 -0.0257 -0.9922  0.2579
  292TMC3    H2 4461   4.234   0.321   0.649 -1.1313  1.4336  1.9826
  292TMC3    C7 4462   4.046   0.290   0.511 -0.0504 -0.2113 -0.6569
  292TMC3    C8 4463   4.256   0.582   0.734 -0.2050  0.8054 -0.7110
  292TMC3    O1 4464   4.021   0.281   0.632 -0.3098  0.4142  0.0975
  292TMC3    O2 4465   4.305   0.690   0.761 -0.0586 -0.7709  0.5514
  293MPD2     C 4466   1.189   2.116  12.528  0.2383 -0.3422  0.5251
  293MPD2    C1 4467   1.050   2.107  12.540  0.6911 -0.6131 -0.3085
  293MPD2    C2 4468   0.997   2.091  12.667  0.1918 -0.1644  0.2732
  293MPD2    C3 4469   1.074   2.057  12.774  0.1593  0.3705  0.3327
  293MPD2    C4 4470   1.211   2.060  12.760  0.1893 -0.4452  0.0131
  293MPD2    C5 4471   1.267   2.093  12.642  0.2928  0.0337 -0.1224
  293MPD2     H 4472   0.891   2.101  12.685 -0.3513 -2.1829 -1.8389
  293MPD2    H1 4473   1.269   2.046  12.850  1.6357  0.6079 -0.7560
  293MPD2    H2 4474   1.244   2.142  12.438  0.3967  2.3873  1.3924
  293MPD2    H3 4475   1.375   2.102  12.634  0.4649 -2.1468 -0.1327
  293MPD2     N 4476   1.015   2.023  12.897 -0.3851  0.2116  0.3476
  293MPD2    H5 4477   0.920   2.049  12.919 -0.1350  0.4248  1.1878
  293MPD2    N1 4478   0.964   2.107  12.426  0.1036 -0.6975 -0.5513
  293MPD2    H7 4479   1.007   2.137  12.339  2.3718 -0.7024  0.5492
  294TMC3    C1 4480   0.753   2.067  12.306  0.1677  0.1544  0.1338
  294TMC3    C2 4481   0.621   2.050  12.308 -0.1874  0.3395  0.3494
  294TMC3    C3 4482   0.557   2.053  12.185  0.1841 -0.5207  0.6973
  294TMC3    C4 4483   0.814   2.094  12.185  0.2041 -1.0069  0.0549
  294TMC3    C5 4484   0.752   2.100  12.066  0.2112 -0.8032  0.3135
  294TMC3    C6 4485   0.617   2.076  12.067  0.0092 -0.4709  0.4422
  294TMC3     C 4486   0.830   2.061  12.431  0.8858  0.7077  0.0212
  294TMC3     O 4487   0.768   2.006  12.521  0.7170 -0.1527 -0.0013
  294TMC3     H 4488   0.577   2.026  12.404  1.3186 -0.4043  0.8608
  294TMC3    H1 4489   0.922   2.103  12.175  0.0889  0.6128  0.2234
  294TMC3    H2 4490   0.565   2.079  11.972 -2.5330  2.4292  1.8997
  294TMC3    C7 4491   0.820   2.089  11.934  0.2052 -0.1681 -0.8714
  294TMC3    C8 4492   0.430   1.993  12.183 -1.1298  0.7090 -0.7014
  294TMC3    O1 4493   0.757   2.137  11.839  0.1905 -0.3929  0.3147
  294TMC3    O2 4494   0.372   2.000  12.291  0.7655 -0.3189 -0.4319
  295MPD2     C 4495   1.559   0.758   0.867 -0.0637 -0.0175 -0.1741
  295MPD2    C1 4496   1.627   0.876   0.872 -0.5213 -0.0959 -0.1886
  295MPD2    C2 4497   1.559   0.979   0.934  0.8049 -0.8120  0.3186
  295MPD2    C3 4498   1.434   0.968   0.993  0.8822  0.9753  0.4777
  295MPD2    C4 4499   1.372   0.846   0.987  0.5165 -0.0303  0.2325
  295MPD2    C5 4500   1.442   0.746   0.924 -0.4102  1.1612  0.1063
  295MPD2     H 4501   1.608   1.075   0.937 -2.0451  0.5198  4.2421
  295MPD2    H1 4502   1.269   0.836   1.020  0.5634 -1.5974 -0.0865
  295MPD2    H2 4503   1.595   0.673   0.810  1.2876 -0.2405  1.0368
  295MPD2    H3 4504   1.396   0.651   0.899 -0.3465  1.7630 -2.2521
  295MPD2     N 4505   1.365   1.074   1.058 -0.3318  0.2347 -0.2058
  295MPD2    H5 4506   1.273   1.052   1.093  0.0220  1.0586  1.2244
  295MPD2    N1 4507   1.745   0.899   0.800 -0.0390  0.7876  0.1459
  295MPD2    H7 4508   1.782   0.994   0.796 -0.1641  0.8400  0.2263
  296TMC3    C1 4509   1.315   1.290   1.134  0.0252 -0.4101 -0.1510
  296TMC3    C2 4510   1.348   1.425   1.134 -0.0617  1.1921 -0.3152
  296TMC3    C3 4511   1.265   1.513   1.197 -0.6565 -0.1036  0.1091
  296TMC3    C4 4512   1.207   1.243   1.206  0.0292  0.4748  0.1109
  296TMC3    C5 4513   1.131   1.333   1.277  0.0389  0.1434  0.1249
  296TMC3    C6 4514   1.160   1.466   1.273 -0.0840 -0.9051  0.4720
  296TMC3     C 4515   1.414   1.198   1.081  0.7085  0.2954  0.1297
  296TMC3     O 4516   1.523   1.247   1.053 -0.0671 -0.2236  0.3478
  296TMC3     H 4517   1.439   1.462   1.087  0.7555  1.4310  1.4567
  296TMC3    H1 4518   1.202   1.136   1.219  2.4695  0.5127  1.4932
  296TMC3    H2 4519   1.094   1.538   1.319  0.8397 -0.4068  1.0271
  296TMC3    C7 4520   1.000   1.303   1.319  0.8225 -0.0746 -0.5812
  296TMC3    C8 4521   1.313   1.649   1.193 -0.1548  0.0278  0.8701
  296TMC3    O1 4522   0.933   1.399   1.355  0.9660 -0.3129  0.0393
  296TMC3    O2 4523   1.421   1.670   1.138 -0.0745  0.1989 -0.0115
  297MPD2     C 4524   3.325   2.667  16.476 -0.4882  0.3602  0.2836
  297MPD2    C1 4525   3.323   2.725  16.354 -0.0410  0.2850  0.0842
  297MPD2    C2 4526   3.410   2.831  16.328  0.8766 -0.1759  0.3456
  297MPD2    C3 4527   3.484   2.888  16.435 -0.1356 -0.4814  0.1907
  297MPD2    C4 4528   3.486   2.824  16.561  0.1422  0.0953 -0.9305
  297MPD2    C5 4529   3.403   2.713  16.578  0.1820  0.7244 -1.5750
  297MPD2     H 4530   3.402   2.885  16.234  0.6265  0.6387  0.8385
  297MPD2    H1 4531   3.542   2.865  16.644  0.6109  0.5904 -1.4955
  297MPD2    H2 4532   3.258   2.585  16.499  1.2459 -1.8812 -2.7632
  297MPD2    H3 4533   3.400   2.666  16.675  0.9646  1.1400 -1.3475
  297MPD2     N 4534   3.562   3.004  16.417 -0.6786 -0.6119  0.3112
  297MPD2    H5 4535   3.566   3.038  16.322 -0.0709  1.0258  0.9259
  297MPD2    N1 4536   3.228   2.698  16.254  0.9629  0.3143  0.1981
  297MPD2    H7 4537   3.235   2.747  16.165 -1.1363  0.9799  0.4125
  298TMC3    C1 4538   3.012   2.635  16.173  0.3141  0.8248  0.8351
  298TMC3    C2 4539   3.050   2.612  16.044 -0.0993  0.4177 -0.4509
  298TMC3    C3 4540   2.954   2.645  15.943  0.3393 -0.1177  0.9873
  298TMC3    C4 4541   2.887   2.690  16.203  0.2154 -0.2503  0.6346
  298TMC3    C5 4542   2.802   2.720  16.106  0.4492 -0.7532  1.1789
  298TMC3    C6 4543   2.833   2.702  15.972  0.0927 -0.2202  0.2042
  298TMC3     C 4544   3.106   2.635  16.283  0.1184  0.4960 -0.2303
  298TMC3     O 4545   3.057   2.635  16.396 -0.0531  0.5811  0.1013
  298TMC3     H 4546   3.148   2.579  16.011 -0.8002 -2.9399  0.7736
  298TMC3    H1 4547   2.860   2.709  16.306 -1.0591  0.0444  0.2441
  298TMC3    H2 4548   2.769   2.744  15.895  0.6121 -0.4469 -0.3504
  298TMC3    C7 4549   2.690   2.802  16.154 -0.6159 -0.9235 -0.5742
  298TMC3    C8 4550   2.988   2.603  15.812 -0.3520  0.0168 -0.0976
  298TMC3    O1 4551   2.657   2.788  16.272 -0.3956 -0.3475 -0.1031
  298TMC3    O2 4552   3.084   2.525  15.800 -0.2650 -0.1295  0.2061
  299MPD2     C 4553   4.087   3.192  10.647 -0.1985  0.1599  0.8497
  299MPD2    C1 4554   4.046   3.079  10.711 -0.2662  0.1584 -0.2484
  299MPD2    C2 4555   3.943   3.006  10.659 -0.2963  0.5384  0.2710
  299MPD2    C3 4556   3.896   3.038  10.531  0.8759  0.1789  0.9646
  299MPD2    C4 4557   3.950   3.148  10.463  0.5104  0.5349  0.3283
  299MPD2    C5 4558   4.038   3.222  10.521 -0.1770 -0.2541  0.3336
  299MPD2     H 4559   3.909   2.921  10.716 -1.4224  0.2891 -0.7520
  299MPD2    H1 4560   3.919   3.191  10.369  2.5273  0.7393 -0.2356
  299MPD2    H2 4561   4.166   3.252  10.692 -1.0278  0.5214  1.8347
  299MPD2    H3 4562   4.075   3.309  10.468 -1.1786 -0.1297 -0.1599
  299MPD2     N 4563   3.797   2.970  10.470 -0.5110  0.3767 -0.2072
  299MPD2    H5 4564   3.758   3.017  10.389 -0.0619  0.8016 -0.1753
  299MPD2    N1 4565   4.103   3.061  10.841  0.1056  0.6212 -0.1601
  299MPD2    H7 4566   4.168   3.133  10.870  1.3814 -0.3982 -0.5225
  300TMC3    C1 4567   3.602   2.836  10.449  0.5525 -0.3981  0.8247
  300TMC3    C2 4568   3.559   2.906  10.335 -0.1952 -0.6974 -0.0765
  300TMC3    C3 4569   3.432   2.891  10.296  0.2739 -0.5664 -0.2267
  300TMC3    C4 4570   3.521   2.740  10.509 -0.0229  0.3546 -0.6412
  300TMC3    C5 4571   3.397   2.736  10.464 -0.0190 -0.4344  0.0209
  300TMC3    C6 4572   3.349   2.799  10.353  0.3222  0.4057 -0.5661
  300TMC3     C 4573   3.726   2.858  10.521 -0.4444 -0.5614 -0.1625
  300TMC3     O 4574   3.734   2.789  10.622  0.0889  0.1988 -0.1074
  300TMC3     H 4575   3.619   2.982  10.287 -2.2324 -0.5785 -2.4035
  300TMC3    H1 4576   3.554   2.670  10.585  2.3264  0.6388 -1.4096
  300TMC3    H2 4577   3.246   2.804  10.321  0.0732  2.0763  0.5020
  300TMC3    C7 4578   3.294   2.679  10.553  0.4015 -0.7040 -0.7291
  300TMC3    C8 4579   3.385   3.007  10.223  0.0078 -0.3445 -0.1727
  300TMC3    O1 4580   3.187   2.646  10.503 -0.1366 -0.3252 -0.3736
  300TMC3    O2 4581   3.447   3.022  10.119 -0.6542 -0.7705 -0.5836
  301MPD2     C 4582   1.446   4.023   0.928 -0.2009  0.4638  0.0567
  301MPD2    C1 4583   1.363   3.950   0.849 -0.4676  0.3584 -0.2537
  301MPD2    C2 4584   1.363   3.812   0.858  0.1828 -0.1788 -0.2157
  301MPD2    C3 4585   1.426   3.742   0.959  0.5908 -0.0039 -0.6114
  301MPD2    C4 4586   1.499   3.822   1.049  0.3303  0.0606  0.7154
  301MPD2    C5 4587   1.509   3.957   1.030  0.4154  0.8660  0.8234
  301MPD2     H 4588   1.295   3.761   0.790  2.1036 -0.5756 -1.8542
  301MPD2    H1 4589   1.558   3.772   1.125 -0.1503  0.4968  1.3705
  301MPD2    H2 4590   1.447   4.131   0.938  2.6126  0.3573  1.0345
  301MPD2    H3 4591   1.581   4.004   1.095  1.2753 -2.1937  2.0508
  301MPD2     N 4592   1.436   3.598   0.968 -0.5390 -0.4163  0.0856
  301MPD2    H5 4593   1.482   3.565   1.052  0.3375 -0.9877 -0.6236
  301MPD2    N1 4594   1.290   4.010   0.742 -0.2348 -0.6718 -0.2058
  301MPD2    H7 4595   1.234   3.947   0.686 -0.8950  1.6595 -2.1498
  302TMC3    C1 4596   1.441   3.366   0.889  0.0169  0.0555  0.7165
  302TMC3    C2 4597   1.473   3.316   1.015 -0.0860  0.5713  0.1541
  302TMC3    C3 4598   1.497   3.178   1.026  0.2298 -0.1726 -0.3855
  302TMC3    C4 4599   1.433   3.287   0.773 -0.3527 -0.1934 -0.1153
  302TMC3    C5 4600   1.465   3.152   0.787 -0.1642  0.5983 -0.1962
  302TMC3    C6 4601   1.483   3.095   0.912 -0.0174  0.7397 -0.0937
  302TMC3     C 4602   1.389   3.509   0.871  0.3928 -0.5691  0.6547
  302TMC3     O 4603   1.328   3.539   0.766 -0.0849 -0.0204 -0.2247
  302TMC3     H 4604   1.468   3.368   1.110 -0.8682 -2.0790  1.5535
  302TMC3    H1 4605   1.416   3.338   0.679  0.5923  0.9200  0.3184
  302TMC3    H2 4606   1.483   2.988   0.925  0.3007  0.4948 -2.0104
  302TMC3    C7 4607   1.397   3.059   0.694 -0.5131  0.4123  0.5479
  302TMC3    C8 4608   1.506   3.099   1.149  0.5703  0.5457 -0.0941
  302TMC3    O1 4609   1.435   2.942   0.697 -0.6333 -0.2270  0.3923
  302TMC3    O2 4610   1.550   2.985   1.139  0.1524 -0.1015 -0.8670
  303MPD2     C 4611   2.176   2.115  11.420  0.4672  1.1899  0.4008
  303MPD2    C1 4612   2.065   2.036  11.409  0.1136 -0.7906  0.3565
  303MPD2    C2 4613   2.026   2.007  11.285  0.3371  0.0896 -0.1066
  303MPD2    C3 4614   2.102   2.037  11.179  1.1971  0.2622 -0.2374
  303MPD2    C4 4615   2.224   2.107  11.191  0.4708 -1.0858  0.2967
  303MPD2    C5 4616   2.260   2.150  11.319  0.8563 -0.4350  0.0056
  303MPD2     H 4617   1.932   1.955  11.273  1.0091 -0.7821 -1.4340
  303MPD2    H1 4618   2.287   2.136  11.108 -1.2090  0.6409 -0.3515
  303MPD2    H2 4619   2.212   2.152  11.515 -0.6005  1.9092  0.5173
  303MPD2    H3 4620   2.337   2.223  11.335  1.6430 -1.1162 -0.6686
  303MPD2     N 4621   2.063   2.005  11.044 -0.3543 -0.3430  0.3817
  303MPD2    H5 4622   2.138   2.032  10.980 -2.0255  1.6696 -0.6993
  303MPD2    N1 4623   1.973   2.006  11.517 -0.1022  0.1335 -0.0879
  303MPD2    H7 4624   1.887   1.962  11.488 -0.6967  0.7812  0.7089
  304TMC3    C1 4625   1.901   1.984  11.741  0.5652 -0.0196 -0.3894
  304TMC3    C2 4626   1.774   1.998  11.690 -1.0495 -0.1216  0.5057
  304TMC3    C3 4627   1.668   1.936  11.753 -0.7451 -0.7803 -0.4739
  304TMC3    C4 4628   1.922   1.927  11.860  0.6550 -0.7215 -0.3085
  304TMC3    C5 4629   1.820   1.861  11.917 -0.3595  0.4210  0.3804
  304TMC3    C6 4630   1.698   1.864  11.863 -0.3811  0.6439  0.3280
  304TMC3     C 4631   2.009   2.016  11.648 -0.1612  0.1049  0.8065
  304TMC3     O 4632   2.118   2.045  11.695  0.3860 -0.1187 -0.4554
  304TMC3     H 4633   1.762   2.053  11.597  0.3890  1.3800  1.1880
  304TMC3    H1 4634   2.026   1.913  11.890  1.8415  2.1001 -3.1981
  304TMC3    H2 4635   1.617   1.826  11.925  0.5027  0.0146  1.0978
  304TMC3    C7 4636   1.852   1.728  11.950 -0.5140 -0.8523  0.1345
  304TMC3    C8 4637   1.599   1.856  11.664 -0.0334  0.2293  0.3445
  304TMC3    O1 4638   1.959   1.701  12.010 -0.4554  0.3120 -0.0474
  304TMC3    O2 4639   1.606   1.739  11.690 -0.3503 -0.1504  0.1022
  305MPD2     C 4640   4.404   4.067  14.014 -0.0522 -0.1141 -0.3271
  305MPD2    C1 4641   4.364   3.971  14.104 -0.4527 -0.3502  0.4474
  305MPD2    C2 4642   4.258   3.882  14.068  0.2059 -0.2524 -0.3440
  305MPD2    C3 4643   4.199   3.889  13.942 -0.5727  0.0525  0.7156
  305MPD2    C4 4644   4.251   3.984  13.858  0.5406 -0.1169 -0.5954
  305MPD2    C5 4645   4.346   4.076  13.887  0.1266 -0.0532  0.1288
  305MPD2     H 4646   4.231   3.806  14.140 -1.0401  0.7362  0.2459
  305MPD2    H1 4647   4.204   3.984  13.760  0.3500 -1.7457 -0.5082
  305MPD2    H2 4648   4.486   4.133  14.035 -1.0958  1.3845 -0.9567
  305MPD2    H3 4649   4.379   4.150  13.815 -1.1067 -0.3617 -0.7628
  305MPD2     N 4650   4.102   3.806  13.892  0.2022 -0.1364  0.5331
  305MPD2    H5 4651   4.089   3.803  13.791  1.7058  0.3924  0.3222
  305MPD2    N1 4652   4.431   3.974  14.231 -0.7853  0.6393  0.9572
  305MPD2    H7 4653   4.510   4.037  14.239  0.2041 -0.2564 -1.7763
  306TMC3    C1 4654   4.548   3.872  14.415  0.8376 -0.4926 -0.0124
  306TMC3    C2 4655   4.618   3.752  14.431 -0.5241  0.7778  0.8159
  306TMC3    C3 4656   0.010   3.763  14.485  0.0061 -0.1136  0.1182
  306TMC3    C4 4657   4.604   3.992  14.444  0.8765  0.0524 -0.3829
  306TMC3    C5 4658   4.726   3.997  14.500  0.5698 -0.1402  0.0232
  306TMC3    C6 4659   0.061   3.883  14.524  1.1227 -0.1297  0.0056
  306TMC3     C 4660   4.432   3.867  14.320  0.9219  1.0461  0.3732
  306TMC3     O 4661   4.373   3.761  14.318 -0.7234  0.2789 -0.1239
  306TMC3     H 4662   4.572   3.660  14.395  1.4298 -0.2662  1.0042
  306TMC3    H1 4663   4.553   4.081  14.408  0.6887 -0.1485 -0.6213
  306TMC3    H2 4664   0.164   3.890  14.558  2.9722 -0.7696 -5.3465
  306TMC3    C7 4665   0.026   4.129  14.545 -0.0599  0.3552  0.2861
  306TMC3    C8 4666   0.096   3.653  14.467  0.4534 -0.7105  0.5576
  306TMC3    O1 4667   4.721   4.226  14.486  0.6596  0.1344 -0.4436
  306TMC3    O2 4668   0.215   3.679  14.479 -0.2393  0.5226  0.3305
  307MPD2     C 4669   2.811   2.206   0.450 -1.0493 -0.2436  0.0249
  307MPD2    C1 4670   2.723   2.315   0.470 -0.3849 -0.3448  0.1931
  307MPD2    C2 4671   2.615   2.304   0.552 -0.2094 -0.0812 -0.0555
  307MPD2    C3 4672   2.593   2.187   0.619  0.3488 -0.1857  0.3130
  307MPD2    C4 4673   2.680   2.084   0.597  0.5051 -0.5393 -0.2484
  307MPD2    C5 4674   2.779   2.090   0.513 -0.1400 -0.0643 -0.0035
  307MPD2     H 4675   2.568   2.400   0.569  1.6380  0.2994  2.8675
  307MPD2    H1 4676   2.660   1.992   0.651 -2.6661  0.7948  0.8838
  307MPD2    H2 4677   2.889   2.210   0.375 -2.4695  1.2904 -1.3955
  307MPD2    H3 4678   2.841   2.004   0.487 -2.3503 -1.6371 -0.0613
  307MPD2     N 4679   2.488   2.163   0.716  0.4502  0.7241  0.0103
  307MPD2    H5 4680   2.486   2.072   0.761 -2.4267  1.9824  2.4002
  307MPD2    N1 4681   2.743   2.444   0.414 -0.2877  0.3846  0.7478
  307MPD2    H7 4682   2.671   2.514   0.431 -1.5580 -0.4858 -1.1013
  308TMC3    C1 4683   2.099   2.054   0.793  0.3790  0.6206  0.5933
  308TMC3    C2 4684   2.005   2.150   0.834 -0.1939  0.0140 -0.0964
  308TMC3    C3 4685   2.059   2.268   0.886  0.3161 -0.0933  0.2833
  308TMC3    C4 4686   2.234   2.077   0.789  0.4303 -0.4090  0.2890
  308TMC3    C5 4687   2.278   2.198   0.831 -0.1434 -0.4414  0.6193
  308TMC3    C6 4688   2.191   2.301   0.881  0.3169  0.0303 -0.0906
  308TMC3     C 4689   2.043   1.939   0.725  0.4044 -0.4600 -0.1918
  308TMC3     O 4690   2.092   1.826   0.741  0.0093 -0.0974  0.0588
  308TMC3     H 4691   1.899   2.132   0.850 -0.6494  1.8496 -1.0325
  308TMC3    H1 4692   2.299   2.003   0.742  0.7820  0.2407 -0.2480
  308TMC3    H2 4693   2.222   2.400   0.910  0.6126 -0.0915  0.0174
  308TMC3    C7 4694   2.401   2.253   0.776 -0.1078  0.5058 -0.1076
  308TMC3    C8 4695   1.970   2.375   0.920 -0.9227  0.0677 -0.0989
  308TMC3    O1 4696   2.415   2.375   0.760 -0.8427 -0.0241 -0.2242
  308TMC3    O2 4697   1.885   2.330   0.995 -0.1200 -0.1971  0.3236
  309MPD2     C 4698   1.396   2.726  17.300 -0.1462 -0.0108  0.0237
  309MPD2    C1 4699   1.357   2.630  17.204 -0.4082  0.8942  0.0819
  309MPD2    C2 4700   1.225   2.597  17.196  0.4940 -0.0114 -0.6563
  309MPD2    C3 4701   1.132   2.641  17.285 -0.2878  0.5973 -0.0335
  309MPD2    C4 4702   1.170   2.725  17.382  0.8210  0.2558  0.5994
  309MPD2    C5 4703   1.300   2.780  17.385  0.2587 -0.0187  0.4446
  309MPD2     H 4704   1.205   2.544  17.103  0.4932  0.1573 -0.7527
  309MPD2    H1 4705   1.101   2.762  17.457 -1.1265  0.6602 -1.3926
  309MPD2    H2 4706   1.498   2.762  17.308  0.3159 -0.4873 -3.9277
  309MPD2    H3 4707   1.326   2.854  17.460 -0.1198 -0.5420  1.0927
  309MPD2     N 4708   0.999   2.594  17.279  0.1556 -0.5232  0.1310
  309MPD2    H5 4709   0.945   2.622  17.360  0.4649 -2.6487  1.0565
  309MPD2    N1 4710   1.454   2.595  17.104  0.4116 -0.2985 -0.2026
  309MPD2    H7 4711   1.422   2.548  17.020  0.5709  1.8049 -1.4337
  310TMC3    C1 4712   1.659   2.600  16.993 -0.1443  0.0448  0.2893
  310TMC3    C2 4713   1.596   2.649  16.883  0.2630 -0.6266  0.4115
  310TMC3    C3 4714   1.658   2.640  16.767 -0.7403 -0.0722  0.4054
  310TMC3    C4 4715   1.783   2.544  16.988  0.4078  0.5176 -0.3758
  310TMC3    C5 4716   1.846   2.533  16.868  0.8268  0.1306 -0.0643
  310TMC3    C6 4717   1.774   2.572  16.752  0.0371 -0.7122  0.2870
  310TMC3     C 4718   1.594   2.619  17.121  0.2420  0.0773 -0.1760
  310TMC3     O 4719   1.658   2.625  17.220 -1.3055  0.3953 -0.1298
  310TMC3     H 4720   1.513   2.717  16.892  1.3647  0.7349  0.3438
  310TMC3    H1 4721   1.836   2.507  17.075 -0.6237 -1.6463 -0.6787
  310TMC3    H2 4722   1.829   2.555  16.660 -0.9655  1.0212 -0.6133
  310TMC3    C7 4723   1.944   2.430  16.841 -0.1457  0.4935 -0.3813
  310TMC3    C8 4724   1.574   2.658  16.650 -0.7624  0.3591  0.0549
  310TMC3    O1 4725   1.940   2.365  16.738 -0.0443  0.1531  0.3727
  310TMC3    O2 4726   1.448   2.656  16.665  0.8030  0.4317  0.0679
  311MPD2     C 4727   3.243   3.810  12.481 -0.3944  0.7577 -0.4550
  311MPD2    C1 4728   3.279   3.896  12.578 -0.2021  0.3444 -0.6044
  311MPD2    C2 4729   3.207   3.899  12.699 -0.3127 -0.2347 -0.1988
  311MPD2    C3 4730   3.098   3.812  12.726 -0.2642  0.1033 -0.6594
  311MPD2    C4 4731   3.066   3.715  12.637 -0.0881  0.0398  0.3917
  311MPD2    C5 4732   3.143   3.718  12.517  0.2508  0.6592  0.5063
  311MPD2     H 4733   3.234   3.958  12.785 -0.6037  1.4634 -1.2804
  311MPD2    H1 4734   2.982   3.646  12.647  1.6461 -1.9206  1.4486
  311MPD2    H2 4735   3.290   3.808  12.384 -1.5004 -1.5295 -0.9341
  311MPD2    H3 4736   3.122   3.645  12.440 -0.7510  0.5653  0.8663
  311MPD2     N 4737   3.044   3.823  12.856  0.6839  0.6209  0.2637
  311MPD2    H5 4738   3.092   3.877  12.928 -0.3254  0.1674  1.2660
  311MPD2    N1 4739   3.380   3.980  12.546  0.5445  0.5180 -0.5397
  311MPD2    H7 4740   3.425   3.964  12.457  0.6571  1.3177 -0.6266
  312TMC3    C1 4741   2.887   3.777  13.028 -0.2853  0.4577 -0.2219
  312TMC3    C2 4742   2.803   3.679  13.070 -0.5071 -0.6717 -0.8849
  312TMC3    C3 4743   2.801   3.657  13.208 -0.3489 -0.1349  0.1236
  312TMC3    C4 4744   2.952   3.855  13.118  0.0049  0.5597  0.4313
  312TMC3    C5 4745   2.951   3.826  13.249  0.8466  0.1846 -0.1951
  312TMC3    C6 4746   2.868   3.732  13.300 -0.2176 -0.4549  1.0185
  312TMC3     C 4747   2.919   3.775  12.885 -0.4009  0.3171 -0.7547
  312TMC3     O 4748   2.831   3.737  12.810  0.8101  1.0075  0.1240
  312TMC3     H 4749   2.739   3.624  13.002 -2.6430  0.0187  0.5395
  312TMC3    H1 4750   2.997   3.944  13.077  1.5357 -0.3844  0.0471
  312TMC3    H2 4751   2.863   3.712  13.407  1.3529 -3.1215  0.5956
  312TMC3    C7 4752   3.027   3.913  13.341  0.5395 -0.5809 -0.0973
  312TMC3    C8 4753   2.684   3.583  13.247 -0.6575  0.2218 -0.0422
  312TMC3    O1 4754   3.060   4.025  13.309 -0.1236 -0.4016  0.0229
  312TMC3    O2 4755   2.636   3.507  13.165 -0.2918  0.8833  0.4853
  313MPD2     C 4756   2.240   3.407  11.454 -0.1764  0.3156  0.0589
  313MPD2    C1 4757   2.372   3.440  11.440  0.3612 -0.4568  0.2694
  313MPD2    C2 4758   2.458   3.328  11.434 -0.2112  0.6843  0.1515
  313MPD2    C3 4759   2.417   3.195  11.467  0.0919  0.3627  0.7785
  313MPD2    C4 4760   2.284   3.174  11.500  0.4798 -0.3364  0.7148
  313MPD2    C5 4761   2.198   3.283  11.489 -0.9483 -0.6815 -1.0987
  313MPD2     H 4762   2.564   3.333  11.410 -0.5322  0.4205 -1.3500
  313MPD2    H1 4763   2.250   3.080  11.541  0.2291 -0.2884  0.6162
  313MPD2    H2 4764   2.165   3.483  11.435  0.1453 -0.0841 -2.8087
  313MPD2    H3 4765   2.093   3.277  11.517 -0.3002 -1.8093  1.0424
  313MPD2     N 4766   2.510   3.088  11.463  0.4935  0.2356 -0.4196
  313MPD2    H5 4767   2.592   3.102  11.405  0.3270  0.4052 -0.6131
  313MPD2    N1 4768   2.420   3.564  11.412 -0.0875  0.4379  0.6630
  313MPD2    H7 4769   2.359   3.639  11.381 -1.7266 -1.6655 -1.1378
  314TMC3    C1 4770   2.579   3.734  11.363  0.3721  0.1063 -0.0046
  314TMC3    C2 4771   2.702   3.790  11.383  0.2421 -0.2905  0.2294
  314TMC3    C3 4772   2.741   3.889  11.303  0.5113  0.6380 -0.0308
  314TMC3    C4 4773   2.502   3.770  11.257 -0.1222 -0.5366  0.0004
  314TMC3    C5 4774   2.548   3.872  11.180 -0.3783 -0.1894  0.0949
  314TMC3    C6 4775   2.668   3.932  11.196 -0.6739 -0.4821  0.6176
  314TMC3     C 4776   2.548   3.616  11.437  0.2359 -0.3138  0.0595
  314TMC3     O 4777   2.643   3.570  11.503 -0.0342 -0.3398 -0.3225
  314TMC3     H 4778   2.744   3.771  11.481 -1.0557 -0.5450  0.7501
  314TMC3    H1 4779   2.414   3.715  11.225  0.0238 -1.2741  0.8593
  314TMC3    H2 4780   2.701   4.007  11.125 -0.9680 -1.7418 -0.8290
  314TMC3    C7 4781   2.486   3.871  11.049  0.7896  0.0823 -0.0140
  314TMC3    C8 4782   2.877   3.938  11.301  0.5044  0.0268 -0.2290
  314TMC3    O1 4783   2.365   3.873  11.039 -0.6418  0.2298 -0.1661
  314TMC3    O2 4784   2.899   4.038  11.234 -0.5641  0.3115  0.1179
  315MPD2     C 4785   2.775   2.140  17.265  0.2997 -0.1140  0.2822
  315MPD2    C1 4786   2.858   2.157  17.372  0.0497  0.3718  0.1550
  315MPD2    C2 4787   2.912   2.281  17.388  0.0329 -1.2297  0.2836
  315MPD2    C3 4788   2.884   2.390  17.305 -0.0652  0.2830  0.1072
  315MPD2    C4 4789   2.812   2.361  17.193  0.3874  0.2660  0.0181
  315MPD2    C5 4790   2.755   2.237  17.170  0.0426 -0.6360 -0.1920
  315MPD2     H 4791   2.965   2.287  17.482 -2.5003 -1.2264  1.7062
  315MPD2    H1 4792   2.783   2.441  17.126 -1.8112 -0.2395  0.3825
  315MPD2    H2 4793   2.732   2.041  17.250  2.5459 -1.0308 -0.2305
  315MPD2    H3 4794   2.694   2.225  17.081 -0.3742  0.8971 -0.1028
  315MPD2     N 4795   2.908   2.520  17.352  0.4463  0.4927 -0.1913
  315MPD2    H5 4796   2.948   2.523  17.446 -0.9790  1.4607  0.4019
  315MPD2    N1 4797   2.885   2.055  17.472  0.3813 -0.5638 -0.2439
  315MPD2    H7 4798   2.944   2.081  17.550 -2.3083  0.9950  1.2633
  316TMC3    C1 4799   2.948   2.750  17.336  0.0875 -0.2666 -0.5251
  316TMC3    C2 4800   2.992   2.742  17.470  0.5870 -0.0035  0.4152
  316TMC3    C3 4801   3.044   2.856  17.528 -0.4833 -0.4898 -0.4845
  316TMC3    C4 4802   2.974   2.865  17.259  0.3483 -0.0692 -0.0330
  316TMC3    C5 4803   3.031   2.971  17.326 -0.8237  0.5691  1.0397
  316TMC3    C6 4804   3.047   2.972  17.466  0.1333  0.6359  0.0341
  316TMC3     C 4805   2.907   2.628  17.270 -0.0147 -0.2049 -0.4822
  316TMC3     O 4806   2.861   2.643  17.155  0.0048  0.1838 -0.6934
  316TMC3     H 4807   2.964   2.659  17.535  0.8799  0.4506  1.1171
  316TMC3    H1 4808   2.970   2.856  17.151  2.1624  1.0595 -0.1904
  316TMC3    H2 4809   3.092   3.057  17.515 -2.6773  1.5507  1.0232
  316TMC3    C7 4810   3.027   3.104  17.271 -0.0100 -0.3825 -0.4922
  316TMC3    C8 4811   3.082   2.857  17.664 -0.0181 -0.4689 -0.9215
  316TMC3    O1 4812   3.106   3.180  17.316  0.5837 -0.4939  0.4772
  316TMC3    O2 4813   3.091   2.967  17.716  0.2660 -0.3005  0.0567
  317MPD2     C 4814   4.730   1.127  13.095 -0.2830  0.2716  0.6814
  317MPD2    C1 4815   0.086   1.061  13.014 -1.0626 -0.4967  0.9259
  317MPD2    C2 4816   0.175   0.966  13.068 -0.5089 -1.1253  0.5092
  317MPD2    C3 4817   0.174   0.941  13.205 -0.5544  0.4739  0.4650
  317MPD2    C4 4818   0.079   1.003  13.281  0.3673  0.0614  0.1023
  317MPD2    C5 4819   4.721   1.090  13.227  0.6247  0.1727 -0.5390
  317MPD2     H 4820   0.249   0.925  13.001  1.0695  0.5093  1.2689
  317MPD2    H1 4821   0.073   0.982  13.387  0.7021  0.4077  0.1907
  317MPD2    H2 4822   4.658   1.202  13.065  0.0652  0.8387  1.2671
  317MPD2    H3 4823   4.655   1.147  13.291  0.8170  0.5227 -0.6519
  317MPD2     N 4824   0.260   0.848  13.257 -0.1950  0.2281 -0.1935
  317MPD2    H5 4825   0.312   0.786  13.196 -1.6026 -0.1180 -1.0373
  317MPD2    N1 4826   0.093   1.090  12.871  0.2108  0.3487 -0.2638
  317MPD2    H7 4827   0.153   1.027  12.818  0.0341 -0.5052  0.5405
  318TMC3    C1 4828   0.349   0.694  13.414 -0.7690  0.7385 -0.0611
  318TMC3    C2 4829   0.283   0.591  13.344  0.3108  0.7857 -1.3086
  318TMC3    C3 4830   0.307   0.465  13.398  0.0504  0.0745 -0.2393
  318TMC3    C4 4831   0.426   0.680  13.526  0.3956  0.0644 -0.1292
  318TMC3    C5 4832   0.449   0.552  13.564 -0.2319  0.2974 -0.4569
  318TMC3    C6 4833   0.385   0.447  13.512 -0.2249 -0.4721 -0.1187
  318TMC3     C 4834   0.287   0.829  13.390  0.0880 -0.0502  0.2507
  318TMC3     O 4835   0.269   0.903  13.485  0.3223 -0.1104  0.7035
  318TMC3     H 4836   0.241   0.597  13.245  2.1728  0.8583 -2.0958
  318TMC3    H1 4837   0.464   0.766  13.581  0.5841  0.4203 -0.8235
  318TMC3    H2 4838   0.396   0.350  13.559 -2.5802  0.0253  1.4135
  318TMC3    C7 4839   0.543   0.552  13.674 -0.8438  0.3897 -0.1944
  318TMC3    C8 4840   0.252   0.345  13.334  0.1578 -0.0518 -0.5815
  318TMC3    O1 4841   0.572   0.657  13.727  0.2997 -1.1153 -0.9037
  318TMC3    O2 4842   0.271   0.242  13.395 -0.1929 -0.5257 -0.1850
  319MPD2     C 4843   0.987   2.215  16.853  0.0089  0.5413  0.3264
  319MPD2    C1 4844   0.993   2.082  16.825 -0.3937 -0.3334  0.3321
  319MPD2    C2 4845   0.892   2.029  16.747 -0.3184 -0.1185 -0.4753
  319MPD2    C3 4846   0.779   2.097  16.708  0.2616 -0.3603 -0.5009
  319MPD2    C4 4847   0.772   2.233  16.736  0.6943  0.4437  1.2097
  319MPD2    C5 4848   0.878   2.294  16.801  0.0360  0.5877  0.6393
  319MPD2     H 4849   0.908   1.922  16.733  1.0769 -0.1946  1.6291
  319MPD2    H1 4850   0.688   2.290  16.696  0.4631  0.7004  2.0573
  319MPD2    H2 4851   1.070   2.262  16.906 -0.1295  0.7107  0.3941
  319MPD2    H3 4852   0.880   2.403  16.800 -1.3787  0.6096 -1.0685
  319MPD2     N 4853   0.674   2.039  16.630 -0.1632 -0.0971  0.2278
  319MPD2    H5 4854   0.598   2.103  16.609  1.0863  0.9041 -1.2157
  319MPD2    N1 4855   1.099   1.997  16.846  0.4356 -0.2925  0.1885
  319MPD2    H7 4856   1.075   1.905  16.811 -2.6265 -0.3579  2.4207
  320TMC3    C1 4857   0.543   1.876  16.517  0.0357  0.3416 -0.0610
  320TMC3    C2 4858   0.433   1.958  16.507 -0.5152  0.1718  0.1057
  320TMC3    C3 4859   0.312   1.907  16.459  0.2350 -0.3881  0.4518
  320TMC3    C4 4860   0.530   1.742  16.471  0.2943 -0.6861 -0.4596
  320TMC3    C5 4861   0.409   1.704  16.414 -0.5180 -0.4720 -0.1585
  320TMC3    C6 4862   0.298   1.779  16.410 -0.6529  0.5923 -0.3805
  320TMC3     C 4863   0.665   1.905  16.596 -0.3393 -0.6577  0.0219
  320TMC3     O 4864   0.745   1.814  16.606 -0.2917 -0.0027  0.1401
  320TMC3     H 4865   0.442   2.063  16.534  1.8696  0.1416 -0.6184
  320TMC3    H1 4866   0.624   1.687  16.467 -0.6052 -2.4862  2.4736
  320TMC3    H2 4867   0.204   1.745  16.369  0.5251 -1.1134 -1.6417
  320TMC3    C7 4868   0.396   1.569  16.388 -0.3763 -0.2550 -0.3562
  320TMC3    C8 4869   0.211   2.010  16.428  0.7352 -1.0341  0.3866
  320TMC3    O1 4870   0.317   1.534  16.301 -0.0289 -0.9577  0.1364
  320TMC3    O2 4871   0.245   2.125  16.442  0.2322 -0.6369  0.1596
  321TMC3    C1 4872   1.322   1.922  16.886 -0.6580  0.3699  0.0977
  321TMC3    C2 4873   1.276   1.794  16.913  0.8650  0.0020  0.6126
  321TMC3    C3 4874   1.375   1.695  16.902  0.1975 -0.1504  0.1497
  321TMC3    C4 4875   1.451   1.958  16.864  0.1887 -0.1246 -0.1571
  321TMC3    C5 4876   1.545   1.855  16.857 -0.4344 -0.1296  0.0098
  321TMC3    C6 4877   1.503   1.724  16.862  0.8898 -0.0367  0.0813
  321TMC3     C 4878   1.226   2.033  16.886  0.0269 -0.4153  0.4285
  321TMC3     O 4879   1.272   2.145  16.925  0.3119  0.9746 -0.2078
  321TMC3     H 4880   1.177   1.782  16.956  0.3029  0.7456 -0.4901
  321TMC3    H1 4881   1.487   2.060  16.856  0.7496 -0.2183  1.1970
  321TMC3    H2 4882   1.578   1.647  16.852  1.6880  0.6193  1.0466
  321TMC3    C7 4883   1.662   1.865  16.941  0.3048 -0.1252  0.8648
  321TMC3    C8 4884   1.369   1.597  17.007  0.1410 -0.7835 -0.2385
  321TMC3    O1 4885   1.699   1.762  16.993  0.5174 -0.1694  0.4245
  321TMC3    O2 4886   1.251   1.564  17.035  0.3406  0.4507 -0.4704
  322MPD2     C 4887   0.035   2.987  12.964  0.4464  0.0883  0.9344
  322MPD2    C1 4888   4.732   2.957  13.092  0.4854  0.4136  0.2298
  322MPD2    C2 4889   4.665   2.840  13.116  0.1815 -0.2494 -0.7924
  322MPD2    C3 4890   4.635   2.747  13.011 -0.1836  0.3802  0.5243
  322MPD2    C4 4891   4.674   2.778  12.879 -0.1200  0.5990 -0.0933
  322MPD2    C5 4892   0.014   2.901  12.867  0.5897 -0.3935 -0.2864
  322MPD2     H 4893   4.619   2.818  13.211 -1.9184  2.8201 -1.0578
  322MPD2    H1 4894   4.647   2.718  12.793 -1.3128  0.3838  0.4250
  322MPD2    H2 4895   0.073   3.084  12.939 -0.7407  0.0180 -1.1465
  322MPD2    H3 4896   0.053   2.930  12.770 -0.3938 -1.5544 -1.0313
  322MPD2     N 4897   4.586   2.616  13.044 -0.0182  0.6603  0.3223
  322MPD2    H5 4898   4.556   2.598  13.139  0.2866 -0.5173  0.1990
  322MPD2    N1 4899   0.022   3.056  13.194 -0.6526  0.3283 -0.8100
  322MPD2    H7 4900   0.087   3.128  13.162 -1.3603  1.1397 -0.3925
  323TMC3    C1 4901   0.015   3.124  13.430  0.0320  0.0669 -0.0666
  323TMC3    C2 4902   0.114   3.219  13.412 -0.1972 -0.3415  0.1634
  323TMC3    C3 4903   0.180   3.250  13.532  0.7509 -0.4079 -0.0893
  323TMC3    C4 4904   4.710   3.083  13.558  0.1632  0.1298  0.1619
  323TMC3    C5 4905   0.042   3.126  13.663  0.1210  0.3570  0.5871
  323TMC3    C6 4906   0.142   3.213  13.657 -0.3125 -0.0379  0.3098
  323TMC3     C 4907   4.700   3.035  13.321 -0.0146 -0.1514 -0.1057
  323TMC3     O 4908   4.595   2.981  13.350 -0.7931  0.1511 -0.0919
  323TMC3     H 4909   0.173   3.218  13.321 -0.1150 -1.5262  0.2267
  323TMC3    H1 4910   4.622   3.021  13.571  1.5301 -1.9565 -0.5738
  323TMC3    H2 4911   0.194   3.234  13.749 -0.6785  1.1580  0.2470
  323TMC3    C7 4912   4.719   3.082  13.787 -0.0336  0.0261 -0.8133
  323TMC3    C8 4913   0.313   3.295  13.520 -0.1797  0.0760 -0.1919
  323TMC3    O1 4914   4.671   2.971  13.784 -0.1321 -0.6498 -0.1809
  323TMC3    O2 4915   0.387   3.246  13.604  0.7192 -0.2932 -0.1928
  324MPD2     C 4916   1.292   4.092  14.422  0.5335 -0.0281  0.3084
  324MPD2    C1 4917   1.298   4.232  14.437 -0.4989  0.4928  0.1924
  324MPD2    C2 4918   1.194   4.304  14.392  0.1315 -0.1191 -1.4618
  324MPD2    C3 4919   1.076   4.234  14.352  0.8571 -0.1554 -0.5677
  324MPD2    C4 4920   1.072   4.096  14.362 -0.4618  0.5376  1.0555
  324MPD2    C5 4921   1.181   4.024  14.397  0.5282  0.2256  0.6176
  324MPD2     H 4922   1.198   4.410  14.374 -0.6447 -0.1650 -1.8972
  324MPD2    H1 4923   0.985   4.034  14.348 -0.1429 -0.1310  2.0130
  324MPD2    H2 4924   1.383   4.036  14.441  1.6219  0.7997 -2.4574
  324MPD2    H3 4925   1.170   3.918  14.414 -0.1768  0.1367 -0.4229
  324MPD2     N 4926   0.958   4.293  14.301 -0.3656  0.1107 -0.0501
  324MPD2    H5 4927   0.887   4.221  14.287  0.9837 -1.2427  0.0538
  324MPD2    N1 4928   1.419   4.299  14.472 -0.6122 -0.1201  0.0415
  324MPD2    H7 4929   1.414   4.400  14.482 -0.9679 -0.0567 -0.7408
  325TMC3    C1 4930   0.825   4.444  14.201  0.6398  0.0394  0.8882
  325TMC3    C2 4931   0.765   4.347  14.142  0.0652 -0.1424 -0.2127
  325TMC3    C3 4932   0.627   4.342  14.139 -0.0872 -0.4483 -0.9860
  325TMC3    C4 4933   0.753   4.541  14.270 -0.4696  0.1128  0.3274
  325TMC3    C5 4934   0.614   4.547  14.251  0.3039 -0.2447  0.3117
  325TMC3    C6 4935   0.546   4.439  14.193  0.1093 -0.4231  0.2555
  325TMC3     C 4936   0.944   4.422  14.267  0.6662  0.1706  0.9180
  325TMC3     O 4937   1.015   4.523  14.281  0.2780  0.6328 -0.0127
  325TMC3     H 4938   0.832   4.273  14.098 -0.2003 -2.2747  2.9496
  325TMC3    H1 4939   0.800   4.621  14.325  1.9854 -0.8177 -0.4163
  325TMC3    H2 4940   0.439   4.442  14.178  0.3779  1.5154 -1.3019
  325TMC3    C7 4941   0.542   4.650  14.333 -0.5295  0.4862 -0.1448
  325TMC3    C8 4942   0.559   4.228  14.074 -0.4683  0.9116 -0.0555
  325TMC3    O1 4943   0.605   4.728  14.401  0.0563  0.6337  0.0810
  325TMC3    O2 4944   0.624   4.167  13.983  0.0736  0.0415  0.3232
  326MPD2     C 4945   2.418   0.980  11.070  0.1469 -0.5050  0.4454
  326MPD2    C1 4946   2.490   0.898  10.980 -0.2551 -0.1587  0.8563
  326MPD2    C2 4947   2.622   0.929  10.964 -0.0956  0.3776  0.7948
  326MPD2    C3 4948   2.672   1.052  11.010 -0.0478 -0.4132 -0.2011
  326MPD2    C4 4949   2.597   1.132  11.093  0.1839  0.0589  0.9781
  326MPD2    C5 4950   2.471   1.089  11.126 -0.7159  0.1978 -0.1852
  326MPD2     H 4951   2.675   0.861  10.897 -0.7672  1.0889 -0.4736
  326MPD2    H1 4952   2.634   1.217  11.149 -0.3305 -0.6676  2.4247
  326MPD2    H2 4953   2.313   0.958  11.089 -0.4595  1.8767 -0.1518
  326MPD2    H3 4954   2.408   1.149  11.191  1.3973  2.5471 -0.2822
  326MPD2     N 4955   2.808   1.096  10.988 -0.1473 -0.1278 -0.6478
  326MPD2    H5 4956   2.843   1.179  11.034  0.0314 -0.6716  0.1898
  326MPD2    N1 4957   2.443   0.790  10.907 -0.4589 -0.1151 -0.2876
  326MPD2    H7 4958   2.514   0.732  10.863  0.7512  2.1810 -1.3268
  327TMC3    C1 4959   2.299   0.641  10.806 -0.2209 -0.8517 -0.4845
  327TMC3    C2 4960   2.245   0.662  10.683  0.6255 -0.4512  0.1381
  327TMC3    C3 4961   2.285   0.566  10.586  0.0681  1.0659  0.1461
  327TMC3    C4 4962   2.393   0.543  10.829 -0.3293 -0.7694  0.2543
  327TMC3    C5 4963   2.424   0.449  10.734 -0.3062  0.7433  0.0467
  327TMC3    C6 4964   2.368   0.460  10.613  0.0668  0.4018  0.4377
  327TMC3     C 4965   2.311   0.756  10.900  0.2503  0.3533  0.3286
  327TMC3     O 4966   2.210   0.829  10.921 -0.5647 -0.0123  0.4031
  327TMC3     H 4967   2.172   0.737  10.653 -0.4913 -1.3371  0.6616
  327TMC3    H1 4968   2.425   0.533  10.932  1.5386  1.2401 -0.1314
  327TMC3    H2 4969   2.402   0.387  10.540  2.6937  1.6662  0.3934
  327TMC3    C7 4970   2.511   0.341  10.757  0.0865 -0.5350  0.5957
  327TMC3    C8 4971   2.323   0.619  10.465 -0.3000  0.1524 -0.7196
  327TMC3    O1 4972   2.494   0.241  10.686  0.4264 -0.2644 -0.8525
  327TMC3    O2 4973   2.342   0.551  10.364  0.0382  0.1021 -0.1129
  328MPD2     C 4974   0.464   0.749  16.965 -0.0595  0.5891 -0.6790
  328MPD2    C1 4975   0.396   0.642  16.912  0.1530 -0.3292 -0.1729
  328MPD2    C2 4976   0.331   0.666  16.789 -0.4314 -0.7558 -0.0612
  328MPD2    C3 4977   0.319   0.792  16.734 -0.9279 -0.0727 -0.7300
  328MPD2    C4 4978   0.380   0.897  16.797 -0.1272 -1.2484  0.8848
  328MPD2    C5 4979   0.461   0.872  16.904 -0.3169  0.1050 -0.1243
  328MPD2     H 4980   0.278   0.583  16.743  0.4615 -1.5285  0.3094
  328MPD2    H1 4981   0.352   0.999  16.774  0.3604 -1.6519 -1.4740
  328MPD2    H2 4982   0.522   0.744  17.056 -0.2228 -0.2753 -0.6219
  328MPD2    H3 4983   0.512   0.948  16.961 -4.1750  0.8014  2.3281
  328MPD2     N 4984   0.247   0.823  16.617  0.0451  0.1947  0.5545
  328MPD2    H5 4985   0.239   0.923  16.601 -0.2874 -0.0932 -1.0871
  328MPD2    N1 4986   0.387   0.517  16.979  0.3384 -0.0069 -0.3411
  328MPD2    H7 4987   0.357   0.432  16.930  0.4622 -1.0780  1.4450
  329TMC3    C1 4988   0.295   0.406  17.168 -0.6665 -0.0204 -0.1439
  329TMC3    C2 4989   0.211   0.435  17.275  0.0058  0.2294 -0.1798
  329TMC3    C3 4990   0.103   0.361  17.303  0.3576 -0.2063 -0.4511
  329TMC3    C4 4991   0.264   0.301  17.084  0.2814  0.2182  0.0232
  329TMC3    C5 4992   0.152   0.228  17.116 -0.3027  0.4288 -0.1078
  329TMC3    C6 4993   0.069   0.260  17.224  0.2288  0.1639 -0.3428
  329TMC3     C 4994   0.373   0.519  17.116  0.0159 -0.2184 -0.5123
  329TMC3     O 4995   0.384   0.610  17.200 -0.1513 -0.0482  0.5356
  329TMC3     H 4996   0.232   0.508  17.352  1.7230 -0.4325 -0.0317
  329TMC3    H1 4997   0.337   0.257  17.017  0.5438 -2.1823  1.9172
  329TMC3    H2 4998   4.710   0.213  17.250 -0.6733  0.9607 -2.2537
  329TMC3    C7 4999   0.098   0.118  17.029  0.3773 -0.3600  0.4984
  329TMC3    C8 5000   4.724   0.444  17.335  0.5814 -0.6108  0.4443
  329TMC3    O1 5001   4.729   0.063  17.071 -0.3638  0.3738 -0.1964
  329TMC3    O2 5002   4.613   0.405  17.310  0.0715 -0.3585  0.1494
  330TMC3    C1 5003   3.115   0.412   9.689  0.3290 -1.2535 -0.0653
  330TMC3    C2 5004   3.016   0.336   9.629  0.8623  0.0877 -0.3071
  330TMC3    C3 5005   3.010   0.195   9.660  0.5118  0.0657 -0.3867
  330TMC3    C4 5006   3.210   0.357   9.774  0.6629  0.3623  0.7945
  330TMC3    C5 5007   3.212   0.221   9.782 -0.5012 -0.0529 -0.7116
  330TMC3    C6 5008   3.112   0.139   9.733 -0.6548 -0.7237 -0.1332
  330TMC3     C 5009   3.093   0.557   9.707 -0.2428 -0.0172  0.8128
  330TMC3     O 5010   3.177   0.633   9.758  0.4373  0.1557 -0.0516
  330TMC3     H 5011   2.963   0.368   9.541 -0.3244  1.3454  0.8622
  330TMC3    H1 5012   3.290   0.419   9.813  2.5477 -0.8888 -1.0781
  330TMC3    H2 5013   3.111   0.032   9.751 -1.0090 -0.8198 -0.7012
  330TMC3    C7 5014   3.303   0.160   9.874  0.3135 -0.0558 -0.2445
  330TMC3    C8 5015   2.928   0.101   9.584 -0.4800  0.4852  0.1060
  330TMC3    O1 5016   3.308   0.039   9.856  0.6119  0.5825  0.0390
  330TMC3    O2 5017   2.883   0.159   9.490 -0.5518  0.3373  0.6266
  331MPD2     C 5018   0.779   3.837  12.983 -0.3967 -0.0171  0.6570
  331MPD2    C1 5019   0.706   3.741  12.912  0.1436  0.3881  0.4154
  331MPD2    C2 5020   0.757   3.615  12.900 -0.8104  0.1676  0.3409
  331MPD2    C3 5021   0.885   3.589  12.941  0.3285  0.5543  0.1663
  331MPD2    C4 5022   0.951   3.685  13.011  0.4615  0.6590 -0.0807
  331MPD2    C5 5023   0.899   3.806  13.035 -0.4230 -0.5145 -0.8679
  331MPD2     H 5024   0.707   3.543  12.835  0.8694 -1.3857  0.7748
  331MPD2    H1 5025   1.053   3.672  13.047  0.3289  0.8597  0.3601
  331MPD2    H2 5026   0.748   3.941  12.985 -0.7285 -0.1210  0.8220
  331MPD2    H3 5027   0.959   3.879  13.088 -1.3796  0.4675 -1.1380
  331MPD2     N 5028   0.930   3.459  12.906  0.2592 -0.0305 -0.4391
  331MPD2    H5 5029   0.863   3.408  12.849 -1.6291  1.3936  0.5195
  331MPD2    N1 5030   0.582   3.777  12.852 -0.7036 -0.4591 -0.5116
  331MPD2    H7 5031   0.567   3.874  12.826 -0.4157 -0.6245 -1.3267
  332TMC3    C1 5032   1.080   3.296  12.864 -0.0708  1.1418  1.0124
  332TMC3    C2 5033   1.015   3.279  12.743 -0.0704 -0.5238  0.2402
  332TMC3    C3 5034   1.017   3.157  12.681  0.2488  0.3951  0.3329
  332TMC3    C4 5035   1.148   3.193  12.930 -0.1622 -0.0408  0.8039
  332TMC3    C5 5036   1.132   3.070  12.869  0.4339  0.7669 -0.1174
  332TMC3    C6 5037   1.065   3.046  12.755  0.1309 -0.1848  0.0515
  332TMC3     C 5038   1.044   3.406  12.953  0.6061  0.2608 -0.1139
  332TMC3     O 5039   1.127   3.443  13.032 -0.0687 -0.5094  0.0056
  332TMC3     H 5040   0.968   3.362  12.691  0.7415  0.8095  1.6459
  332TMC3    H1 5041   1.187   3.202  13.031 -0.2564  1.6290  0.6998
  332TMC3    H2 5042   1.055   2.945  12.717 -2.7263 -0.2665  1.0076
  332TMC3    C7 5043   1.169   2.954  12.953  0.1187 -0.7683  0.1825
  332TMC3    C8 5044   0.962   3.146  12.552 -0.2391  0.2914  0.2876
  332TMC3    O1 5045   1.124   2.847  12.919  0.0374 -0.6251 -0.1168
  332TMC3    O2 5046   0.923   3.248  12.493  0.2172  0.1807  0.3538
  333MPD2     C 5047   1.025   4.367  11.162 -0.4501  0.4154 -0.0924
  333MPD2    C1 5048   1.127   4.281  11.120  0.4052 -0.0407 -0.2022
  333MPD2    C2 5049   1.103   4.143  11.141 -0.1294 -0.3713 -0.7989
  333MPD2    C3 5050   0.981   4.094  11.172  0.5690  0.2143 -0.2277
  333MPD2    C4 5051   0.878   4.176  11.209  0.0026 -0.5479  0.1123
  333MPD2    C5 5052   0.906   4.317  11.215 -0.3273 -0.7295  0.1669
  333MPD2     H 5053   1.172   4.066  11.108 -0.6533 -1.1099 -0.1716
  333MPD2    H1 5054   0.778   4.157  11.245  0.2474 -1.4330  0.3233
  333MPD2    H2 5055   1.040   4.474  11.164  2.8351 -0.0185 -1.1702
  333MPD2    H3 5056   0.822   4.381  11.243  0.1308  1.0630 -2.5985
  333MPD2     N 5057   0.966   3.958  11.158 -0.9133 -0.6943  0.0765
  333MPD2    H5 5058   1.050   3.909  11.129 -0.7509 -0.9252  0.9432
  333MPD2    N1 5059   1.256   4.334  11.072 -0.2138 -0.2133  0.0373
  333MPD2    H7 5060   1.262   4.434  11.057 -0.3427 -0.3673 -1.0372
  334TMC3    C1 5061   1.483   4.340  10.997 -0.4727  0.1238  0.3725
  334TMC3    C2 5062   1.603   4.274  11.002 -0.9466 -0.6845 -0.6234
  334TMC3    C3 5063   1.708   4.350  10.949  0.6936  0.0382  0.3836
  334TMC3    C4 5064   1.461   4.470  10.949 -0.2521  0.7592 -0.3433
  334TMC3    C5 5065   1.571   4.537  10.903  0.0575 -0.2529  0.1616
  334TMC3    C6 5066   1.694   4.478  10.900  0.4740  0.6283  0.5161
  334TMC3     C 5067   1.367   4.253  11.047 -0.2185 -0.1374  0.0787
  334TMC3     O 5068   1.384   4.133  11.038 -0.1050  0.1749 -0.4215
  334TMC3     H 5069   1.613   4.178  11.052 -1.6689 -0.6556 -0.4136
  334TMC3    H1 5070   1.358   4.504  10.940  0.3378  1.4619 -4.5810
  334TMC3    H2 5071   1.773   4.522  10.841 -0.6327  0.8620 -0.7766
  334TMC3    C7 5072   1.563   4.677  10.878  0.3547  0.0585 -0.2235
  334TMC3    C8 5073   1.841   4.303  10.976 -0.0326 -0.3474  0.5161
  334TMC3    O1 5074   1.671   0.004  10.879 -0.0659  0.2642 -0.7032
  334TMC3    O2 5075   1.852   4.231  11.072 -0.3752 -0.2359  0.2389
  335TMC3    C1 5076   0.773   0.551  17.726 -1.0407  0.3366 -0.1292
  335TMC3    C2 5077   0.757   0.555  17.593 -0.4080  0.3597 -0.3570
  335TMC3    C3 5078   0.823   0.656  17.531  0.4073 -0.0849  0.2848
  335TMC3    C4 5079   0.882   0.601   0.052  0.7083 -0.3086 -0.2115
  335TMC3    C5 5080   0.957   0.694  17.723 -0.3955 -0.4040  0.2143
  335TMC3    C6 5081   0.929   0.719  17.592  0.2298 -0.4522  0.2584
  335TMC3     C 5082   0.744   0.418   0.026  0.5159 -0.3920  0.2553
  335TMC3     O 5083   0.648   0.366  17.717  0.1832 -0.2854  0.5482
  335TMC3     H 5084   0.683   0.492  17.545 -0.2612 -0.0016 -0.1078
  335TMC3    H1 5085   0.892   0.596   0.160  0.1936 -0.0746 -0.1497
  335TMC3    H2 5086   0.990   0.787  17.535 -1.2301  1.6477  1.1990
  335TMC3    C7 5087   1.098   0.664  17.721  0.0774  0.5775  0.1474
  335TMC3    C8 5088   0.819   0.660  17.385  0.4596 -0.0014 -0.1292
  335TMC3    O1 5089   1.127   0.548   0.007 -0.2198 -0.4039 -0.2863
  335TMC3    O2 5090   0.888   0.746  17.343  0.1617  0.5243  0.3347
  336MPD2     C 5091   0.457   3.036  15.952  0.1571  0.0571  0.1485
  336MPD2    C1 5092   0.358   2.962  15.896  0.3957  0.3687 -0.5595
  336MPD2    C2 5093   0.327   2.830  15.933 -0.0941  0.0951  0.3550
  336MPD2    C3 5094   0.404   2.781  16.036  0.4405  0.3720  0.2347
  336MPD2    C4 5095   0.512   2.852  16.096  0.0042  0.1351  0.6195
  336MPD2    C5 5096   0.536   2.982  16.056 -0.6337  0.1363 -0.3244
  336MPD2     H 5097   0.251   2.766  15.888  0.2154  0.3052 -0.4546
  336MPD2    H1 5098   0.569   2.801  16.172 -2.0404 -3.0266  0.0388
  336MPD2    H2 5099   0.470   3.140  15.922  0.6741 -0.3273 -0.9315
  336MPD2    H3 5100   0.611   3.047  16.102 -0.2648  0.7490 -1.7872
  336MPD2     N 5101   0.388   2.656  16.095  0.5042 -0.8620  0.0797
  336MPD2    H5 5102   0.463   2.644  16.163 -1.2401  0.9659  2.3297
  336MPD2    N1 5103   0.278   3.045  15.817 -0.1665 -0.2198  0.0993
  336MPD2    H7 5104   0.314   3.138  15.798 -1.3595  0.0016 -1.0009
  337TMC3    C1 5105   0.088   3.132  15.702  0.1512  0.0955 -0.0667
  337TMC3    C2 5106   4.690   3.136  15.684 -0.0093  0.5000 -0.0408
  337TMC3    C3 5107   4.636   3.198  15.573  0.9217 -0.4357 -0.1940
  337TMC3    C4 5108   0.165   3.178  15.604 -0.3693  0.1635 -0.4352
  337TMC3    C5 5109   0.111   3.237  15.487 -0.7809 -0.0648  0.0011
  337TMC3    C6 5110   4.715   3.252  15.472  0.0635  0.0126 -0.6578
  337TMC3     C 5111   0.144   3.031  15.790 -0.0950 -0.3478 -0.8597
  337TMC3     O 5112   0.064   2.960  15.848 -0.3911 -0.3759 -0.6538
  337TMC3     H 5113   4.632   3.064  15.741  0.9585  0.2661  0.6533
  337TMC3    H1 5114   0.274   3.171  15.607 -0.2667  0.1888 -3.3812
  337TMC3    H2 5115   4.676   3.293  15.380 -0.7404 -0.8427 -0.7002
  337TMC3    C7 5116   0.202   3.272  15.377  0.0925  0.0307 -0.2777
  337TMC3    C8 5117   4.490   3.183  15.558  0.4061  0.8784 -0.9422
  337TMC3    O1 5118   0.303   3.203  15.365 -0.1132  0.7798  0.2235
  337TMC3    O2 5119   4.420   3.165  15.656 -0.0626  0.2317 -0.2585
  338MPD2     C 5120   1.216   2.564   0.632  0.8187  0.1287 -0.4086
  338MPD2    C1 5121   1.123   2.500   0.552 -0.3775 -0.6417 -0.1427
  338MPD2    C2 5122   0.991   2.541   0.575 -0.3741 -0.3939  0.0099
  338MPD2    C3 5123   0.955   2.648   0.657  0.4416 -0.1730 -0.3112
  338MPD2    C4 5124   1.051   2.713   0.730 -0.4611 -0.4820  0.0392
  338MPD2    C5 5125   1.183   2.664   0.722 -0.1178 -0.1285 -0.3819
  338MPD2     H 5126   0.913   2.504   0.509 -0.9687 -1.5876  1.3725
  338MPD2    H1 5127   1.038   2.805   0.787  0.6409  0.3310 -1.0247
  338MPD2    H2 5128   1.320   2.537   0.624  0.5433 -1.9883  3.1848
  338MPD2    H3 5129   1.261   2.711   0.781 -0.5218 -2.2332  1.8370
  338MPD2     N 5130   0.820   2.694   0.642 -0.2658  0.2185 -0.0378
  338MPD2    H5 5131   0.752   2.633   0.596 -0.7911  0.7043  0.0962
  338MPD2    N1 5132   1.153   2.401   0.457 -0.1642  0.0620 -0.6691
  338MPD2    H7 5133   1.066   2.355   0.437 -0.5769  0.1147  0.9845
  339TMC3    C1 5134   0.628   2.796   0.721  0.4966 -0.6935  0.3757
  339TMC3    C2 5135   0.574   2.895   0.793 -0.0862  0.1698  0.4799
  339TMC3    C3 5136   0.459   2.866   0.861 -0.4659  0.0175 -0.8997
  339TMC3    C4 5137   0.562   2.681   0.703 -0.5081 -0.5279 -0.0850
  339TMC3    C5 5138   0.451   2.652   0.780 -0.2771 -0.0120  0.0647
  339TMC3    C6 5139   0.397   2.745   0.869  0.2537  0.1908  0.3599
  339TMC3     C 5140   0.768   2.814   0.682 -0.2192 -0.0104 -0.1456
  339TMC3     O 5141   0.832   2.911   0.711  0.3644 -0.2101 -0.4394
  339TMC3     H 5142   0.622   2.992   0.805 -0.7916  0.4265  1.2001
  339TMC3    H1 5143   0.594   2.612   0.626 -0.5240 -2.0562  1.2611
  339TMC3    H2 5144   0.298   2.737   0.912  0.2820  0.7657  0.5397
  339TMC3    C7 5145   0.409   2.518   0.779 -0.5079 -0.2791  0.4535
  339TMC3    C8 5146   0.414   2.979   0.943 -0.6382  0.4610 -0.5718
  339TMC3    O1 5147   0.370   2.477   0.670 -0.5194  0.7006 -0.1447
  339TMC3    O2 5148   0.480   3.080   0.949  0.0029 -0.7266  0.8623
  340MPD2     C 5149   0.590   0.121  10.584  0.0491 -0.0950 -0.0228
  340MPD2    C1 5150   0.714   0.083  10.546  1.0619 -0.5167  0.8656
  340MPD2    C2 5151   0.825   0.171  10.555  0.0855  0.2531  0.6795
  340MPD2    C3 5152   0.808   0.298  10.600 -0.5060 -0.1994  0.3722
  340MPD2    C4 5153   0.688   0.330  10.657 -0.5016 -0.6155  0.1263
  340MPD2    C5 5154   0.578   0.246  10.641 -0.0750  0.1388 -0.2353
  340MPD2     H 5155   0.923   0.139  10.523 -0.1949  1.2716 -1.1578
  340MPD2    H1 5156   0.679   0.428  10.703 -0.7265 -0.3336 -0.5206
  340MPD2    H2 5157   0.496   0.068  10.575 -0.2504  0.2323  1.1481
  340MPD2    H3 5158   0.483   0.274  10.685  0.7690 -0.4477  1.9925
  340MPD2     N 5159   0.907   0.404  10.594  0.0280 -0.2704  0.3025
  340MPD2    H5 5160   0.886   0.502  10.609 -0.7076 -0.4140  0.1888
  340MPD2    N1 5161   0.718   4.678  10.509  0.3647  0.3432  0.1095
  340MPD2    H7 5162   0.628   4.633  10.499 -0.4117  1.6823  1.1650
  341TMC3    C1 5163   0.821   4.470  10.468  0.4742  0.8307  0.6849
  341TMC3    C2 5164   0.709   4.393  10.497 -0.1365  1.0924 -0.2915
  341TMC3    C3 5165   0.722   4.260  10.518 -0.6561  0.1314  0.3069
  341TMC3    C4 5166   0.938   4.410  10.440  0.1131 -1.0805 -0.0464
  341TMC3    C5 5167   0.946   4.270  10.449 -0.8090  0.1978 -0.0735
  341TMC3    C6 5168   0.838   4.197  10.496 -0.3821  0.0182  0.0901
  341TMC3     C 5169   0.834   4.610  10.487  0.4635 -0.1768 -0.5758
  341TMC3     O 5170   0.950   4.654  10.489  0.5257 -0.0205 -0.2912
  341TMC3     H 5171   0.617   4.444  10.522 -0.9129  0.0219 -1.0035
  341TMC3    H1 5172   1.019   4.470  10.399  0.7128 -0.4548  2.0343
  341TMC3    H2 5173   0.854   4.091  10.507 -1.8434 -0.3173 -1.1069
  341TMC3    C7 5174   1.088   4.220  10.456  0.0142 -0.3731 -0.4390
  341TMC3    C8 5175   0.596   4.179  10.517 -0.3870  0.3038 -0.7450
  341TMC3    O1 5176   1.176   4.304  10.441 -1.1103  0.1557  0.3131
  341TMC3    O2 5177   0.488   4.243  10.505  0.6456 -0.9952 -0.1765
  342MPD2     C 5178   3.736   3.569   0.223  0.0854 -1.0949 -0.5561
  342MPD2    C1 5179   3.751   3.580   0.088 -0.5109 -0.2805 -0.5818
  342MPD2    C2 5180   3.776   3.706   0.036  0.1993  0.3999  0.3934
  342MPD2    C3 5181   3.766   3.818   0.121  0.0759  0.1714 -1.0457
  342MPD2    C4 5182   3.727   3.804   0.251  0.5238 -0.0233 -0.6921
  342MPD2    C5 5183   3.713   3.680   0.302 -0.2205 -0.9396  0.0073
  342MPD2     H 5184   3.796   3.723  17.673  0.9801  2.3208  0.8521
  342MPD2    H1 5185   3.729   3.894   0.311  3.1489 -1.2881  1.1220
  342MPD2    H2 5186   3.723   3.474   0.274 -1.3660 -0.6992 -0.1853
  342MPD2    H3 5187   3.700   3.661   0.408  1.0759 -1.6549  0.0306
  342MPD2     N 5188   3.784   3.959   0.071  0.4710 -0.3520  0.0657
  342MPD2    H5 5189   3.760   4.033   0.136 -1.4379 -1.2764  0.4127
  342MPD2    N1 5190   3.752   3.470  17.735 -0.4363  0.2647  0.6058
  342MPD2    H7 5191   3.784   3.493  17.642 -1.3700 -2.6663 -0.4344
  343TMC3    C1 5192   3.740   3.260  17.643 -0.2887  0.5311  0.3030
  343TMC3    C2 5193   3.766   3.322  17.515  0.0567 -0.0206  0.2984
  343TMC3    C3 5194   3.753   3.246  17.401 -0.6827  0.1511  0.1094
  343TMC3    C4 5195   3.707   3.130  17.654  0.3582  0.8556 -0.3043
  343TMC3    C5 5196   3.693   3.060  17.532 -0.3598  0.5962  0.4258
  343TMC3    C6 5197   3.720   3.108  17.410  0.6629 -0.6702  0.1260
  343TMC3     C 5198   3.734   3.336   0.021 -0.5514 -0.8014  0.2290
  343TMC3     O 5199   3.719   3.283   0.130  0.5227 -0.1878 -0.2650
  343TMC3     H 5200   3.799   3.424  17.500 -0.0335 -0.1642 -0.8862
  343TMC3    H1 5201   3.679   3.095   0.011 -1.0839  0.7652 -0.7411
  343TMC3    H2 5202   3.704   3.062  17.313  1.3181 -1.9307  0.6103
  343TMC3    C7 5203   3.631   2.935  17.539  0.2523 -0.0530  0.4256
  343TMC3    C8 5204   3.826   3.298  17.285  0.4046  0.5189  0.0425
  343TMC3    O1 5205   3.569   2.889  17.444  0.1965 -0.0077 -0.0790
  343TMC3    O2 5206   3.846   3.421  17.279 -0.2541  0.3771  0.7226
  344MPD2     C 5207   4.420   3.458  11.355  0.2176 -0.3455 -0.5087
  344MPD2    C1 5208   4.422   3.408  11.224  0.1244  0.1384 -0.8917
  344MPD2    C2 5209   4.494   3.482  11.133  0.3243  0.7063  0.1221
  344MPD2    C3 5210   4.544   3.605  11.169 -0.3075  0.3623 -0.0425
  344MPD2    C4 5211   4.534   3.652  11.300  0.6423 -0.3975 -0.2982
  344MPD2    C5 5212   4.475   3.578  11.394 -0.3584 -0.7310  0.0293
  344MPD2     H 5213   4.514   3.438  11.037  2.3044  1.6215  0.1173
  344MPD2    H1 5214   4.566   3.752  11.327 -2.6385  0.3940  0.7265
  344MPD2    H2 5215   4.376   3.410  11.442  0.8040 -0.6273 -0.3692
  344MPD2    H3 5216   4.447   3.611  11.493 -1.6352  0.7226 -0.8204
  344MPD2     N 5217   4.607   3.691  11.077 -0.0657 -0.1234  0.4052
  344MPD2    H5 5218   4.639   3.781  11.112  0.6888  0.2614 -1.2595
  344MPD2    N1 5219   4.362   3.284  11.184  0.1793  0.0590  0.4966
  344MPD2    H7 5220   4.367   3.264  11.085  0.7638  2.7609 -0.0002
  345TMC3    C1 5221   4.702   3.779  10.876  0.3789 -0.1144  0.1696
  345TMC3    C2 5222   0.056   3.855  10.950  0.3521  0.4155 -0.5118
  345TMC3    C3 5223   0.102   3.969  10.894  0.5724  0.0537  0.5863
  345TMC3    C4 5224   4.662   3.816  10.752  0.5931 -0.1875 -0.3914
  345TMC3    C5 5225   4.709   3.933  10.702  0.3217  0.3052  0.0160
  345TMC3    C6 5226   0.058   4.010  10.773 -0.2767  0.4866 -0.5170
  345TMC3     C 5227   4.627   3.670  10.940  0.0702  0.0345 -0.0964
  345TMC3     O 5228   4.586   3.584  10.869  0.3404  0.1626 -0.0384
  345TMC3     H 5229   0.079   3.817  11.049 -0.1676  2.1604  0.2917
  345TMC3    H1 5230   4.590   3.755  10.700  1.1982 -0.2466 -1.1710
  345TMC3    H2 5231   0.098   4.100  10.727  2.0889 -0.6622 -0.6571
  345TMC3    C7 5232   4.635   4.012  10.605  0.0487 -0.1968  0.0627
  345TMC3    C8 5233   0.136   4.074  10.986 -0.0434  0.0786  0.0191
  345TMC3    O1 5234   4.692   4.104  10.549 -0.6256 -0.6302  0.0565
  345TMC3    O2 5235   0.189   4.049  11.090 -0.2454  0.2805 -0.9370
  346MPD2     C 5236   4.313   4.422  13.809 -0.2438 -0.3690 -0.2474
  346MPD2    C1 5237   4.427   4.483  13.853 -0.2147  0.2838 -0.0279
  346MPD2    C2 5238   4.454   4.487  13.986  0.0142  0.8280  1.1814
  346MPD2    C3 5239   4.362   4.440  14.078 -0.1158  0.2022 -0.1065
  346MPD2    C4 5240   4.244   4.387  14.029 -0.1508  0.4974  1.0663
  346MPD2    C5 5241   4.229   4.364  13.898 -0.1231 -0.0493  0.0516
  346MPD2     H 5242   4.546   4.530  14.025  0.4094  0.5420  0.5744
  346MPD2    H1 5243   4.177   4.332  14.095  0.4879 -2.5301 -0.7702
  346MPD2    H2 5244   4.280   4.414  13.706  0.9852  0.2941 -0.6905
  346MPD2    H3 5245   4.134   4.322  13.866  0.0323 -1.1757  1.0671
  346MPD2     N 5246   4.395   4.426  14.209  0.4218 -0.0775 -0.3136
  346MPD2    H5 5247   4.478   4.474  14.244 -0.2302  0.6149  0.2690
  346MPD2    N1 5248   4.522   4.534  13.759  0.6034  0.3790  0.5697
  346MPD2    H7 5249   4.603   4.589  13.788  0.0337  0.9110  1.1571
  347TMC3    C1 5250   4.392   4.402  14.433 -0.4031 -0.7326 -0.3141
  347TMC3    C2 5251   4.467   4.507  14.446 -0.4839 -0.6699  0.0438
  347TMC3    C3 5252   4.525   4.531  14.565 -0.5081 -0.2874 -0.2529
  347TMC3    C4 5253   4.380   4.316  14.538  0.2747  0.0585 -0.1961
  347TMC3    C5 5254   4.452   4.329  14.652 -1.2786 -0.5088  0.1097
  347TMC3    C6 5255   4.519   4.448  14.674 -0.2333 -0.0096  0.4874
  347TMC3     C 5256   4.329   4.371  14.311 -0.5427 -0.1883 -0.0680
  347TMC3     O 5257   4.213   4.335  14.319 -0.2330  0.2261  0.3323
  347TMC3     H 5258   4.458   4.586  14.373 -0.2881  0.6191  1.4205
  347TMC3    H1 5259   4.333   4.221  14.513  0.7219 -0.2902  0.2762
  347TMC3    H2 5260   4.568   4.467  14.769 -1.1950  1.8025  0.6226
  347TMC3    C7 5261   4.470   4.217  14.736  0.4758 -0.1875 -0.3772
  347TMC3    C8 5262   4.612   4.641  14.568 -0.2680 -0.0011  0.6085
  347TMC3    O1 5263   4.410   4.121  14.687  0.3597 -1.0154  0.4412
  347TMC3    O2 5264   4.634   4.698  14.676  0.1003 -0.3937 -0.2752
  348MPD2     C 5265   3.784   4.605  12.109  0.1225 -0.1376  0.3047
  348MPD2    C1 5266   3.720   4.553  11.997  0.4097 -0.3811  0.5127
  348MPD2    C2 5267   3.716   4.625  11.880  0.2298  0.2866  0.5465
  348MPD2    C3 5268   3.773   0.014  11.867 -0.2992  0.2358 -0.9691
  348MPD2    C4 5269   3.836   0.068  11.979  0.1994  0.8403  0.1848
  348MPD2    C5 5270   3.849   4.727  12.092 -0.2023  0.2390  0.8202
  348MPD2     H 5271   3.660   4.577  11.800 -1.6308 -0.9459  2.5559
  348MPD2    H1 5272   3.899   0.157  11.978 -1.1775  1.8151  0.1784
  348MPD2    H2 5273   3.800   4.557  12.205 -0.0893  0.8431  0.8265
  348MPD2    H3 5274   3.900   0.036  12.176 -1.1019  3.5574 -0.3607
  348MPD2     N 5275   3.756   0.082  11.747 -0.1733  0.2136 -0.0709
  348MPD2    H5 5276   3.727   0.017  11.675  0.3212 -0.1705  0.0788
  348MPD2    N1 5277   3.641   4.434  11.998 -0.0647  0.4034  0.5765
  348MPD2    H7 5278   3.603   4.400  11.910 -1.9599 -0.7932  1.8418
  349TMC3    C1 5279   3.532   4.248  12.069 -0.2048 -0.1389 -0.1053
  349TMC3    C2 5280   3.545   4.129  12.137 -0.1345 -0.4069 -0.0450
  349TMC3    C3 5281   3.456   4.023  12.109 -0.6589 -0.6678 -0.1666
  349TMC3    C4 5282   3.434   4.260  11.975 -0.5210  0.3508 -0.1456
  349TMC3    C5 5283   3.350   4.158  11.951  0.0250 -0.3517  0.0042
  349TMC3    C6 5284   3.354   4.033  12.015  0.0905 -0.4950  0.4597
  349TMC3     C 5285   3.620   4.353  12.108  0.1690  0.1001  0.3809
  349TMC3     O 5286   3.664   4.361  12.221 -0.2724 -0.0095  0.2046
  349TMC3     H 5287   3.633   4.108  12.196 -0.3777  0.9319  0.8107
  349TMC3    H1 5288   3.409   4.357  11.933  2.7290  0.6043 -1.4909
  349TMC3    H2 5289   3.273   3.965  11.994 -1.3512  0.8235  1.6947
  349TMC3    C7 5290   3.280   4.159  11.824 -0.5617  0.0042 -0.4626
  349TMC3    C8 5291   3.482   3.903  12.189 -0.0018 -0.9004  0.6320
  349TMC3    O1 5292   3.192   4.075  11.812 -0.5337  0.2256  0.0442
  349TMC3    O2 5293   3.539   3.929  12.298 -0.2059  0.3371  0.7197
  350MPD2     C 5294   2.367   2.710  10.750  0.5203  0.3058 -0.3608
  350MPD2    C1 5295   2.467   2.625  10.771 -0.3481  0.4571  0.0883
  350MPD2    C2 5296   2.549   2.643  10.878  0.1915 -0.5540 -0.3164
  350MPD2    C3 5297   2.543   2.756  10.950 -0.5221  0.2169  0.0342
  350MPD2    C4 5298   2.437   2.843  10.935 -0.6479 -0.1136  0.4967
  350MPD2    C5 5299   2.343   2.818  10.836  0.8718 -0.4779 -0.2675
  350MPD2     H 5300   2.627   2.568  10.892  0.7144  0.0988  0.2430
  350MPD2    H1 5301   2.430   2.939  10.985 -0.2143  1.0099 -1.6053
  350MPD2    H2 5302   2.291   2.697  10.673 -0.9303  1.3900  0.8736
  350MPD2    H3 5303   2.263   2.890  10.825 -0.9309 -2.6548 -1.3409
  350MPD2     N 5304   2.638   2.776  11.056  0.3100  0.2196  0.1351
  350MPD2    H5 5305   2.726   2.726  11.046  0.1076 -0.0663 -0.1819
  350MPD2    N1 5306   2.489   2.512  10.698 -0.5205  0.4763 -0.0188
  350MPD2    H7 5307   2.564   2.450  10.727 -0.6152  0.7600  0.8093
  351TMC3    C1 5308   2.450   2.325  10.565  0.3946 -0.1881  0.8923
  351TMC3    C2 5309   2.576   2.321  10.511  0.4193 -0.7035  0.2882
  351TMC3    C3 5310   2.599   2.223  10.421 -0.4329  0.0291 -0.4381
  351TMC3    C4 5311   2.350   2.238  10.525 -0.1809  0.3814 -0.5198
  351TMC3    C5 5312   2.376   2.152  10.428  0.5099  0.8270  0.4570
  351TMC3    C6 5313   2.502   2.136  10.380  0.5551 -0.1190  0.8520
  351TMC3     C 5314   2.405   2.460  10.607 -0.0308  0.6065  0.3262
  351TMC3     O 5315   2.305   2.499  10.552 -0.1963  0.3975  0.7852
  351TMC3     H 5316   2.649   2.397  10.536 -2.3040  1.9612  0.1580
  351TMC3    H1 5317   2.261   2.236  10.586 -0.3767  3.6021 -0.6962
  351TMC3    H2 5318   2.534   2.056  10.315  1.6500  1.2649 -0.3104
  351TMC3    C7 5319   2.299   2.029  10.424  0.1496 -0.8144  0.0403
  351TMC3    C8 5320   2.727   2.218  10.362  0.6837  0.8201 -0.3438
  351TMC3    O1 5321   2.264   1.985  10.533  0.2351  0.2722  0.3449
  351TMC3    O2 5322   2.736   2.197  10.241 -0.1311  0.0475  0.2718
  352MPD2     C 5323   1.100   0.260   0.614  0.2134 -0.2189  0.2164
  352MPD2    C1 5324   0.984   0.185   0.598  0.1681 -0.1709  0.1862
  352MPD2    C2 5325   0.986   0.053   0.584  0.1436  0.3314 -0.1438
  352MPD2    C3 5326   1.104   4.718   0.565  0.0578 -0.5854  0.2728
  352MPD2    C4 5327   1.219   0.058   0.575  0.3579 -0.1089  0.2809
  352MPD2    C5 5328   1.216   0.188   0.614  0.6087 -0.1427 -0.1157
  352MPD2     H 5329   0.892   4.735   0.577  0.9499 -0.8783 -1.7311
  352MPD2    H1 5330   1.315   0.013   0.550  1.0754  2.5678 -1.8211
  352MPD2    H2 5331   1.100   0.367   0.626  2.7286 -0.2957  1.0612
  352MPD2    H3 5332   1.309   0.242   0.622  0.6229 -0.4954  2.0364
  352MPD2     N 5333   1.115   4.577   0.524  0.1546 -0.0172  0.2575
  352MPD2    H5 5334   1.208   4.538   0.509  0.8582  1.9112 -0.4220
  352MPD2    N1 5335   0.860   0.246   0.617  0.0516 -0.0986 -0.4011
  352MPD2    H7 5336   0.778   0.195   0.588 -1.4112  1.6975  0.5980
  353TMC3    C1 5337   1.060   4.354   0.522  0.0328  0.1836  0.7450
  353TMC3    C2 5338   1.176   4.312   0.576  0.4060  0.3177 -1.0751
  353TMC3    C3 5339   1.188   4.176   0.600  0.0633 -0.2933 -0.3659
  353TMC3    C4 5340   0.975   4.268   0.463 -0.1801 -0.1019 -0.2926
  353TMC3    C5 5341   0.997   4.139   0.474 -0.3156 -0.5717 -0.2803
  353TMC3    C6 5342   1.100   4.086   0.550 -0.0589 -0.2313  0.0373
  353TMC3     C 5343   1.009   4.487   0.522 -0.0020 -1.2926 -0.4233
  353TMC3     O 5344   0.886   4.496   0.521 -0.1892 -0.3298 -0.2661
  353TMC3     H 5345   1.229   4.380   0.641  0.6348  1.1978 -2.1842
  353TMC3    H1 5346   0.895   4.302   0.398  0.6058  2.6180  0.1929
  353TMC3    H2 5347   1.131   3.982   0.540  0.4609 -0.1718  1.0589
  353TMC3    C7 5348   0.893   4.039   0.443 -0.2201  0.1082  0.3414
  353TMC3    C8 5349   1.283   4.143   0.711  0.2171 -1.2856 -0.0741
  353TMC3    O1 5350   0.925   3.925   0.469 -0.2412  0.1852  0.2095
  353TMC3    O2 5351   1.357   4.229   0.755 -0.4292 -0.3676 -0.5296
  354TMC3    C1 5352   2.959   0.569  13.808 -0.4605  0.1132  0.4171
  354TMC3    C2 5353   2.953   0.700  13.791 -0.0149 -0.5830 -0.5135
  354TMC3    C3 5354   3.014   0.761  13.680 -0.5682 -0.6341 -0.1824
  354TMC3    C4 5355   2.990   0.500  13.698  0.1972 -0.0335 -0.9782
  354TMC3    C5 5356   3.050   0.560  13.588  0.2830 -0.1299  0.6166
  354TMC3    C6 5357   3.057   0.696  13.575  0.1175 -0.1471 -1.1119
  354TMC3     C 5358   2.909   0.496  13.925  0.1873 -0.2971  0.0298
  354TMC3     O 5359   2.865   0.381  13.908 -0.0445  0.4421 -0.7463
  354TMC3     H 5360   2.940   0.765  13.876 -1.0329 -2.3383  0.6868
  354TMC3    H1 5361   2.986   0.392  13.707  2.5938 -0.0356  0.2917
  354TMC3    H2 5362   3.106   0.746  13.492  1.4117  0.4023 -0.0174
  354TMC3    C7 5363   3.060   0.486  13.469 -0.4231  0.1354  0.2388
  354TMC3    C8 5364   2.984   0.901  13.664 -0.7144 -0.3393  0.2310
  354TMC3    O1 5365   2.996   0.381  13.465  0.0477 -0.2372  0.0135
  354TMC3    O2 5366   2.942   0.968  13.757 -0.2978  0.0081 -0.6250
  355MPD2     C 5367   2.552   1.559  11.951  0.3294  0.5619 -0.2726
  355MPD2    C1 5368   2.658   1.609  11.883 -0.5750  0.2134  0.1553
  355MPD2    C2 5369   2.786   1.597  11.932 -0.1020 -0.0699 -0.3525
  355MPD2    C3 5370   2.808   1.543  12.061  0.2570  0.2426  0.4207
  355MPD2    C4 5371   2.696   1.501  12.135 -0.1713  0.2556 -0.8724
  355MPD2    C5 5372   2.572   1.501  12.076  0.1593 -1.5642  0.2676
  355MPD2     H 5373   2.873   1.635  11.880  0.1331 -2.6752 -1.8441
  355MPD2    H1 5374   2.712   1.468  12.237 -1.9864  1.6235 -0.1399
  355MPD2    H2 5375   2.452   1.556  11.910  0.0803 -0.4640  0.4020
  355MPD2    H3 5376   2.489   1.455  12.128 -0.7947  1.4368  1.3904
  355MPD2     N 5377   2.929   1.563  12.136  0.2501 -0.6671  0.2761
  355MPD2    H5 5378   2.917   1.565  12.237  2.2495 -2.0002  0.5407
  355MPD2    N1 5379   2.638   1.675  11.760 -0.5474 -0.5389  0.2649
  355MPD2    H7 5380   2.544   1.713  11.749 -0.1667 -0.1858 -1.8467
  356TMC3    C1 5381   3.117   1.692  12.133 -0.1838 -0.6572  0.6730
  356TMC3    C2 5382   3.160   1.795  12.056 -0.2234  0.5636  0.0283
  356TMC3    C3 5383   3.192   1.920  12.107  0.4183  0.4419 -0.8355
  356TMC3    C4 5384   3.112   1.711  12.267  0.3869 -0.1374  0.1299
  356TMC3    C5 5385   3.154   1.832  12.323 -0.3477  0.3793  0.2496
  356TMC3    C6 5386   3.200   1.938  12.247 -0.7449 -0.1012 -0.3039
  356TMC3     C 5387   3.046   1.586  12.071  0.4061  0.3819  0.8525
  356TMC3     O 5388   3.073   1.559  11.955 -0.1684  0.0637  0.0231
  356TMC3     H 5389   3.154   1.780  11.949 -2.7455  1.9934 -0.0189
  356TMC3    H1 5390   3.075   1.629  12.326 -0.5000  0.8740  0.9795
  356TMC3    H2 5391   3.231   2.031  12.294  2.5805 -1.3892  0.1064
  356TMC3    C7 5392   3.182   1.828  12.463 -0.1934 -0.0964 -0.1413
  356TMC3    C8 5393   3.232   2.012  12.005  0.1552  0.2497  0.1290
  356TMC3    O1 5394   3.168   1.720  12.518  0.0973 -0.2747  0.2533
  356TMC3    O2 5395   3.212   1.974  11.888 -0.2391 -0.5934 -0.1311
  357MPD2     C 5396   3.053   1.511   0.652  0.5861 -0.1063 -0.4688
  357MPD2    C1 5397   2.958   1.429   0.712 -1.1141 -0.0077  0.2636
  357MPD2    C2 5398   2.827   1.469   0.714  0.3758 -0.3087  0.2945
  357MPD2    C3 5399   2.793   1.589   0.658  0.4020  0.3384 -0.0136
  357MPD2    C4 5400   2.890   1.670   0.605 -0.2481 -0.2984 -0.2369
  357MPD2    C5 5401   3.023   1.636   0.611 -0.1085  0.3603 -0.2633
  357MPD2     H 5402   2.761   1.395   0.757 -1.3498  0.1081 -1.6149
  357MPD2    H1 5403   2.864   1.771   0.576 -2.3166 -0.7089  0.1909
  357MPD2    H2 5404   3.157   1.480   0.651  1.1698  1.7454  0.8565
  357MPD2    H3 5405   3.094   1.714   0.584  0.9179 -0.1065  1.1317
  357MPD2     N 5406   2.658   1.624   0.648 -0.0406 -0.9855  0.2688
  357MPD2    H5 5407   2.634   1.696   0.580 -0.8485 -1.7606 -0.2688
  357MPD2    N1 5408   2.998   1.297   0.756 -0.2390  0.0661  0.8009
  357MPD2    H7 5409   3.097   1.277   0.759 -0.3200 -0.6118 -0.8986
  358TMC3    C1 5410   2.989   1.079   0.810 -0.3820 -0.4989  0.9831
  358TMC3    C2 5411   3.079   1.058   0.706  0.4024 -0.3343 -0.1310
  358TMC3    C3 5412   3.125   0.937   0.698 -0.1349 -0.6694 -0.0215
  358TMC3    C4 5413   2.953   0.989   0.899 -0.4806  0.3969  0.5801
  358TMC3    C5 5414   3.011   0.866   0.882  0.3109  0.0509  0.4465
  358TMC3    C6 5415   3.112   0.836   0.788 -0.2114  0.4131 -0.0427
  358TMC3     C 5416   2.918   1.197   0.803 -0.1218  0.3952 -0.1149
  358TMC3     O 5417   2.802   1.182   0.810 -0.4031 -0.6457 -0.2220
  358TMC3     H 5418   3.102   1.122   0.622 -0.3763 -0.6847 -0.6155
  358TMC3    H1 5419   2.866   0.990   0.963 -0.4893 -1.6547  0.5831
  358TMC3    H2 5420   3.159   0.741   0.765 -1.6777 -0.6908  1.5774
  358TMC3    C7 5421   2.950   0.764   0.965  0.4590 -0.1416 -0.0550
  358TMC3    C8 5422   3.169   0.911   0.567 -0.7539  0.2700  0.3083
  358TMC3    O1 5423   2.871   0.803   1.051 -0.4899  0.3012  0.2010
  358TMC3    O2 5424   3.229   1.000   0.513 -0.3223  0.0316 -0.4182
  359MPD2     C 5425   3.445   0.228  12.781 -0.6003 -0.2620  0.4807
  359MPD2    C1 5426   3.379   0.186  12.670 -0.1338 -0.0298  0.6291
  359MPD2    C2 5427   3.244   0.170  12.679 -0.6637  0.1586  0.3715
  359MPD2    C3 5428   3.180   0.190  12.801  0.6584 -0.4721 -0.2967
  359MPD2    C4 5429   3.252   0.222  12.912 -0.2654  0.0906  0.8269
  359MPD2    C5 5430   3.383   0.248  12.901 -0.2554 -0.0418  0.6672
  359MPD2     H 5431   3.185   0.170  12.589 -1.2167  0.6955  0.7372
  359MPD2    H1 5432   3.210   0.240  13.010 -0.1007  0.0086  0.9117
  359MPD2    H2 5433   3.552   0.242  12.787 -0.6250  0.7127 -1.5833
  359MPD2    H3 5434   3.439   0.274  12.990 -0.1810  0.8644  0.3594
  359MPD2     N 5435   3.045   0.163  12.828 -0.0256  0.1050 -0.4049
  359MPD2    H5 5436   3.012   0.193  12.919 -0.2704 -1.1121 -0.0986
  359MPD2    N1 5437   3.437   0.172  12.543  0.2492 -0.3807  0.1006
  359MPD2    H7 5438   3.377   0.126  12.475 -0.4420  0.4117  0.1723
  360TMC3    C1 5439   3.589   0.234  12.366  0.2639 -0.3243  0.7083
  360TMC3    C2 5440   3.690   0.316  12.323  0.1111 -0.4616 -0.0601
  360TMC3    C3 5441   3.700   0.337  12.186 -0.4575 -0.0703 -0.1764
  360TMC3    C4 5442   3.498   0.179  12.284 -0.8820  0.1189 -0.5087
  360TMC3    C5 5443   3.518   0.195  12.153 -0.8899 -0.2099  0.4416
  360TMC3    C6 5444   3.610   0.276  12.100 -0.2233 -0.5790 -0.3525
  360TMC3     C 5445   3.558   0.227  12.507  0.6140 -0.1082 -0.0540
  360TMC3     O 5446   3.645   0.277  12.579 -0.1446 -0.0982 -0.1194
  360TMC3     H 5447   3.727   0.387  12.396 -1.1836  1.1728 -1.0091
  360TMC3    H1 5448   3.409   0.123  12.311 -1.0012  0.8739  0.6896
  360TMC3    H2 5449   3.612   0.285  11.993 -0.9665  1.6546 -0.1771
  360TMC3    C7 5450   3.432   0.139  12.046 -0.4175  0.3954 -0.2961
  360TMC3    C8 5451   3.761   0.463  12.151 -0.7756  0.0306 -0.2438
  360TMC3    O1 5452   3.475   0.079  11.950  0.1995  0.2492  0.1208
  360TMC3    O2 5453   3.778   0.545  12.243 -0.0940 -0.0914 -0.1648
  361MPD2     C 5454   0.077   3.488  16.599  0.4322 -0.0472  1.0393
  361MPD2    C1 5455   0.078   3.589  16.691  0.2184 -0.0763 -0.2890
  361MPD2    C2 5456   0.140   3.570  16.813 -0.3595  1.1683  0.0706
  361MPD2    C3 5457   0.192   3.447  16.847 -0.3668 -0.3520  0.5939
  361MPD2    C4 5458   0.198   3.350  16.749 -1.0621 -0.3294 -0.7076
  361MPD2    C5 5459   0.138   3.371  16.626  0.6315 -0.5134 -1.0454
  361MPD2     H 5460   0.142   3.654  16.882 -0.2740  1.2800 -0.0671
  361MPD2    H1 5461   0.241   3.253  16.771  0.5611  0.8256  1.2216
  361MPD2    H2 5462   0.032   3.488  16.501  1.2826 -1.3175  0.6508
  361MPD2    H3 5463   0.130   3.292  16.552 -1.8961  1.0380 -2.4310
  361MPD2     N 5464   0.236   3.420  16.980 -0.6768  0.5465  0.1567
  361MPD2    H5 5465   0.276   3.329  16.999 -0.5066  0.4377 -0.7654
  361MPD2    N1 5466   0.015   3.713  16.671  0.2286 -0.6779 -0.1043
  361MPD2    H7 5467   0.029   3.787  16.739 -1.4274 -0.5385  0.0846
  362TMC3    C1 5468   4.622   3.882  16.565  0.3704  0.3119 -0.1988
  362TMC3    C2 5469   4.667   3.961  16.661 -0.2635  1.0140  0.1053
  362TMC3    C3 5470   4.597   4.081  16.685  0.0289 -1.1900  0.1585
  362TMC3    C4 5471   4.519   3.912  16.485 -0.0194  0.5638  0.5344
  362TMC3    C5 5472   4.448   4.027  16.516  0.0427 -0.1300  0.6272
  362TMC3    C6 5473   4.481   4.113  16.619  0.2043 -0.3725 -0.5726
  362TMC3     C 5474   4.687   3.754  16.551  0.0097  0.2137  0.4930
  362TMC3     O 5475   4.640   3.682  16.461  0.4443 -0.1732  0.2535
  362TMC3     H 5476   0.027   3.943  16.710 -0.5667 -1.8188 -0.3467
  362TMC3    H1 5477   4.506   3.847  16.399  3.0927  1.8662 -0.9268
  362TMC3    H2 5478   4.432   4.207  16.643 -0.8123 -1.3416  1.1833
  362TMC3    C7 5479   4.364   4.095  16.419  0.5237  0.4451 -1.0236
  362TMC3    C8 5480   4.644   4.156  16.800 -0.4640  0.8527 -0.3044
  362TMC3    O1 5481   4.337   4.213  16.440 -0.8479 -0.2217 -0.0926
  362TMC3    O2 5482   0.005   4.113  16.859 -0.0570  0.2929  0.3637
  363TMC3    C1 5483   3.932   2.942   9.760 -0.6505  0.3235  1.1456
  363TMC3    C2 5484   4.013   2.833   9.757  0.9840 -0.7269  0.5438
  363TMC3    C3 5485   3.962   2.714   9.799  0.2102  0.5836 -0.1222
  363TMC3    C4 5486   3.794   2.927   9.783  0.1139 -0.1903  0.7510
  363TMC3    C5 5487   3.750   2.802   9.809  0.1367  0.3027  0.1786
  363TMC3    C6 5488   3.825   2.691   9.815 -0.5224 -0.0982  0.1618
  363TMC3     C 5489   3.995   3.069   9.716 -0.1710  0.2788 -0.5117
  363TMC3     O 5490   4.115   3.063   9.686 -0.8012 -0.3001  0.1650
  363TMC3     H 5491   4.120   2.837   9.740  0.8109 -1.4948 -0.6662
  363TMC3    H1 5492   3.728   3.009   9.810 -0.4852 -1.0797  1.9813
  363TMC3    H2 5493   3.778   2.594   9.819 -0.4827 -0.0106  2.8654
  363TMC3    C7 5494   3.611   2.776   9.839  0.7199 -0.1192  1.1783
  363TMC3    C8 5495   4.043   2.599   9.766 -0.2523  0.0197  0.3789
  363TMC3    O1 5496   3.534   2.861   9.786 -0.9275  0.5013  0.0764
  363TMC3    O2 5497   4.132   2.612   9.679 -0.4328 -0.3643  0.4463
  364MPD2     C 5498   2.450   1.065  10.213 -0.1011  0.3021  0.2935
  364MPD2    C1 5499   2.415   1.093  10.341  0.2280 -0.5051  0.0357
  364MPD2    C2 5500   2.381   0.986  10.430  0.2360  0.2193  0.0069
  364MPD2    C3 5501   2.368   0.855  10.390 -0.5541 -0.6129  0.3667
  364MPD2    C4 5502   2.397   0.831  10.256 -0.8047 -0.1963 -0.2349
  364MPD2    C5 5503   2.443   0.932  10.176  0.1794  0.4567  0.4481
  364MPD2     H 5504   2.347   1.011  10.529 -0.8768 -0.4717 -0.1987
  364MPD2    H1 5505   2.388   0.726  10.229  0.0403 -0.6280  1.1336
  364MPD2    H2 5506   2.491   1.126  10.134  0.5542 -1.6036 -0.8405
  364MPD2    H3 5507   2.469   0.920  10.071 -0.6982  0.2649  0.2442
  364MPD2     N 5508   2.347   0.757  10.484 -0.2471 -0.0735  0.6752
  364MPD2    H5 5509   2.349   0.788  10.581 -0.1364 -0.1365  0.6933
  364MPD2    N1 5510   2.417   1.227  10.385 -0.6187 -0.5106 -0.7229
  364MPD2    H7 5511   2.438   1.305  10.324 -2.2030 -1.2739 -2.2404
  365TMC3    C1 5512   2.406   1.404  10.536 -0.2989  0.5686 -0.6510
  365TMC3    C2 5513   2.491   1.483  10.469  0.1047  0.0450  1.0522
  365TMC3    C3 5514   2.490   1.617  10.497  0.1424 -0.7187  0.2088
  365TMC3    C4 5515   2.341   1.442  10.646  0.0195 -0.2234  0.8727
  365TMC3    C5 5516   2.345   1.577  10.674  0.4445 -0.1476  0.5604
  365TMC3    C6 5517   2.431   1.666  10.607  0.0428  0.5296 -0.5075
  365TMC3     C 5518   2.404   1.261  10.515  0.7408 -0.4841 -0.0371
  365TMC3     O 5519   2.391   1.196  10.617 -1.1981  0.2199 -0.1898
  365TMC3     H 5520   2.563   1.445  10.397 -1.4663  0.8377 -0.9347
  365TMC3    H1 5521   2.260   1.374  10.671 -0.1402 -0.7074 -0.8869
  365TMC3    H2 5522   2.410   1.772  10.614 -1.0779  0.3150 -0.6002
  365TMC3    C7 5523   2.281   1.622  10.791 -0.3565 -0.5577  0.3290
  365TMC3    C8 5524   2.548   1.708  10.405 -0.6548  0.2293 -0.2719
  365TMC3    O1 5525   2.297   1.734  10.829 -0.2117 -0.6453 -0.1550
  365TMC3    O2 5526   2.576   1.816  10.449 -0.1460  0.1987  0.9198
  366MPD2     C 5527   4.435   2.542  15.691  0.9655 -0.6383 -0.4279
  366MPD2    C1 5528   4.522   2.528  15.593  0.7929  0.1498  0.1414
  366MPD2    C2 5529   4.512   2.424  15.509 -0.7663  0.6764  0.3720
  366MPD2    C3 5530   4.408   2.335  15.519 -0.5260  0.1140 -0.1777
  366MPD2    C4 5531   4.316   2.350  15.610 -0.4214 -0.8468  0.5420
  366MPD2    C5 5532   4.325   2.456  15.699  0.3734  0.1228  0.1251
  366MPD2     H 5533   4.583   2.407  15.429  0.2280  1.0783  1.1596
  366MPD2    H1 5534   4.233   2.280  15.619  1.3240 -2.9737  0.0608
  366MPD2    H2 5535   4.452   2.612  15.771  1.6233  1.4115 -2.3571
  366MPD2    H3 5536   4.253   2.457  15.780  2.4115 -0.2473  1.9123
  366MPD2     N 5537   4.406   2.225  15.425 -1.0944 -0.7163 -0.3891
  366MPD2    H5 5538   4.487   2.221  15.364  0.6808 -1.4053  1.9979
  366MPD2    N1 5539   4.636   2.604  15.573 -0.1516  0.5116 -0.1237
  366MPD2    H7 5540   4.696   2.578  15.495  0.5694  0.7342  0.3572
  367TMC3    C1 5541   0.028   2.788  15.528 -0.3330  0.4524  0.1983
  367TMC3    C2 5542   0.157   2.741  15.534 -0.5048 -0.1277  0.0034
  367TMC3    C3 5543   0.255   2.814  15.473  0.3995 -0.1014 -0.3792
  367TMC3    C4 5544   4.723   2.892  15.448  1.0163  0.6088  0.3048
  367TMC3    C5 5545   0.087   2.940  15.365  0.2077 -0.0589  0.4820
  367TMC3    C6 5546   0.223   2.912  15.383 -0.4472 -0.0619 -0.3886
  367TMC3     C 5547   4.650   2.731  15.607 -0.2306 -0.2019  0.3074
  367TMC3     O 5548   4.563   2.804  15.648 -0.6527  0.2809 -0.0347
  367TMC3     H 5549   0.180   2.687  15.624  1.9868  2.7482  1.1058
  367TMC3    H1 5550   4.617   2.909  15.433  0.7701 -1.3929 -0.1842
  367TMC3    H2 5551   0.297   2.962  15.322 -2.1848  0.0849 -2.3782
  367TMC3    C7 5552   0.039   3.004  15.242 -0.0395  0.3471 -0.1114
  367TMC3    C8 5553   0.377   2.821  15.546 -0.5960  0.3588  0.4353
  367TMC3    O1 5554   4.657   3.035  15.245 -0.1975  0.2589 -0.2161
  367TMC3    O2 5555   0.403   2.723  15.609 -0.1415  0.2926 -0.3132
  368MPD2     C 5556   1.764   3.741  13.332  0.2845 -0.3807  0.9883
  368MPD2    C1 5557   1.790   3.878  13.336 -0.4207  0.0097  0.1228
  368MPD2    C2 5558   1.924   3.917  13.348 -0.0669  0.0491  0.9357
  368MPD2    C3 5559   2.022   3.816  13.347 -0.5335  0.1622  0.3627
  368MPD2    C4 5560   1.985   3.681  13.341  0.7757  0.7388  0.0910
  368MPD2    C5 5561   1.856   3.642  13.337  0.5007 -0.4730 -0.1345
  368MPD2     H 5562   1.948   4.020  13.375  1.1759 -0.3000  1.1488
  368MPD2    H1 5563   2.062   3.605  13.333 -0.0959  0.1191 -2.2725
  368MPD2    H2 5564   1.662   3.706  13.316  0.9961 -2.6617  1.5454
  368MPD2    H3 5565   1.831   3.536  13.337  2.0798 -0.8458  0.2821
  368MPD2     N 5566   2.159   3.834  13.346  1.0664  0.1196  0.2197
  368MPD2    H5 5567   2.219   3.751  13.347 -0.0504 -0.6654  1.9154
  368MPD2    N1 5568   1.686   3.965  13.311  0.0447  0.4297 -0.0493
  368MPD2    H7 5569   1.598   3.925  13.281  0.8829  0.9116 -3.1180
  369TMC3    C1 5570   1.570   4.156  13.268 -0.1160  0.7099  0.9076
  369TMC3    C2 5571   1.598   4.267  13.200 -0.2783  0.5721 -0.0509
  369TMC3    C3 5572   1.498   4.317  13.120  0.0744 -0.3147 -0.1081
  369TMC3    C4 5573   1.446   4.096  13.274  0.4893  0.0167 -0.0028
  369TMC3    C5 5574   1.349   4.154  13.195 -0.6108 -0.2386 -0.3081
  369TMC3    C6 5575   1.372   4.262  13.117 -0.2465  0.7801  0.1780
  369TMC3     C 5576   1.686   4.098  13.331  0.4823  0.0460 -0.4436
  369TMC3     O 5577   1.773   4.180  13.364 -0.8763  0.2058  0.4197
  369TMC3     H 5578   1.702   4.298  13.196 -0.3311  0.9577  1.4217
  369TMC3    H1 5579   1.423   4.011  13.336 -1.7826 -0.0929 -0.9932
  369TMC3    H2 5580   1.302   4.290  13.040 -0.6872  2.1048  1.0611
  369TMC3    C7 5581   1.213   4.101  13.219  0.3913 -0.7582 -0.9347
  369TMC3    C8 5582   1.526   4.403  13.003  0.2017  0.0328 -0.4226
  369TMC3    O1 5583   1.198   3.986  13.260 -0.4134  0.4626  0.3836
  369TMC3    O2 5584   1.431   4.454  12.947 -0.5516  0.3508 -0.3607
  370TMC3    C1 5585   1.185   4.494  16.133 -0.2826 -0.1284  0.3113
  370TMC3    C2 5586   1.089   4.461  16.228 -0.1565  0.5856  0.4177
  370TMC3    C3 5587   1.008   4.357  16.199  0.7253 -0.7790  0.0570
  370TMC3    C4 5588   1.191   4.432  16.011 -0.2597  0.3872 -0.2216
  370TMC3    C5 5589   1.108   4.320  15.993 -1.3727  0.2225  0.0043
  370TMC3    C6 5590   1.012   4.284  16.085  0.1204 -0.5804 -0.1435
  370TMC3     C 5591   1.268   4.610  16.159 -0.1304 -0.0150  0.2715
  370TMC3     O 5592   1.294   4.631  16.281  0.0489 -0.1817  0.7485
  370TMC3     H 5593   1.087   4.506  16.327  3.4692 -1.2301  1.3031
  370TMC3    H1 5594   1.262   4.472  15.939  1.7062 -0.9413  0.9702
  370TMC3    H2 5595   0.959   4.190  16.077 -0.8845  0.0032 -0.2893
  370TMC3    C7 5596   1.137   4.239  15.869  0.3809  0.3142  0.3162
  370TMC3    C8 5597   0.909   4.309  16.300 -0.6551 -0.9151  0.4308
  370TMC3    O1 5598   1.181   4.299  15.773  0.1952  0.2202  0.1491
  370TMC3    O2 5599   0.853   4.204  16.283 -0.2680  0.6444 -0.1855
  371TMC3    C1 5600   2.388   2.811  15.457  0.3687 -0.5724  0.1936
  371TMC3    C2 5601   2.269   2.796  15.527  0.1598 -0.3250  0.0006
  371TMC3    C3 5602   2.197   2.910  15.556 -0.0325 -0.0004  0.9802
  371TMC3    C4 5603   2.428   2.936  15.413 -0.6077 -0.0731 -0.0055
  371TMC3    C5 5604   2.346   3.049  15.439  0.4117  0.6642 -0.2871
  371TMC3    C6 5605   2.231   3.033  15.511 -0.4045 -0.2235 -0.2104
  371TMC3     C 5606   2.472   2.695  15.431 -1.0902  0.4189  0.6314
  371TMC3     O 5607   2.545   2.705  15.333  0.2826 -0.0454  0.2231
  371TMC3     H 5608   2.238   2.704  15.574  3.6816 -1.3464  0.2467
  371TMC3    H1 5609   2.523   2.948  15.363 -1.2565  0.7098 -1.0611
  371TMC3    H2 5610   2.174   3.109  15.563  1.3517  0.5270  0.5849
  371TMC3    C7 5611   2.386   3.178  15.382  0.5834 -0.7051 -0.1944
  371TMC3    C8 5612   2.144   2.897  15.695 -0.2048  0.3818  0.5281
  371TMC3    O1 5613   2.314   3.271  15.409  0.2187 -0.4468 -0.1509
  371TMC3    O2 5614   2.205   2.815  15.770 -0.2511 -0.0928 -0.5310
  372MPD2     C 5615   1.332   4.178  13.620 -0.0248  0.3318  0.5140
  372MPD2    C1 5616   1.460   4.201  13.668  0.1185  0.1589 -0.1231
  372MPD2    C2 5617   1.512   4.124  13.765 -0.6311  0.7368 -0.0875
  372MPD2    C3 5618   1.447   4.010  13.804 -0.4901 -0.2835  0.3326
  372MPD2    C4 5619   1.331   3.974  13.753 -0.5698 -0.1454 -0.1669
  372MPD2    C5 5620   1.273   4.065  13.668  0.1447  0.0947 -0.5582
  372MPD2     H 5621   1.612   4.144  13.802  0.6311 -1.2356 -2.4298
  372MPD2    H1 5622   1.285   3.878  13.775  2.6672 -2.0543 -1.9209
  372MPD2    H2 5623   1.297   4.239  13.537  0.4739  0.6882  0.5597
  372MPD2    H3 5624   1.176   4.037  13.627 -0.1064  0.4066 -0.1733
  372MPD2     N 5625   1.519   3.924  13.891 -0.1797  0.0918 -0.3243
  372MPD2    H5 5626   1.609   3.952  13.929 -0.7338  1.1872  0.1856
  372MPD2    N1 5627   1.542   4.308  13.624  0.4417  0.0760 -0.0351
  372MPD2    H7 5628   1.633   4.319  13.669  0.7684 -0.7676 -0.4837
  373TMC3    C1 5629   1.553   3.774  14.075 -0.0681  0.2672 -0.2708
  373TMC3    C2 5630   1.500   3.745  14.198  1.3013 -0.5268 -0.0492
  373TMC3    C3 5631   1.586   3.692  14.293 -0.5710 -0.0450  0.3385
  373TMC3    C4 5632   1.680   3.744  14.042 -0.5092 -0.2517  0.8607
  373TMC3    C5 5633   1.760   3.685  14.133  0.6001 -0.1965 -0.7552
  373TMC3    C6 5634   1.717   3.649  14.259 -0.3050  0.0062  0.2585
  373TMC3     C 5635   1.460   3.831  13.974  0.6966 -0.7631 -0.4656
  373TMC3     O 5636   1.342   3.803  13.992 -0.1129  0.6565  0.0258
  373TMC3     H 5637   1.394   3.755  14.212  1.3652  0.8770 -0.5580
  373TMC3    H1 5638   1.725   3.757  13.945 -1.5986 -1.1143  0.2380
  373TMC3    H2 5639   1.778   3.602  14.335 -1.5573 -1.1824  0.5429
  373TMC3    C7 5640   1.901   3.677  14.095  0.6449  0.1043  1.3145
  373TMC3    C8 5641   1.506   3.614  14.386 -0.3921  0.1625  0.0317
  373TMC3    O1 5642   1.936   3.647  13.981  0.4026  0.0002  0.1242
  373TMC3    O2 5643   1.413   3.553  14.341 -0.1268  0.2576  0.3267
  374TMC3    C1 5644   2.578   4.504   9.949 -0.5689 -0.7673  0.0566
  374TMC3    C2 5645   2.648   4.620   9.951 -0.0531 -0.0705 -0.1992
  374TMC3    C3 5646   2.614   4.724   9.872 -0.6449  1.0492 -0.8186
  374TMC3    C4 5647   2.482   4.488   9.850 -0.3903 -0.0679  0.1635
  374TMC3    C5 5648   2.458   4.589   9.759  0.5903 -0.2634 -0.0342
  374TMC3    C6 5649   2.517   4.714   9.776  0.6782 -0.0149 -1.0641
  374TMC3     C 5650   2.644   4.392  10.020 -0.3297 -0.1974 -0.0664
  374TMC3     O 5651   2.761   4.408  10.058 -0.3136 -0.6545 -0.1273
  374TMC3     H 5652   2.714   4.642  10.035 -1.1379 -1.0607  0.9180
  374TMC3    H1 5653   2.433   4.393   9.834  0.3770 -0.2219 -1.3535
  374TMC3    H2 5654   2.500   0.064   9.712 -2.0889 -0.0722 -0.3680
  374TMC3    C7 5655   2.371   4.554   9.653 -0.9049  0.3587  0.4028
  374TMC3    C8 5656   2.678   0.121   9.880  0.6063  0.5595  0.4962
  374TMC3    O1 5657   2.313   4.450   9.658 -0.5138 -0.1812 -0.1265
  374TMC3    O2 5658   2.639   0.210   9.808 -0.5040  0.2584  0.0307
  375MPD2     C 5659   2.357   0.203  17.256  0.5451  0.0226  0.9237
  375MPD2    C1 5660   2.246   0.212  17.178 -0.7801 -0.4936  0.1173
  375MPD2    C2 5661   2.260   0.175  17.045 -0.6845  0.0099 -0.0795
  375MPD2    C3 5662   2.380   0.131  16.984  0.3209  0.0022 -0.5216
  375MPD2    C4 5663   2.487   0.121  17.071 -0.8461 -0.5045  0.2581
  375MPD2    C5 5664   2.472   0.157  17.197 -0.4772 -0.4408 -0.3872
  375MPD2     H 5665   2.169   0.183  16.987 -2.1668  2.7386  2.6432
  375MPD2    H1 5666   2.586   0.094  17.037 -1.1515  0.6228 -1.5012
  375MPD2    H2 5667   2.362   0.236  17.359 -0.2653  0.7497  0.7338
  375MPD2    H3 5668   2.558   0.160  17.262  0.7802  0.0278 -2.0813
  375MPD2     N 5669   2.401   0.117  16.847  0.3924 -0.2448  0.2882
  375MPD2    H5 5670   2.491   0.091  16.808  0.7810  2.7815 -0.8378
  375MPD2    N1 5671   2.121   0.243  17.226  0.0103 -0.4097 -0.1430
  375MPD2    H7 5672   2.040   0.233  17.167  0.2034  1.5569 -0.7473
  376TMC3    C1 5673   2.358   0.114  16.611  0.1019  0.0277  0.5544
  376TMC3    C2 5674   2.491   0.086  16.598 -0.8826  0.1328  0.3679
  376TMC3    C3 5675   2.553   0.136  16.481 -0.2993  0.0099  0.0739
  376TMC3    C4 5676   2.279   0.173  16.509  0.3201 -1.0322 -0.0915
  376TMC3    C5 5677   2.341   0.204  16.394 -0.1874  0.0340  0.0106
  376TMC3    C6 5678   2.481   0.197  16.375  1.0859  0.0080  0.1913
  376TMC3     C 5679   2.309   0.138  16.747 -0.4698  0.0039  0.5483
  376TMC3     O 5680   2.199   0.196  16.762 -0.2764  0.2492  0.2213
  376TMC3     H 5681   2.542   0.030  16.676  0.4240 -0.1813 -0.7190
  376TMC3    H1 5682   2.171   0.179  16.509  0.4870  1.6653 -0.5724
  376TMC3    H2 5683   2.529   0.231  16.285 -0.3488 -1.3978 -1.0963
  376TMC3    C7 5684   2.268   0.263  16.282 -0.4679 -0.2265 -0.0433
  376TMC3    C8 5685   2.695   0.145  16.472 -0.0909  0.0319 -0.1343
  376TMC3    O1 5686   2.339   0.285  16.186  0.5136 -0.2635  0.3847
  376TMC3    O2 5687   2.743   0.218  16.388 -0.5001  0.5382 -0.3271
  377MPD2     C 5688   4.694   4.451  13.150 -0.3217 -0.4323 -0.5439
  377MPD2    C1 5689   0.080   4.394  13.175  0.0507  0.5005  0.4907
  377MPD2    C2 5690   0.088   4.316  13.286 -0.0521 -0.3601 -0.3417
  377MPD2    C3 5691   4.711   4.292  13.369  0.1355  1.0518  1.1049
  377MPD2    C4 5692   4.591   4.351  13.335 -0.6666 -0.0205  0.4581
  377MPD2    C5 5693   4.585   4.431  13.227  0.4091 -0.5911  0.0547
  377MPD2     H 5694   0.187   4.281  13.312  0.2401 -0.8923 -2.1563
  377MPD2    H1 5695   4.501   4.353  13.396 -0.6606 -1.8421  0.5190
  377MPD2    H2 5696   4.680   4.514  13.063 -4.5184  2.3599  2.1226
  377MPD2    H3 5697   4.500   4.495  13.206  0.9541 -0.4563 -1.7559
  377MPD2     N 5698   4.713   4.220  13.486  0.4914 -0.1281  0.4312
  377MPD2    H5 5699   4.621   4.194  13.518 -0.3993  0.2596 -1.8373
  377MPD2    N1 5700   0.189   4.415  13.082 -0.0096  0.5560  0.3137
  377MPD2    H7 5701   0.174   4.481  13.006  2.1437  0.2424 -0.3834
  378TMC3    C1 5702   0.444   4.509  12.789 -0.2604 -0.2379 -0.4937
  378TMC3    C2 5703   0.357   4.489  12.894  0.3594  0.4939 -0.8730
  378TMC3    C3 5704   0.364   4.364  12.950 -0.1294 -0.5641  0.5514
  378TMC3    C4 5705   0.532   4.407  12.743  0.2138 -0.2336  0.4159
  378TMC3    C5 5706   0.524   4.284  12.801  0.0295  0.4777 -0.4539
  378TMC3    C6 5707   0.451   4.265  12.911 -0.5593 -1.0610 -0.8250
  378TMC3     C 5708   0.437   4.633  12.719  0.1193  0.2746  0.2588
  378TMC3     O 5709   0.338   4.706  12.731 -0.0685  0.2699  0.0600
  378TMC3     H 5710   0.293   4.573  12.918  1.6393  1.1661  0.1793
  378TMC3    H1 5711   0.584   4.417  12.649 -0.3698  0.4178  0.1667
  378TMC3    H2 5712   0.446   4.165  12.952 -0.7572  0.2176  2.2385
  378TMC3    C7 5713   0.613   4.174  12.763 -0.1049  0.0149  0.7027
  378TMC3    C8 5714   0.296   4.329  13.067 -0.1425 -0.1034  0.2853
  378TMC3    O1 5715   0.580   4.062  12.804 -0.1630  0.3358  0.7321
  378TMC3    O2 5716   0.333   4.225  13.125  0.2511  0.0786  0.0959
  379MPD2     C 5717   1.524   2.787  16.157  0.4495 -0.4446 -0.2269
  379MPD2    C1 5718   1.441   2.721  16.239 -0.6306 -0.6836 -0.0397
  379MPD2    C2 5719   1.483   2.694  16.369  0.0095  0.0114 -0.3343
  379MPD2    C3 5720   1.614   2.713  16.405  0.1860  0.1531 -0.6060
  379MPD2    C4 5721   1.704   2.767  16.312  0.2847  0.9216 -0.5591
  379MPD2    C5 5722   1.655   2.810  16.190 -0.3255 -0.5114  0.0268
  379MPD2     H 5723   1.411   2.651  16.439 -0.9714  0.0317 -1.3252
  379MPD2    H1 5724   1.808   2.780  16.338  0.6704  0.9017 -2.1117
  379MPD2    H2 5725   1.491   2.808  16.056  0.8277  3.7835  0.5437
  379MPD2    H3 5726   1.721   2.843  16.111 -1.2213  3.6857  1.0562
  379MPD2     N 5727   1.657   2.689  16.541  0.0901  0.4655 -0.2701
  379MPD2    H5 5728   1.754   2.711  16.561  0.0833 -0.4982  0.8033
  379MPD2    N1 5729   1.312   2.702  16.188 -0.0564 -0.6970 -0.4468
  379MPD2    H7 5730   1.298   2.739  16.094 -2.2265 -0.6747 -0.0996
  380TMC3    C1 5731   1.074   2.679  16.196 -0.5838  0.5213 -0.3223
  380TMC3    C2 5732   0.971   2.602  16.242 -0.9410 -0.4160  0.3692
  380TMC3    C3 5733   0.851   2.601  16.185  0.3445  0.6148 -0.7221
  380TMC3    C4 5734   1.048   2.782  16.110 -0.0339  0.3997 -0.5285
  380TMC3    C5 5735   0.923   2.784  16.053 -0.3364  0.4810  0.3783
  380TMC3    C6 5736   0.821   2.696  16.084 -0.3413  0.2612  0.9208
  380TMC3     C 5737   1.204   2.654  16.256  0.4733  0.2142  0.2690
  380TMC3     O 5738   1.204   2.591  16.358  0.4499  0.2204  0.1461
  380TMC3     H 5739   0.987   2.532  16.323  1.8726 -1.0166 -0.7156
  380TMC3    H1 5740   1.126   2.858  16.101  0.8211 -0.2716  1.1646
  380TMC3    H2 5741   0.717   2.692  16.057  0.0234  0.7235 -0.5700
  380TMC3    C7 5742   0.903   2.882  15.956  0.5580 -0.1862 -0.1275
  380TMC3    C8 5743   0.742   2.519  16.235 -0.0902 -0.0314 -0.3760
  380TMC3    O1 5744   0.982   2.974  15.946  0.2910  0.5606 -0.5593
  380TMC3    O2 5745   0.637   2.583  16.248  0.7721 -0.0792 -0.2476
  381TMC3    C1 5746   0.675   3.673  16.067 -0.3733  0.1734 -0.3872
  381TMC3    C2 5747   0.804   3.716  16.087 -0.3878  0.1887  0.5184
  381TMC3    C3 5748   0.827   3.824  16.165  0.7159 -0.4053  0.1933
  381TMC3    C4 5749   0.569   3.744  16.120 -0.0864  0.2245 -0.1231
  381TMC3    C5 5750   0.594   3.840  16.215 -0.3494 -0.6051 -0.1253
  381TMC3    C6 5751   0.723   3.891  16.230 -0.5140 -0.4012  0.3315
  381TMC3     C 5752   0.660   3.611  15.934 -0.0015  0.0354  0.2259
  381TMC3     O 5753   0.550   3.553  15.921  0.2268 -0.1907 -0.4576
  381TMC3     H 5754   0.893   3.662  16.055  0.4296  1.3314  0.8750
  381TMC3    H1 5755   0.469   3.713  16.091 -0.0884  0.2598 -0.1527
  381TMC3    H2 5756   0.746   3.979  16.288  0.0158 -0.4840  0.2513
  381TMC3    C7 5757   0.484   3.935  16.224 -0.0260  0.0660 -0.4730
  381TMC3    C8 5758   0.965   3.854  16.204 -0.7729  0.6221 -0.5292
  381TMC3    O1 5759   0.404   3.932  16.131 -0.5495  0.5026  0.3915
  381TMC3    O2 5760   1.051   3.801  16.137  0.0437 -0.0932  0.0229
  382MPD2     C 5761   0.215   1.811  16.865  0.1297 -0.2338  0.2232
  382MPD2    C1 5762   0.275   1.780  16.985  0.2569  0.3357 -0.5230
  382MPD2    C2 5763   0.299   1.644  17.015  0.4569 -0.0068 -0.5191
  382MPD2    C3 5764   0.250   1.542  16.931  0.0699 -0.2331  0.2177
  382MPD2    C4 5765   0.199   1.579  16.808 -0.0973 -0.2582 -0.6014
  382MPD2    C5 5766   0.182   1.710  16.774  0.0457 -0.1089  0.7260
  382MPD2     H 5767   0.329   1.621  17.116 -2.0570  1.1949  0.5066
  382MPD2    H1 5768   0.179   1.500  16.736 -0.8211 -0.7131  0.0887
  382MPD2    H2 5769   0.194   1.914  16.841  1.7604 -0.1052 -0.6183
  382MPD2    H3 5770   0.141   1.742  16.679  1.6929 -2.1131 -0.6737
  382MPD2     N 5771   0.262   1.402  16.960  0.0218 -0.5654  0.0458
  382MPD2    H5 5772   0.218   1.333  16.900  2.2450 -1.5806 -0.4002
  382MPD2    N1 5773   0.310   1.873  17.084  0.1064 -0.2522 -0.0099
  382MPD2    H7 5774   0.343   1.833  17.171  0.7249 -0.9577 -0.5647
  383TMC3    C1 5775   0.306   1.217  17.093 -0.1072 -0.3715  0.2223
  383TMC3    C2 5776   0.192   1.158  17.038  0.6387  0.0309  0.4382
  383TMC3    C3 5777   0.163   1.033  17.077  0.3859 -0.1397  0.1349
  383TMC3    C4 5778   0.398   1.155  17.174 -0.1121  0.4469 -0.1383
  383TMC3    C5 5779   0.373   1.023  17.195 -0.0609  0.7027 -0.4469
  383TMC3    C6 5780   0.261   0.959  17.146 -0.0476 -0.4777 -0.8155
  383TMC3     C 5781   0.329   1.359  17.069 -0.3818 -0.2230 -0.2705
  383TMC3     O 5782   0.419   1.420  17.131 -0.4309 -0.1117 -0.2735
  383TMC3     H 5783   0.120   1.222  16.988  0.0782 -0.5676  0.4974
  383TMC3    H1 5784   0.485   1.204  17.215 -0.1504 -0.7628  1.4283
  383TMC3    H2 5785   0.246   0.855  17.173 -2.8103  0.4128  1.1926
  383TMC3    C7 5786   0.416   0.959  17.320 -0.5858  0.5215 -0.5883
  383TMC3    C8 5787   0.055   0.966  17.011 -0.3788 -0.1929 -0.4978
  383TMC3    O1 5788   0.346   0.875  17.369 -0.4123  0.3416  0.0473
  383TMC3    O2 5789   4.693   1.033  16.975  0.5074 -0.3702 -0.2860
  384MPD2     C 5790   2.006   2.311  12.095 -0.2748 -0.0759  0.5754
  384MPD2    C1 5791   2.011   2.261  12.221  0.1653  0.3156  0.2439
  384MPD2    C2 5792   2.068   2.135  12.244 -0.4968  0.2749 -0.4714
  384MPD2    C3 5793   2.138   2.074  12.145  0.0233 -0.2319  0.2194
  384MPD2    C4 5794   2.153   2.137  12.023 -0.2312 -0.0585 -0.6525
  384MPD2    C5 5795   2.087   2.259  12.002 -0.5846 -0.1732  0.2436
  384MPD2     H 5796   2.049   2.073  12.331  2.6561  2.1641  1.5715
  384MPD2    H1 5797   2.219   2.101  11.945 -0.0764 -2.2954  0.5124
  384MPD2    H2 5798   1.955   2.403  12.070  1.0180  0.0887 -1.4805
  384MPD2    H3 5799   2.111   2.312  11.910 -0.2338 -1.9829 -0.7142
  384MPD2     N 5800   2.190   1.953  12.172 -0.3199  0.4767 -0.4086
  384MPD2    H5 5801   2.160   1.905  12.256 -0.6742 -1.1006 -1.4412
  384MPD2    N1 5802   1.947   2.322  12.336  0.1959 -0.3573 -0.1695
  384MPD2    H7 5803   1.931   2.260  12.414 -0.8341  0.0061 -0.0845
  385TMC3    C1 5804   2.293   1.749  12.172  0.0533 -0.6930  0.0799
  385TMC3    C2 5805   2.248   1.627  12.135 -0.0305  0.5701  0.1156
  385TMC3    C3 5806   2.203   1.540  12.220  0.2706 -0.4096  0.4700
  385TMC3    C4 5807   2.295   1.781  12.307 -0.0072  0.1302 -0.4819
  385TMC3    C5 5808   2.254   1.686  12.395  0.4268  0.7906  0.2406
  385TMC3    C6 5809   2.196   1.568  12.349 -0.1146  0.1061 -0.3766
  385TMC3     C 5810   2.267   1.867  12.092 -0.8522 -0.0060 -0.1678
  385TMC3     O 5811   2.296   1.872  11.969  0.0843 -0.0761 -0.4808
  385TMC3     H 5812   2.269   1.598  12.032  1.1780  0.5059  0.3724
  385TMC3    H1 5813   2.351   1.871  12.330  0.0572  0.0600 -0.3611
  385TMC3    H2 5814   2.143   1.509  12.423  3.6515 -2.9600 -0.0997
  385TMC3    C7 5815   2.174   1.764  12.490 -0.3659 -0.1205  0.1151
  385TMC3    C8 5816   2.193   1.399  12.199 -0.2981  0.7799 -0.1731
  385TMC3    O1 5817   2.105   1.851  12.435 -0.5691  0.4286  0.6038
  385TMC3    O2 5818   2.191   1.331  12.301  0.5059  0.8760  0.5719
  386TMC3    C1 5819   2.317   4.716  11.669  0.4365 -0.0942  0.1479
  386TMC3    C2 5820   2.366   0.065  11.567 -0.2496 -0.3428 -0.6698
  386TMC3    C3 5821   2.280   0.166  11.531 -0.5578 -0.6965  0.4590
  386TMC3    C4 5822   2.202   0.006  11.738 -0.2440  0.8769  0.0441
  386TMC3    C5 5823   2.131   0.124  11.709  0.0270 -0.0099 -0.1063
  386TMC3    C6 5824   2.169   0.197  11.601 -0.5053  0.6280 -0.2246
  386TMC3     C 5825   2.384   4.594  11.696 -0.3075 -0.4200 -0.2065
  386TMC3     O 5826   2.502   4.598  11.657  0.0211 -0.2412 -0.5349
  386TMC3     H 5827   2.464   0.054  11.524 -0.0369  1.0784 -0.5444
  386TMC3    H1 5828   2.162   4.673  11.811  0.3282 -0.8607 -1.3017
  386TMC3    H2 5829   2.105   0.275  11.562 -2.5070 -1.9019 -1.9907
  386TMC3    C7 5830   2.013   0.159  11.778  0.3183  0.2731 -0.3791
  386TMC3    C8 5831   2.307   0.257  11.427  0.1096  0.0058  0.2983
  386TMC3    O1 5832   2.005   0.108  11.890  0.8208 -0.1704 -0.0356
  386TMC3    O2 5833   2.255   0.368  11.444 -0.4620  0.0859  0.1102
  387MPD2     C 5834   4.205   0.599   9.944 -0.5907  0.7494  0.1913
  387MPD2    C1 5835   4.243   0.575  10.074 -0.4840 -0.0342 -1.1871
  387MPD2    C2 5836   4.261   0.442  10.108 -0.0067 -0.0545 -0.1384
  387MPD2    C3 5837   4.213   0.337  10.035  0.5143 -0.3389  0.0829
  387MPD2    C4 5838   4.157   0.362   9.919 -0.3642  0.5420 -0.4039
  387MPD2    C5 5839   4.151   0.490   9.870 -0.2563 -0.9394  0.1735
  387MPD2     H 5840   4.303   0.426  10.206  0.7018 -0.8183 -0.5688
  387MPD2    H1 5841   4.140   0.280   9.851 -0.0417  1.3210 -1.4340
  387MPD2    H2 5842   4.208   0.696   9.896 -0.3205  1.1336  0.9816
  387MPD2    H3 5843   4.114   0.504   9.769  1.3930  1.6803 -0.0786
  387MPD2     N 5844   4.242   0.213  10.086 -0.2339 -0.3711  0.1444
  387MPD2    H5 5845   4.284   0.212  10.179 -1.5821 -0.6464  0.7542
  387MPD2    N1 5846   4.304   0.669  10.161 -0.1454 -0.0697  0.8039
  387MPD2    H7 5847   4.335   0.632  10.250  1.7055 -0.8827 -0.1716
  388TMC3    C1 5848   4.479   0.823  10.194  0.6493 -0.4558 -0.0522
  388TMC3    C2 5849   4.512   0.955  10.224  0.0588 -0.5869 -0.0096
  388TMC3    C3 5850   4.644   0.975  10.256 -0.4263  0.0682  0.0641
  388TMC3    C4 5851   4.576   0.725  10.206  0.4641 -0.4394 -0.5405
  388TMC3    C5 5852   4.707   0.751  10.236  0.1356 -0.2922  0.2364
  388TMC3    C6 5853   0.003   0.882  10.263 -0.1195  0.3634  0.2393
  388TMC3     C 5854   4.353   0.797  10.126 -0.1059 -0.1524 -0.0636
  388TMC3     O 5855   4.301   0.877  10.044  0.4711  0.1620 -0.2444
  388TMC3     H 5856   4.446   1.035  10.192  0.1319  0.3168  2.0767
  388TMC3    H1 5857   4.569   0.634  10.147  2.7707  0.4114 -2.1209
  388TMC3    H2 5858   0.109   0.901  10.275 -0.3076  0.6194  1.4924
  388TMC3    C7 5859   0.058   0.645  10.283 -0.3012 -0.0997 -0.3431
  388TMC3    C8 5860   4.685   1.094  10.330 -0.2952 -0.0334 -0.1893
  388TMC3    O1 5861   0.177   0.662  10.293  0.4455  0.9463 -0.1517
  388TMC3    O2 5862   0.069   1.107  10.346  0.5306 -0.4557  0.1005
  389MPD2     C 5863   3.521   3.434  11.577 -0.6196  0.4711  0.2653
  389MPD2    C1 5864   3.478   3.308  11.522  0.0254  0.5105 -0.7761
  389MPD2    C2 5865   3.417   3.217  11.612  0.6080 -0.2308 -0.0485
  389MPD2    C3 5866   3.412   3.239  11.744  1.1913  0.0613 -0.3975
  389MPD2    C4 5867   3.472   3.355  11.789 -0.5917 -0.2450 -0.0422
  389MPD2    C5 5868   3.523   3.449  11.709 -1.0099 -0.5752 -0.1377
  389MPD2     H 5869   3.372   3.129  11.567  0.0136 -0.9447  1.9549
  389MPD2    H1 5870   3.483   3.387  11.892 -0.7787 -0.5302  0.0697
  389MPD2    H2 5871   3.560   3.515  11.516 -2.7463  2.3052  1.3471
  389MPD2    H3 5872   3.571   3.539  11.747 -1.2831 -0.1241 -0.8642
  389MPD2     N 5873   3.359   3.148  11.839  0.0400  0.1647 -0.1341
  389MPD2    H5 5874   3.350   3.181  11.934 -0.3436  0.2154 -0.1895
  389MPD2    N1 5875   3.499   3.278  11.386  0.9936 -0.2719  0.1445
  389MPD2    H7 5876   3.532   3.362  11.340 -0.4860  1.6977  2.6626
  390TMC3    C1 5877   3.248   2.955  11.914  0.0865 -0.0636 -0.1250
  390TMC3    C2 5878   3.243   2.816  11.912  0.5216  0.2983 -0.0471
  390TMC3    C3 5879   3.188   2.738  12.011  0.7519 -0.6289 -0.3022
  390TMC3    C4 5880   3.204   3.023  12.030  0.3957 -0.0658  0.1860
  390TMC3    C5 5881   3.140   2.935  12.123  0.2263  0.5346 -0.1251
  390TMC3    C6 5882   3.136   2.798  12.121 -0.1788 -0.3243 -0.0852
  390TMC3     C 5883   3.322   3.020  11.811 -0.7339  0.6415  0.1705
  390TMC3     O 5884   3.344   2.949  11.711  0.2920 -0.5674 -0.0082
  390TMC3     H 5885   3.284   2.760  11.828 -0.3608 -0.3704 -0.0332
  390TMC3    H1 5886   3.199   3.131  12.037  2.0864 -0.0561  1.2634
  390TMC3    H2 5887   3.090   2.738  12.199  0.2433  0.2235  0.5789
  390TMC3    C7 5888   3.041   3.013  12.201 -0.1443  0.3789  0.0562
  390TMC3    C8 5889   3.124   2.610  11.972 -0.2518  0.2381 -0.0642
  390TMC3    O1 5890   3.043   3.134  12.191  0.2079 -0.0826  0.3886
  390TMC3    O2 5891   3.099   2.588  11.858  0.2754 -0.4950 -0.1473
  391MPD2     C 5892   3.338   4.691  11.281  0.4162 -0.0920  0.1889
  391MPD2    C1 5893   3.444   0.035  11.233  0.6538  0.9939  0.2609
  391MPD2    C2 5894   3.421   0.096  11.108 -0.3518 -0.2379 -0.0583
  391MPD2    C3 5895   3.308   0.079  11.037 -0.0133  0.0374  1.1259
  391MPD2    C4 5896   3.209   0.001  11.089 -0.2839  0.0405  0.7624
  391MPD2    C5 5897   3.224   4.673  11.209 -0.1807 -0.3202  0.2170
  391MPD2     H 5898   3.493   0.163  11.062 -1.8701  1.3450 -0.1138
  391MPD2    H1 5899   3.116   4.721  11.035  0.6349 -2.2809 -0.1376
  391MPD2    H2 5900   3.345   4.640  11.376 -0.9968 -1.5617 -0.5008
  391MPD2    H3 5901   3.144   4.608  11.244 -1.6738  0.6168 -1.4777
  391MPD2     N 5902   3.307   0.133  10.911  0.2355  0.3847  0.4114
  391MPD2    H5 5903   3.390   0.188  10.891 -0.0365  0.6880  0.1285
  391MPD2    N1 5904   3.553   0.069  11.315 -0.7214  0.5917 -0.0769
  391MPD2    H7 5905   3.536   0.069  11.415  1.5119 -1.4614  0.3094
  392TMC3    C1 5906   3.260   0.191  10.687  0.5953  0.0926  0.1273
  392TMC3    C2 5907   3.210   0.146  10.573  0.9109 -0.1694 -0.8742
  392TMC3    C3 5908   3.236   0.216  10.458 -0.5719 -0.4004  0.1571
  392TMC3    C4 5909   3.343   0.301  10.696 -0.2836  0.1236  0.1863
  392TMC3    C5 5910   3.354   0.379  10.585  0.5663  0.2158 -0.4979
  392TMC3    C6 5911   3.303   0.339  10.464 -0.0347  0.0208  0.0518
  392TMC3     C 5912   3.211   0.128  10.808  0.0819  0.7887 -0.3230
  392TMC3     O 5913   3.111   0.059  10.797  0.2675 -0.2306  0.5091
  392TMC3     H 5914   3.154   0.054  10.567  2.0505 -0.8784 -0.6070
  392TMC3    H1 5915   3.393   0.335  10.786 -0.9534  1.5834  0.0068
  392TMC3    H2 5916   3.322   0.400  10.377 -0.8713  1.6982  1.0438
  392TMC3    C7 5917   3.410   0.507  10.602  0.1190 -0.5170  0.1867
  392TMC3    C8 5918   3.137   0.178  10.351 -0.3126  0.5289  0.6183
  392TMC3    O1 5919   3.409   0.564  10.706 -0.1325  0.3133 -0.0844
  392TMC3    O2 5920   3.068   0.075  10.355 -0.5410 -0.6113  0.6260
  393TMC3    C1 5921   1.936   2.596  10.645 -0.1266 -0.4423 -0.2230
  393TMC3    C2 5922   1.830   2.519  10.627  0.1987  0.0858 -0.3110
  393TMC3    C3 5923   1.810   2.403  10.699 -0.3078 -0.9098  0.5235
  393TMC3    C4 5924   2.029   2.543  10.737 -0.0235  0.4383 -0.3834
  393TMC3    C5 5925   2.011   2.431  10.808  0.5420  0.2242 -0.5518
  393TMC3    C6 5926   1.899   2.358  10.790  0.7113 -0.1227 -0.1769
  393TMC3     C 5927   1.953   2.709  10.565  0.3917  0.2226 -0.0950
  393TMC3     O 5928   1.877   2.720  10.469 -0.5433 -0.2735 -0.0376
  393TMC3     H 5929   1.769   2.543  10.540 -0.4623  1.9753  0.6717
  393TMC3    H1 5930   2.127   2.590  10.750 -1.2455  3.3091 -1.5454
  393TMC3    H2 5931   1.873   2.281  10.863  1.4174  0.0111  0.2224
  393TMC3    C7 5932   2.129   2.354  10.837 -0.2269 -0.2391 -0.5663
  393TMC3    C8 5933   1.675   2.350  10.695  0.3456 -0.4759 -1.4056
  393TMC3    O1 5934   2.145   2.250  10.774  0.0375  0.4764  0.2525
  393TMC3    O2 5935   1.657   2.238  10.731  0.3922  0.3555  0.4655
  394TMC3    C1 5936   3.482   3.180  11.176 -0.5961  0.0523  0.4100
  394TMC3    C2 5937   3.392   3.127  11.094  0.5996  0.1396 -0.1451
  394TMC3    C3 5938   3.417   3.138  10.958 -0.2396  0.2747  0.0743
  394TMC3    C4 5939   3.601   3.231  11.132  0.2888 -0.2681 -0.1170
  394TMC3    C5 5940   3.616   3.251  10.999 -0.4702 -0.1100  0.4396
  394TMC3    C6 5941   3.531   3.198  10.906  0.4144 -0.3111  0.2317
  394TMC3     C 5942   3.436   3.178  11.313  0.5064 -0.2295  0.5873
  394TMC3     O 5943   3.349   3.097  11.356 -0.0908 -0.2837 -0.1365
  394TMC3     H 5944   3.299   3.082  11.129  0.6427 -1.1523 -1.6925
  394TMC3    H1 5945   3.669   3.269  11.208  0.7920 -0.1934 -0.6058
  394TMC3    H2 5946   3.551   3.195  10.800  2.3133 -1.9138  0.6478
  394TMC3    C7 5947   3.701   3.357  10.940  0.0607  0.2539  1.2042
  394TMC3    C8 5948   3.309   3.097  10.870  0.5780  0.1254  0.3036
  394TMC3    O1 5949   3.652   3.416  10.844  0.1307 -0.7701  0.2770
  394TMC3    O2 5950   3.208   3.065  10.924 -0.2905  0.9775  0.0143
  395TMC3    C1 5951   3.984   0.123  14.775 -0.1675  0.5496 -0.4861
  395TMC3    C2 5952   3.934   0.113  14.653 -0.2654 -0.2202  0.0117
  395TMC3    C3 5953   3.962   0.220  14.569 -0.4901 -0.3249  0.1592
  395TMC3    C4 5954   4.047   0.241  14.830 -0.0602 -0.9729 -0.7681
  395TMC3    C5 5955   4.065   0.342  14.736  0.6077  0.0748  0.3055
  395TMC3    C6 5956   4.029   0.331  14.607 -0.0322  0.4942  0.1322
  395TMC3     C 5957   3.899   0.055  14.883  0.4884 -0.7133  1.1854
  395TMC3     O 5958   3.893   0.122  14.984  0.0082  0.4027 -0.3091
  395TMC3     H 5959   3.879   0.026  14.618 -1.4620  1.0206 -1.1951
  395TMC3    H1 5960   4.076   0.249  14.934 -3.7843  1.4314  0.0954
  395TMC3    H2 5961   4.047   0.414  14.540 -2.6004  0.9436  0.0357
  395TMC3    C7 5962   4.133   0.462  14.765 -0.2330  0.3840 -0.2196
  395TMC3    C8 5963   3.880   0.222  14.456  0.1829  0.4156 -1.1071
  395TMC3    O1 5964   4.091   0.542  14.846 -0.2663  0.1827  1.2489
  395TMC3    O2 5965   3.777   0.151  14.464  0.4493  0.4660  0.4845
  396MPD2     C 5966   3.379   1.059  17.059 -0.1866 -0.2714  0.2119
  396MPD2    C1 5967   3.505   1.114  17.086  0.3015 -0.3740 -0.1047
  396MPD2    C2 5968   3.546   1.226  17.021 -0.0083  0.0819 -0.5695
  396MPD2    C3 5969   3.458   1.306  16.951 -0.9768 -0.3102 -0.4433
  396MPD2    C4 5970   3.327   1.258  16.929 -0.3941 -0.3688 -0.2293
  396MPD2    C5 5971   3.295   1.133  16.984 -0.9519  0.2137  0.1685
  396MPD2     H 5972   3.648   1.257  17.037 -0.3638  1.3459 -0.7424
  396MPD2    H1 5973   3.260   1.312  16.863  0.8352  2.3677  0.7746
  396MPD2    H2 5974   3.350   0.960  17.092 -2.4903 -0.2555 -1.8020
  396MPD2    H3 5975   3.201   1.091  16.952 -1.7475  3.3402 -1.5979
  396MPD2     N 5976   3.498   1.427  16.897 -0.2333  0.4980 -0.2699
  396MPD2    H5 5977   3.592   1.461  16.918  0.3937 -0.1512 -2.0796
  396MPD2    N1 5978   3.590   1.028  17.169  0.2107 -0.4166  0.2584
  396MPD2    H7 5979   3.551   0.937  17.189  0.5334 -0.6972 -0.3915
  397TMC3    C1 5980   3.792   0.949  17.275  0.2852 -0.2601 -0.0984
  397TMC3    C2 5981   3.895   0.927  17.190 -0.5495 -0.2530  0.2999
  397TMC3    C3 5982   3.891   0.816  17.113  0.0438 -0.8287  0.0776
  397TMC3    C4 5983   3.713   0.847  17.325 -0.2526 -0.7330  0.1164
  397TMC3    C5 5984   3.734   0.724  17.265  0.1506 -0.4965  0.6510
  397TMC3    C6 5985   3.819   0.705  17.159 -0.3159  0.4555 -0.6833
  397TMC3     C 5986   3.714   1.065  17.219 -0.3741 -0.5206 -0.3161
  397TMC3     O 5987   3.789   1.161  17.204 -0.1249 -0.2857  0.0189
  397TMC3     H 5988   3.940   1.017  17.149 -0.4442 -0.5114 -0.1421
  397TMC3    H1 5989   3.655   0.852  17.417  0.6026  0.6699  0.5694
  397TMC3    H2 5990   3.827   0.613  17.102 -1.3578  0.4014 -0.7412
  397TMC3    C7 5991   3.671   0.598  17.317 -0.6295 -0.5436  0.9528
  397TMC3    C8 5992   3.860   0.831  16.972 -0.3628 -0.4506 -0.6166
  397TMC3    O1 5993   3.673   0.507  17.236  0.1941  0.5366 -0.0299
  397TMC3    O2 5994   3.761   0.771  16.935  0.6498 -0.1029 -0.5777
  398MPD2     C 5995   1.309   2.907   0.166 -0.8375 -0.6623  0.2427
  398MPD2    C1 5996   1.421   2.837   0.206  0.1359 -0.2193 -0.1185
  398MPD2    C2 5997   1.520   2.902   0.271  0.0166 -0.0695  0.4023
  398MPD2    C3 5998   1.506   3.036   0.318 -0.3753  0.4123  0.5742
  398MPD2    C4 5999   1.390   3.104   0.278  0.3331 -0.5448  0.2700
  398MPD2    C5 6000   1.297   3.038   0.199  0.1265 -0.1487  0.0246
  398MPD2     H 6001   1.609   2.842   0.286 -0.3731 -0.5161  0.9321
  398MPD2    H1 6002   1.389   3.211   0.292  0.7594 -0.3362 -1.2687
  398MPD2    H2 6003   1.226   2.861   0.113 -0.6358 -0.6646 -0.0691
  398MPD2    H3 6004   1.216   3.092   0.153  1.4402  2.5502  0.8930
  398MPD2     N 6005   1.620   3.094   0.375 -0.5154  0.6829 -0.8002
  398MPD2    H5 6006   1.701   3.036   0.394 -0.0468  1.4197 -0.5695
  398MPD2    N1 6007   1.454   2.697   0.189  0.2643 -0.2058 -0.1969
  398MPD2    H7 6008   1.541   2.667   0.231 -0.2904 -0.5593  0.6891
  399TMC3    C1 6009   1.446   2.474   0.124  0.1949  0.4543 -0.1740
  399TMC3    C2 6010   1.564   2.445   0.192  0.3988  0.1794  0.1332
  399TMC3    C3 6011   1.630   2.333   0.163 -0.2731 -1.3964  0.1310
  399TMC3    C4 6012   1.389   2.387   0.029 -0.0586 -0.1260 -0.0130
  399TMC3    C5 6013   1.451   2.267   0.028  0.2718  0.1107 -0.6723
  399TMC3    C6 6014   1.577   2.246   0.070 -0.2423 -0.6328  0.3957
  399TMC3     C 6015   1.379   2.601   0.138  0.6011 -1.1354 -0.4222
  399TMC3     O 6016   1.274   2.614   0.082  0.3258 -0.0506 -0.5888
  399TMC3     H 6017   1.599   2.503   0.277 -2.5317 -0.2334  1.6458
  399TMC3    H1 6018   1.288   2.400  17.735  0.4337 -1.0475 -1.7441
  399TMC3    H2 6019   1.623   2.150   0.049 -1.3011 -1.0203 -0.1387
  399TMC3    C7 6020   1.414   2.173  17.664 -0.0592 -0.0826 -0.4229
  399TMC3    C8 6021   1.735   2.279   0.249 -0.4058 -1.0312 -0.2529
  399TMC3    O1 6022   1.454   2.057  17.667 -0.1571 -0.4241 -0.0679
  399TMC3    O2 6023   1.755   2.160   0.248 -0.6022  0.1831 -0.1662
  400TMC3    C1 6024   0.090   0.801  16.447 -0.2345  0.9511 -0.2099
  400TMC3    C2 6025   4.716   0.721  16.410 -0.1292 -0.7189 -0.5262
  400TMC3    C3 6026   4.591   0.788  16.405 -0.0609 -0.0653 -0.5000
  400TMC3    C4 6027   0.075   0.936  16.458  0.2280 -0.8306  0.1898
  400TMC3    C5 6028   4.691   0.996  16.425  0.7844  0.1942  0.1363
  400TMC3    C6 6029   4.572   0.925  16.412 -0.4288 -0.1768 -0.1559
  400TMC3     C 6030   0.178   0.729  16.543  0.5410 -0.4628  0.4815
  400TMC3     O 6031   0.193   0.609  16.539  0.0968  0.1295  0.6134
  400TMC3     H 6032   4.717   0.612  16.410 -0.3775 -0.6957  3.4169
  400TMC3    H1 6033   0.157   1.001  16.486 -0.2438  0.0575 -0.4659
  400TMC3    H2 6034   4.481   0.984  16.408 -2.3261 -3.0036  1.4354
  400TMC3    C7 6035   4.686   1.128  16.481 -0.2033  0.8564  0.0824
  400TMC3    C8 6036   4.463   0.720  16.377 -0.6056  0.1549 -0.3655
  400TMC3    O1 6037   0.001   1.145  16.591  0.5420 -0.1481  0.0953
  400TMC3    O2 6038   4.365   0.790  16.380  0.3220  0.8556 -0.3112
  401MPD2     C 6039   3.301   4.686   1.270 -0.5465  0.1188 -0.1920
  401MPD2    C1 6040   3.389   4.605   1.194 -0.3247 -0.1429 -0.2449
  401MPD2    C2 6041   3.339   4.495   1.128 -0.0147 -0.1482  0.2528
  401MPD2    C3 6042   3.203   4.471   1.111  0.5917 -0.1869 -0.3186
  401MPD2    C4 6043   3.117   4.563   1.170 -0.5532  0.5426 -0.1013
  401MPD2    C5 6044   3.172   4.657   1.258  0.9639  0.1861 -0.0141
  401MPD2     H 6045   3.403   4.423   1.078  1.3417  0.7772  0.6601
  401MPD2    H1 6046   3.010   4.551   1.179 -0.4928  0.1627  0.1067
  401MPD2    H2 6047   3.334   0.029   1.337  0.6441 -0.6748  0.1726
  401MPD2    H3 6048   3.103   4.711   1.322  1.5289  0.9326 -0.0486
  401MPD2     N 6049   3.154   4.353   1.047 -0.2387  0.0559  0.0440
  401MPD2    H5 6050   3.224   4.286   1.016 -0.5940 -1.4086  2.3753
  401MPD2    N1 6051   3.528   4.631   1.193 -0.5609 -0.0242 -0.9775
  401MPD2    H7 6052   3.588   4.575   1.134 -0.7444 -0.4276 -0.7845
  402TMC3    C1 6053   3.015   4.198   0.949  0.0273 -0.0402  0.0691
  402TMC3    C2 6054   3.087   4.099   1.004 -0.1469 -0.0796 -0.2872
  402TMC3    C3 6055   3.038   3.967   1.005  0.1309  0.2316 -0.6383
  402TMC3    C4 6056   2.892   4.173   0.893  0.6812 -0.2057  0.5559
  402TMC3    C5 6057   2.848   4.039   0.899 -0.1528  0.6294  0.1143
  402TMC3    C6 6058   2.917   3.934   0.953 -0.5762 -0.2138 -0.1168
  402TMC3     C 6059   3.023   4.323   1.020  0.3897  0.3994 -0.2208
  402TMC3     O 6060   2.919   4.383   1.060  0.1873 -0.1095  0.1083
  402TMC3     H 6061   3.183   4.113   1.053 -0.1704 -1.1850  0.0754
  402TMC3    H1 6062   2.844   4.260   0.850 -1.2543 -1.5548 -0.0105
  402TMC3    H2 6063   2.870   3.839   0.929  1.1099 -0.9352 -0.5757
  402TMC3    C7 6064   2.714   4.006   0.852 -0.1604  1.1743 -0.3308
  402TMC3    C8 6065   3.120   3.869   1.061 -0.5536 -0.7189  0.2579
  402TMC3    O1 6066   2.665   4.097   0.790 -0.3155 -0.1143 -0.0463
  402TMC3    O2 6067   3.241   3.882   1.056  0.0957 -0.1742  0.5283
  403MPD2     C 6068   0.594   2.263  13.572 -0.0170  0.1451  0.3430
  403MPD2    C1 6069   0.714   2.241  13.522 -0.2867  0.1807 -0.1413
  403MPD2    C2 6070   0.827   2.284  13.591 -0.3279 -0.0217 -0.2711
  403MPD2    C3 6071   0.819   2.341  13.721 -1.0188  0.0500  0.2311
  403MPD2    C4 6072   0.693   2.365  13.764 -0.1131 -0.1466 -0.6720
  403MPD2    C5 6073   0.576   2.326  13.692 -0.0939 -0.5292 -0.3489
  403MPD2     H 6074   0.928   2.252  13.567  0.2002 -0.4319  2.4319
  403MPD2    H1 6075   0.671   2.401  13.863  1.3791 -0.4483 -0.2274
  403MPD2    H2 6076   0.505   2.223  13.525 -0.1252  0.7755  0.0087
  403MPD2    H3 6077   0.477   2.336  13.736  0.9520  0.9534  1.6487
  403MPD2     N 6078   0.933   2.387  13.789  0.2044  0.5509 -0.9639
  403MPD2    H5 6079   1.023   2.353  13.757  0.6173  0.8962 -0.1836
  403MPD2    N1 6080   0.723   2.156  13.404  0.5345 -0.9349  0.2376
  403MPD2    H7 6081   0.634   2.124  13.368  0.0484 -0.4893  1.0311
  404TMC3    C1 6082   0.812   2.014  13.243  0.0054  0.1165  0.2377
  404TMC3    C2 6083   0.796   1.891  13.301  0.2678  0.4004 -0.1706
  404TMC3    C3 6084   0.886   1.790  13.270 -0.5229  0.3304 -0.5933
  404TMC3    C4 6085   0.910   2.039  13.151 -0.0571 -0.1577  0.4794
  404TMC3    C5 6086   0.987   1.933  13.112  0.2804 -0.1837  0.4852
  404TMC3    C6 6087   0.974   1.811  13.171  0.0001  0.5537  0.3542
  404TMC3     C 6088   0.837   2.109  13.345 -0.1182  0.0553  1.1578
  404TMC3     O 6089   0.958   2.121  13.375 -0.4792  0.5913 -0.1011
  404TMC3     H 6090   0.703   1.871  13.353 -0.7493  2.7616 -1.0855
  404TMC3    H1 6091   0.919   2.137  13.105 -1.4312 -0.0082  0.5067
  404TMC3    H2 6092   1.048   1.733  13.152 -0.5123  0.7795 -2.5333
  404TMC3    C7 6093   1.081   1.954  12.999 -0.2674  1.2574 -1.0408
  404TMC3    C8 6094   0.938   1.713  13.379  0.4057  1.0627 -0.2679
  404TMC3    O1 6095   1.186   1.898  13.002 -0.6601 -0.3933  0.3435
  404TMC3    O2 6096   1.059   1.681  13.374 -0.1753 -0.2954  0.0390
  405MPD2     C 6097   1.297   2.185  15.186  0.6421  0.8548 -0.3172
  405MPD2    C1 6098   1.211   2.157  15.085  0.1470  0.8046 -0.2286
  405MPD2    C2 6099   1.177   2.255  14.999  0.3722  0.3757  0.0803
  405MPD2    C3 6100   1.223   2.386  15.024  0.2731 -0.7570 -0.1778
  405MPD2    C4 6101   1.307   2.411  15.128  0.2141 -0.0490 -0.4600
  405MPD2    C5 6102   1.350   2.308  15.202  0.0375  0.2831 -0.2149
  405MPD2     H 6103   1.118   2.245  14.909  1.1742  0.8790 -0.5129
  405MPD2    H1 6104   1.344   2.510  15.151 -2.0515  0.9151 -0.9130
  405MPD2    H2 6105   1.331   2.108  15.254 -1.1970 -0.3496 -0.7738
  405MPD2    H3 6106   1.419   2.328  15.283 -2.5986 -0.7949  2.3212
  405MPD2     N 6107   1.172   2.484  14.932  0.1744 -0.9864  0.3509
  405MPD2    H5 6108   1.125   2.449  14.849 -0.5208  0.4117  0.1680
  405MPD2    N1 6109   1.161   2.028  15.072  0.3587 -0.2309  1.1363
  405MPD2    H7 6110   1.189   1.960  15.143 -1.3076 -2.7744 -0.6411
  406TMC3    C1 6111   0.999   2.858  14.730  0.0877 -0.0917  0.1220
  406TMC3    C2 6112   0.887   2.783  14.703 -0.7509 -0.4472  0.2163
  406TMC3    C3 6113   0.879   2.654  14.742 -0.6565  0.6367  0.7060
  406TMC3    C4 6114   1.097   2.807  14.818  0.0162 -0.2040  0.5997
  406TMC3    C5 6115   1.080   2.677  14.847 -0.0180 -0.7146 -0.5339
  406TMC3    C6 6116   0.974   2.603  14.820  0.5660 -0.3791 -0.3440
  406TMC3     C 6117   1.002   2.995  14.697 -0.3110 -0.2567 -0.8255
  406TMC3     O 6118   1.073   3.071  14.764  0.3448  0.1043  0.6174
  406TMC3     H 6119   0.812   2.820  14.634  0.6908 -0.0255 -1.1265
  406TMC3    H1 6120   1.186   2.859  14.852  0.5600 -0.7758  0.0524
  406TMC3    H2 6121   0.952   2.508  14.869  0.9841 -0.8313 -1.0339
  406TMC3    C7 6122   1.168   2.618  14.947  0.1501 -0.1202 -0.7640
  406TMC3    C8 6123   0.774   2.565  14.689 -0.3883  0.1196 -0.2102
  406TMC3    O1 6124   1.215   2.684  15.040  0.1869 -0.4665  0.6353
  406TMC3    O2 6125   0.670   2.622  14.650  0.1829  0.3930 -0.1866
  407MPD2     C 6126   3.683   0.178   9.748  0.2657 -0.0917  0.7252
  407MPD2    C1 6127   3.801   0.156   9.826  1.1129 -0.1672  0.0912
  407MPD2    C2 6128   3.839   0.251   9.926 -0.0322  0.0926  0.5168
  407MPD2    C3 6129   3.760   0.359   9.946  0.1526 -0.6915  0.6570
  407MPD2    C4 6130   3.649   0.380   9.867  0.6682 -0.5098  0.0569
  407MPD2    C5 6131   3.608   0.284   9.779 -0.4179  0.6358 -0.0888
  407MPD2     H 6132   3.921   0.220   9.989  0.3591 -1.2677 -0.6551
  407MPD2    H1 6133   3.598   0.475   9.873  0.2426 -0.7083 -0.3762
  407MPD2    H2 6134   3.648   0.116   9.666 -1.9147  2.2829 -0.1360
  407MPD2    H3 6135   3.512   0.308   9.737 -0.9178 -0.0371  0.6714
  407MPD2     N 6136   3.797   0.472  10.015  0.0902  0.0002 -0.0253
  407MPD2    H5 6137   3.741   0.555  10.002 -1.2114 -0.9014 -0.1207
  407MPD2    N1 6138   3.881   0.041   9.802  0.7187 -0.3459  0.1356
  407MPD2    H7 6139   3.975   0.043   9.842  0.9147 -4.3073 -0.1221
  408TMC3    C1 6140   3.949   4.564   9.717 -0.4985  0.5823  0.5034
  408TMC3    C2 6141   4.082   4.608   9.707  1.0371  0.3577 -0.4633
  408TMC3    C3 6142   4.184   4.517   9.710 -0.4610 -0.1628 -0.6181
  408TMC3    C4 6143   3.917   4.432   9.712 -0.0842 -1.2208  0.5583
  408TMC3    C5 6144   4.024   4.342   9.731  0.7351  0.1693  0.3392
  408TMC3    C6 6145   4.154   4.381   9.727 -0.2871  0.3016  0.3688
  408TMC3     C 6146   3.841   4.667   9.731 -0.4182 -0.5956 -0.0311
  408TMC3     O 6147   3.730   4.637   9.692  0.0061 -0.2617 -0.1723
  408TMC3     H 6148   4.096   4.716   9.701 -4.4507  1.1497  1.1628
  408TMC3    H1 6149   3.813   4.405   9.724 -0.7976  0.5433 -1.6543
  408TMC3    H2 6150   4.239   4.316   9.740 -0.1189  0.0573 -1.9604
  408TMC3    C7 6151   3.989   4.204   9.744  0.9877 -1.0674  0.2665
  408TMC3    C8 6152   4.318   4.559   9.742 -0.3711  0.6784  0.0869
  408TMC3    O1 6153   4.067   4.131   9.799 -0.6240 -0.1185  0.3380
  408TMC3    O2 6154   4.397   4.477   9.781  0.3097 -0.6300 -0.3589
  409MPD2     C 6155   3.636   0.245  17.017 -0.3736 -0.3961  0.4070
  409MPD2    C1 6156   3.772   0.223  16.992 -0.6746  0.1934 -0.1317
  409MPD2    C2 6157   3.839   0.306  16.908 -0.1981  0.0065 -0.3554
  409MPD2    C3 6158   3.777   0.418  16.855 -0.5259  0.2710 -0.4341
  409MPD2    C4 6159   3.648   0.441  16.879 -0.9541  0.4744  0.1585
  409MPD2    C5 6160   3.578   0.353  16.959  0.2644 -0.5553 -0.3118
  409MPD2     H 6161   3.946   0.290  16.901 -0.0189  0.8638  0.4833
  409MPD2    H1 6162   3.596   0.520  16.825  0.5669  1.7485  0.5889
  409MPD2    H2 6163   3.577   0.192  17.092  1.7100 -0.5976  1.9106
  409MPD2    H3 6164   3.471   0.367  16.965  0.4009 -0.0936  0.8450
  409MPD2     N 6165   3.843   0.509  16.778  0.0375  0.0694  0.5597
  409MPD2    H5 6166   3.787   0.592  16.766  0.4882  0.1049 -1.4599
  409MPD2    N1 6167   3.849   0.123  17.067  0.3423 -0.3926  0.3320
  409MPD2    H7 6168   3.947   0.110  17.041  1.3215  0.8316  3.4726
  410TMC3    C1 6169   4.031   0.637  16.720  0.1016 -0.3818 -0.3486
  410TMC3    C2 6170   4.160   0.664  16.754 -0.3985  0.7388  0.6023
  410TMC3    C3 6171   4.217   0.780  16.707  0.0571  0.1206  0.1436
  410TMC3    C4 6172   3.968   0.707  16.614 -0.6880 -0.0578  0.2689
  410TMC3    C5 6173   4.033   0.822  16.568 -0.6768  0.1254 -0.3068
  410TMC3    C6 6174   4.152   0.870  16.625 -0.7428 -0.5121  0.0000
  410TMC3     C 6175   3.972   0.506  16.747  0.1560  0.2686  0.2522
  410TMC3     O 6176   4.058   0.420  16.750  0.2578  0.0418 -0.2034
  410TMC3     H 6177   4.202   0.609  16.837 -1.6418 -0.3991  0.4759
  410TMC3    H1 6178   3.875   0.679  16.566  0.7116  0.1996 -2.5599
  410TMC3    H2 6179   4.201   0.954  16.578 -0.0934  0.5709  2.6247
  410TMC3    C7 6180   3.993   0.867  16.441 -0.0678  0.2345  0.5298
  410TMC3    C8 6181   4.356   0.807  16.718 -0.2887 -0.3934 -0.0424
  410TMC3    O1 6182   3.968   0.774  16.371 -0.4083 -0.1958 -0.2307
  410TMC3    O2 6183   4.392   0.923  16.731  0.0562  0.6150 -0.4657
  411MPD2     C 6184   4.298   1.465  14.501 -0.8301  0.1391  0.1474
  411MPD2    C1 6185   4.180   1.455  14.571  0.0251  0.1413 -0.2485
  411MPD2    C2 6186   4.118   1.331  14.597 -0.3823 -0.3563  0.7453
  411MPD2    C3 6187   4.179   1.215  14.543 -0.3957  0.1163 -0.1966
  411MPD2    C4 6188   4.297   1.233  14.467  0.3218  0.3807 -0.1155
  411MPD2    C5 6189   4.355   1.355  14.449 -1.1459 -0.4661 -0.3018
  411MPD2     H 6190   4.024   1.336  14.652 -1.0598 -1.2653 -0.3358
  411MPD2    H1 6191   4.359   1.147  14.445 -0.5022 -0.9956  2.9286
  411MPD2    H2 6192   4.345   1.561  14.484  2.4680 -1.7950 -1.5557
  411MPD2    H3 6193   4.451   1.365  14.400  0.3765  0.9423  2.9822
  411MPD2     N 6194   4.134   1.081  14.551 -0.0570 -0.3654  0.1551
  411MPD2    H5 6195   4.184   1.014  14.494  1.2657  0.4913  0.3274
  411MPD2    N1 6196   4.115   1.576  14.606  0.4283 -0.0943 -0.4550
  411MPD2    H7 6197   4.155   1.662  14.570  1.5434 -1.0674 -1.5663
  412TMC3    C1 6198   3.984   0.905  14.587  0.2622 -0.3447  0.3199
  412TMC3    C2 6199   3.855   0.867  14.590 -0.6741  0.1206  0.1623
  412TMC3    C3 6200   3.818   0.739  14.559 -0.6245  0.3962 -0.6099
  412TMC3    C4 6201   4.079   0.828  14.528 -0.0103  0.2466 -0.4115
  412TMC3    C5 6202   4.048   0.699  14.495  0.5804 -0.1956  0.2096
  412TMC3    C6 6203   3.919   0.655  14.516  0.2342  0.2902  0.6192
  412TMC3     C 6204   4.016   1.041  14.613 -0.4438  0.1673  0.0151
  412TMC3     O 6205   3.932   1.113  14.667  0.4263  0.6702 -0.6453
  412TMC3     H 6206   3.774   0.936  14.613  3.0235  3.9889  1.5011
  412TMC3    H1 6207   4.182   0.856  14.509  0.1303  0.7241  1.0762
  412TMC3    H2 6208   3.892   0.553  14.492 -0.2556  0.4083  0.6709
  412TMC3    C7 6209   4.095   0.679  14.358  0.1187  0.0769  0.0704
  412TMC3    C8 6210   3.706   0.733  14.465 -1.0461  0.3426  0.2101
  412TMC3    O1 6211   4.217   0.702  14.333  0.4466 -1.1913  0.2526
  412TMC3    O2 6212   3.742   0.708  14.350 -0.0028  0.3517 -0.3295
  413MPD2     C 6213   1.357   4.054  15.208 -0.1640 -0.0610 -0.1506
  413MPD2    C1 6214   1.249   4.000  15.146  0.2272  0.6268  0.1686
  413MPD2    C2 6215   1.237   3.864  15.140  0.5061 -0.1801  0.3425
  413MPD2    C3 6216   1.316   3.780  15.215  0.1046  0.0759  0.0794
  413MPD2    C4 6217   1.419   3.837  15.289  0.0504  0.4844 -0.7246
  413MPD2    C5 6218   1.445   3.977  15.284  0.3123 -0.6440  0.1776
  413MPD2     H 6219   1.163   3.821  15.075  0.1689  3.3622 -1.6350
  413MPD2    H1 6220   1.482   3.775  15.352  1.0335  0.5684 -1.6397
  413MPD2    H2 6221   1.364   4.162  15.219 -0.1313 -0.0675 -0.1086
  413MPD2    H3 6222   1.522   4.025  15.344  0.9797 -1.7135  0.1839
  413MPD2     N 6223   1.299   3.637  15.210 -0.3220  0.3226 -0.2085
  413MPD2    H5 6224   1.222   3.604  15.153  0.0220 -1.1486  0.1887
  413MPD2    N1 6225   1.155   4.089  15.085 -0.2208 -0.1362  0.4735
  413MPD2    H7 6226   1.184   4.186  15.086 -0.5568 -0.0405  1.3763
  414TMC3    C1 6227   1.333   3.410  15.232  0.4327 -0.5750  0.5040
  414TMC3    C2 6228   1.369   3.299  15.307  0.1706 -0.0770  0.1995
  414TMC3    C3 6229   1.404   3.183  15.242 -0.1739 -0.0572 -0.6575
  414TMC3    C4 6230   1.346   3.398  15.095 -0.3055  0.1435  0.3198
  414TMC3    C5 6231   1.384   3.284  15.035  0.1970  0.1136  0.0171
  414TMC3    C6 6232   1.390   3.175  15.109  0.6125 -0.3615 -0.2523
  414TMC3     C 6233   1.366   3.538  15.288  0.4352 -0.3462 -0.1881
  414TMC3     O 6234   1.442   3.547  15.389 -0.0678  0.1134 -0.6809
  414TMC3     H 6235   1.374   3.311  15.414 -0.2849  1.7586  0.0196
  414TMC3    H1 6236   1.319   3.481  15.031 -0.4146 -0.7011 -0.7102
  414TMC3    H2 6237   1.424   3.083  15.065 -2.5028 -0.6050 -2.1607
  414TMC3    C7 6238   1.499   3.302  14.953 -0.2139 -0.8158  0.3972
  414TMC3    C8 6239   1.426   3.057  15.318 -0.6284 -0.0714  0.5439
  414TMC3    O1 6240   1.546   3.415  14.951  0.5159  0.1082 -0.2444
  414TMC3    O2 6241   1.383   2.957  15.260  0.1901  0.1044  0.5738
  415TMC3    C1 6242   1.977   1.885  10.866  0.1576  0.4449 -0.3583
  415TMC3    C2 6243   1.985   1.983  10.771 -0.1528 -0.1613 -0.5677
  415TMC3    C3 6244   1.959   1.941  10.641  0.1251  0.0204  0.4621
  415TMC3    C4 6245   1.948   1.756  10.833 -0.2187 -0.2494 -0.3972
  415TMC3    C5 6246   1.936   1.717  10.711  0.0809  0.6325 -0.9631
  415TMC3    C6 6247   1.940   1.808  10.609 -0.1080  0.9215 -0.0857
  415TMC3     C 6248   1.965   1.914  11.004 -0.9860 -0.1459 -0.1712
  415TMC3     O 6249   1.895   1.841  11.073  0.1963  0.0180 -0.3489
  415TMC3     H 6250   1.979   2.085  10.806  1.0378 -0.6321  1.0332
  415TMC3    H1 6251   1.949   1.684  10.914 -0.2932  0.7981  0.5525
  415TMC3    H2 6252   1.924   1.772  10.508  0.5315  0.9487 -0.1982
  415TMC3    C7 6253   1.934   1.576  10.685  0.9366  0.7255 -0.3494
  415TMC3    C8 6254   1.908   2.041  10.543  0.0376 -0.9138 -0.1816
  415TMC3    O1 6255   2.002   1.524  10.593  0.7779 -0.0044 -0.0504
  415TMC3    O2 6256   1.840   1.988  10.457  0.1377  0.0438 -0.3265
  416MPD2     C 6257   3.255   1.110  11.289  0.9372  0.0973 -0.1535
  416MPD2    C1 6258   3.237   1.028  11.398 -0.5128 -0.7434  0.1333
  416MPD2    C2 6259   3.273   0.896  11.390 -0.1574  0.3729 -0.2070
  416MPD2    C3 6260   3.320   0.840  11.269  0.5244  0.0795 -0.3117
  416MPD2    C4 6261   3.321   0.926  11.164  0.0246 -0.6014  0.0476
  416MPD2    C5 6262   3.292   1.055  11.175 -0.3258 -1.1059 -0.5854
  416MPD2     H 6263   3.272   0.831  11.476  0.1988  0.6637  0.0144
  416MPD2    H1 6264   3.371   0.891  11.074 -1.4014 -0.2072 -0.8989
  416MPD2    H2 6265   3.239   1.217  11.292 -1.6730 -0.2274 -2.2523
  416MPD2    H3 6266   3.315   1.126  11.096  1.9836 -1.3641 -0.1463
  416MPD2     N 6267   3.359   0.707  11.231 -0.4845 -0.1643 -0.1136
  416MPD2    H5 6268   3.382   0.683  11.135 -0.1427  3.5151 -0.9433
  416MPD2    N1 6269   3.185   1.094  11.509 -0.0458 -0.1645 -0.4902
  416MPD2    H7 6270   3.154   1.191  11.499  0.3179  0.2312  2.1411
  417TMC3    C1 6271   3.065   1.113  11.706  0.8969  0.1358  0.1417
  417TMC3    C2 6272   3.061   1.097  11.843  0.7611  0.1646  0.3271
  417TMC3    C3 6273   2.955   1.144  11.910 -0.6363  0.9514 -0.2897
  417TMC3    C4 6274   2.966   1.172  11.635  0.0444 -0.4225 -0.3941
  417TMC3    C5 6275   2.864   1.226  11.703 -0.2193 -0.4021 -0.6064
  417TMC3    C6 6276   2.851   1.208  11.842 -0.2615 -0.2468 -0.1438
  417TMC3     C 6277   3.155   1.032  11.628  0.1069 -0.7521  0.6756
  417TMC3     O 6278   3.219   0.947  11.690 -0.2205 -0.3343 -0.0311
  417TMC3     H 6279   3.147   1.052  11.892  0.6038 -1.5501 -0.9610
  417TMC3    H1 6280   2.956   1.164  11.528 -0.9581 -1.4991 -0.2133
  417TMC3    H2 6281   2.779   1.266  11.899  0.2482 -0.3653  0.6220
  417TMC3    C7 6282   2.779   1.308  11.620 -0.5365 -0.4660 -0.1159
  417TMC3    C8 6283   2.954   1.159  12.053 -1.0296  0.7027 -0.2597
  417TMC3    O1 6284   2.819   1.342  11.507  0.0060 -0.4764  0.4589
  417TMC3    O2 6285   2.844   1.156  12.103 -0.0347  0.0904 -0.3397
  418TMC3    C1 6286   1.985   3.222   0.381 -0.1203 -0.1213 -0.3534
  418TMC3    C2 6287   1.864   3.281   0.382  0.3935  0.2976 -0.8176
  418TMC3    C3 6288   1.768   3.231   0.470 -0.0673 -1.0138  0.8164
  418TMC3    C4 6289   2.033   3.136   0.476 -0.3816  0.0959 -0.6569
  418TMC3    C5 6290   1.934   3.093   0.564 -0.9619  0.2609 -1.0450
  418TMC3    C6 6291   1.804   3.124   0.552 -0.1012  0.3077  0.1955
  418TMC3     C 6292   2.063   3.241   0.258 -0.9649 -1.0797  0.1490
  418TMC3     O 6293   2.025   3.324   0.179  0.7559 -0.5745  0.1099
  418TMC3     H 6294   1.846   3.356   0.306 -3.4696  0.8157  0.5693
  418TMC3    H1 6295   2.134   3.096   0.471 -0.2542  0.3150  0.1131
  418TMC3    H2 6296   1.730   3.073   0.613 -1.1561  0.7404 -0.7236
  418TMC3    C7 6297   1.958   2.975   0.640  0.0122  0.4787  0.5669
  418TMC3    C8 6298   1.636   3.226   0.406  0.1998 -0.6365  0.8967
  418TMC3    O1 6299   2.048   2.909   0.589 -0.0799  0.0530 -0.3477
  418TMC3    O2 6300   1.563   3.324   0.399  0.2731  0.6397 -0.0319
  419MPD2     C 6301   0.658   1.174  12.309  0.1476  0.2798 -0.3753
  419MPD2    C1 6302   0.528   1.216  12.310  0.6570 -0.4676  0.3981
  419MPD2    C2 6303   0.474   1.258  12.427 -0.2359  0.7988 -1.0743
  419MPD2    C3 6304   0.555   1.273  12.542  0.3197 -0.3777  0.7686
  419MPD2    C4 6305   0.696   1.245  12.536  0.0657 -0.3156  0.1222
  419MPD2    C5 6306   0.734   1.190  12.418 -0.2015 -0.1535 -0.5268
  419MPD2     H 6307   0.370   1.288  12.435 -0.7553 -1.3090  0.0163
  419MPD2    H1 6308   0.761   1.262  12.621 -0.1450 -3.4832  0.8859
  419MPD2    H2 6309   0.703   1.133  12.219  1.0036  0.1914  0.0947
  419MPD2    H3 6310   0.839   1.161  12.415 -0.2288 -0.3377  0.2872
  419MPD2     N 6311   0.493   1.320  12.664 -0.1368 -0.2859  0.0107
  419MPD2    H5 6312   0.393   1.336  12.654 -0.0968 -2.0036 -3.2690
  419MPD2    N1 6313   0.451   1.218  12.188 -0.2019  0.0818  0.3401
  419MPD2    H7 6314   0.353   1.245  12.190 -0.4116 -0.5085 -1.5594
  420TMC3    C1 6315   0.459   1.330  12.891  0.4043  0.2329  0.6050
  420TMC3    C2 6316   0.341   1.391  12.898 -0.0831 -0.5977  0.4266
  420TMC3    C3 6317   0.258   1.376  13.002  0.0555  0.0024 -0.3882
  420TMC3    C4 6318   0.499   1.247  12.991  0.1195  0.4274  0.0208
  420TMC3    C5 6319   0.425   1.247  13.102 -0.0375 -0.0462 -0.5117
  420TMC3    C6 6320   0.300   1.300  13.109 -0.0797 -0.2577  0.6344
  420TMC3     C 6321   0.560   1.351  12.781 -0.5452 -0.0217 -0.7714
  420TMC3     O 6322   0.678   1.354  12.810  0.0919 -0.9237 -0.3226
  420TMC3     H 6323   0.313   1.447  12.809  0.9507 -0.2197  0.3369
  420TMC3    H1 6324   0.594   1.198  12.973 -0.4495 -1.5575  2.4421
  420TMC3    H2 6325   0.237   1.306  13.197  0.9643 -0.8231  1.4138
  420TMC3    C7 6326   0.471   1.184  13.228 -0.2891 -0.3811 -0.2604
  420TMC3    C8 6327   0.120   1.423  12.988  0.3680  0.4582  0.0810
  420TMC3    O1 6328   0.403   1.215  13.325  0.1092 -0.5284 -0.7242
  420TMC3    O2 6329   0.095   1.478  12.884  0.0337  0.2202  0.1685
  421TMC3    C1 6330   1.057   2.451  13.979 -0.4270  0.8675 -0.2115
  421TMC3    C2 6331   1.061   2.520  14.092  0.0578  0.7579 -0.8179
  421TMC3    C3 6332   1.157   2.478  14.181 -0.2296  0.6311 -0.1379
  421TMC3    C4 6333   1.150   2.360  13.939  0.3300 -0.1904  0.2260
  421TMC3    C5 6334   1.239   2.320  14.035 -0.2600 -0.1498 -0.0987
  421TMC3    C6 6335   1.233   2.368  14.163  0.4800 -0.2082 -1.0069
  421TMC3     C 6336   0.929   2.450  13.905 -1.0382  0.2009  0.2345
  421TMC3     O 6337   0.837   2.521  13.948 -0.5238  0.0367  0.1700
  421TMC3     H 6338   0.986   2.598  14.109 -0.2661  0.3917 -0.5586
  421TMC3    H1 6339   1.141   2.290  13.857  0.2969 -0.3615  0.3767
  421TMC3    H2 6340   1.309   2.340  14.235 -0.9866  0.0989  0.6610
  421TMC3    C7 6341   1.378   2.288  14.002  0.0567 -0.7512  0.7163
  421TMC3    C8 6342   1.172   2.537  14.315  0.5613 -0.4845  0.2146
  421TMC3    O1 6343   1.464   2.272  14.089  0.9336  0.5964 -0.0218
  421TMC3    O2 6344   1.234   2.473  14.401  0.5420  0.1643  0.0484
  422TMC3    C1 6345   3.763   4.133  12.546  0.5907  0.8646 -0.2032
  422TMC3    C2 6346   3.786   4.261  12.600  0.1053  0.7029 -0.6590
  422TMC3    C3 6347   3.675   4.327  12.645 -0.3533 -0.6410 -0.5720
  422TMC3    C4 6348   3.636   4.075  12.540 -0.9186  0.4889  0.1717
  422TMC3    C5 6349   3.528   4.159  12.572  0.2384 -0.1224  0.0056
  422TMC3    C6 6350   3.546   4.282  12.621  0.1129 -0.0952  0.5446
  422TMC3     C 6351   3.861   4.086  12.454  1.0286 -0.4083 -1.0295
  422TMC3     O 6352   3.938   4.172  12.419  0.0874  0.0344  0.0128
  422TMC3     H 6353   3.886   4.303  12.608 -0.3623  1.5412  0.7661
  422TMC3    H1 6354   3.623   3.969  12.520 -0.2081  0.7409 -1.5874
  422TMC3    H2 6355   3.455   4.337  12.642 -1.4781 -1.4829 -2.7049
  422TMC3    C7 6356   3.405   4.094  12.618  0.4900  0.4577 -0.4600
  422TMC3    C8 6357   3.691   4.460  12.699  0.5121 -0.1637 -0.5737
  422TMC3    O1 6358   3.347   4.135  12.720  0.6827 -0.1695  0.0557
  422TMC3    O2 6359   3.792   4.520  12.660  0.2521 -0.9227 -0.6833
  423MPD2     C 6360   0.186   0.052   0.524  0.5023 -0.1142 -0.1659
  423MPD2    C1 6361   0.295   0.094   0.452  0.2083  0.4469 -0.0597
  423MPD2    C2 6362   0.318   0.052   0.324 -0.1497  0.1818  0.3507
  423MPD2    C3 6363   0.237   4.690   0.264  0.4837 -0.1110 -1.1685
  423MPD2    C4 6364   0.126   4.650   0.340  0.2018 -0.4531 -0.0843
  423MPD2    C5 6365   0.105   4.691   0.468  0.3878 -0.1589 -0.3831
  423MPD2     H 6366   0.407   0.092   0.278 -1.0007  0.8084 -0.7500
  423MPD2    H1 6367   0.059   4.572   0.305 -0.0508 -0.8245  1.2052
  423MPD2    H2 6368   0.167   0.087   0.625  0.7485  2.6717 -1.0875
  423MPD2    H3 6369   0.018   4.652   0.520  0.3581  0.1850 -0.1757
  423MPD2     N 6370   0.256   4.639   0.134  0.5893 -0.7349  0.0694
  423MPD2    H5 6371   0.182   4.573   0.110 -0.5971  0.9832 -0.9833
  423MPD2    N1 6372   0.379   0.191   0.504  0.1852 -0.2711  0.4854
  423MPD2    H7 6373   0.447   0.232   0.440  1.5942 -1.5931  1.1372
  424TMC3    C1 6374   0.471   0.341   0.665 -0.5589 -0.1781 -0.2656
  424TMC3    C2 6375   0.596   0.313   0.644  0.1921  0.1022  0.4883
  424TMC3    C3 6376   0.695   0.392   0.707 -0.7389 -0.1087 -0.1704
  424TMC3    C4 6377   0.423   0.430   0.753  0.0198 -0.2723  0.7028
  424TMC3    C5 6378   0.520   0.507   0.810  0.5635 -0.0760 -0.1068
  424TMC3    C6 6379   0.653   0.490   0.785  0.7456  0.3365 -0.6818
  424TMC3     C 6380   0.377   0.232   0.636  0.2831 -0.0137  0.4714
  424TMC3     O 6381   0.325   0.193   0.738  0.3183 -0.0269 -0.0722
  424TMC3     H 6382   0.618   0.235   0.572  1.3040  0.1493  0.7655
  424TMC3    H1 6383   0.321   0.462   0.769  0.4554  1.7534 -0.5340
  424TMC3    H2 6384   0.733   0.557   0.816  2.5105 -2.0420 -0.1514
  424TMC3    C7 6385   0.475   0.600   0.920  0.1389 -0.5485  0.1859
  424TMC3    C8 6386   0.843   0.364   0.679 -0.3379 -0.3367  0.0627
  424TMC3    O1 6387   0.557   0.666   0.973 -0.3327  0.1833 -0.4181
  424TMC3    O2 6388   0.913   0.449   0.729  0.2594 -0.2847  0.4723
  425MPD2     C 6389   3.685   4.449  16.934  0.7830  0.7816 -0.4447
  425MPD2    C1 6390   3.738   4.326  16.959  0.5766  0.0898 -0.3275
  425MPD2    C2 6391   3.743   4.288  17.089  0.2666 -0.3254  0.2263
  425MPD2    C3 6392   3.702   4.361  17.194  0.0066  0.0688  0.2431
  425MPD2    C4 6393   3.646   4.483  17.165  0.2421 -0.3326  0.1697
  425MPD2    C5 6394   3.640   4.525  17.037 -0.0216  0.5568  0.1615
  425MPD2     H 6395   3.775   4.186  17.103 -0.1413 -0.0513  3.1114
  425MPD2    H1 6396   3.625   4.559  17.239 -0.5624 -0.4700  0.0801
  425MPD2    H2 6397   3.676   4.485  16.832 -2.0732  0.3316 -0.3622
  425MPD2    H3 6398   3.598   4.624  17.018 -1.2314  0.2048  1.0098
  425MPD2     N 6399   3.724   4.316  17.327 -0.1455  0.4891 -0.8033
  425MPD2    H5 6400   3.756   4.220  17.329 -1.4198  0.0721 -0.8868
  425MPD2    N1 6401   3.776   4.243  16.853 -0.4313  0.8582  0.1363
  425MPD2    H7 6402   3.792   4.281  16.760  2.3026  1.0340  0.6767
  426TMC3    C1 6403   3.895   4.061  16.768  0.0843 -0.0425 -0.0537
  426TMC3    C2 6404   3.862   3.933  16.734 -0.5410  0.4085  0.1493
  426TMC3    C3 6405   3.965   3.851  16.706 -0.3527  0.5874  0.0380
  426TMC3    C4 6406   4.013   4.111  16.764 -0.1184 -0.8253  0.0590
  426TMC3    C5 6407   4.116   4.027  16.737  0.2762 -0.2443  0.8527
  426TMC3    C6 6408   4.088   3.899  16.712  0.0140 -0.0591 -0.6714
  426TMC3     C 6409   3.795   4.107  16.863  0.1408 -0.2225  0.1901
  426TMC3     O 6410   3.753   4.029  16.947 -0.5677  0.3129 -0.2205
  426TMC3     H 6411   3.761   3.902  16.758 -0.4555 -0.2320 -0.3465
  426TMC3    H1 6412   4.023   4.218  16.776  5.1104 -1.1683 -1.6394
  426TMC3    H2 6413   4.165   3.831  16.678  1.1097 -0.3139  2.2828
  426TMC3    C7 6414   4.222   4.040  16.831 -0.8814 -0.2192 -0.0542
  426TMC3    C8 6415   3.956   3.705  16.700 -0.5521 -0.4699 -0.5721
  426TMC3    O1 6416   4.262   4.152  16.854  0.3893  0.0992  0.1890
  426TMC3    O2 6417   4.060   3.645  16.677  0.3386 -0.0279 -0.3198
  427MPD2     C 6418   3.062   1.438  14.745  0.7369 -0.8460 -0.2338
  427MPD2    C1 6419   3.035   1.320  14.805  0.3269  0.0690  0.4261
  427MPD2    C2 6420   2.905   1.278  14.803  0.2283  0.0828  0.3224
  427MPD2    C3 6421   2.803   1.358  14.754  0.6919 -0.1687  0.2560
  427MPD2    C4 6422   2.836   1.482  14.698  1.0303  0.6615  0.1689
  427MPD2    C5 6423   2.964   1.518  14.691 -0.4175 -1.1261  0.0871
  427MPD2     H 6424   2.886   1.174  14.826 -0.6501  0.6993  2.4348
  427MPD2    H1 6425   2.758   1.550  14.666 -0.1510 -0.0579  1.5215
  427MPD2    H2 6426   3.164   1.475  14.744 -0.4122  2.4265  2.1345
  427MPD2    H3 6427   2.993   1.615  14.651 -0.6997 -1.6640 -1.4377
  427MPD2     N 6428   2.673   1.316  14.731 -0.4263  0.2100  0.1338
  427MPD2    H5 6429   2.620   1.369  14.663  1.4995 -1.2669 -2.5169
  427MPD2    N1 6430   3.140   1.236  14.853 -0.5077  0.2942  0.4524
  427MPD2    H7 6431   3.112   1.177  14.931  1.0002 -1.5195 -0.3843
  428TMC3    C1 6432   3.354   1.155  14.901  0.2201 -0.1457 -0.1218
  428TMC3    C2 6433   3.293   1.043  14.944  0.3355 -0.0363 -0.2147
  428TMC3    C3 6434   3.363   0.973  15.043  0.2948  0.2009 -0.1179
  428TMC3    C4 6435   3.469   1.207  14.967 -0.1248  0.6017  0.5402
  428TMC3    C5 6436   3.531   1.130  15.057 -1.1391  0.2137  0.2737
  428TMC3    C6 6437   3.480   1.012  15.093  0.1817 -0.1689 -0.7570
  428TMC3     C 6438   3.274   1.254  14.831  0.1095 -0.9135  0.2866
  428TMC3     O 6439   3.337   1.335  14.766 -0.0117 -0.4044  0.0874
  428TMC3     H 6440   3.207   0.994  14.900 -1.7058  1.1071  2.5052
  428TMC3    H1 6441   3.503   1.308  14.942  1.7679  0.1029  1.0948
  428TMC3    H2 6442   3.516   0.958  15.180  2.3438  1.8515 -0.3897
  428TMC3    C7 6443   3.598   1.197  15.163 -0.2062 -0.4045 -0.2812
  428TMC3    C8 6444   3.310   0.851  15.085  0.1985 -0.0263  0.2543
  428TMC3    O1 6445   3.598   1.158  15.277 -0.1789 -0.0590 -0.3486
  428TMC3    O2 6446   3.387   0.755  15.089 -0.1311 -0.2762  1.0308
  429MPD2     C 6447   4.154   1.059  17.453  0.3176  1.1914  0.1253
  429MPD2    C1 6448   4.288   1.039  17.468 -0.4714 -0.0928 -0.8874
  429MPD2    C2 6449   4.370   1.133  17.407 -0.5073 -0.4982 -0.2993
  429MPD2    C3 6450   4.319   1.242  17.343  0.5809  0.2415 -0.3147
  429MPD2    C4 6451   4.183   1.263  17.334  0.0605  0.0027  0.1654
  429MPD2    C5 6452   4.101   1.169  17.388  0.0254  0.6513  0.7483
  429MPD2     H 6453   4.477   1.116  17.397 -0.5113  0.1308 -1.4434
  429MPD2    H1 6454   4.138   1.341  17.273 -0.4667 -0.3464  0.1048
  429MPD2    H2 6455   4.085   0.986  17.494  1.3649 -0.0738 -0.3654
  429MPD2    H3 6456   3.994   1.182  17.376  0.4625  1.5245 -2.2701
  429MPD2     N 6457   4.405   1.331  17.287  0.4759  0.2814 -0.0398
  429MPD2    H5 6458   4.500   1.299  17.273  0.1767 -0.8657  0.5848
  429MPD2    N1 6459   4.352   0.941  17.546 -0.0113 -0.7457  0.2506
  429MPD2    H7 6460   4.453   0.951  17.553 -0.2108  2.0160 -0.6841
  430TMC3    C1 6461   4.467   1.543  17.188 -0.0633  0.0099  0.2685
  430TMC3    C2 6462   4.432   1.675  17.160  0.3185 -0.0748  0.2760
  430TMC3    C3 6463   4.512   1.747  17.073  0.1628 -0.3862 -0.4030
  430TMC3    C4 6464   4.567   1.480  17.117  0.2377 -0.1561  0.1859
  430TMC3    C5 6465   4.640   1.551  17.021  0.5129 -0.1119 -0.4179
  430TMC3    C6 6466   4.616   1.686  17.000 -0.2140  0.0305  0.3351
  430TMC3     C 6467   4.369   1.463  17.258 -0.0841  0.1315  0.4298
  430TMC3     O 6468   4.274   1.528  17.307  0.4341 -0.0262  0.1847
  430TMC3     H 6469   4.368   1.726  17.231 -1.5684 -1.0490 -0.6971
  430TMC3    H1 6470   4.583   1.376  17.142 -0.6105  0.1459  2.0208
  430TMC3    H2 6471   4.677   1.742  16.930 -0.9617 -0.1419 -0.4465
  430TMC3    C7 6472   4.638   1.470  16.896  0.0135 -0.0692  0.1239
  430TMC3    C8 6473   4.446   1.814  16.974 -0.4722  0.9171  0.3135
  430TMC3    O1 6474   4.642   1.347  16.907  0.1913  0.4373 -0.1559
  430TMC3    O2 6475   4.485   1.818  16.859  0.1526 -0.9333  0.1526
  431MPD2     C 6476   0.177   1.862  12.149 -0.2313 -0.1655  0.0531
  431MPD2    C1 6477   0.284   1.835  12.069 -0.1976 -0.1239  0.3794
  431MPD2    C2 6478   0.280   1.731  11.979 -0.8126  0.3606  0.0793
  431MPD2    C3 6479   0.176   1.642  11.979 -0.0970  0.0051 -0.1432
  431MPD2    C4 6480   0.064   1.663  12.055  0.8958 -0.1073  0.2024
  431MPD2    C5 6481   0.070   1.772  12.142  0.0818 -0.3973  0.0401
  431MPD2     H 6482   0.372   1.707  11.927 -2.1094 -0.6845 -1.7279
  431MPD2    H1 6483   4.713   1.598  12.051 -1.3933  3.0529 -1.1714
  431MPD2    H2 6484   0.169   1.946  12.217 -2.3357  1.5470 -2.2854
  431MPD2    H3 6485   4.717   1.794  12.200  1.0739  3.5700  0.0829
  431MPD2     N 6486   0.179   1.520  11.915 -0.2138  0.0227 -0.3368
  431MPD2    H5 6487   0.119   1.448  11.954  0.2868 -0.9287 -1.3192
  431MPD2    N1 6488   0.402   1.917  12.076 -0.4793 -0.4083 -0.0996
  431MPD2    H7 6489   0.479   1.891  12.015 -0.1076 -0.8187  0.5358
  432TMC3    C1 6490   0.298   1.325  11.836 -0.5614  0.1691  0.2467
  432TMC3    C2 6491   0.344   1.274  11.721 -0.9581 -0.2244  0.2599
  432TMC3    C3 6492   0.428   1.171  11.737 -1.4094 -0.1575  0.0213
  432TMC3    C4 6493   0.327   1.274  11.960  0.6143  0.1547  0.2254
  432TMC3    C5 6494   0.394   1.155  11.966 -0.1598 -0.1582  0.1712
  432TMC3    C6 6495   0.453   1.112  11.853  0.0746  0.0400 -0.0572
  432TMC3     C 6496   0.283   1.472  11.832 -0.6669  0.2124  0.1878
  432TMC3     O 6497   0.379   1.532  11.778  0.1961  0.3274 -0.2580
  432TMC3     H 6498   0.333   1.334  11.632  0.7301 -1.2877 -0.6860
  432TMC3    H1 6499   0.290   1.316  12.053  1.7631  0.6300  0.4678
  432TMC3    H2 6500   0.501   1.014  11.845 -0.8521 -0.5550  1.8268
  432TMC3    C7 6501   0.486   1.152  12.077  0.8252 -0.5392 -0.1202
  432TMC3    C8 6502   0.533   1.151  11.637 -0.1067  0.2547 -0.0446
  432TMC3    O1 6503   0.586   1.089  12.051 -0.2528  0.1851 -0.0164
  432TMC3    O2 6504   0.525   1.203  11.526 -0.2794  0.3825  0.1012
  433MPD2     C 6505   3.818   0.550  10.724  0.0535 -0.4105  0.2270
  433MPD2    C1 6506   3.883   0.455  10.795  0.1721 -0.6583  0.1812
  433MPD2    C2 6507   3.945   0.485  10.911  0.7137 -0.3781 -0.0019
  433MPD2    C3 6508   3.945   0.610  10.970 -0.2968  0.1522 -0.6783
  433MPD2    C4 6509   3.871   0.704  10.906 -0.5466 -0.2176  0.2826
  433MPD2    C5 6510   3.806   0.672  10.787 -0.2115  0.3386 -0.2334
  433MPD2     H 6511   3.996   0.408  10.967  0.9233 -0.1324  0.1445
  433MPD2    H1 6512   3.848   0.801  10.949  0.9801 -1.0497  2.9448
  433MPD2    H2 6513   3.768   0.536  10.629 -1.9669  0.2512  1.2031
  433MPD2    H3 6514   3.755   0.746  10.727 -1.1126  0.7980  1.1114
  433MPD2     N 6515   4.004   0.626  11.097  0.7201 -0.2599  1.0338
  433MPD2    H5 6516   4.055   0.550  11.141  0.5304 -0.7722  0.3701
  433MPD2    N1 6517   3.898   0.320  10.756  0.7110 -0.7143 -0.6254
  433MPD2    H7 6518   3.964   0.266  10.810  1.4988  1.0027  0.1563
  434TMC3    C1 6519   3.882   0.109  10.651  0.2089 -0.0177  0.4480
  434TMC3    C2 6520   3.990   0.061  10.726  0.6485  0.2034  0.5174
  434TMC3    C3 6521   4.006   4.667  10.739 -1.0135  0.2144 -0.1579
  434TMC3    C4 6522   3.802   0.021  10.585 -0.8274  0.0564 -0.4470
  434TMC3    C5 6523   3.824   4.626  10.603 -0.0836 -0.0591 -0.4925
  434TMC3    C6 6524   3.923   4.573  10.679  0.3874 -0.0556 -0.1206
  434TMC3     C 6525   3.843   0.251  10.647 -0.2107 -0.1784 -0.3398
  434TMC3     O 6526   3.755   0.286  10.569 -0.2044 -0.6768 -0.0643
  434TMC3     H 6527   4.058   0.132  10.773  1.4474 -1.3441  1.6991
  434TMC3    H1 6528   3.709   0.065  10.550  0.1809  1.1284 -1.7961
  434TMC3    H2 6529   3.945   4.467  10.681  1.1523  0.0627 -2.1165
  434TMC3    C7 6530   3.721   4.526  10.553  0.3241 -0.3980 -0.4238
  434TMC3    C8 6531   4.125   4.619  10.816  0.4229 -0.0425  0.2930
  434TMC3    O1 6532   3.652   4.552  10.456 -0.3518 -0.6007  0.1158
  434TMC3    O2 6533   4.180   4.698  10.891  0.1203  0.1153  1.0029
  435MPD2     C 6534   1.545   4.300  15.426 -0.6016 -0.3761 -0.6752
  435MPD2    C1 6535   1.458   4.296  15.533  0.5041 -0.4538  0.0973
  435MPD2    C2 6536   1.503   4.229  15.646 -0.3352  0.3016 -0.4471
  435MPD2    C3 6537   1.630   4.168  15.658 -0.1663  0.1354 -0.0674
  435MPD2    C4 6538   1.712   4.177  15.546  0.0152 -0.5599 -0.0216
  435MPD2    C5 6539   1.666   4.244  15.434  0.0397  0.0112  0.7507
  435MPD2     H 6540   1.422   4.205  15.714  0.0348 -1.7818 -0.7593
  435MPD2    H1 6541   1.816   4.145  15.552 -0.0221 -0.5995  0.4740
  435MPD2    H2 6542   1.519   4.354  15.336 -1.3481 -0.5922 -0.5924
  435MPD2    H3 6543   1.732   4.243  15.348 -3.6043  2.6853 -2.0777
  435MPD2     N 6544   1.679   4.092  15.764 -0.0866  0.3320 -0.7545
  435MPD2    H5 6545   1.765   4.043  15.744 -0.4215  0.0017 -1.3573
  435MPD2    N1 6546   1.327   4.358  15.534 -0.5213  0.3123 -0.4819
  435MPD2    H7 6547   1.274   4.356  15.621  0.7730 -1.9094  0.2410
  436TMC3    C1 6548   1.011   4.540  15.663 -0.3230  0.1451 -0.1599
  436TMC3    C2 6549   1.126   4.535  15.580 -0.1591  0.5436 -0.3523
  436TMC3    C3 6550   1.127   4.460  15.468 -0.3653 -0.6094  0.7626
  436TMC3    C4 6551   0.899   4.467  15.635  0.5587  0.4291  0.6644
  436TMC3    C5 6552   0.913   4.379  15.530 -0.5497 -0.1396  0.3322
  436TMC3    C6 6553   1.019   4.378  15.440  0.7735  0.0523  0.5162
  436TMC3     C 6554   1.020   4.630  15.781  0.2281  0.7579 -0.2474
  436TMC3     O 6555   1.132   4.649  15.821 -0.1396 -0.2884  0.2831
  436TMC3     H 6556   1.211   4.597  15.603  0.3245  0.1549 -1.0935
  436TMC3    H1 6557   0.820   4.454  15.707 -0.6616 -1.4931 -1.0152
  436TMC3    H2 6558   1.028   4.299  15.367  0.0001  0.8566 -0.4462
  436TMC3    C7 6559   0.814   4.281  15.493  0.4587 -0.0243  1.2281
  436TMC3    C8 6560   1.257   4.418  15.427 -0.2970  0.4088 -0.0643
  436TMC3    O1 6561   0.830   4.195  15.401  0.4854 -0.4778 -0.5506
  436TMC3    O2 6562   1.287   4.414  15.309 -0.5225 -0.1201 -0.1411
  437TMC3    C1 6563   0.490   2.486  11.490 -0.0359 -0.3257  0.6891
  437TMC3    C2 6564   0.437   2.422  11.376  0.2002 -0.1136  0.3752
  437TMC3    C3 6565   0.370   2.304  11.399  0.7413  0.4468 -0.3690
  437TMC3    C4 6566   0.490   2.430  11.614 -0.3027  0.7752  0.5647
  437TMC3    C5 6567   0.433   2.310  11.630  0.5111  0.2058  0.9338
  437TMC3    C6 6568   0.365   2.244  11.525  0.0219  0.1290 -0.0139
  437TMC3     C 6569   0.448   2.625  11.493  0.8258 -0.2085 -0.0390
  437TMC3     O 6570   0.410   2.670  11.387 -0.0432 -0.1271 -0.4095
  437TMC3     H 6571   0.433   2.468  11.278 -1.7700 -0.2469  0.3988
  437TMC3    H1 6572   0.556   2.476  11.687 -0.7057 -0.3858  1.6707
  437TMC3    H2 6573   0.321   2.146  11.541  0.9732 -0.5870 -1.8144
  437TMC3    C7 6574   0.403   2.256  11.762  0.7729 -0.4898 -0.8272
  437TMC3    C8 6575   0.284   2.248  11.292  0.2121 -0.5886  0.1170
  437TMC3    O1 6576   0.353   2.140  11.764 -0.4331  0.5075 -0.0325
  437TMC3    O2 6577   0.316   2.268  11.175 -0.0565  0.7194  0.0615
  438MPD2     C 6578   2.276   2.925  16.785  0.3086 -0.1062 -0.1860
  438MPD2    C1 6579   2.302   2.799  16.845 -0.6175  0.0226  0.3469
  438MPD2    C2 6580   2.305   2.793  16.980 -0.2426  0.9118 -0.3924
  438MPD2    C3 6581   2.287   2.909  17.054 -0.2059 -0.5016 -0.7379
  438MPD2    C4 6582   2.264   3.035  16.993  0.7495  0.4302  0.1233
  438MPD2    C5 6583   2.252   3.036  16.858  0.4702 -0.5658  0.0748
  438MPD2     H 6584   2.337   2.704  17.032  1.9466  1.7415 -0.3239
  438MPD2    H1 6585   2.262   3.128  17.048  3.3480  0.8586 -0.5313
  438MPD2    H2 6586   2.258   2.931  16.679 -0.3476 -0.1109 -0.0760
  438MPD2    H3 6587   2.219   3.127  16.810 -3.0682 -2.3058 -0.7496
  438MPD2     N 6588   2.296   2.897  17.196 -0.0724 -0.5087 -0.4410
  438MPD2    H5 6589   2.247   2.969  17.249 -1.2123 -3.3066  2.2618
  438MPD2    N1 6590   2.337   2.683  16.765 -0.4421  0.2663  0.2212
  438MPD2    H7 6591   2.373   2.604  16.817 -1.6109  1.8574  3.4851
  439TMC3    C1 6592   2.423   2.545  16.596 -0.7230  0.4802 -0.1504
  439TMC3    C2 6593   2.431   2.495  16.466 -0.0557 -0.6977 -0.0629
  439TMC3    C3 6594   2.513   2.391  16.443 -0.2293  0.3646  0.2734
  439TMC3    C4 6595   2.519   2.513  16.690  0.4734  0.0779  0.0105
  439TMC3    C5 6596   2.598   2.404  16.660  0.5655  0.1714 -0.0316
  439TMC3    C6 6597   2.596   2.337  16.546 -0.4024  0.0583 -0.6412
  439TMC3     C 6598   2.343   2.666  16.625 -0.3814  0.0048  0.3376
  439TMC3     O 6599   2.309   2.741  16.530 -0.3805 -0.0382 -0.2021
  439TMC3     H 6600   2.349   2.517  16.398  0.3295  0.7353 -0.0647
  439TMC3    H1 6601   2.539   2.566  16.782  0.2237  1.9224 -1.0075
  439TMC3    H2 6602   2.668   2.256  16.535 -1.8066 -1.5006  1.6644
  439TMC3    C7 6603   2.731   2.417  16.719 -0.4038 -0.7027 -0.4873
  439TMC3    C8 6604   2.583   2.379  16.316 -0.0317  0.7605  0.2166
  439TMC3    O1 6605   2.778   2.310  16.752 -0.0116  0.6486  0.5346
  439TMC3    O2 6606   2.702   2.351  16.330  0.1154  0.2719  0.2691
  440MPD2     C 6607   0.704   2.553  15.068  0.6733 -0.6484 -0.4467
  440MPD2    C1 6608   0.795   2.632  15.130 -0.4942  0.4739  0.3088
  440MPD2    C2 6609   0.887   2.581  15.214  0.0709 -0.4220 -0.1372
  440MPD2    C3 6610   0.892   2.446  15.233 -0.7014 -0.4221  0.2937
  440MPD2    C4 6611   0.815   2.354  15.163 -0.5012  0.1629 -0.4052
  440MPD2    C5 6612   0.727   2.414  15.077 -0.0495  0.9356 -0.3265
  440MPD2     H 6613   0.954   2.657  15.254 -1.0602  0.4387  0.1226
  440MPD2    H1 6614   0.828   2.247  15.169  2.0671  0.3702 -2.1507
  440MPD2    H2 6615   0.634   2.593  14.996  1.2863  0.2761 -0.5286
  440MPD2    H3 6616   0.663   2.350  15.018  0.1320  0.3972  0.0681
  440MPD2     N 6617   0.987   2.391  15.327 -0.4616  1.3362  0.0336
  440MPD2    H5 6618   0.986   2.290  15.338  3.9226  1.4552  1.4686
  440MPD2    N1 6619   0.798   2.771  15.124  0.8089 -0.9220  0.0716
  440MPD2    H7 6620   0.867   2.818  15.181  0.9340 -0.1002 -0.7593
  441TMC3    C1 6621   1.164   2.374  15.478 -0.5265 -0.1137  0.0917
  441TMC3    C2 6622   1.295   2.417  15.506 -0.5055  0.8640  0.4244
  441TMC3    C3 6623   1.344   2.398  15.632  0.0923 -0.3655  0.4420
  441TMC3    C4 6624   1.091   2.318  15.580  0.3463 -0.2857 -0.5639
  441TMC3    C5 6625   1.149   2.298  15.702  0.2656 -0.2352  0.3435
  441TMC3    C6 6626   1.275   2.343  15.734  0.0804  0.3772 -0.3008
  441TMC3     C 6627   1.092   2.457  15.385  0.6171  0.2331  0.2913
  441TMC3     O 6628   1.132   2.569  15.368  0.2478  0.8196  1.0365
  441TMC3     H 6629   1.349   2.462  15.424 -0.5667  0.6517  0.2682
  441TMC3    H1 6630   0.983   2.323  15.573  0.2639 -1.1508  0.0584
  441TMC3    H2 6631   1.316   2.331  15.833 -0.2755 -1.4089 -0.3781
  441TMC3    C7 6632   1.061   2.307  15.818 -0.0665 -0.3760 -0.3923
  441TMC3    C8 6633   1.437   2.503  15.674  0.5452 -0.6133 -0.4266
  441TMC3    O1 6634   0.947   2.348  15.806 -0.5857  0.1491  0.4116
  441TMC3    O2 6635   1.487   2.497  15.786 -0.4715 -0.0912 -0.4507
  442MPD2     C 6636   3.826   4.040  16.355  0.0693  0.2138 -0.3061
  442MPD2    C1 6637   3.704   3.981  16.383  0.3399  0.5027 -0.5373
  442MPD2    C2 6638   3.706   3.839  16.381 -0.1425 -0.5443  0.4806
  442MPD2    C3 6639   3.822   3.762  16.362  0.3075 -0.2139  0.0180
  442MPD2    C4 6640   3.939   3.823  16.325  0.2083  0.1886 -0.5988
  442MPD2    C5 6641   3.933   3.962  16.326  0.4032 -0.3382  0.5657
  442MPD2     H 6642   3.615   3.783  16.400 -1.5077  1.5709  0.0941
  442MPD2    H1 6643   4.033   3.776  16.297  0.2957  1.6699 -2.8236
  442MPD2    H2 6644   3.840   4.147  16.345  2.0338 -0.1300 -1.2824
  442MPD2    H3 6645   4.017   4.028  16.314 -0.1143  0.3043  0.4987
  442MPD2     N 6646   3.832   3.623  16.376 -0.1080  0.5366 -0.1334
  442MPD2    H5 6647   3.928   3.594  16.365 -0.3912 -0.2404 -0.5776
  442MPD2    N1 6648   3.583   4.053  16.399 -0.2857 -0.9983  0.5011
  442MPD2    H7 6649   3.498   3.998  16.397 -0.0854 -1.2419 -1.6505
  443TMC3    C1 6650   3.438   4.225  16.437 -1.0652 -0.2442 -0.0746
  443TMC3    C2 6651   3.352   4.259  16.331  0.1690  0.2234  0.0985
  443TMC3    C3 6652   3.219   4.227  16.335 -0.5584  0.8691  0.4751
  443TMC3    C4 6653   3.388   4.172  16.553  0.5598 -0.7935  0.9317
  443TMC3    C5 6654   3.255   4.160  16.555 -0.4626  0.2071 -0.0310
  443TMC3    C6 6655   3.166   4.182  16.448 -0.7988 -0.3320  0.3024
  443TMC3     C 6656   3.567   4.187  16.393  0.2795 -0.3600  0.8448
  443TMC3     O 6657   3.654   4.267  16.359 -0.3703  0.0891  0.3300
  443TMC3     H 6658   3.403   4.306  16.248  0.1941  0.8661  0.4789
  443TMC3    H1 6659   3.456   4.144  16.633  2.3511  1.3589  0.1393
  443TMC3    H2 6660   3.059   4.181  16.467 -0.8030  0.0004  0.2857
  443TMC3    C7 6661   3.205   4.145  16.692 -0.7031  0.8037  0.0060
  443TMC3    C8 6662   3.129   4.282  16.236 -0.0261 -0.2765 -0.3973
  443TMC3    O1 6663   3.096   4.095  16.714  0.4335  0.7632 -0.7242
  443TMC3    O2 6664   3.017   4.312  16.272 -0.1108 -0.6783 -0.4977
  444MPD2     C 6665   4.023   3.348  17.070  0.3520 -0.0382  0.0071
  444MPD2    C1 6666   3.986   3.227  17.119 -0.1075 -0.0643  0.0312
  444MPD2    C2 6667   4.058   3.116  17.070  0.1150 -0.4610  0.1290
  444MPD2    C3 6668   4.169   3.132  16.994  1.0038  0.2208 -1.1709
  444MPD2    C4 6669   4.209   3.262  16.955  0.5026 -0.2167  0.3607
  444MPD2    C5 6670   4.129   3.365  16.977 -0.0816  0.0093  0.7188
  444MPD2     H 6671   4.021   3.017  17.092 -4.2660  1.0045 -0.4230
  444MPD2    H1 6672   4.298   3.275  16.894  0.0758  1.2836  0.0755
  444MPD2    H2 6673   3.965   3.437  17.094 -0.5116  0.0528 -2.3953
  444MPD2    H3 6674   4.146   3.467  16.942 -2.0364 -0.3614 -1.3165
  444MPD2     N 6675   4.234   3.010  16.949 -1.1552  0.2301  0.2672
  444MPD2    H5 6676   4.187   2.924  16.974 -1.9882  0.4770 -0.4392
  444MPD2    N1 6677   3.891   3.197  17.220  0.2121 -0.0075 -0.0470
  444MPD2    H7 6678   3.879   3.100  17.246  0.4806 -0.0588 -0.1127
  445TMC3    C1 6679   4.417   2.861  16.897 -0.4687 -0.4436 -0.3911
  445TMC3    C2 6680   4.371   2.788  17.000  0.0045  0.3264  0.1601
  445TMC3    C3 6681   4.442   2.679  17.046  0.5298 -1.0544  0.0785
  445TMC3    C4 6682   4.541   2.831  16.837 -0.1662  0.5936 -0.1823
  445TMC3    C5 6683   4.611   2.723  16.888 -0.0273 -0.0460  0.2845
  445TMC3    C6 6684   4.566   2.650  16.999 -0.7652  1.0663  0.4946
  445TMC3     C 6685   4.361   2.995  16.894  0.0576 -0.1137  0.0166
  445TMC3     O 6686   4.437   3.087  16.866  0.3303  0.5193  0.3004
  445TMC3     H 6687   4.284   2.808  17.061 -0.5350 -2.5731  0.3470
  445TMC3    H1 6688   4.581   2.913  16.778  2.6604 -0.6927 -0.0790
  445TMC3    H2 6689   4.602   2.553  17.029  2.5815  2.0653 -0.2591
  445TMC3    C7 6690   4.735   2.686  16.824  0.4814  0.4579 -0.6890
  445TMC3    C8 6691   4.372   2.580  17.123 -0.5965  0.2006  0.1806
  445TMC3    O1 6692   0.018   2.723  16.714 -0.2360 -0.3611  0.0524
  445TMC3    O2 6693   4.438   2.496  17.183  0.3768 -0.2098 -0.0999
  446MPD2     C 6694   3.928   4.581  11.449 -0.2216 -0.3931 -0.0643
  446MPD2    C1 6695   3.899   4.585  11.317 -0.8981  0.4574  0.0952
  446MPD2    C2 6696   3.986   4.652  11.231  0.4521  0.6445 -0.2781
  446MPD2    C3 6697   4.109   4.698  11.274 -0.2596  0.6206  0.9704
  446MPD2    C4 6698   4.134   4.692  11.406 -0.1407  0.3776 -0.0950
  446MPD2    C5 6699   4.043   4.643  11.488 -1.0068 -0.1868 -0.6101
  446MPD2     H 6700   3.955   4.664  11.128  1.8944  0.3752 -0.7459
  446MPD2    H1 6701   4.229   4.718  11.452 -1.0382 -0.6152  2.3098
  446MPD2    H2 6702   3.861   4.540  11.524 -0.7459  0.2291 -0.2000
  446MPD2    H3 6703   4.060   4.662  11.593 -2.4244 -0.2682 -0.3660
  446MPD2     N 6704   4.184   0.038  11.181 -0.5248 -0.3439 -0.1179
  446MPD2    H5 6705   4.149   0.057  11.088 -0.0301  0.6184 -0.1022
  446MPD2    N1 6706   3.792   4.528  11.244 -0.9515 -0.0907  0.4079
  446MPD2    H7 6707   3.797   4.526  11.142 -1.9955  1.3495  0.3318
  447TMC3    C1 6708   4.382   0.143  11.097  0.6369  0.2558  0.5691
  447TMC3    C2 6709   4.311   0.218  11.009 -0.0053 -0.0399  0.4388
  447TMC3    C3 6710   4.382   0.325  10.963  0.1346 -0.4697  0.1851
  447TMC3    C4 6711   4.516   0.166  11.123  0.5675 -0.1794  0.0295
  447TMC3    C5 6712   4.579   0.278  11.070  0.0565  0.1062 -0.2744
  447TMC3    C6 6713   4.511   0.367  10.991 -0.2414 -0.5773  0.2566
  447TMC3     C 6714   4.322   0.059  11.202  0.1417 -0.1056  0.4914
  447TMC3     O 6715   4.392   0.018  11.295 -0.6862 -0.4542 -0.0252
  447TMC3     H 6716   4.211   0.195  10.976 -0.5826  1.3277  1.2105
  447TMC3    H1 6717   4.566   0.112  11.203 -1.3682  0.5160  1.7340
  447TMC3    H2 6718   4.566   0.433  10.925  1.3046 -3.1441 -1.0314
  447TMC3    C7 6719   4.718   0.283  11.076 -0.4349  0.5502 -1.5503
  447TMC3    C8 6720   4.303   0.404  10.870 -0.4428  0.4315 -0.8032
  447TMC3    O1 6721   0.041   0.180  11.099 -0.3167  0.0299  0.1079
  447TMC3    O2 6722   4.214   0.345  10.812 -0.6581  0.3202  0.0966
  448TMC3    C1 6723   2.949   4.244  17.063  0.7904 -0.0215  0.8433
  448TMC3    C2 6724   2.821   4.207  17.010 -0.2239  0.0812 -0.2232
  448TMC3    C3 6725   2.752   4.106  17.070 -1.1194 -0.2370 -0.1665
  448TMC3    C4 6726   3.004   4.181  17.168  0.0754 -0.6861  0.0934
  448TMC3    C5 6727   2.921   4.090  17.238 -0.4571  0.8744 -0.1037
  448TMC3    C6 6728   2.805   4.039  17.181  0.0827 -0.1887  0.4158
  448TMC3     C 6729   3.000   4.364  17.003 -0.5251 -0.4079  0.6328
  448TMC3     O 6730   2.942   4.420  16.906  0.5387 -0.0227 -0.4501
  448TMC3     H 6731   2.777   4.249  16.920  0.2654 -0.0208 -0.5139
  448TMC3    H1 6732   3.099   4.210  17.212 -0.8156  1.6996  0.4265
  448TMC3    H2 6733   2.742   3.965  17.229 -1.8332  1.2175  0.0298
  448TMC3    C7 6734   2.982   4.032  17.359  1.1705  0.5040  0.1989
  448TMC3    C8 6735   2.652   4.026  16.991 -0.5626  0.0949  0.3820
  448TMC3    O1 6736   3.096   4.060  17.380 -0.6638 -0.2730 -0.4322
  448TMC3    O2 6737   2.631   3.913  17.026  0.1516  0.0377 -0.3068
  449MPD2     C 6738   3.554   1.967  13.698 -0.0564 -0.0554 -1.2128
  449MPD2    C1 6739   3.513   2.083  13.757  0.1178 -0.1228 -0.3643
  449MPD2    C2 6740   3.413   2.084  13.846 -0.2104 -0.3956  0.8096
  449MPD2    C3 6741   3.339   1.962  13.870 -0.1494  0.3650 -0.5628
  449MPD2    C4 6742   3.380   1.844  13.813 -0.7634  0.3679 -0.2891
  449MPD2    C5 6743   3.483   1.852  13.730  0.3497 -0.2805 -0.0024
  449MPD2     H 6744   3.380   2.168  13.906 -3.7997  0.3864 -2.2434
  449MPD2    H1 6745   3.333   1.748  13.831  1.2491 -0.1136  2.4463
  449MPD2    H2 6746   3.639   1.959  13.632  1.1901  2.1791  0.1264
  449MPD2    H3 6747   3.502   1.760  13.675 -2.7640 -0.7992 -0.2127
  449MPD2     N 6748   3.221   1.977  13.942 -0.2525  0.1949  0.1245
  449MPD2    H5 6749   3.192   2.072  13.964  1.0760  0.4527  0.7581
  449MPD2    N1 6750   3.578   2.202  13.749  0.0723  0.5717  0.1243
  449MPD2    H7 6751   3.554   2.276  13.814 -0.6043 -1.3281  2.0626
  450TMC3    C1 6752   3.702   2.385  13.682 -1.1559  0.2376 -0.4510
  450TMC3    C2 6753   3.681   2.458  13.565 -0.3862  0.5176 -0.6137
  450TMC3    C3 6754   3.633   2.593  13.580  0.4018  0.1187  0.2084
  450TMC3    C4 6755   3.673   2.439  13.805  0.3938  0.4217  0.3300
  450TMC3    C5 6756   3.616   2.563  13.816  0.6823  0.4158 -0.0830
  450TMC3    C6 6757   3.597   2.639  13.703  0.5279  0.0981  0.8641
  450TMC3     C 6758   3.686   2.243  13.670  0.0797 -0.3239 -0.1862
  450TMC3     O 6759   3.744   2.185  13.579  0.5331  0.6444 -0.7487
  450TMC3     H 6760   3.694   2.416  13.466 -0.4661 -3.8553  1.2550
  450TMC3    H1 6761   3.691   2.376  13.890 -0.2944 -0.9360 -0.5290
  450TMC3    H2 6762   3.558   2.740  13.718  0.3785 -0.0166  1.2638
  450TMC3    C7 6763   3.496   2.541  13.892 -0.3094 -0.2931  0.2271
  450TMC3    C8 6764   3.615   2.676  13.470  0.9238  0.2813  0.2764
  450TMC3    O1 6765   3.472   2.421  13.914  0.3019  0.5093 -0.4740
  450TMC3    O2 6766   3.569   2.791  13.475 -0.6415 -0.0562 -0.4779
  451MPD2     C 6767   0.815   1.352   1.001 -0.0756 -0.7862  0.2171
  451MPD2    C1 6768   0.738   1.239   0.974 -0.2803  0.2479  0.0796
  451MPD2    C2 6769   0.796   1.130   0.913  0.4761 -0.0112  0.3324
  451MPD2    C3 6770   0.924   1.136   0.866 -0.6551 -0.0809 -0.5274
  451MPD2    C4 6771   1.001   1.244   0.899  0.2259  0.4112 -0.4632
  451MPD2    C5 6772   0.948   1.350   0.963  0.2540  0.3744  0.4194
  451MPD2     H 6773   0.735   1.047   0.880  0.7626 -0.0998  0.0187
  451MPD2    H1 6774   1.104   1.260   0.868  0.7046 -0.2611  0.7809
  451MPD2    H2 6775   0.771   1.444   1.037 -0.8555  0.5425 -4.0805
  451MPD2    H3 6776   1.008   1.436   0.989 -1.1443  1.8639 -1.2292
  451MPD2     N 6777   0.969   1.047   0.770  0.8276 -0.5543 -0.7042
  451MPD2    H5 6778   1.068   1.048   0.745  0.8982 -1.8403 -0.4842
  451MPD2    N1 6779   0.603   1.234   1.015  0.2962 -0.2895  0.2194
  451MPD2    H7 6780   0.562   1.323   1.038 -1.8318 -1.4902  1.0535
  452TMC3    C1 6781   0.963   0.873   0.601 -0.3632  0.7736 -0.2827
  452TMC3    C2 6782   0.871   0.774   0.569  0.7962 -0.9618 -1.0023
  452TMC3    C3 6783   0.834   0.761   0.441 -0.5023 -0.8669  0.4073
  452TMC3    C4 6784   1.029   0.940   0.502  0.2528 -0.1087 -0.2360
  452TMC3    C5 6785   0.989   0.914   0.375 -0.1138  0.7421 -0.1055
  452TMC3    C6 6786   0.893   0.823   0.333  0.3417 -0.3233  0.0379
  452TMC3     C 6787   0.887   0.957   0.700  1.0403 -0.0376  0.2443
  452TMC3     O 6788   0.768   0.946   0.693  0.1486 -0.2232  0.3963
  452TMC3     H 6789   0.835   0.702   0.641 -0.0788 -0.5021 -0.9848
  452TMC3    H1 6790   1.090   1.027   0.527 -2.4393  2.1297 -1.4486
  452TMC3    H2 6791   0.873   0.794   0.231 -0.0742  0.1897 -0.0207
  452TMC3    C7 6792   1.040   1.002   0.279 -0.1206 -0.4605  0.4428
  452TMC3    C8 6793   0.698   0.729   0.423  0.1853 -0.4358 -0.5730
  452TMC3    O1 6794   0.969   1.043   0.189 -0.1251 -0.3971  0.0329
  452TMC3    O2 6795   0.662   0.684   0.315  0.1975 -0.1297 -0.8555
  453TMC3    C1 6796   1.123   3.341  12.146 -0.1783  0.6546 -0.3387
  453TMC3    C2 6797   1.086   3.238  12.071 -0.2636  0.2789 -0.5339
  453TMC3    C3 6798   1.042   3.258  11.947  0.2357 -0.3105 -0.8204
  453TMC3    C4 6799   1.098   3.469  12.107  0.0244  0.0603  0.4291
  453TMC3    C5 6800   1.040   3.488  11.987  0.1156  0.4385  0.0020
  453TMC3    C6 6801   1.008   3.385  11.904  0.2531 -0.2982 -0.0484
  453TMC3     C 6802   1.203   3.331  12.259  0.9183  0.3302 -0.1454
  453TMC3     O 6803   1.235   3.430  12.322  0.2744 -0.1990 -0.2926
  453TMC3     H 6804   1.088   3.139  12.115 -2.0734  0.2306 -0.5753
  453TMC3    H1 6805   1.120   3.547  12.180 -1.7667 -0.2963  1.3537
  453TMC3    H2 6806   0.935   3.397  11.825  1.7274  0.8713 -1.2307
  453TMC3    C7 6807   1.030   3.618  11.927 -0.5269 -0.7291  0.0750
  453TMC3    C8 6808   1.026   3.151  11.846 -0.5791 -0.5367 -0.1407
  453TMC3    O1 6809   1.029   3.711  12.011  0.1244  0.5366  0.0554
  453TMC3    O2 6810   0.990   3.189  11.733 -0.1127 -0.6429  0.2806
  454MPD2     C 6811   0.068   3.107  16.188  0.4998  0.9212 -0.4006
  454MPD2    C1 6812   0.024   2.979  16.206 -0.6472  0.3616  0.3592
  454MPD2    C2 6813   4.668   2.952  16.301 -0.5982  0.0595 -0.3211
  454MPD2    C3 6814   4.608   3.050  16.380 -1.0941 -0.1603  0.4193
  454MPD2    C4 6815   4.666   3.175  16.374  0.9140 -0.5374 -0.0521
  454MPD2    C5 6816   0.022   3.199  16.275 -0.4441 -0.5471  0.7929
  454MPD2     H 6817   4.644   2.848  16.321 -0.5855  0.6692  2.9093
  454MPD2    H1 6818   4.623   3.257  16.430  0.0274 -1.0810  0.0711
  454MPD2    H2 6819   0.130   3.132  16.103  0.4581 -2.7451 -1.4939
  454MPD2    H3 6820   0.052   3.303  16.282 -0.6814 -0.5157  1.3586
  454MPD2     N 6821   4.487   3.028  16.460 -0.4961  0.3132  0.1064
  454MPD2    H5 6822   4.457   3.112  16.507  0.2201 -0.3512  1.7800
  454MPD2    N1 6823   0.059   2.878  16.112 -0.1220  0.3811 -0.2021
  454MPD2    H7 6824   0.085   2.908  16.019  1.3597  0.9759  0.4006
  455TMC3    C1 6825   4.283   2.928  16.536 -0.2502  0.7360  0.5097
  455TMC3    C2 6826   4.239   3.049  16.579 -0.6499  0.1974 -0.2042
  455TMC3    C3 6827   4.109   3.055  16.621  0.0231 -0.9038  0.2385
  455TMC3    C4 6828   4.206   2.813  16.532 -0.0330 -0.5760 -0.2721
  455TMC3    C5 6829   4.076   2.827  16.578 -0.0463  0.1965  0.0785
  455TMC3    C6 6830   4.029   2.943  16.627  0.1815 -0.1730  0.6367
  455TMC3     C 6831   4.421   2.913  16.473  0.2978 -0.1196  0.5715
  455TMC3     O 6832   4.450   2.803  16.426 -0.0610  0.7285  0.1648
  455TMC3     H 6833   4.301   3.138  16.580 -1.2377  0.6012  0.4256
  455TMC3    H1 6834   4.242   2.717  16.497  0.5880 -1.7699  3.5768
  455TMC3    H2 6835   3.922   2.945  16.648 -0.3051 -1.6233 -1.6853
  455TMC3    C7 6836   4.009   2.703  16.603 -0.5869  0.3178 -0.0552
  455TMC3    C8 6837   4.054   3.185  16.627  0.0630 -0.1050  0.0139
  455TMC3    O1 6838   3.968   2.681  16.714  0.0503 -0.5744 -0.0625
  455TMC3    O2 6839   4.118   3.281  16.583  0.7379  0.3497  0.4229
  456MPD2     C 6840   2.500   3.065  15.967 -0.0922  0.0488  0.9450
  456MPD2    C1 6841   2.547   2.993  16.075  0.2342 -0.2116 -0.3828
  456MPD2    C2 6842   2.531   3.050  16.200  0.2164 -0.1704  0.6415
  456MPD2    C3 6843   2.471   3.175  16.212  0.2044 -0.3022  0.8311
  456MPD2    C4 6844   2.421   3.239  16.106  0.3103  0.4153  0.5408
  456MPD2    C5 6845   2.423   3.177  15.980  0.6613  0.2868  1.1005
  456MPD2     H 6846   2.562   2.990  16.285  1.2421  0.0750  0.4383
  456MPD2    H1 6847   2.361   3.329  16.110  2.4114  1.7729  1.6630
  456MPD2    H2 6848   2.518   3.015  15.873 -1.3752  0.3207  0.5444
  456MPD2    H3 6849   2.384   3.227  15.892 -1.2654 -0.7464  1.3632
  456MPD2     N 6850   2.468   3.236  16.337  0.1505  0.6516 -0.1747
  456MPD2    H5 6851   2.489   3.180  16.420  0.0287  0.2956 -0.3842
  456MPD2    N1 6852   2.636   2.882  16.057 -0.1587  0.0363 -0.3173
  456MPD2    H7 6853   2.663   2.865  15.960 -2.1151 -1.6374 -0.5816
  457TMC3    C1 6854   2.430   3.381  16.511 -0.5601  0.5847  0.3380
  457TMC3    C2 6855   2.375   3.500  16.560  0.0710 -0.2677 -0.4620
  457TMC3    C3 6856   2.348   3.522  16.689  0.0987 -0.3988 -0.1402
  457TMC3    C4 6857   2.470   3.285  16.599  0.3060  0.8493 -0.1847
  457TMC3    C5 6858   2.449   3.311  16.733  0.6007 -0.3387 -0.2347
  457TMC3    C6 6859   2.375   3.421  16.781 -0.5138 -0.5497  0.0170
  457TMC3     C 6860   2.422   3.364  16.366  0.1749  0.5835  0.4020
  457TMC3     O 6861   2.404   3.461  16.291 -0.1861 -0.2678 -0.4609
  457TMC3     H 6862   2.344   3.572  16.485 -0.5696  0.9538  0.9734
  457TMC3    H1 6863   2.550   3.216  16.574 -1.4772 -0.9245 -0.9661
  457TMC3    H2 6864   2.343   3.427  16.884 -0.9781 -0.3688 -0.1331
  457TMC3    C7 6865   2.551   3.257  16.823  0.0983  0.4842  0.3656
  457TMC3    C8 6866   2.379   3.647  16.753  0.1319 -0.4521  0.3617
  457TMC3    O1 6867   2.597   3.149  16.797 -0.3065 -0.2352 -0.2461
  457TMC3    O2 6868   2.458   3.641  16.851  0.4308 -0.3814 -0.3731
  458MPD2     C 6869   0.272   2.310  12.248 -0.1805  0.8376  0.0959
  458MPD2    C1 6870   0.409   2.354  12.237 -0.5432  0.4927 -0.3534
  458MPD2    C2 6871   0.461   2.361  12.107 -0.0190 -0.4237 -0.0753
  458MPD2    C3 6872   0.387   2.323  11.994 -0.3668  0.4826 -0.7007
  458MPD2    C4 6873   0.257   2.272  12.009 -0.5954 -0.0067 -0.7322
  458MPD2    C5 6874   0.201   2.270  12.135  0.1840  0.4089  0.1938
  458MPD2     H 6875   0.562   2.398  12.094 -0.2137 -0.6561 -2.3147
  458MPD2    H1 6876   0.186   2.254  11.929 -0.9274 -1.7665 -0.0219
  458MPD2    H2 6877   0.227   2.312  12.347 -0.7363  0.0519 -0.1478
  458MPD2    H3 6878   0.104   2.228  12.157  0.0664  1.0054  0.8103
  458MPD2     N 6879   0.448   2.333  11.867  0.0706 -0.0641 -0.1255
  458MPD2    H5 6880   0.503   2.417  11.850 -0.0450 -0.0372 -0.3720
  458MPD2    N1 6881   0.477   2.381  12.358  0.0935  0.2992  0.1336
  458MPD2    H7 6882   0.434   2.357  12.447 -1.7898 -0.8212 -1.0873
  459TMC3    C1 6883   0.655   2.403  12.494  0.4032 -0.5179 -0.4583
  459TMC3    C2 6884   0.783   2.452  12.520  0.5123  0.3419  0.0209
  459TMC3    C3 6885   0.843   2.423  12.638 -0.2014 -0.6319 -0.5577
  459TMC3    C4 6886   0.595   2.324  12.589  0.0103  0.5134  0.4153
  459TMC3    C5 6887   0.659   2.288  12.704 -0.0594  0.0530  0.2197
  459TMC3    C6 6888   0.779   2.348  12.736 -0.3524 -0.2287  0.0554
  459TMC3     C 6889   0.608   2.405  12.360 -0.1775  0.0522  0.4475
  459TMC3     O 6890   0.681   2.457  12.283 -0.6555 -0.0675  0.2628
  459TMC3     H 6891   0.832   2.510  12.443  0.7786  0.6608  0.4318
  459TMC3    H1 6892   0.500   2.279  12.561  1.2897 -0.3852 -2.4650
  459TMC3    H2 6893   0.825   2.332  12.833 -0.3335 -0.2120  0.0495
  459TMC3    C7 6894   0.620   2.173  12.793  0.6086  1.1527 -0.3096
  459TMC3    C8 6895   0.988   2.438  12.640  0.2736 -0.0662  0.1436
  459TMC3    O1 6896   0.715   2.133  12.860 -0.5258 -0.5995 -0.3108
  459TMC3    O2 6897   1.058   2.459  12.540 -0.3837 -0.0643 -0.3425
  460MPD2     C 6898   4.298   0.778  10.866  0.3871  0.2051 -0.1805
  460MPD2    C1 6899   4.290   0.651  10.808 -0.7707 -0.3551 -0.3304
  460MPD2    C2 6900   4.214   0.636  10.693 -0.0251 -0.2516 -0.4097
  460MPD2    C3 6901   4.149   0.743  10.640 -0.2782  0.8205 -0.2548
  460MPD2    C4 6902   4.170   0.871  10.693 -0.1016 -0.2394  0.1468
  460MPD2    C5 6903   4.232   0.889  10.813 -0.1039  0.6860 -0.5196
  460MPD2     H 6904   4.205   0.538  10.648  0.3626  0.0200 -1.0725
  460MPD2    H1 6905   4.134   0.961  10.645  0.6511  0.0036  0.0279
  460MPD2    H2 6906   4.353   0.781  10.959  0.6259  1.0386 -0.3451
  460MPD2    H3 6907   4.241   0.985  10.862 -0.7538  0.3723  0.2156
  460MPD2     N 6908   4.094   0.717  10.508  0.6416  0.2474 -0.1035
  460MPD2    H5 6909   4.090   0.620  10.477 -1.9354  0.4416 -0.3612
  460MPD2    N1 6910   4.345   0.537  10.872 -0.4071  0.2423  0.2006
  460MPD2    H7 6911   4.412   0.544  10.947  2.9997  2.1995 -3.0388
  461TMC3    C1 6912   4.010   0.775  10.294  0.1094  0.9345 -0.4879
  461TMC3    C2 6913   3.962   0.646  10.269  0.2026 -0.4696  0.2098
  461TMC3    C3 6914   3.903   0.621  10.148  0.9877 -0.4538 -0.6859
  461TMC3    C4 6915   4.010   0.876  10.200 -0.0496 -0.1426  0.1178
  461TMC3    C5 6916   3.966   0.838  10.072  0.2163 -1.2835  0.1018
  461TMC3    C6 6917   3.906   0.720  10.047 -0.0907  0.9412  0.2273
  461TMC3     C 6918   4.043   0.819  10.428 -0.3946  0.0425 -0.0115
  461TMC3     O 6919   4.055   0.942  10.442 -0.2190 -0.1499 -0.5510
  461TMC3     H 6920   3.961   0.573  10.348  2.1501  0.4193  1.0732
  461TMC3    H1 6921   4.043   0.976  10.225  1.7665 -0.3188 -1.6298
  461TMC3    H2 6922   3.860   0.705   9.950 -0.7986 -2.0953  1.0196
  461TMC3    C7 6923   3.929   0.949   9.987  0.4470 -0.1679  0.7854
  461TMC3    C8 6924   3.893   0.480  10.111 -0.1328  0.0533 -0.5957
  461TMC3    O1 6925   3.921   1.058  10.038  0.3776 -0.0893  0.3304
  461TMC3    O2 6926   3.941   0.396  10.184 -0.1216  0.2172 -0.5462
  462TMC3    C1 6927   4.646   1.460  17.594 -0.1503  0.3361  0.1785
  462TMC3    C2 6928   4.716   1.395  17.502 -0.2224  0.1626 -1.1979
  462TMC3    C3 6929   0.001   1.258  17.525  0.0312  0.3098  0.4344
  462TMC3    C4 6930   4.582   1.393  17.698  0.0646 -0.2706 -0.0750
  462TMC3    C5 6931   4.606   1.266  17.712  0.5165  0.2867  0.2446
  462TMC3    C6 6932   4.697   1.196  17.635 -0.3676 -0.7598  0.0160
  462TMC3     C 6933   4.600   1.594  17.565  0.3613  0.1543  0.8818
  462TMC3     O 6934   4.495   1.616  17.625 -0.2775 -0.6097 -0.3492
  462TMC3     H 6935   0.017   1.432  17.407 -0.2808 -2.2685 -2.1658
  462TMC3    H1 6936   4.514   1.445   0.023  0.1797 -1.5001  0.9767
  462TMC3    H2 6937   4.720   1.090  17.648 -0.6076 -0.9396 -1.0879
  462TMC3    C7 6938   4.520   1.185   0.057 -0.1258 -0.3636  0.2952
  462TMC3    C8 6939   4.733   1.170  17.406  0.2801 -0.2614  0.0538
  462TMC3    O1 6940   4.575   1.096   0.123  0.1791 -0.0571  0.2531
  462TMC3    O2 6941   4.665   1.215  17.314 -0.2555  0.1523 -0.2843
  463MPD2     C 6942   0.851   0.173   0.944 -0.0702 -0.2407 -0.0913
  463MPD2    C1 6943   0.721   0.134   0.958 -0.2381  0.5610  0.0642
  463MPD2    C2 6944   0.632   0.217   1.028  0.5077 -0.3053 -0.3724
  463MPD2    C3 6945   0.677   0.338   1.094  0.3708  0.3353 -0.2515
  463MPD2    C4 6946   0.808   0.370   1.080 -0.0636  0.7650  0.0632
  463MPD2    C5 6947   0.894   0.295   1.002 -0.4765  1.3999  0.7147
  463MPD2     H 6948   0.530   0.182   1.037 -0.0952  1.5001 -0.0481
  463MPD2    H1 6949   0.842   0.465   1.121 -0.7878  1.6178 -1.3125
  463MPD2    H2 6950   0.921   0.109   0.891  0.8395 -0.5146  1.4524
  463MPD2    H3 6951   0.998   0.321   0.992  0.4433 -1.3718  2.8663
  463MPD2     N 6952   0.599   0.414   1.176  0.5520  0.1320 -0.2625
  463MPD2    H5 6953   0.647   0.491   1.222  0.6280  0.2992 -0.6167
  463MPD2    N1 6954   0.661   0.022   0.893  0.1393  0.2922 -0.1144
  463MPD2    H7 6955   0.560   0.008   0.902  0.1242  2.2794  2.5700
  464TMC3    C1 6956   0.637   4.551   0.799 -0.0037 -0.5370 -0.4767
  464TMC3    C2 6957   0.514   4.588   0.748  0.0742  0.2296 -0.1560
  464TMC3    C3 6958   0.437   4.490   0.697  0.0853 -0.7096  0.5473
  464TMC3    C4 6959   0.673   4.419   0.803  0.1375  0.2438  0.1240
  464TMC3    C5 6960   0.592   4.327   0.743 -0.6860 -0.7792 -0.1056
  464TMC3    C6 6961   0.480   4.361   0.679 -0.2867 -0.0160 -0.9705
  464TMC3     C 6962   0.731   4.648   0.850  0.6724  0.0508 -0.7808
  464TMC3     O 6963   0.850   4.620   0.873  0.1420  0.1046  0.4180
  464TMC3     H 6964   0.475   4.689   0.753  0.0175  0.2741 -1.4077
  464TMC3    H1 6965   0.768   4.389   0.845  0.4411  1.2174  0.1435
  464TMC3    H2 6966   0.416   4.289   0.628 -2.3169  0.6074  0.7320
  464TMC3    C7 6967   0.639   4.191   0.744  0.2224  0.6368  0.8332
  464TMC3    C8 6968   0.293   4.495   0.694  0.2560  0.2686 -0.1115
  464TMC3    O1 6969   0.761   4.175   0.757  0.2063  0.5084  0.6277
  464TMC3    O2 6970   0.234   4.420   0.619 -0.3144 -0.2567 -0.3126
  465MPD2     C 6971   1.710   3.057  16.632  0.5597  0.0635 -0.2570
  465MPD2    C1 6972   1.623   3.027  16.733 -0.0401  0.3041  0.3028
  465MPD2    C2 6973   1.492   3.017  16.694 -0.1010  0.0152  0.9372
  465MPD2    C3 6974   1.451   3.033  16.562 -0.5257  0.3993 -0.0593
  465MPD2    C4 6975   1.547   3.075  16.468  0.0247  1.0210  0.1725
  465MPD2    C5 6976   1.677   3.085  16.504  0.5232  0.2954  1.0964
  465MPD2     H 6977   1.422   2.990  16.773  0.1657  0.5315  1.3520
  465MPD2    H1 6978   1.512   3.100  16.368  1.4665  1.5484 -0.2095
  465MPD2    H2 6979   1.817   3.050  16.641  0.5069  1.5151  1.4220
  465MPD2    H3 6980   1.753   3.116  16.433 -1.1875 -2.4676 -1.9284
  465MPD2     N 6981   1.318   3.009  16.539 -0.1765 -0.0960  0.0270
  465MPD2    H5 6982   1.269   2.981  16.623 -1.4132  0.5215 -0.4883
  465MPD2    N1 6983   1.653   3.000  16.867  0.1251 -0.4711 -0.3799
  465MPD2    H7 6984   1.582   2.990  16.939  1.1015 -0.2939  0.6108
  466TMC3    C1 6985   0.948   2.835  16.480  0.0608 -0.4426 -0.4763
  466TMC3    C2 6986   0.854   2.911  16.411 -0.2377 -0.3825  0.5410
  466TMC3    C3 6987   0.901   3.020  16.336 -0.0123  0.1010  0.4675
  466TMC3    C4 6988   1.079   2.876  16.489 -0.2365 -0.1217  0.2683
  466TMC3    C5 6989   1.112   2.991  16.422 -0.0592  0.1732  0.2801
  466TMC3    C6 6990   1.030   3.063  16.340 -0.2530 -0.0817 -0.1722
  466TMC3     C 6991   0.906   2.768  16.597 -0.2027 -0.1724  0.0882
  466TMC3     O 6992   0.975   2.686  16.655  0.2495 -0.2594 -0.3486
  466TMC3     H 6993   0.747   2.896  16.400 -0.4269  0.8687  0.7240
  466TMC3    H1 6994   1.145   2.836  16.565 -1.8257  0.2659  1.8583
  466TMC3    H2 6995   1.069   3.153  16.294 -0.0024 -0.1429 -0.0786
  466TMC3    C7 6996   1.251   3.032  16.420 -0.8266  0.5533  1.0934
  466TMC3    C8 6997   0.806   3.120  16.288 -0.7071 -0.1491  0.0897
  466TMC3    O1 6998   1.289   3.077  16.313 -0.3913  0.5002 -0.4460
  466TMC3    O2 6999   0.816   3.153  16.169  0.0709 -0.3502 -0.5149
  467TMC3    C1 7000   2.674   1.458  13.861  0.1216  0.3251  0.0098
  467TMC3    C2 7001   2.624   1.543  13.765 -0.2689  0.3168 -0.3116
  467TMC3    C3 7002   2.498   1.534  13.720  0.2249  0.1521  0.0655
  467TMC3    C4 7003   2.589   1.361  13.921 -0.0401  0.6358  0.0275
  467TMC3    C5 7004   2.455   1.366  13.892 -0.4291 -0.0709 -0.0721
  467TMC3    C6 7005   2.406   1.448  13.787  0.0376 -0.6552 -0.1444
  467TMC3     C 7006   2.820   1.438  13.879 -0.0738  0.1661 -0.1211
  467TMC3     O 7007   2.889   1.511  13.811  0.6739  0.7353  0.0160
  467TMC3     H 7008   2.701   1.608  13.726  0.9168 -0.2630  1.0661
  467TMC3    H1 7009   2.626   1.312  14.010 -2.2229  0.2621  0.7287
  467TMC3    H2 7010   2.302   1.450  13.759  0.2987  0.4374 -0.9966
  467TMC3    C7 7011   2.370   1.304  13.987 -0.5906 -0.1803 -0.8678
  467TMC3    C8 7012   2.444   1.658  13.666 -0.0884 -0.2544  0.2995
  467TMC3    O1 7013   2.417   1.208  14.050  0.2452  0.1637  0.0762
  467TMC3    O2 7014   2.320   1.670  13.676  0.6313  0.2771 -0.3741
  468MPD2     C 7015   1.323   0.402  10.847 -0.4532 -0.0449 -0.5369
  468MPD2    C1 7016   1.458   0.365  10.855 -0.4507  0.0992 -0.0841
  468MPD2    C2 7017   1.490   0.231  10.850  0.9252 -0.1443  0.1361
  468MPD2    C3 7018   1.395   0.131  10.854 -0.5845 -0.1237  0.4787
  468MPD2    C4 7019   1.263   0.168  10.857 -0.1922  0.8427 -0.0145
  468MPD2    C5 7020   1.230   0.303  10.844 -0.9522  0.0022 -0.1336
  468MPD2     H 7021   1.596   0.209  10.842  0.0724 -3.5764 -1.6203
  468MPD2    H1 7022   1.180   0.098  10.856  0.5323 -0.0114 -0.1148
  468MPD2    H2 7023   1.304   0.509  10.846 -0.5526 -0.0436  1.2629
  468MPD2    H3 7024   1.125   0.323  10.828 -1.4355 -3.9106 -2.1008
  468MPD2     N 7025   1.436   4.726  10.866  0.0557 -0.6428  0.1050
  468MPD2    H5 7026   1.357   4.663  10.854 -0.6405  0.3281 -0.3810
  468MPD2    N1 7027   1.562   0.456  10.868  0.4102  0.2711 -0.3159
  468MPD2    H7 7028   1.650   0.427  10.909 -1.4388  0.6728  3.9955
  469TMC3    C1 7029   1.691   0.636  10.922  0.2399  0.4340 -0.2108
  469TMC3    C2 7030   1.801   0.576  10.866  0.6609 -0.1170 -0.2456
  469TMC3    C3 7031   1.917   0.580  10.936 -0.2545 -0.2332  0.0413
  469TMC3    C4 7032   1.690   0.693  11.050  0.3391  0.0637 -0.0197
  469TMC3    C5 7033   1.807   0.691  11.115  0.3531  0.5562  0.0281
  469TMC3    C6 7034   1.922   0.628  11.066  0.5288  0.5592 -0.5482
  469TMC3     C 7035   1.558   0.591  10.878 -0.1961  0.6485 -0.8010
  469TMC3     O 7036   1.464   0.670  10.865 -0.1005 -0.2939  0.0381
  469TMC3     H 7037   1.789   0.528  10.770 -0.5871 -1.2685  0.4696
  469TMC3    H1 7038   1.595   0.729  11.089  2.1196  1.4513  3.0074
  469TMC3    H2 7039   2.017   0.651  11.113 -1.0765  2.4646  1.7578
  469TMC3    C7 7040   1.795   0.699  11.265 -0.3514 -0.1601  0.3308
  469TMC3    C8 7041   2.015   0.471  10.904 -0.2667  0.4018 -0.4514
  469TMC3    O1 7042   1.691   0.743  11.305  0.0977 -0.1702 -1.1352
  469TMC3    O2 7043   1.999   0.417  10.794  0.4903 -0.6457  0.4049
  470TMC3    C1 7044   3.862   0.639   0.791  0.3684 -0.0581 -0.1560
  470TMC3    C2 7045   3.915   0.757   0.827  0.1469  0.1153 -0.6892
  470TMC3    C3 7046   3.878   0.805   0.953  0.3021 -0.0081 -0.2274
  470TMC3    C4 7047   3.772   0.574   0.866  0.5324 -0.1821  0.1323
  470TMC3    C5 7048   3.751   0.616   1.000  0.2622 -0.6307 -0.3629
  470TMC3    C6 7049   3.804   0.733   1.043 -0.1629  0.8096  0.2145
  470TMC3     C 7050   3.858   0.618   0.651  0.2619  0.5838 -0.8845
  470TMC3     O 7051   3.930   0.691   0.584  0.2316  0.1982  0.5710
  470TMC3     H 7052   3.999   0.801   0.774  0.5776 -2.1081 -1.8587
  470TMC3    H1 7053   3.731   0.477   0.841  0.0792  0.5493 -1.9502
  470TMC3    H2 7054   3.791   0.757   1.148 -0.5146 -3.4382  1.1449
  470TMC3    C7 7055   3.637   0.556   1.069 -0.5123  0.1857  0.2759
  470TMC3    C8 7056   3.925   0.944   0.980 -0.7184  0.7709  0.3048
  470TMC3    O1 7057   3.592   0.455   1.018 -0.3876  0.1456 -0.2151
  470TMC3    O2 7058   3.927   0.971   1.104 -0.8960 -0.3509  0.5891
  471MPD2     C 7059   3.990   1.979  16.815 -0.0853  0.2213 -0.2325
  471MPD2    C1 7060   4.087   1.907  16.748  0.0909  0.2353 -0.6686
  471MPD2    C2 7061   4.204   1.878  16.810 -0.3292 -0.1183  0.2656
  471MPD2    C3 7062   4.213   1.892  16.944 -0.6758  0.2970 -0.7105
  471MPD2    C4 7063   4.103   1.940  17.013 -0.1020  0.6243 -0.0016
  471MPD2    C5 7064   3.998   1.999  16.951  0.4724  0.8900 -0.0143
  471MPD2     H 7065   4.291   1.843  16.755 -1.3071 -0.8276 -0.8269
  471MPD2    H1 7066   4.092   1.957  17.120  0.5535  2.1763 -0.1816
  471MPD2    H2 7067   3.895   2.004  16.769 -0.4091 -2.8710 -1.2436
  471MPD2    H3 7068   3.911   2.043  17.000 -0.3523 -1.5457  0.7089
  471MPD2     N 7069   4.324   1.849  17.023  0.0650  0.6301 -0.0594
  471MPD2    H5 7070   4.316   1.841  17.124  2.6776 -0.1987  0.0579
  471MPD2    N1 7071   4.076   1.864  16.612  0.1161 -0.2813 -0.4221
  471MPD2    H7 7072   4.165   1.838  16.571  0.8169  0.3868  0.6732
  472TMC3    C1 7073   3.999   1.813  16.397 -0.0775  0.7449 -0.3091
  472TMC3    C2 7074   3.927   1.845  16.290  0.1187 -0.0163  0.9066
  472TMC3    C3 7075   3.946   1.794  16.167  0.2596  0.4602  0.3421
  472TMC3    C4 7076   4.094   1.710  16.379  0.1641 -0.4770  0.5203
  472TMC3    C5 7077   4.102   1.650  16.256 -0.1365 -0.0208  0.5022
  472TMC3    C6 7078   4.028   1.689  16.154 -0.1193 -0.7509  0.0039
  472TMC3     C 7079   3.965   1.872  16.525 -0.8241 -0.7230 -0.7827
  472TMC3     O 7080   3.856   1.922  16.546 -0.3455 -0.2976  0.0894
  472TMC3     H 7081   3.853   1.924  16.294 -0.1593 -0.2079 -0.5828
  472TMC3    H1 7082   4.165   1.682  16.456 -0.8976 -1.3961  1.1695
  472TMC3    H2 7083   4.051   1.641  16.059  1.4108  0.4060 -0.2091
  472TMC3    C7 7084   4.115   1.502  16.261 -0.5612  0.3397 -0.3414
  472TMC3    C8 7085   3.824   1.789  16.095  0.2362 -0.5702  0.1381
  472TMC3    O1 7086   4.155   1.459  16.372 -0.4026  0.3259 -0.4484
  472TMC3    O2 7087   3.822   1.822  15.979 -0.1365 -0.1755  0.3449
  473MPD2     C 7088   3.572   3.616  13.844  0.6098  0.6417  0.8279
  473MPD2    C1 7089   3.585   3.732  13.781  0.3983 -0.3189  0.1106
  473MPD2    C2 7090   3.652   3.835  13.844 -0.2406 -0.0795  0.4326
  473MPD2    C3 7091   3.725   3.812  13.959  0.9033 -0.1073 -0.4819
  473MPD2    C4 7092   3.693   3.700  14.032  0.3554  0.6400  0.2523
  473MPD2    C5 7093   3.622   3.601  13.975  0.1295 -0.2323 -0.1017
  473MPD2     H 7094   3.648   3.935  13.803  0.0471  0.3692  1.4865
  473MPD2    H1 7095   3.719   3.703  14.137 -0.1037  0.3147  0.3764
  473MPD2    H2 7096   3.516   3.533  13.804 -0.3330  0.0544  3.3271
  473MPD2    H3 7097   3.597   3.516  14.036  1.7007 -0.6605 -0.0470
  473MPD2     N 7098   3.790   3.918  14.022 -0.5414 -0.1874 -0.1067
  473MPD2    H5 7099   3.795   3.917  14.123 -0.8089  1.0704 -0.0756
  473MPD2    N1 7100   3.523   3.768  13.656 -0.3008 -0.2121  0.4422
  473MPD2    H7 7101   3.535   3.862  13.622 -0.7937 -0.7828 -1.3003
  474TMC3    C1 7102   3.893   4.124  14.042  0.6555  0.5620  1.3471
  474TMC3    C2 7103   3.908   4.246  13.987 -0.3582  0.5197  0.7117
  474TMC3    C3 7104   3.915   4.353  14.066  0.0087 -0.2825  0.2437
  474TMC3    C4 7105   3.886   4.110  14.179  0.0762  0.2292  0.0734
  474TMC3    C5 7106   3.897   4.221  14.255  0.7713 -0.7246  0.0900
  474TMC3    C6 7107   3.924   4.342  14.205  0.0897  0.0970  0.4760
  474TMC3     C 7108   3.848   4.022  13.956 -0.1325  0.9018  0.4620
  474TMC3     O 7109   3.843   4.043  13.835 -0.1638  0.1212  0.1329
  474TMC3     H 7110   3.890   4.266  13.881 -1.1029  2.6562  1.2275
  474TMC3    H1 7111   3.888   4.013  14.227  0.2461 -0.6705 -1.7565
  474TMC3    H2 7112   3.932   4.436  14.259  0.5160 -0.4760  1.4119
  474TMC3    C7 7113   3.883   4.196  14.393 -0.0109  0.4459 -0.2692
  474TMC3    C8 7114   3.865   4.482  14.022  0.6099 -0.1526 -0.0002
  474TMC3    O1 7115   3.813   4.098  14.420 -0.0548 -0.0703 -0.2533
  474TMC3    O2 7116   3.769   4.483  13.946  0.3439 -0.0319 -0.1708
  475MPD2     C 7117   2.581   2.305  11.072  0.4604 -0.6451 -0.5662
  475MPD2    C1 7118   2.506   2.395  11.146 -0.7350  0.3971  0.1106
  475MPD2    C2 7119   2.379   2.434  11.097  0.4539 -0.1022  0.0126
  475MPD2    C3 7120   2.333   2.382  10.975 -0.7265  0.0244 -0.0381
  475MPD2    C4 7121   2.409   2.276  10.916  0.3067 -0.1114  0.7628
  475MPD2    C5 7122   2.532   2.237  10.964 -0.7633 -0.2367 -0.1794
  475MPD2     H 7123   2.317   2.507  11.148 -0.2914 -1.7904  1.5336
  475MPD2    H1 7124   2.370   2.231  10.825  0.2589 -0.0156  0.7358
  475MPD2    H2 7125   2.683   2.276  11.095 -0.2487 -1.3753  1.6070
  475MPD2    H3 7126   2.582   2.159  10.907 -2.6672 -1.0790 -0.7041
  475MPD2     N 7127   2.207   2.425  10.925  0.0025 -0.0070  0.3916
  475MPD2    H5 7128   2.161   2.503  10.970  0.9693  0.3738  0.7143
  475MPD2    N1 7129   2.576   2.459  11.252  0.2519  0.1286 -0.4927
  475MPD2    H7 7130   2.673   2.430  11.253  0.3555  0.4940  0.0495
  476TMC3    C1 7131   2.622   2.646  11.383  0.0759 -0.1354 -0.0331
  476TMC3    C2 7132   2.708   2.687  11.286 -0.4890 -0.0338  0.2747
  476TMC3    C3 7133   2.729   2.821  11.273 -0.1600  0.2423 -0.6010
  476TMC3    C4 7134   2.567   2.735  11.469 -0.6677 -0.1325  0.7141
  476TMC3    C5 7135   2.606   2.868  11.462  0.2368  0.0029  0.1385
  476TMC3    C6 7136   2.697   2.909  11.370  0.2015 -0.4849 -0.1853
  476TMC3     C 7137   2.517   2.543  11.342 -0.1110 -0.0019 -0.6220
  476TMC3     O 7138   2.404   2.563  11.376  0.3306  0.0924  0.0178
  476TMC3     H 7139   2.744   2.625  11.205 -0.8784  0.0122  0.0700
  476TMC3    H1 7140   2.483   2.707  11.531 -1.3916 -0.2372 -0.3146
  476TMC3    H2 7141   2.725   3.012  11.357  0.5362 -0.9434 -2.9998
  476TMC3    C7 7142   2.492   2.960  11.508 -0.3625 -0.0334  0.1713
  476TMC3    C8 7143   2.644   2.866  11.161 -0.0745 -0.8999  0.3429
  476TMC3    O1 7144   2.400   2.913  11.570 -0.2855 -0.5208 -0.2729
  476TMC3    O2 7145   2.567   2.956  11.182  0.2596 -0.7328  0.3767
  477MPD2     C 7146   0.145   4.335  12.005 -0.2479  0.0793 -0.9063
  477MPD2    C1 7147   0.113   4.259  11.903  0.1607  0.1497 -0.4871
  477MPD2    C2 7148   0.138   4.124  11.911 -0.1841  0.5967 -0.2868
  477MPD2    C3 7149   0.183   4.071  12.030 -0.1598 -1.1023 -0.4096
  477MPD2    C4 7150   0.212   4.152  12.136 -0.1550 -0.1313 -0.4333
  477MPD2    C5 7151   0.199   4.285  12.118 -0.1550  0.1924  0.4889
  477MPD2     H 7152   0.129   4.063  11.822 -0.1209 -0.6968  0.5825
  477MPD2    H1 7153   0.251   4.105  12.225 -2.2464 -0.3074  0.3780
  477MPD2    H2 7154   0.145   4.443  12.000 -1.8551  0.1900  1.5073
  477MPD2    H3 7155   0.217   4.355  12.199 -0.4856 -0.0708  0.7907
  477MPD2     N 7156   0.193   3.935  12.055  0.1006  0.0699 -0.6432
  477MPD2    H5 7157   0.199   3.909  12.153 -1.3041  3.5756  0.3984
  477MPD2    N1 7158   0.098   4.326  11.776 -0.2197 -0.6483 -0.7904
  477MPD2    H7 7159   0.099   4.427  11.772 -2.9555 -0.5101  2.0419
  478TMC3    C1 7160   0.018   4.360  11.560  0.7780  1.0230 -0.4982
  478TMC3    C2 7161   0.048   4.496  11.570 -0.0629 -0.0886  0.0648
  478TMC3    C3 7162   4.725   4.583  11.488 -0.0775 -0.1909  0.3351
  478TMC3    C4 7163   4.653   4.323  11.476 -0.0299  0.2617  0.5157
  478TMC3    C5 7164   4.593   4.413  11.387  0.4025  0.0147  0.4798
  478TMC3    C6 7165   4.629   4.541  11.397 -0.2953 -0.6206  0.1942
  478TMC3     C 7166   0.041   4.269  11.666 -0.2665  0.2655 -0.8536
  478TMC3     O 7167   4.733   4.155  11.664  0.1058  0.1349 -0.0486
  478TMC3     H 7168   0.118   4.533  11.644  2.7556 -1.1811 -2.0574
  478TMC3    H1 7169   4.624   4.219  11.476  1.0718 -0.0379 -1.8572
  478TMC3    H2 7170   4.591   4.603  11.316 -2.0181 -1.5429  0.2969
  478TMC3    C7 7171   4.547   4.352  11.261  0.2527  0.4410 -0.0557
  478TMC3    C8 7172   0.025   4.721  11.491 -0.3327 -0.8079  0.3228
  478TMC3    O1 7173   4.580   4.237  11.246 -0.1839  0.0740  0.4724
  478TMC3    O2 7174   0.135   0.015  11.534  0.0765 -0.9098 -0.0656
  479MPD2     C 7175   3.847   1.473  15.124  0.3918 -0.0243  0.0638
  479MPD2    C1 7176   3.777   1.371  15.185  0.0394 -0.2761 -0.3422
  479MPD2    C2 7177   3.816   1.352  15.319  0.2708 -0.3303 -0.2064
  479MPD2    C3 7178   3.906   1.437  15.384 -0.9108 -0.1846  0.0304
  479MPD2    C4 7179   3.977   1.525  15.313  0.1996 -0.3019  0.3536
  479MPD2    C5 7180   3.945   1.544  15.182 -0.1221  0.2349  0.2879
  479MPD2     H 7181   3.779   1.260  15.363  1.2103 -1.1615 -1.1410
  479MPD2    H1 7182   4.051   1.594  15.352  1.0388 -1.3100  0.5568
  479MPD2    H2 7183   3.831   1.500  15.021  0.8818  2.1765  0.5677
  479MPD2    H3 7184   4.001   1.622  15.131  0.0205 -0.3365 -0.4393
  479MPD2     N 7185   3.932   1.439  15.521 -0.1987  0.3353 -0.3883
  479MPD2    H5 7186   4.014   1.488  15.555 -1.8943  1.9631  1.3440
  479MPD2    N1 7187   3.680   1.290  15.114  0.2601  0.6387  0.0146
  479MPD2    H7 7188   3.671   1.317  15.017  2.2520  1.9094  0.1900
  480TMC3    C1 7189   3.537   1.276  15.724 -0.2969  0.7061 -0.0568
  480TMC3    C2 7190   3.447   1.357  15.658 -0.2185 -0.1886 -0.0880
  480TMC3    C3 7191   3.502   1.446  15.564  0.0959 -0.3493 -0.3565
  480TMC3    C4 7192   3.671   1.286  15.719  0.1230  0.2453  0.1094
  480TMC3    C5 7193   3.728   1.369  15.624 -0.2860  0.0028 -0.6251
  480TMC3    C6 7194   3.641   1.457  15.555 -0.2261  0.5161 -0.0453
  480TMC3     C 7195   3.495   1.187  15.828  0.1810 -0.2553 -0.1112
  480TMC3     O 7196   3.402   1.112  15.807  0.2312  0.7448 -0.0015
  480TMC3     H 7197   3.343   1.328  15.651  0.0699 -1.4368  0.8754
  480TMC3    H1 7198   3.726   1.216  15.782 -2.0705 -1.1438  0.4663
  480TMC3    H2 7199   3.687   1.531  15.490  0.5013 -0.6187 -0.8193
  480TMC3    C7 7200   3.872   1.370  15.622 -0.3279  0.4883  0.2411
  480TMC3    C8 7201   3.416   1.481  15.454 -0.4626 -0.0161  0.5162
  480TMC3    O1 7202   3.918   1.346  15.731  0.1855  0.3298  0.5041
  480TMC3    O2 7203   3.295   1.470  15.479 -0.5127  0.0635  0.1055
  481MPD2     C 7204   0.842   0.897  14.353 -0.1275  0.2953  1.0529
  481MPD2    C1 7205   0.736   0.814  14.312  0.4775  0.2884  0.5201
  481MPD2    C2 7206   0.703   0.704  14.388 -0.1896  0.5972  0.2330
  481MPD2    C3 7207   0.771   0.681  14.507 -0.5396  0.4563 -0.1386
  481MPD2    C4 7208   0.879   0.764  14.539  0.8343  0.3777  0.2655
  481MPD2    C5 7209   0.910   0.877  14.468  0.7601  0.4062 -0.2780
  481MPD2     H 7210   0.623   0.637  14.361  1.1166 -0.2424 -1.5415
  481MPD2    H1 7211   0.940   0.750  14.627 -0.5017  2.3960  1.5305
  481MPD2    H2 7212   0.882   0.977  14.293  0.0719  0.6766  1.6963
  481MPD2    H3 7213   1.005   0.928  14.481  0.5873 -0.0165  2.7223
  481MPD2     N 7214   0.751   0.578  14.595 -0.3296 -0.8461 -0.0030
  481MPD2    H5 7215   0.819   0.575  14.669  2.3360 -2.4084 -2.5127
  481MPD2    N1 7216   0.660   0.841  14.191 -0.2475 -0.5424 -0.3215
  481MPD2    H7 7217   0.670   0.930  14.142 -2.8533 -0.2313 -0.3040
  482TMC3    C1 7218   0.487   0.834  14.034  0.2109  0.9667 -1.1052
  482TMC3    C2 7219   0.365   0.781  14.003  0.2316 -0.6826 -0.2284
  482TMC3    C3 7220   0.305   0.813  13.886  0.5235 -0.1984  0.0470
  482TMC3    C4 7221   0.550   0.919  13.952  0.8716 -0.6447 -0.3229
  482TMC3    C5 7222   0.483   0.960  13.841 -0.3818  0.2005 -0.0262
  482TMC3    C6 7223   0.363   0.909  13.800  0.0740  0.0992 -0.1319
  482TMC3     C 7224   0.556   0.764  14.134 -0.0080 -0.2649 -0.1880
  482TMC3     O 7225   0.518   0.652  14.161  0.3118  0.2747 -0.1667
  482TMC3     H 7226   0.329   0.713  14.080  3.6528 -0.8962  1.1514
  482TMC3    H1 7227   0.643   0.963  13.983 -0.6856  0.9316  2.1234
  482TMC3    H2 7228   0.324   0.938  13.703 -0.9222  1.4449  0.6798
  482TMC3    C7 7229   0.558   1.020  13.726 -0.1531  0.6826  0.5156
  482TMC3    C8 7230   0.181   0.740  13.849  0.0066 -0.3257 -0.4001
  482TMC3    O1 7231   0.517   1.124  13.678  0.8174  0.1177 -0.0054
  482TMC3    O2 7232   0.156   0.645  13.920  0.3421 -0.6299  0.0674
  483TMC3    C1 7233   3.739   4.709   1.257 -0.0733  0.4024  0.3521
  483TMC3    C2 7234   3.812   0.089   1.245  0.1264 -0.4673  0.0078
  483TMC3    C3 7235   3.945   0.078   1.223 -0.8477  0.1349 -0.4314
  483TMC3    C4 7236   3.799   4.584   1.244  0.3694  0.1965 -0.2873
  483TMC3    C5 7237   3.935   4.576   1.231  0.3279  0.1445 -0.0414
  483TMC3    C6 7238   4.014   4.694   1.226 -0.5454 -0.5707  0.0258
  483TMC3     C 7239   3.594   4.724   1.270  0.9226  0.0970 -0.0241
  483TMC3     O 7240   3.563   0.096   1.320  0.4190  0.2001 -0.0270
  483TMC3     H 7241   3.760   0.184   1.244  0.9825 -0.0112 -1.4961
  483TMC3    H1 7242   3.740   4.493   1.249 -1.5398  1.4107 -0.5704
  483TMC3    H2 7243   4.122   4.702   1.214 -0.7292 -0.2834 -1.4062
  483TMC3    C7 7244   3.998   4.449   1.195 -0.2256  0.0843 -0.2451
  483TMC3    C8 7245   4.002   0.189   1.158 -0.0424  0.2383  0.0519
  483TMC3    O1 7246   4.117   4.445   1.187  0.2344  0.2773 -0.2711
  483TMC3    O2 7247   4.106   0.158   1.100 -0.5641  0.2342 -0.1605
  484MPD2     C 7248   1.142   2.424  12.973  0.4282  0.9321  0.1708
  484MPD2    C1 7249   1.147   2.431  12.832 -0.0503  0.2282 -0.4430
  484MPD2    C2 7250   1.262   2.422  12.758  0.3268 -0.1879 -0.2661
  484MPD2    C3 7251   1.379   2.415  12.824 -1.1617 -0.2931  0.3270
  484MPD2    C4 7252   1.372   2.402  12.966 -0.7639 -0.7327  0.5264
  484MPD2    C5 7253   1.256   2.398  13.041 -0.0345 -0.1584 -0.2197
  484MPD2     H 7254   1.245   2.427  12.651 -0.9310  0.7026 -0.0253
  484MPD2    H1 7255   1.466   2.401  13.019 -0.7872 -1.8456  0.5336
  484MPD2    H2 7256   1.054   2.440  13.034  0.2228 -0.7610  0.3321
  484MPD2    H3 7257   1.257   2.399  13.150  0.3975  2.0821 -0.2429
  484MPD2     N 7258   1.509   2.407  12.763  0.3431 -0.6064 -0.3340
  484MPD2    H5 7259   1.583   2.385  12.829 -0.0667 -1.6450 -0.2155
  484MPD2    N1 7260   1.026   2.441  12.772 -0.2231 -0.3025 -0.1459
  484MPD2    H7 7261   0.950   2.447  12.840 -0.8022 -2.4008 -0.6118
  485TMC3    C1 7262   1.664   2.391  12.589 -0.5265  0.8829  0.3544
  485TMC3    C2 7263   1.736   2.318  12.676  0.0218  0.0249 -0.2242
  485TMC3    C3 7264   1.871   2.321  12.668  0.3808  0.8354 -0.8461
  485TMC3    C4 7265   1.726   2.468  12.488 -0.6148 -0.2167 -0.8196
  485TMC3    C5 7266   1.861   2.476  12.480 -0.3917  0.3508  0.3152
  485TMC3    C6 7267   1.928   2.398  12.574 -0.0900  0.1206  0.2258
  485TMC3     C 7268   1.524   2.413  12.628  0.2211  0.2645 -0.1758
  485TMC3     O 7269   1.452   2.420  12.529 -0.0624  0.6130 -0.0291
  485TMC3     H 7270   1.693   2.258  12.754 -2.1788 -0.7858 -2.0614
  485TMC3    H1 7271   1.664   2.515  12.413 -1.5103  1.8797  1.2324
  485TMC3    H2 7272   2.036   2.390  12.569  0.1519  0.5980  4.2563
  485TMC3    C7 7273   1.908   2.449  12.345 -0.0628  0.0017 -0.0674
  485TMC3    C8 7274   1.940   2.196  12.662  0.0756 -0.4888  0.3903
  485TMC3    O1 7275   1.930   2.540  12.266  0.0412 -0.0351  0.2514
  485TMC3    O2 7276   1.983   2.163  12.553 -0.8039 -0.1355 -0.0887
  486MPD2     C 7277   3.244   1.269  13.188  0.0016  0.9428 -0.0762
  486MPD2    C1 7278   3.234   1.277  13.049 -0.1648  0.9498 -0.4319
  486MPD2    C2 7279   3.167   1.377  12.985 -0.5233  0.1974 -0.1621
  486MPD2    C3 7280   3.114   1.481  13.063 -0.4971 -0.4725 -0.2187
  486MPD2    C4 7281   3.107   1.467  13.200  0.2825 -0.0167  0.2421
  486MPD2    C5 7282   3.171   1.360  13.263 -0.0044 -0.0251  1.1879
  486MPD2     H 7283   3.151   1.382  12.878 -0.0494 -0.6311 -0.2671
  486MPD2    H1 7284   3.052   1.536  13.262 -2.5524 -0.8400 -1.3327
  486MPD2    H2 7285   3.308   1.191  13.230 -0.4815  0.8659  0.5108
  486MPD2    H3 7286   3.163   1.350  13.370 -0.5050  0.0701  1.1576
  486MPD2     N 7287   3.061   1.594  12.990  0.3100  0.7368 -0.5689
  486MPD2    H5 7288   3.079   1.604  12.891  1.3972  0.7071 -0.3709
  486MPD2    N1 7289   3.300   1.173  12.977  0.0325 -0.3107  0.1707
  486MPD2    H7 7290   3.361   1.113  13.032  1.4948  1.7757  0.8287
  487TMC3    C1 7291   3.347   1.016  12.806 -0.2695  0.2343 -0.1079
  487TMC3    C2 7292   3.275   0.921  12.747  0.1627  0.1461  0.0629
  487TMC3    C3 7293   3.317   0.788  12.756 -1.2240 -0.1490  0.8023
  487TMC3    C4 7294   3.467   0.986  12.866  0.0535  0.5797  0.1070
  487TMC3    C5 7295   3.503   0.857  12.879  0.0225 -0.4701 -0.6200
  487TMC3    C6 7296   3.437   0.760  12.820 -0.0042 -0.2822 -0.0032
  487TMC3     C 7297   3.277   1.133  12.847  0.3936  0.5246 -0.6788
  487TMC3     O 7298   3.192   1.180  12.774 -0.0444 -0.2342  0.2949
  487TMC3     H 7299   3.173   0.934  12.713  0.0440  0.3702  0.5125
  487TMC3    H1 7300   3.524   1.071  12.903  0.7733 -0.2798  0.9822
  487TMC3    H2 7301   3.482   0.663  12.806  1.2918  0.3875 -0.4855
  487TMC3    C7 7302   3.548   0.835  13.015 -0.2728 -0.6408 -0.3499
  487TMC3    C8 7303   3.222   0.690  12.799  0.2937  0.3609  0.3265
  487TMC3    O1 7304   3.519   0.919  13.096  0.7175  0.0412 -0.3622
  487TMC3    O2 7305   3.141   0.641  12.715 -0.0988 -0.1373 -0.7529
  488MPD2     C 7306   3.258   3.221  16.470  0.2906 -0.3259  0.3317
  488MPD2    C1 7307   3.291   3.358  16.485  0.9009 -0.5529  0.6749
  488MPD2    C2 7308   3.283   3.414  16.611  0.6576  0.4484  0.7131
  488MPD2    C3 7309   3.239   3.337  16.719 -0.0943 -0.5711 -1.1423
  488MPD2    C4 7310   3.196   3.212  16.703  0.0760  0.1003 -0.8684
  488MPD2    C5 7311   3.217   3.153  16.581  0.8542 -0.5454  0.0319
  488MPD2     H 7312   3.299   3.520  16.628  0.7182  0.2678  1.7860
  488MPD2    H1 7313   3.156   3.145  16.779 -0.0747  0.1463 -0.9057
  488MPD2    H2 7314   3.284   3.169  16.379 -0.8349  2.8083 -1.7845
  488MPD2    H3 7315   3.193   3.048  16.570 -0.7869 -0.4536  2.8307
  488MPD2     N 7316   3.245   3.402  16.842 -0.3969  0.0060  0.3075
  488MPD2    H5 7317   3.262   3.502  16.838  1.0178 -0.1449  2.3814
  488MPD2    N1 7318   3.342   3.439  16.378  0.2940  0.3068 -0.3004
  488MPD2    H7 7319   3.364   3.534  16.406  2.8651  0.0055 -1.2686
  489TMC3    C1 7320   3.221   3.442  17.055  0.6857 -0.0795 -0.1023
  489TMC3    C2 7321   3.165   3.562  17.030 -0.7918  0.0301  0.0766
  489TMC3    C3 7322   3.133   3.653  17.130 -0.2792  0.8813  0.0994
  489TMC3    C4 7323   3.263   3.412  17.184  0.5423 -0.3089 -0.0650
  489TMC3    C5 7324   3.254   3.516  17.283  0.3222 -0.2623  0.2366
  489TMC3    C6 7325   3.183   3.630  17.254 -0.6880 -0.3915 -0.0243
  489TMC3     C 7326   3.226   3.339  16.959  0.0469 -0.2681  0.0116
  489TMC3     O 7327   3.261   3.225  16.986 -0.2952  0.4452 -0.0142
  489TMC3     H 7328   3.127   3.589  16.932 -0.7968  1.3689  0.4476
  489TMC3    H1 7329   3.304   3.313  17.199 -2.1476 -1.8814 -3.2426
  489TMC3    H2 7330   3.165   3.696  17.338 -1.4418 -0.6504  0.0174
  489TMC3    C7 7331   3.274   3.485  17.424  0.1059  0.2732 -0.9827
  489TMC3    C8 7332   3.130   3.792  17.078 -0.7381 -0.4255  0.4511
  489TMC3    O1 7333   3.281   3.586  17.495  0.0797 -0.0497  0.1888
  489TMC3    O2 7334   3.065   3.807  16.978  0.3340 -0.0260 -0.7298
  490MPD2     C 7335   4.230   2.763  17.494 -0.2124 -0.5540  0.4801
  490MPD2    C1 7336   4.159   2.728  17.608 -1.3693 -0.4608 -0.7469
  490MPD2    C2 7337   4.217   2.749  17.730 -0.5614 -0.0130  0.2454
  490MPD2    C3 7338   4.349   2.779   0.004  0.7775 -0.5392 -1.1382
  490MPD2    C4 7339   4.423   2.817  17.634 -0.0100  0.5350 -0.1368
  490MPD2    C5 7340   4.359   2.813  17.512 -0.0639 -0.6715 -0.0384
  490MPD2     H 7341   4.172   2.702   0.075 -2.8259 -0.1429 -0.9814
  490MPD2    H1 7342   4.527   2.849  17.641  0.0083 -0.1001  2.5937
  490MPD2    H2 7343   4.181   2.762  17.397 -0.3655 -2.5514  0.5739
  490MPD2    H3 7344   4.409   2.854  17.425 -2.4385  1.5333 -0.3717
  490MPD2     N 7345   4.417   2.768   0.123  0.4007  0.1183 -0.4851
  490MPD2    H5 7346   4.519   2.765   0.120  0.3760  0.3262 -1.4031
  490MPD2    N1 7347   4.034   2.657  17.618  0.3405 -0.0671 -0.2264
  490MPD2    H7 7348   4.008   2.624  17.710 -0.7479  0.4377 -0.3557
  491TMC3    C1 7349   3.870   2.513  17.541  0.0751  0.4652  0.6719
  491TMC3    C2 7350   3.890   2.431  17.650 -0.0758 -0.2028  0.0227
  491TMC3    C3 7351   3.852   2.301  17.644  0.5886 -0.5306  0.2440
  491TMC3    C4 7352   3.791   2.478  17.441  0.1159  0.7705 -0.5261
  491TMC3    C5 7353   3.745   2.352  17.436 -0.1376 -0.1865  0.6506
  491TMC3    C6 7354   3.774   2.260  17.531  0.5797 -0.0750 -1.0765
  491TMC3     C 7355   3.962   2.619  17.508 -0.6125 -0.8008 -1.1511
  491TMC3     O 7356   3.979   2.648  17.392 -0.2128 -0.3263 -0.0209
  491TMC3     H 7357   3.927   2.465   0.003  0.3666 -0.8066  0.0683
  491TMC3    H1 7358   3.771   2.554  17.366 -0.3144  0.5637 -0.6235
  491TMC3    H2 7359   3.739   2.158  17.523 -2.0011  0.7298  0.0927
  491TMC3    C7 7360   3.685   2.295  17.315  0.0332 -0.5193 -0.7987
  491TMC3    C8 7361   3.865   2.215   0.021 -0.8207 -1.0774 -1.3876
  491TMC3    O1 7362   3.660   2.180  17.326  0.0434 -0.2020 -0.0629
  491TMC3    O2 7363   3.868   2.274   0.129  0.1651  0.1313  0.7333
  492MPD2     C 7364   4.425   2.694  11.642 -0.4875  0.3700  0.2949
  492MPD2    C1 7365   4.316   2.679  11.560  0.1463  0.6685 -0.2391
  492MPD2    C2 7366   4.206   2.594  11.595 -0.2255  0.4655 -0.6708
  492MPD2    C3 7367   4.215   2.528  11.715  0.2781 -0.0685 -0.1556
  492MPD2    C4 7368   4.329   2.542  11.796  0.8546  0.0121  0.2509
  492MPD2    C5 7369   4.434   2.625  11.756 -0.3183  0.0150 -0.6361
  492MPD2     H 7370   4.118   2.582  11.533 -1.1503  2.4572  0.2297
  492MPD2    H1 7371   4.352   2.500  11.893  3.1965 -1.1342 -0.7829
  492MPD2    H2 7372   4.503   2.767  11.622 -0.6883  0.1674 -1.2031
  492MPD2    H3 7373   4.517   2.645  11.822 -0.7817  0.4710 -0.1854
  492MPD2     N 7374   4.112   2.440  11.770 -0.2156  0.9473  0.5986
  492MPD2    H5 7375   4.128   2.398  11.861 -2.5262 -1.1397  0.0540
  492MPD2    N1 7376   4.327   2.741  11.434 -0.3437  0.3372 -0.9629
  492MPD2    H7 7377   4.389   2.822  11.434 -1.5099  1.2345 -1.5607
  493TMC3    C1 7378   4.261   2.841  11.231  0.4951  0.0569 -0.5635
  493TMC3    C2 7379   4.292   2.957  11.280  0.2735  0.2998 -0.5941
  493TMC3    C3 7380   4.271   3.069  11.209 -0.0813 -0.3977 -0.2288
  493TMC3    C4 7381   4.207   2.838  11.105 -0.7053 -0.0621 -0.2050
  493TMC3    C5 7382   4.179   2.947  11.033 -0.3712  0.3436 -0.1675
  493TMC3    C6 7383   4.221   3.066  11.079  0.0036 -0.0945  0.2876
  493TMC3     C 7384   4.242   2.724  11.325 -0.6423 -0.6291 -0.5373
  493TMC3     O 7385   4.145   2.656  11.312  0.5398  0.8217 -0.9398
  493TMC3     H 7386   4.331   2.972  11.380 -0.3763 -0.7420 -0.1793
  493TMC3    H1 7387   4.155   2.750  11.069 -0.1593 -1.3559  2.1660
  493TMC3    H2 7388   4.182   3.157  11.036  0.3255 -0.5406 -0.9279
  493TMC3    C7 7389   4.083   2.953  10.922 -0.3452 -0.3161 -0.0908
  493TMC3    C8 7390   4.311   3.193  11.277 -0.5536  0.0652  0.6308
  493TMC3    O1 7391   4.005   2.858  10.898  0.0922  0.0467  0.5593
  493TMC3    O2 7392   4.310   3.200  11.401  0.4410 -0.2927  0.3147
  494TMC3    C1 7393   4.573   4.045  17.608  0.6842 -0.1071  0.3070
  494TMC3    C2 7394   4.605   3.910  17.597 -1.0904  0.8308  0.8532
  494TMC3    C3 7395   4.722   3.881  17.539 -0.0176 -0.3997 -0.1727
  494TMC3    C4 7396   4.643   4.147  17.551  0.2365  0.5331 -0.4092
  494TMC3    C5 7397   0.028   4.115  17.500  0.0643  0.6310  0.5674
  494TMC3    C6 7398   0.065   3.977  17.497  0.2456 -0.1155 -0.0363
  494TMC3     C 7399   4.467   4.077  17.698 -0.1684  0.7501 -0.1091
  494TMC3     O 7400   4.453   4.191  17.734 -0.4047  0.2934 -0.5677
  494TMC3     H 7401   4.558   3.828  17.650 -0.6325  0.8046  1.2182
  494TMC3    H1 7402   4.610   4.250  17.549 -1.6181 -0.0870 -1.8486
  494TMC3    H2 7403   0.166   3.956  17.464  0.8548  1.0618  1.0716
  494TMC3    C7 7404   0.125   4.219  17.456 -0.5556  0.0389 -0.1496
  494TMC3    C8 7405   0.052   3.765  17.586  0.4671 -0.0952 -0.1281
  494TMC3    O1 7406   0.230   4.179  17.411 -0.0172 -0.6715 -0.3762
  494TMC3    O2 7407   0.166   3.789  17.626  0.3080  0.4891 -0.0710
  495TMC3    C1 7408   3.942   1.715  14.682  0.7860 -0.4051 -0.6536
  495TMC3    C2 7409   3.888   1.730  14.558 -0.0017  0.2020  0.9521
  495TMC3    C3 7410   3.750   1.737  14.551  0.1734  0.0085  0.7560
  495TMC3    C4 7411   3.871   1.745  14.799  0.3024  0.6447  0.4479
  495TMC3    C5 7412   3.736   1.771  14.786  0.3606 -0.2948  0.0401
  495TMC3    C6 7413   3.677   1.771  14.661  0.4806 -0.4141  0.5146
  495TMC3     C 7414   4.017   1.585  14.701 -0.1921  0.3471  0.4827
  495TMC3     O 7415   3.983   1.503  14.787 -0.0924 -0.6983  0.1105
  495TMC3     H 7416   3.949   1.711  14.471 -1.9571 -1.1673 -0.1329
  495TMC3    H1 7417   3.916   1.731  14.896 -0.9739  2.9772  1.3935
  495TMC3    H2 7418   3.570   1.773  14.648  0.3888 -0.3921  1.3085
  495TMC3    C7 7419   3.664   1.736  14.908 -0.1897 -1.1135  0.6538
  495TMC3    C8 7420   3.682   1.654  14.452 -0.9875 -1.4362 -0.1931
  495TMC3    O1 7421   3.702   1.775  15.018 -0.2832 -0.1169 -0.1834
  495TMC3    O2 7422   3.560   1.681  14.440  0.5426  0.4349 -0.9944
  496MPD2     C 7423   1.020   1.602  15.433  0.0744 -0.3985  0.0950
  496MPD2    C1 7424   0.931   1.506  15.405  0.4752  0.2063 -0.0837
  496MPD2    C2 7425   0.823   1.490  15.489 -0.4140  0.1559  0.1024
  496MPD2    C3 7426   0.795   1.579  15.589  0.2234 -0.2749  0.1414
  496MPD2    C4 7427   0.875   1.687  15.604  0.3130 -0.3778  0.6609
  496MPD2    C5 7428   0.990   1.697  15.528 -1.0215 -0.1151  0.3232
  496MPD2     H 7429   0.746   1.416  15.468 -1.1625  0.5474  1.4440
  496MPD2    H1 7430   0.849   1.756  15.683  0.9737  1.1235 -0.4310
  496MPD2    H2 7431   1.113   1.612  15.378  0.0138  1.4185  0.3508
  496MPD2    H3 7432   1.054   1.783  15.543 -2.5512  1.2407 -0.8831
  496MPD2     N 7433   0.690   1.573  15.680 -0.0226 -0.1978 -0.0671
  496MPD2    H5 7434   0.681   1.641  15.755  0.6881  2.1493 -2.1335
  496MPD2    N1 7435   0.951   1.435  15.281  0.1074 -0.0304  0.3065
  496MPD2    H7 7436   1.023   1.462  15.216 -0.2471 -0.1564 -0.1359
  497TMC3    C1 7437   0.492   1.492  15.781 -0.1964 -0.2945 -0.4827
  497TMC3    C2 7438   0.374   1.424  15.744 -0.2523  0.3049  0.3857
  497TMC3    C3 7439   0.299   1.380  15.848 -0.2804  0.6889 -0.3699
  497TMC3    C4 7440   0.557   1.472  15.907 -0.5140 -0.0698 -0.0099
  497TMC3    C5 7441   0.474   1.427  16.004  0.1466  0.3501 -0.0850
  497TMC3    C6 7442   0.347   1.386  15.979 -0.7930  0.5370 -0.7007
  497TMC3     C 7443   0.585   1.483  15.673  0.0209  0.0744  0.8835
  497TMC3     O 7444   0.579   1.374  15.616  0.5532 -0.6370 -0.6628
  497TMC3     H 7445   0.341   1.434  15.641  0.5471 -2.1061 -0.1140
  497TMC3    H1 7446   0.663   1.484  15.928  0.1117 -2.4921 -1.8105
  497TMC3    H2 7447   0.283   1.356  16.061 -4.0840  0.3931 -3.3117
  497TMC3    C7 7448   0.544   1.319  16.063 -0.7028 -0.0256 -0.4547
  497TMC3    C8 7449   0.158   1.364  15.820  0.1009 -0.4142  0.0525
  497TMC3    O1 7450   0.484   1.212  16.056  0.2236 -0.0558 -0.1409
  497TMC3    O2 7451   0.113   1.378  15.706 -0.3146 -1.3786  0.3069
  498MPD2     C 7452   1.937   2.461  10.249 -0.5520 -0.5564  0.1012
  498MPD2    C1 7453   2.054   2.444  10.325  0.0195  0.1821 -0.4733
  498MPD2    C2 7454   2.061   2.351  10.422  0.3370  0.5404  0.4328
  498MPD2    C3 7455   1.956   2.264  10.444  0.2614 -0.0278 -0.3785
  498MPD2    C4 7456   1.839   2.272  10.372  0.0050 -0.3309 -1.1381
  498MPD2    C5 7457   1.839   2.367  10.270 -0.6180  0.3083 -0.1572
  498MPD2     H 7458   2.151   2.341  10.480 -0.3489 -2.9645  0.8821
  498MPD2    H1 7459   1.759   2.202  10.392 -0.0556 -0.0017 -0.1968
  498MPD2    H2 7460   1.906   2.525  10.168 -1.2222  0.3652  1.0807
  498MPD2    H3 7461   1.748   2.380  10.213 -0.2594  3.0771 -0.0830
  498MPD2     N 7462   1.976   2.166  10.544  0.3123  0.2389  0.0768
  498MPD2    H5 7463   2.053   2.176  10.609  0.9548 -3.5112 -0.0671
  498MPD2    N1 7464   2.167   2.531  10.316  0.4684  0.0520  0.9543
  498MPD2    H7 7465   2.239   2.532  10.388  0.2637 -0.1896  1.1629
  499TMC3    C1 7466   2.287   2.723  10.223 -0.5579  0.1797 -0.0603
  499TMC3    C2 7467   2.348   2.756  10.341 -0.8065 -0.4556  0.3297
  499TMC3    C3 7468   2.437   2.869  10.327  0.2505  0.1528  0.0089
  499TMC3    C4 7469   2.295   2.799  10.112  0.1806  0.3147  0.6809
  499TMC3    C5 7470   2.377   2.906  10.111 -0.3584  0.1030  0.0461
  499TMC3    C6 7471   2.454   2.941  10.212  0.6698 -0.2235 -0.4055
  499TMC3     C 7472   2.175   2.626  10.217  0.0268 -0.1352 -0.2742
  499TMC3     O 7473   2.105   2.627  10.115 -0.0216  0.5496 -0.2799
  499TMC3     H 7474   2.343   2.698  10.432  1.4840 -0.3648  0.5266
  499TMC3    H1 7475   2.234   2.773  10.027 -0.2731  0.5090  0.9456
  499TMC3    H2 7476   2.518   3.029  10.210  0.7934 -0.3447 -1.5944
  499TMC3    C7 7477   2.416   2.970   9.986  0.6637 -0.3570  0.2965
  499TMC3    C8 7478   2.512   2.907  10.444 -0.7112  0.1760 -0.2698
  499TMC3    O1 7479   2.514   3.041   9.985  0.6159  0.6231 -0.3272
  499TMC3    O2 7480   2.522   3.027  10.459 -0.1101  0.0265 -0.1693
  500MPD2     C 7481   3.239   3.453  11.115  0.3698  0.2438  0.6041
  500MPD2    C1 7482   3.317   3.506  11.011 -0.5916 -0.8881  0.4492
  500MPD2    C2 7483   3.275   3.485  10.881 -0.0959  0.5657 -0.1907
  500MPD2    C3 7484   3.150   3.433  10.856  0.2742 -0.1457  0.4211
  500MPD2    C4 7485   3.066   3.390  10.955  0.1739  0.0026  0.4754
  500MPD2    C5 7486   3.113   3.405  11.084  0.1159 -0.3341  0.1077
  500MPD2     H 7487   3.342   3.512  10.800  1.5655  0.0553  1.0086
  500MPD2    H1 7488   2.966   3.356  10.931  0.2216  1.3774 -1.6049
  500MPD2    H2 7489   3.272   3.467  11.217 -0.4130 -0.8039  1.0064
  500MPD2    H3 7490   3.049   3.379  11.168  0.7662  0.3002  0.7947
  500MPD2     N 7491   3.091   3.423  10.723 -0.7017 -0.0132 -0.5700
  500MPD2    H5 7492   2.993   3.399  10.720 -0.6872 -0.1963  0.3150
  500MPD2    N1 7493   3.443   3.570  11.026 -0.3916 -0.0614  0.0869
  500MPD2    H7 7494   3.478   3.613  10.942  0.2036  3.4711  2.1584
  501TMC3    C1 7495   3.634   3.675  11.117  0.2546  0.2679 -0.7844
  501TMC3    C2 7496   3.622   3.777  11.032  0.4938 -0.1893 -0.0403
  501TMC3    C3 7497   3.704   3.887  11.053 -0.5557  0.2803 -0.1568
  501TMC3    C4 7498   3.720   3.683  11.223 -0.7961  0.1932  0.4435
  501TMC3    C5 7499   3.810   3.785  11.229  0.1918  0.5475 -0.4461
  501TMC3    C6 7500   3.804   3.891  11.146  0.1349 -0.0978 -0.1148
  501TMC3     C 7501   3.519   3.594  11.140 -0.2323  0.4397 -0.6200
  501TMC3     O 7502   3.503   3.542  11.253  0.2018  0.0655 -0.1278
  501TMC3     H 7503   3.549   3.776  10.952 -0.0183 -0.9445  0.4309
  501TMC3    H1 7504   3.713   3.610  11.303 -2.7813  0.1207  0.2032
  501TMC3    H2 7505   3.858   3.980  11.175 -1.3867  0.9962 -0.6316
  501TMC3    C7 7506   3.922   3.768  11.316  0.3308 -1.2824 -0.9305
  501TMC3    C8 7507   3.701   4.005  10.956 -0.5706  0.6144  0.0284
  501TMC3    O1 7508   3.898   3.701  11.417  0.7507  0.6049  0.0461
  501TMC3    O2 7509   3.797   4.078  10.956 -0.0020  0.3403  0.5040
  502TMC3    C1 7510   3.187   2.345  14.851  0.2557  0.0797 -0.6263
  502TMC3    C2 7511   3.170   2.476  14.832  0.5610 -0.1945 -0.1934
  502TMC3    C3 7512   3.047   2.527  14.866 -0.7533  1.1439 -0.6578
  502TMC3    C4 7513   3.088   2.265  14.907  0.5180  0.1367  0.5357
  502TMC3    C5 7514   2.971   2.323  14.950 -0.5703 -0.0813 -0.6553
  502TMC3    C6 7515   2.953   2.457  14.931  0.2150  0.6582 -0.2938
  502TMC3     C 7516   3.305   2.327  14.921  0.6420  0.8694 -0.7540
  502TMC3     O 7517   3.404   2.392  14.893  0.2111 -0.1478 -0.0526
  502TMC3     H 7518   3.240   2.536  14.775 -0.6283  0.2516 -1.1828
  502TMC3    H1 7519   3.106   2.158  14.912 -0.3189 -0.0539 -0.7406
  502TMC3    H2 7520   2.864   2.495  14.979  0.1852 -0.3520  0.4652
  502TMC3    C7 7521   2.911   2.243  15.057  0.0560  0.2295  0.3939
  502TMC3    C8 7522   3.044   2.670  14.878  0.3888 -0.1907 -0.4930
  502TMC3    O1 7523   2.994   2.190  15.126 -0.3595 -0.1874  0.1554
  502TMC3    O2 7524   3.156   2.716  14.881 -0.5038 -0.4010 -0.1990
  503MPD2     C 7525   0.176   2.869  17.470 -0.5010 -0.1348  0.0759
  503MPD2    C1 7526   0.307   2.921  17.448  1.2356 -0.3194 -0.3915
  503MPD2    C2 7527   0.416   2.841  17.445 -0.3667  0.6622  0.5901
  503MPD2    C3 7528   0.408   2.706  17.466  0.2406  0.5869 -0.3159
  503MPD2    C4 7529   0.281   2.654  17.482  0.0774 -0.1912 -0.2343
  503MPD2    C5 7530   0.169   2.736  17.482  0.5364  0.4026  0.4857
  503MPD2     H 7531   0.513   2.889  17.456  0.0248  0.2088 -0.9710
  503MPD2    H1 7532   0.262   2.548  17.490  2.0471 -0.4420  1.1070
  503MPD2    H2 7533   0.081   2.921  17.477 -1.0938 -1.1249 -0.6430
  503MPD2    H3 7534   0.073   2.689  17.501 -0.2561  1.4260 -0.9636
  503MPD2     N 7535   0.525   2.631  17.447 -0.4566 -0.3036  0.7091
  503MPD2    H5 7536   0.604   2.676  17.403 -0.6447 -1.3600 -0.7359
  503MPD2    N1 7537   0.326   3.055  17.429 -0.1123 -0.2499 -0.3512
  503MPD2    H7 7538   0.417   3.089  17.399  0.0607 -1.6678 -1.3772
  504TMC3    C1 7539   0.637   2.435  17.379  0.6487 -0.0244  0.2945
  504TMC3    C2 7540   0.634   2.302  17.349  0.4570  0.3467  0.2264
  504TMC3    C3 7541   0.701   2.248  17.247 -0.3794 -0.3391  0.4169
  504TMC3    C4 7542   0.741   2.513  17.324  0.9737 -0.6693 -0.3079
  504TMC3    C5 7543   0.821   2.447  17.232  0.3163 -0.3670 -0.2051
  504TMC3    C6 7544   0.793   2.329  17.186 -0.7051  0.6888  0.1135
  504TMC3     C 7545   0.525   2.490  17.442  0.5727  0.2437  0.5382
  504TMC3     O 7546   0.436   2.411  17.467  0.1975  0.4424  0.1138
  504TMC3     H 7547   0.568   2.236  17.404 -0.4518 -0.5763 -1.9679
  504TMC3    H1 7548   0.763   2.608  17.371 -0.5379 -0.5240  0.0999
  504TMC3    H2 7549   0.850   2.282  17.106 -0.6116  1.7937 -0.4705
  504TMC3    C7 7550   0.942   2.506  17.187  0.5337  0.0505  0.8564
  504TMC3    C8 7551   0.754   2.114  17.275 -0.1477  0.8050  0.0011
  504TMC3    O1 7552   0.984   2.466  17.079 -0.3715 -0.3097  0.1362
  504TMC3    O2 7553   0.746   2.026  17.192 -0.2193 -0.1273 -0.4901
  505MPD2     C 7554   1.374   1.748  11.219  0.2282  0.0059 -0.5330
  505MPD2    C1 7555   1.407   1.665  11.320  0.2886 -0.0205  0.2882
  505MPD2    C2 7556   1.460   1.723  11.434  0.5107  0.2501  0.2066
  505MPD2    C3 7557   1.493   1.856  11.444  0.0144  0.2739  0.4942
  505MPD2    C4 7558   1.458   1.940  11.339 -0.9711 -0.0571 -0.0079
  505MPD2    C5 7559   1.403   1.882  11.226 -0.2886  0.0545 -0.3945
  505MPD2     H 7560   1.498   1.655  11.509 -2.5607 -1.7823 -0.0486
  505MPD2    H1 7561   1.486   2.044  11.349 -0.1130 -0.3400  0.5130
  505MPD2    H2 7562   1.330   1.708  11.128 -2.1262 -0.0798  0.6355
  505MPD2    H3 7563   1.391   1.951  11.143 -1.3400  1.0733  0.6102
  505MPD2     N 7564   1.561   1.922  11.548  0.1328 -0.0208  0.2328
  505MPD2    H5 7565   1.562   2.023  11.545 -0.8061 -0.0318 -0.3409
  505MPD2    N1 7566   1.383   1.526  11.309 -0.0386 -0.4344  0.1862
  505MPD2    H7 7567   1.347   1.501  11.217 -0.7717  1.8170 -0.1504
  506TMC3    C1 7568   1.402   1.300  11.377  0.4979 -0.1031 -0.5112
  506TMC3    C2 7569   1.464   1.272  11.265  0.7675 -0.8883  0.6240
  506TMC3    C3 7570   1.548   1.163  11.266  0.3333  0.4947  0.1170
  506TMC3    C4 7571   1.412   1.225  11.494  1.2510 -0.4294 -0.6195
  506TMC3    C5 7572   1.509   1.125  11.491  0.5051  0.2608 -0.4017
  506TMC3    C6 7573   1.570   1.094  11.381 -0.2625 -0.4347 -0.2617
  506TMC3     C 7574   1.377   1.440  11.416 -0.5943 -0.1623  0.3375
  506TMC3     O 7575   1.358   1.460  11.536  0.0767 -0.4831 -0.2897
  506TMC3     H 7576   1.419   1.302  11.171 -0.1490  1.7675  1.9016
  506TMC3    H1 7577   1.361   1.245  11.587  0.1628 -1.0164 -1.0870
  506TMC3    H2 7578   1.637   1.009  11.388 -1.2608 -1.1350  0.6421
  506TMC3    C7 7579   1.580   1.117  11.616  0.0438  0.4205  0.0350
  506TMC3    C8 7580   1.614   1.119  11.149 -0.5748 -0.9462 -0.2485
  506TMC3    O1 7581   1.640   1.013  11.638 -0.5357  0.0812  0.2611
  506TMC3    O2 7582   1.658   1.003  11.138 -0.0184  0.0723  0.8734
  507TMC3    C1 7583   0.851   1.742  15.102 -0.3229  0.3480  0.7393
  507TMC3    C2 7584   0.778   1.728  14.989 -0.0499 -0.3813  0.1262
  507TMC3    C3 7585   0.838   1.765  14.872 -0.4341  0.5393  0.6401
  507TMC3    C4 7586   0.970   1.817  15.100  0.2354  0.0839  0.0979
  507TMC3    C5 7587   1.028   1.852  14.980  0.0932  0.3924 -0.0997
  507TMC3    C6 7588   0.965   1.810  14.865  0.0576 -0.2466 -0.3693
  507TMC3     C 7589   0.762   1.745  15.224 -0.2153 -0.4970 -0.3912
  507TMC3     O 7590   0.794   1.837  15.301 -0.1158  0.0494  0.8174
  507TMC3     H 7591   0.679   1.684  14.992  0.3886 -1.4738 -1.3458
  507TMC3    H1 7592   1.020   1.850  15.190 -1.4012  1.2199  0.5741
  507TMC3    H2 7593   1.013   1.839  14.773  3.5287 -0.5546  1.3111
  507TMC3    C7 7594   1.079   1.987  14.970  0.5417 -0.4313  0.0429
  507TMC3    C8 7595   0.743   1.851  14.799 -0.6947 -0.2449 -0.6828
  507TMC3    O1 7596   1.038   2.049  14.872 -0.1963 -0.8302  0.4263
  507TMC3    O2 7597   0.625   1.813  14.798 -0.2086 -0.0517 -0.0019
  508MPD2     C 7598   1.925   0.381  16.226 -0.2930  0.2502  0.1824
  508MPD2    C1 7599   2.058   0.346  16.200  0.2951  0.5044  0.4354
  508MPD2    C2 7600   2.095   0.335  16.067 -0.2121 -0.5569  0.5649
  508MPD2    C3 7601   2.007   0.366  15.969 -0.8123  0.6738 -0.2673
  508MPD2    C4 7602   1.883   0.406  15.993  0.1013  0.1982 -0.1819
  508MPD2    C5 7603   1.839   0.407  16.123 -0.4228  0.6735  0.1273
  508MPD2     H 7604   2.190   0.293  16.036  0.0405  0.2841  0.1929
  508MPD2    H1 7605   1.807   0.423  15.918 -0.7074  1.4406  0.9166
  508MPD2    H2 7606   1.890   0.389  16.328 -2.5009 -0.1546 -0.5227
  508MPD2    H3 7607   1.736   0.440  16.136 -1.1444 -1.1638 -0.8925
  508MPD2     N 7608   2.049   0.369  15.839  0.2810  0.1270  0.2394
  508MPD2    H5 7609   2.148   0.359  15.819  0.0742 -0.8118 -0.3173
  508MPD2    N1 7610   2.139   0.298  16.304 -0.4200  0.1422  0.2757
  508MPD2    H7 7611   2.113   0.301  16.402 -0.3690  0.9891  0.2645
  509TMC3    C1 7612   2.095   0.456  15.377 -0.0542 -0.4991  0.6763
  509TMC3    C2 7613   2.221   0.509  15.399 -0.4105  0.3099 -0.4667
  509TMC3    C3 7614   2.271   0.519  15.527  0.0878 -0.4751 -0.3020
  509TMC3    C4 7615   2.023   0.408  15.487  0.6802 -0.5886 -0.4081
  509TMC3    C5 7616   2.076   0.434  15.614  0.1890  0.1745 -0.3573
  509TMC3    C6 7617   2.204   0.482  15.638 -0.0265 -0.3075 -0.4059
  509TMC3     C 7618   2.012   0.504  15.271  0.0268 -0.2912 -0.0368
  509TMC3     O 7619   1.904   0.449  15.264 -0.1191  0.4924  0.1732
  509TMC3     H 7620   2.277   0.549  15.316  2.0072 -1.1250  0.4465
  509TMC3    H1 7621   1.925   0.364  15.476  0.1600  1.3635 -3.5101
  509TMC3    H2 7622   2.246   0.491  15.738 -0.1881 -1.9725 -0.1741
  509TMC3    C7 7623   1.979   0.404  15.727 -0.0496 -1.0364 -0.2728
  509TMC3    C8 7624   2.398   0.589  15.533 -0.5466  0.3228 -0.7669
  509TMC3    O1 7625   1.856   0.407  15.704  0.5221 -0.0346  0.1684
  509TMC3    O2 7626   2.475   0.555  15.445 -0.2882  0.2223 -1.0343
  510MPD2     C 7627   0.131   1.890  14.831  0.2776  0.1459  0.2025
  510MPD2    C1 7628   0.105   1.760  14.800 -0.8702  0.0836 -0.3199
  510MPD2    C2 7629   0.167   1.704  14.682 -0.2119 -0.3227 -0.1243
  510MPD2    C3 7630   0.253   1.788  14.605  0.4634  0.2641  0.1943
  510MPD2    C4 7631   0.280   1.915  14.645  0.4909  0.8830  0.0149
  510MPD2    C5 7632   0.225   1.960  14.756 -0.0645 -0.3013 -0.2331
  510MPD2     H 7633   0.146   1.599  14.667  4.2834 -1.2190 -0.0983
  510MPD2    H1 7634   0.339   1.982  14.585  0.9907 -1.4239 -2.0734
  510MPD2    H2 7635   0.088   1.927  14.923 -0.4630 -0.3198  0.0457
  510MPD2    H3 7636   0.255   2.057  14.793 -1.9830  1.2141 -2.6525
  510MPD2     N 7637   0.301   1.730  14.480 -0.7717  0.1753 -0.8149
  510MPD2    H5 7638   0.271   1.636  14.457  0.0414 -0.8739  2.4149
  510MPD2    N1 7639   0.030   1.681  14.888 -0.3981 -0.8544  0.2809
  510MPD2    H7 7640   4.711   1.730  14.959 -1.9677 -0.5386 -1.1398
  511TMC3    C1 7641   4.672   1.492  14.997 -0.3737  0.0946 -1.3012
  511TMC3    C2 7642   4.608   1.567  15.087  0.1525  0.0589 -0.0774
  511TMC3    C3 7643   4.535   1.497  15.182 -0.3272  0.2150  0.0279
  511TMC3    C4 7644   4.679   1.357  15.000  0.5180 -0.1126  0.5057
  511TMC3    C5 7645   4.614   1.290  15.093  0.3465  0.5346 -0.2031
  511TMC3    C6 7646   4.537   1.359  15.186  0.1876 -0.3815  0.3478
  511TMC3     C 7647   0.038   1.548  14.911 -0.5005 -0.1955  0.2117
  511TMC3     O 7648   0.126   1.471  14.857 -0.0282  0.4484 -0.0581
  511TMC3     H 7649   4.590   1.674  15.078  0.6584  0.2561  1.1693
  511TMC3    H1 7650   4.736   1.296  14.931  2.7790  1.2986  1.1189
  511TMC3    H2 7651   4.491   1.303  15.266 -2.7013  0.9389 -0.4041
  511TMC3    C7 7652   4.659   1.149  15.126 -0.2758 -0.1667 -0.3743
  511TMC3    C8 7653   4.454   1.571  15.270 -0.6079  0.4161 -0.0647
  511TMC3    O1 7654   0.036   1.117  15.095 -0.0137  0.1798 -0.1588
  511TMC3    O2 7655   4.454   1.692  15.264 -0.4774  0.1049  0.1496
  512TMC3    C1 7656   3.504   1.482  13.222 -0.7091  0.1219  0.0592
  512TMC3    C2 7657   3.559   1.474  13.341  0.4236 -0.1427  0.6557
  512TMC3    C3 7658   3.679   1.403  13.342 -1.0699 -0.9205 -0.3046
  512TMC3    C4 7659   3.556   1.424  13.112  0.7574 -0.6440 -0.2893
  512TMC3    C5 7660   3.657   1.335  13.122 -0.9819  0.1550 -0.0015
  512TMC3    C6 7661   3.721   1.329  13.237 -0.1460  0.0980  0.1705
  512TMC3     C 7662   3.416   1.598  13.195  0.5923  0.9377  0.2441
  512TMC3     O 7663   3.397   1.622  13.076 -0.1747 -0.3944 -0.2719
  512TMC3     H 7664   3.517   1.521  13.429  1.1503  2.2875 -0.2900
  512TMC3    H1 7665   3.496   1.430  13.022  0.1118  0.7885  0.2336
  512TMC3    H2 7666   3.804   1.263  13.258  0.0661  0.6540  1.0948
  512TMC3    C7 7667   3.717   1.275  13.003 -0.2657  0.8915  0.2259
  512TMC3    C8 7668   3.741   1.363  13.463  0.5738 -0.3010 -0.9771
  512TMC3    O1 7669   3.731   1.358  12.910 -0.1903 -0.0379  0.2761
  512TMC3    O2 7670   3.668   1.338  13.558  0.0355  0.3395 -0.3726
  513MPD2     C 7671   1.072   0.624  13.532  0.3680  0.3345 -0.6729
  513MPD2    C1 7672   1.150   0.692  13.446 -0.4608  0.1020  0.3491
  513MPD2    C2 7673   1.208   0.809  13.480  0.1308 -0.3552  0.6253
  513MPD2    C3 7674   1.199   0.849  13.610  0.2653  0.2415 -0.5725
  513MPD2    C4 7675   1.113   0.786  13.699  1.1127 -0.1097  0.1014
  513MPD2    C5 7676   1.048   0.669  13.656  0.5214 -0.1742 -0.6607
  513MPD2     H 7677   1.270   0.869  13.415 -2.3359  2.1971  0.6048
  513MPD2    H1 7678   1.109   0.825  13.800  0.0321  0.8423 -0.3058
  513MPD2    H2 7679   1.040   0.524  13.503 -2.8880  0.5480  2.1261
  513MPD2    H3 7680   0.989   0.619  13.732 -0.9347  1.5290 -0.6865
  513MPD2     N 7681   1.280   0.962  13.639 -0.2367 -0.8212 -0.2515
  513MPD2    H5 7682   1.337   0.999  13.564 -0.4805 -0.3207 -0.1918
  513MPD2    N1 7683   1.185   0.649  13.310  0.0472  0.2955  0.4137
  513MPD2    H7 7684   1.250   0.708  13.259  1.6672 -1.5594  0.3307
  514TMC3    C1 7685   1.213   0.534  13.115  0.0527 -0.2011 -0.1570
  514TMC3    C2 7686   1.126   0.593  13.031  0.9751  0.2378 -0.3618
  514TMC3    C3 7687   1.154   0.693  12.942  0.0545 -0.0581  0.5254
  514TMC3    C4 7688   1.343   0.585  13.107  0.0882  0.5140 -0.2191
  514TMC3    C5 7689   1.378   0.681  13.022 -0.6245 -0.4055  0.2501
  514TMC3    C6 7690   1.281   0.739  12.940 -0.1431  0.3007 -0.6286
  514TMC3     C 7691   1.150   0.531  13.246  0.3087  1.3974  0.3950
  514TMC3     O 7692   1.068   0.441  13.269  0.3799 -0.0226 -0.7385
  514TMC3     H 7693   1.028   0.549  13.046  0.5837  0.1807 -3.1423
  514TMC3    H1 7694   1.416   0.550  13.179  1.8548  2.3535 -1.1351
  514TMC3    H2 7695   1.318   0.809  12.866 -1.4926  1.5714 -0.0886
  514TMC3    C7 7696   1.443   0.775  13.102 -0.4608  0.2369  1.0978
  514TMC3    C8 7697   1.049   0.711  12.840 -0.1592  0.1190  0.1308
  514TMC3    O1 7698   1.381   0.793  13.208 -0.4982  0.6248  0.0353
  514TMC3    O2 7699   0.935   0.673  12.864  0.5178  0.0155 -0.2897
  515MPD2     C 7700   4.196   2.283  14.641 -0.5909 -0.1987  0.7149
  515MPD2    C1 7701   4.121   2.372  14.565  0.1333  0.9920 -0.0894
  515MPD2    C2 7702   4.148   2.506  14.558 -0.3414  0.6453 -0.2524
  515MPD2    C3 7703   4.246   2.554  14.640 -0.2647 -0.2928 -0.0791
  515MPD2    C4 7704   4.317   2.474  14.717 -0.0214  0.2018 -0.2448
  515MPD2    C5 7705   4.294   2.339  14.716  0.4812 -0.3085 -0.1828
  515MPD2     H 7706   4.092   2.573  14.493 -2.3387 -0.7207  0.0579
  515MPD2    H1 7707   4.387   2.517  14.789  0.0136  1.4471 -1.0220
  515MPD2    H2 7708   4.172   2.179  14.655 -0.7931 -0.4593 -1.5263
  515MPD2    H3 7709   4.339   2.275  14.791  0.5329 -0.3011 -0.2074
  515MPD2     N 7710   4.253   2.690  14.663 -0.4632 -0.1414  0.8032
  515MPD2    H5 7711   4.331   2.717  14.723  0.6866 -0.6030 -0.4660
  515MPD2    N1 7712   3.992   2.337  14.511  0.5429 -0.0998 -0.4578
  515MPD2    H7 7713   3.924   2.411  14.503  0.1278 -0.4609 -0.2572
  516TMC3    C1 7714   3.798   2.214  14.499 -0.0773  0.6046 -0.5762
  516TMC3    C2 7715   3.734   2.295  14.409  0.3002 -0.0663  0.0069
  516TMC3    C3 7716   3.597   2.309  14.418 -0.2990 -0.0635 -0.1234
  516TMC3    C4 7717   3.725   2.151  14.599 -0.7299  0.1380  0.1671
  516TMC3    C5 7718   3.592   2.156  14.599  0.1696  0.5893  0.1011
  516TMC3    C6 7719   3.524   2.250  14.518  0.3553  0.0805  0.3894
  516TMC3     C 7720   3.941   2.212  14.505  0.3816  0.6534  0.3886
  516TMC3     O 7721   3.990   2.104  14.527 -0.2669  0.1445 -0.7766
  516TMC3     H 7722   3.792   2.331  14.324 -1.1446  0.7275 -0.6414
  516TMC3    H1 7723   3.777   2.075  14.655  0.0612  1.9392  1.8793
  516TMC3    H2 7724   3.416   2.257  14.519  0.5570  3.4312 -0.0684
  516TMC3    C7 7725   3.523   2.080  14.705 -0.2419 -0.3139  0.8421
  516TMC3    C8 7726   3.526   2.406  14.347 -0.1849 -0.8146  0.0197
  516TMC3    O1 7727   3.581   2.041  14.804 -0.3303  0.2498  0.8671
  516TMC3    O2 7728   3.403   2.415  14.363 -0.2498 -0.3328  0.5360
  517MPD2     C 7729   3.791   4.609   0.408  0.0569  0.9950 -0.5557
  517MPD2    C1 7730   3.857   4.647   0.288 -0.1376 -0.0544  0.1926
  517MPD2    C2 7731   3.914   0.037   0.284  0.8304  0.1451 -0.0309
  517MPD2    C3 7732   3.925   0.104   0.405  0.3504  0.2966  0.3915
  517MPD2    C4 7733   3.874   0.057   0.525  0.8069 -0.9838 -0.2540
  517MPD2    C5 7734   3.798   4.680   0.522 -0.6615 -0.0440 -0.4963
  517MPD2     H 7735   3.959   0.085   0.197 -0.5496  0.6364 -0.4760
  517MPD2    H1 7736   3.885   0.107   0.621  3.3315 -1.2108 -0.4282
  517MPD2    H2 7737   3.723   4.526   0.420 -0.2303  1.3127  0.0300
  517MPD2    H3 7738   3.765   4.638   0.617 -0.1652 -1.0269 -0.7645
  517MPD2     N 7739   3.998   0.222   0.403  0.2075 -0.0243 -0.2086
  517MPD2    H5 7740   4.035   0.253   0.313  1.5748 -0.1031  0.3228
  517MPD2    N1 7741   3.840   4.559   0.176  0.6174 -0.0829  0.1920
  517MPD2    H7 7742   3.854   4.598   0.083 -0.1791 -0.2875 -0.0183
  518TMC3    C1 7743   3.817   4.349   0.060 -0.5936 -0.0382 -0.1571
  518TMC3    C2 7744   3.863   4.220   0.055  0.5075  0.0285  0.4174
  518TMC3    C3 7745   3.836   4.144  17.680  0.1402  0.0617  0.5648
  518TMC3    C4 7746   3.763   4.401  17.690 -0.6016 -0.3833 -0.6670
  518TMC3    C5 7747   3.750   4.329  17.569  0.2858  0.3247  0.1189
  518TMC3    C6 7748   3.787   4.200  17.561  0.3116 -0.1398 -0.1504
  518TMC3     C 7749   3.819   4.422   0.186  0.6024  0.4037 -0.0155
  518TMC3     O 7750   3.821   4.355   0.287  0.2142 -0.1159  0.3086
  518TMC3     H 7751   3.889   4.169   0.148 -0.1297 -2.0722 -0.5612
  518TMC3    H1 7752   3.729   4.503  17.694 -0.2352 -0.2864  0.0758
  518TMC3    H2 7753   3.752   4.132  17.484 -1.6167 -0.6162  1.1571
  518TMC3    C7 7754   3.707   4.385  17.442  1.4940  0.4020  0.3194
  518TMC3    C8 7755   3.817   4.005  17.685  0.5953 -0.2699 -0.4652
  518TMC3    O1 7756   3.671   4.502  17.460 -0.0961 -0.2087  0.3386
  518TMC3    O2 7757   3.849   3.935  17.589 -0.0957 -0.3252  0.4488
  519MPD2     C 7758   0.542   2.600  14.218  0.7882 -0.0776  0.0453
  519MPD2    C1 7759   0.474   2.548  14.112 -0.6924  0.1214 -0.1098
  519MPD2    C2 7760   0.479   2.412  14.099 -0.2832  0.6709 -0.2907
  519MPD2    C3 7761   0.536   2.325  14.191 -0.5342 -1.2723  0.0787
  519MPD2    C4 7762   0.588   2.375  14.307  0.2351  0.7735 -0.2361
  519MPD2    C5 7763   0.597   2.512  14.315  0.6441  0.1578  0.6922
  519MPD2     H 7764   0.437   2.369  14.009 -0.4994  0.0765  0.0967
  519MPD2    H1 7765   0.632   2.312  14.384  1.5175 -0.1919 -1.7819
  519MPD2    H2 7766   0.548   2.708  14.227  2.2873 -0.1559 -0.1041
  519MPD2    H3 7767   0.646   2.548  14.405  0.1512  1.9228  0.2659
  519MPD2     N 7768   0.562   2.191  14.166 -0.0704 -0.4416 -0.8165
  519MPD2    H5 7769   0.640   2.145  14.211 -0.1778 -0.3590 -0.5507
  519MPD2    N1 7770   0.428   2.634  14.011 -0.7111  0.8288  0.5737
  519MPD2    H7 7771   0.459   2.730  14.029  0.3193  0.6297 -0.0841
  520TMC3    C1 7772   0.563   2.013  14.003  0.3651 -0.3114 -0.0087
  520TMC3    C2 7773   0.503   1.981  13.881  0.0374  0.5581  0.0824
  520TMC3    C3 7774   0.585   1.949  13.780 -0.4370  0.0649  0.4171
  520TMC3    C4 7775   0.705   2.026  14.001 -0.2974 -0.1526  0.4526
  520TMC3    C5 7776   0.777   2.010  13.890  0.0942 -0.2692 -0.0232
  520TMC3    C6 7777   0.717   1.973  13.775 -0.1058 -0.1186  0.0810
  520TMC3     C 7778   0.495   2.125  14.063  0.3805 -0.1678  0.0455
  520TMC3     O 7779   0.383   2.149  14.025 -0.7088  0.0010 -0.3827
  520TMC3     H 7780   0.403   1.941  13.873 -0.3953  1.3142  1.5575
  520TMC3    H1 7781   0.760   2.060  14.088  0.7372 -1.6229  0.3531
  520TMC3    H2 7782   0.765   1.938  13.684  1.0078 -0.1003  0.6518
  520TMC3    C7 7783   0.917   2.039  13.885 -0.3135  0.1459  0.3190
  520TMC3    C8 7784   0.529   1.910  13.651  0.0758 -0.0268 -0.3247
  520TMC3    O1 7785   0.968   2.067  13.993  0.1443 -0.3044 -0.3212
  520TMC3    O2 7786   0.599   1.838  13.576 -0.0794 -0.4358  0.5212
  521MPD2     C 7787   1.382   0.898  17.668 -0.4690 -0.3564  0.4198
  521MPD2    C1 7788   1.314   0.773  17.672 -0.5854  0.7526  0.5004
  521MPD2    C2 7789   1.392   0.657  17.651 -0.0054  0.0466  0.4024
  521MPD2    C3 7790   1.532   0.672  17.622  0.1709  0.5730 -0.5454
  521MPD2    C4 7791   1.590   0.798  17.620  0.4302  0.8110  0.3180
  521MPD2    C5 7792   1.517   0.906  17.651  0.4586 -0.2061 -0.4559
  521MPD2     H 7793   1.347   0.559  17.665 -0.0727 -0.1738 -1.3627
  521MPD2    H1 7794   1.695   0.812  17.598  0.3312 -0.9083 -1.3098
  521MPD2    H2 7795   1.340   0.996  17.689  2.0903  0.8762 -0.3036
  521MPD2    H3 7796   1.559   1.006  17.646  1.5873 -0.6937 -0.8766
  521MPD2     N 7797   1.600   0.554  17.573  0.0510 -0.3326  0.4988
  521MPD2    H5 7798   1.540   0.480  17.537 -0.0061  0.9848 -2.1222
  521MPD2    N1 7799   1.176   0.773  17.698 -0.4913 -0.0742 -0.0486
  521MPD2    H7 7800   1.134   0.864  17.683  2.8559  1.5409  0.2767
  522TMC3    C1 7801   1.773   0.425  17.478  0.1449  0.2707 -0.0621
  522TMC3    C2 7802   1.906   0.404  17.461 -0.2843 -0.1544  0.3428
  522TMC3    C3 7803   1.947   0.317  17.362  0.3997  0.6538  0.0865
  522TMC3    C4 7804   1.682   0.354  17.401  0.0827 -0.2258 -0.3580
  522TMC3    C5 7805   1.726   0.267  17.313  0.1395 -0.0755  0.6216
  522TMC3    C6 7806   1.855   0.246  17.288  0.0131  0.4074  0.2290
  522TMC3     C 7807   1.735   0.539  17.553  0.5092  0.2896  0.3484
  522TMC3     O 7808   1.823   0.616  17.580 -0.0473  0.0703 -0.2244
  522TMC3     H 7809   1.975   0.455  17.526 -1.6794 -1.2389  2.6756
  522TMC3    H1 7810   1.575   0.370  17.401  0.3958  1.8220 -2.0520
  522TMC3    H2 7811   1.883   0.188  17.200 -2.1973 -0.4609  0.1014
  522TMC3    C7 7812   1.633   0.215  17.219 -0.8339  0.7221 -0.2557
  522TMC3    C8 7813   2.092   0.290  17.350 -0.0947  0.2393 -0.1405
  522TMC3    O1 7814   1.672   0.204  17.104  0.7006 -0.3411  0.3443
  522TMC3    O2 7815   2.158   0.302  17.451  0.5217  1.2064 -0.3819
  523MPD2     C 7816   3.953   0.964   9.620 -0.0964 -0.2409 -0.3677
  523MPD2    C1 7817   3.928   1.016   9.743  0.6110  0.1654 -0.4017
  523MPD2    C2 7818   3.895   1.148   9.756  0.3425  0.2734  0.0094
  523MPD2    C3 7819   3.883   1.226   9.638 -0.4181 -0.2562  0.3137
  523MPD2    C4 7820   3.890   1.171   9.515  0.8506  0.7594 -1.1459
  523MPD2    C5 7821   3.927   1.042   9.503  0.4776 -0.4075  0.0167
  523MPD2     H 7822   3.875   1.191   9.853  1.7921 -1.7716  1.1929
  523MPD2    H1 7823   3.862   1.228   9.428 -2.9202 -0.1556 -0.5185
  523MPD2    H2 7824   3.982   0.861   9.604 -0.7375 -0.5753  0.5903
  523MPD2    H3 7825   3.942   1.012   9.400  0.9805 -2.5436  0.7166
  523MPD2     N 7826   3.862   1.359   9.644 -0.3343  0.1086 -0.2865
  523MPD2    H5 7827   3.826   1.404   9.560 -0.3338 -1.5551 -1.1750
  523MPD2    N1 7828   3.939   0.923   9.855  0.1570 -0.0465  0.3129
  523MPD2    H7 7829   3.957   0.827   9.827 -0.4052 -0.4904  1.4609
  524TMC3    C1 7830   3.841   1.579   9.742 -0.1478 -1.0291 -0.0555
  524TMC3    C2 7831   3.762   1.609   9.633  0.5888  0.0953  0.1651
  524TMC3    C3 7832   3.755   1.744   9.605  0.7101 -0.8767  0.2762
  524TMC3    C4 7833   3.918   1.668   9.817  0.3362 -0.7406 -0.0139
  524TMC3    C5 7834   3.905   1.798   9.785 -0.6253  0.5755 -0.3745
  524TMC3    C6 7835   3.819   1.836   9.686  0.7634 -0.4735 -0.0720
  524TMC3     C 7836   3.885   1.437   9.755  0.1961  0.1484  0.1365
  524TMC3     O 7837   3.956   1.407   9.850 -0.0812  0.3243 -0.7605
  524TMC3     H 7838   3.697   1.532   9.594 -0.9665  1.1287  0.6937
  524TMC3    H1 7839   3.990   1.634   9.890 -0.7245  0.2037  1.4683
  524TMC3    H2 7840   3.799   1.934   9.646 -0.7202 -0.5542  0.4687
  524TMC3    C7 7841   4.016   1.885   9.808  0.5257 -0.7249 -0.0480
  524TMC3    C8 7842   3.630   1.783   9.531 -0.3490 -1.2843  0.7158
  524TMC3    O1 7843   4.124   1.833   9.828 -0.0030  0.0328 -0.2434
  524TMC3    O2 7844   3.582   1.898   9.537  0.1972 -0.1913  0.0545
  525MPD2     C 7845   1.966   2.148  14.360 -0.1498 -0.5780 -0.3629
  525MPD2    C1 7846   2.093   2.129  14.416  0.0912  0.0651 -0.0505
  525MPD2    C2 7847   2.186   2.235  14.432 -0.5774 -0.0164 -0.4964
  525MPD2    C3 7848   2.143   2.365  14.403 -0.1912 -0.0614 -0.1501
  525MPD2    C4 7849   2.016   2.386  14.359  0.3278  0.0413  0.0320
  525MPD2    C5 7850   1.930   2.280  14.339  0.0768 -0.6439 -0.9059
  525MPD2     H 7851   2.279   2.228  14.488 -0.4183  0.3686 -0.7137
  525MPD2    H1 7852   1.987   2.486  14.328  2.8994  0.9499  0.6057
  525MPD2    H2 7853   1.892   2.071  14.339 -0.8866 -0.7061  2.7867
  525MPD2    H3 7854   1.833   2.307  14.299 -0.1442  0.4719  0.3812
  525MPD2     N 7855   2.224   2.473  14.429  0.2066 -0.1949 -0.7770
  525MPD2    H5 7856   2.168   2.557  14.438  0.9570  0.5403 -2.9227
  525MPD2    N1 7857   2.132   2.007  14.479 -0.2336  0.3613  0.0320
  525MPD2    H7 7858   2.231   1.992  14.495 -0.2616 -0.7476 -0.8016
  526TMC3    C1 7859   2.116   1.796  14.580 -0.4446  0.0149  0.0828
  526TMC3    C2 7860   2.059   1.747  14.695  0.3707  0.2457 -0.6184
  526TMC3    C3 7861   2.143   1.674  14.780 -0.0256  0.1991  0.1036
  526TMC3    C4 7862   2.243   1.772  14.536 -0.7892 -0.1541 -0.0020
  526TMC3    C5 7863   2.322   1.697  14.626  0.4753  0.5501  0.5177
  526TMC3    C6 7864   2.271   1.643  14.741 -0.2674  0.0784  0.8452
  526TMC3     C 7865   2.046   1.914  14.529 -0.0725  0.3207  0.0360
  526TMC3     O 7866   1.926   1.915  14.540 -0.8413 -0.1390 -0.1133
  526TMC3     H 7867   1.962   1.786  14.725  0.4003  1.9544 -2.7490
  526TMC3    H1 7868   2.274   1.785  14.433 -1.8672 -0.4070 -0.3635
  526TMC3    H2 7869   2.337   1.584  14.803  2.1402  3.0535  1.1266
  526TMC3    C7 7870   2.463   1.658  14.586  0.0831 -0.3247 -0.2557
  526TMC3    C8 7871   2.124   1.681  14.924 -0.3915 -0.2331 -0.5507
  526TMC3    O1 7872   2.516   1.562  14.632 -0.2166 -0.0179 -0.3294
  526TMC3    O2 7873   2.218   1.686  15.001  0.3982 -0.0331 -0.4002
  527MPD2     C 7874   0.129   0.803   1.243 -0.2221  0.1496 -0.5644
  527MPD2    C1 7875   0.079   0.693   1.186  0.5770 -0.9628 -0.1572
  527MPD2    C2 7876   0.143   0.629   1.081  0.1683  0.0605  0.1053
  527MPD2    C3 7877   0.273   0.664   1.050 -0.8593  0.4870  0.8532
  527MPD2    C4 7878   0.321   0.785   1.107  0.7010 -0.5719  0.6442
  527MPD2    C5 7879   0.249   0.846   1.204  0.3171 -0.2664 -0.1078
  527MPD2     H 7880   0.105   0.535   1.045  2.3961 -0.5147 -0.7197
  527MPD2    H1 7881   0.419   0.827   1.087  0.9016 -2.7904 -3.2234
  527MPD2    H2 7882   0.072   0.859   1.317  0.7909 -0.1251  0.4245
  527MPD2    H3 7883   0.301   0.933   1.243 -0.0701 -1.4668  3.1086
  527MPD2     N 7884   0.342   0.590   0.954  0.2516  0.0289 -0.4040
  527MPD2    H5 7885   0.280   0.526   0.905 -1.4625  1.6247 -0.3322
  527MPD2    N1 7886   4.692   0.634   1.213 -0.0152  0.4620 -0.0789
  527MPD2    H7 7887   4.668   0.549   1.163  0.0069  1.1190 -1.1932
  528TMC3    C1 7888   4.475   0.603   1.284 -0.4072 -0.3391  0.0601
  528TMC3    C2 7889   4.472   0.558   1.154 -0.6553  0.3619 -0.3678
  528TMC3    C3 7890   4.426   0.436   1.128  0.6609  0.5519 -0.2593
  528TMC3    C4 7891   4.424   0.525   1.390 -0.4240  0.1718 -0.0177
  528TMC3    C5 7892   4.384   0.398   1.363 -0.5255  0.3381  0.0084
  528TMC3    C6 7893   4.389   0.355   1.231  0.5397 -0.3940 -0.0320
  528TMC3     C 7894   4.602   0.668   1.308 -0.4999  0.0970 -0.2510
  528TMC3     O 7895   4.614   0.742   1.407 -0.5305 -0.4924 -0.1793
  528TMC3     H 7896   4.495   0.628   1.074  1.6184 -0.5578 -0.5208
  528TMC3    H1 7897   4.412   0.568   1.489 -0.4635  0.1018  0.0080
  528TMC3    H2 7898   4.357   0.256   1.200  0.1913  0.1616 -1.4455
  528TMC3    C7 7899   4.276   0.347   1.453  0.4117 -0.6795 -0.4207
  528TMC3    C8 7900   4.463   0.385   1.003  0.1515 -0.4511 -0.6073
  528TMC3    O1 7901   4.204   0.428   1.517 -0.3878  0.1593 -0.0954
  528TMC3    O2 7902   4.560   0.435   0.947  0.6360  0.1093 -0.2922
  529MPD2     C 7903   2.108   3.274   0.818 -0.3523 -0.1564  0.3011
  529MPD2    C1 7904   2.224   3.222   0.753 -0.0163 -0.3694 -0.0145
  529MPD2    C2 7905   2.288   3.288   0.648  0.2933 -0.3737 -0.2213
  529MPD2    C3 7906   2.223   3.396   0.597 -0.2938  0.6895 -0.1506
  529MPD2    C4 7907   2.117   3.450   0.661  0.3782 -0.9301 -0.0193
  529MPD2    C5 7908   2.052   3.389   0.766  0.0528 -0.1426 -0.6280
  529MPD2     H 7909   2.371   3.231   0.608 -0.8123 -1.1899 -1.3769
  529MPD2    H1 7910   2.080   3.544   0.623  0.7093 -1.0526 -0.6508
  529MPD2    H2 7911   2.058   3.227   0.902 -0.2813  0.8658  0.9133
  529MPD2    H3 7912   1.967   3.444   0.804 -1.0509 -0.7878 -2.1747
  529MPD2     N 7913   2.276   3.461   0.481  0.0915  0.1737  0.1559
  529MPD2    H5 7914   2.214   3.529   0.439 -0.5514 -0.8697 -0.6000
  529MPD2    N1 7915   2.274   3.095   0.781  0.0132  0.0046 -0.0812
  529MPD2    H7 7916   2.342   3.046   0.724 -0.8864 -2.3266  0.8717
  530TMC3    C1 7917   2.332   2.913   0.913 -0.1148  0.7090 -0.5378
  530TMC3    C2 7918   2.469   2.944   0.897  0.2745 -0.2616 -0.8057
  530TMC3    C3 7919   2.564   2.866   0.956 -0.4668  0.2639 -0.0186
  530TMC3    C4 7920   2.286   2.803   0.978  0.4232 -0.3272 -0.2142
  530TMC3    C5 7921   2.386   2.733   1.048 -0.1112  0.0671 -0.5613
  530TMC3    C6 7922   2.524   2.764   1.043  0.5518 -0.6574 -0.0877
  530TMC3     C 7923   2.240   3.018   0.887 -0.1203 -0.7989  0.1069
  530TMC3     O 7924   2.148   3.022   0.966  0.3234  0.2785 -0.3068
  530TMC3     H 7925   2.505   3.031   0.844  0.1301  0.0496 -0.3959
  530TMC3    H1 7926   2.179   2.796   0.994  0.3457 -0.8034 -0.9401
  530TMC3    H2 7927   2.594   2.718   1.112  2.0534 -1.7229 -2.3419
  530TMC3    C7 7928   2.349   2.618   1.134 -0.0015  0.3556  0.7514
  530TMC3    C8 7929   2.671   2.957   1.002  0.5548 -0.5444  0.0285
  530TMC3    O1 7930   2.431   2.528   1.142  0.7916 -0.2858  0.3770
  530TMC3    O2 7931   2.646   3.074   1.030  0.4588  0.1009 -0.3170
  531MPD2     C 7932   1.833   1.026  13.297 -0.6331 -0.1399  0.2145
  531MPD2    C1 7933   1.700   1.042  13.311 -0.1473 -0.3668 -0.6340
  531MPD2    C2 7934   1.612   0.968  13.234 -0.7678  0.3007  0.4455
  531MPD2    C3 7935   1.664   0.868  13.144  0.9839  0.2426  0.8456
  531MPD2    C4 7936   1.796   0.850  13.138 -0.1339 -0.6272  0.6720
  531MPD2    C5 7937   1.880   0.923  13.216  0.6375 -0.0132 -0.3356
  531MPD2     H 7938   1.505   0.983  13.239 -0.4034  2.0654  3.1538
  531MPD2    H1 7939   1.838   0.776  13.070  0.9789 -0.6904  1.4324
  531MPD2    H2 7940   1.898   1.078  13.366 -0.9431 -2.0371  1.9309
  531MPD2    H3 7941   1.984   0.896  13.213  0.0451 -2.1355 -1.7979
  531MPD2     N 7942   1.573   0.797  13.064 -0.0693 -0.2738  0.2957
  531MPD2    H5 7943   1.613   0.749  12.984 -0.1715  2.5803 -1.4612
  531MPD2    N1 7944   1.658   1.142  13.404  0.5317  0.5558  0.1960
  531MPD2    H7 7945   1.734   1.188  13.454  0.1068  0.3826  0.9981
  532TMC3    C1 7946   1.527   1.234  13.569 -0.3089 -0.3879 -0.3843
  532TMC3    C2 7947   1.410   1.195  13.620  0.0511 -0.5029 -0.0630
  532TMC3    C3 7948   1.407   1.126  13.735  0.4713 -0.5269 -0.0204
  532TMC3    C4 7949   1.645   1.234  13.637  0.1993  0.0701 -0.2798
  532TMC3    C5 7950   1.636   1.155  13.748 -0.5056 -0.0792  0.3025
  532TMC3    C6 7951   1.522   1.103  13.802  0.4118 -0.7052 -0.1636
  532TMC3     C 7952   1.529   1.176  13.434  0.3943 -0.1559 -0.0657
  532TMC3     O 7953   1.432   1.117  13.393 -0.1443 -0.2588 -0.3230
  532TMC3     H 7954   1.317   1.216  13.569 -0.3869 -1.2929  0.4044
  532TMC3    H1 7955   1.733   1.284  13.599 -0.8603  1.0709 -1.4201
  532TMC3    H2 7956   1.519   1.034  13.886 -0.7700 -1.8048 -1.1055
  532TMC3    C7 7957   1.758   1.133  13.821  0.3580  0.4942  0.3854
  532TMC3    C8 7958   1.303   1.030  13.759 -0.4840 -0.3462  0.1857
  532TMC3    O1 7959   1.849   1.215  13.804  0.9330 -0.7419 -0.7614
  532TMC3    O2 7960   1.271   1.003  13.874  0.0509 -0.8595  0.0512
  533TMC3    C1 7961   2.415   2.592  14.499  0.4809 -0.4476  0.3023
  533TMC3    C2 7962   2.547   2.628  14.471 -0.5661  0.0305  0.5285
  533TMC3    C3 7963   2.598   2.738  14.539  0.3739 -0.1311 -0.2948
  533TMC3    C4 7964   2.333   2.669  14.580  0.0893  0.1871 -0.1601
  533TMC3    C5 7965   2.396   2.763  14.659 -0.9101 -0.6007 -0.1855
  533TMC3    C6 7966   2.526   2.799  14.639 -0.3634  0.5517  0.3545
  533TMC3     C 7967   2.363   2.470  14.441  0.2788 -0.3375 -0.5217
  533TMC3     O 7968   2.451   2.394  14.406  0.5548 -0.4228  0.2997
  533TMC3     H 7969   2.612   2.580  14.399 -3.3395 -0.8581 -1.3691
  533TMC3    H1 7970   2.227   2.650  14.596  0.1347 -1.2609 -1.5806
  533TMC3    H2 7971   2.578   2.874  14.698  1.4400 -2.1287  2.1815
  533TMC3    C7 7972   2.338   2.814  14.776 -0.8418  0.3806  0.5281
  533TMC3    C8 7973   2.731   2.786  14.517  0.3908  0.6155 -0.0508
  533TMC3    O1 7974   2.401   2.897  14.838  0.2639  0.2093 -0.0981
  533TMC3    O2 7975   2.742   2.909  14.524 -0.2747  0.1536  0.4294
  534MPD2     C 7976   0.665   3.897   0.714  0.4172 -0.3508  0.1317
  534MPD2    C1 7977   0.546   3.968   0.707  0.2822 -0.2018  0.1471
  534MPD2    C2 7978   0.427   3.892   0.692  0.5366  0.0875 -0.5718
  534MPD2    C3 7979   0.431   3.752   0.697  0.1752  0.1434  0.0299
  534MPD2    C4 7980   0.552   3.684   0.699 -0.1795 -0.0882  0.4548
  534MPD2    C5 7981   0.669   3.763   0.700  0.8543  0.6707 -0.7924
  534MPD2     H 7982   0.335   3.949   0.693  0.7049  0.3586 -0.8634
  534MPD2    H1 7983   0.558   3.576   0.699  0.8437 -0.0222 -1.5967
  534MPD2    H2 7984   0.761   3.948   0.704  0.9228 -1.3609 -0.1696
  534MPD2    H3 7985   0.766   3.716   0.714 -0.2332 -0.9712  1.1848
  534MPD2     N 7986   0.314   3.673   0.706 -0.1574 -0.2109  0.4950
  534MPD2    H5 7987   0.330   3.574   0.720 -1.6979 -0.4845  0.3166
  534MPD2    N1 7988   0.537   4.104   0.723  0.0411  0.4157  0.2239
  534MPD2    H7 7989   0.446   4.145   0.709  0.4053  0.8853 -0.8266
  535TMC3    C1 7990   0.099   3.597   0.707  0.7020 -0.6346  0.0847
  535TMC3    C2 7991   4.719   3.609   0.776  0.3048  0.0094  0.0324
  535TMC3    C3 7992   4.630   3.505   0.757  0.2119 -0.2405  0.0708
  535TMC3    C4 7993   0.126   3.495   0.626  0.1008 -0.4781 -0.3283
  535TMC3    C5 7994   0.042   3.393   0.615 -0.2341  0.0032  0.2200
  535TMC3    C6 7995   4.655   3.402   0.677 -0.9356 -0.6592  0.0898
  535TMC3     C 7996   0.185   3.715   0.696 -0.2462 -0.3848 -0.0483
  535TMC3     O 7997   0.145   3.831   0.705  0.4101  0.2296 -0.1759
  535TMC3     H 7998   4.691   3.695   0.836  0.6484  0.2524 -0.1516
  535TMC3    H1 7999   0.197   3.511   0.546  0.1757  2.5649  0.3702
  535TMC3    H2 8000   4.582   3.321   0.681  0.2962 -1.8207 -0.9969
  535TMC3    C7 8001   0.049   3.301   0.505 -0.1518  0.1187 -0.3351
  535TMC3    C8 8002   4.492   3.526   0.800  0.3196 -0.6780 -0.3310
  535TMC3    O1 8003   0.166   3.272   0.481 -0.0153  0.3619 -0.3110
  535TMC3    O2 8004   4.405   3.448   0.757  0.6372 -0.2592 -0.0345
  536MPD2     C 8005   3.689   2.106  16.311  0.4047 -0.1341  0.1956
  536MPD2    C1 8006   3.608   1.993  16.303 -0.5394 -0.1340  0.6050
  536MPD2    C2 8007   3.525   1.970  16.196 -0.0429  0.4491 -0.7953
  536MPD2    C3 8008   3.529   2.053  16.085 -0.3769 -0.5360 -0.6666
  536MPD2    C4 8009   3.632   2.155  16.079 -0.4986 -0.4241  0.0960
  536MPD2    C5 8010   3.703   2.181  16.191  0.0709  0.6378 -0.4907
  536MPD2     H 8011   3.461   1.882  16.199 -0.9497  1.0796 -1.8880
  536MPD2    H1 8012   3.642   2.224  15.997  0.2887 -1.1101 -0.3835
  536MPD2    H2 8013   3.741   2.135  16.402  0.3314  1.9480 -0.4362
  536MPD2    H3 8014   3.769   2.266  16.196  0.1618  0.3684  2.8812
  536MPD2     N 8015   3.428   2.063  15.984 -0.2437 -0.2133  0.2767
  536MPD2    H5 8016   3.448   2.128  15.908 -2.9539  0.4798  0.1509
  536MPD2    N1 8017   3.607   1.910  16.422  0.2782 -0.9779 -0.7942
  536MPD2    H7 8018   3.682   1.935  16.487  0.4301  2.0002 -2.1178
  537TMC3    C1 8019   3.553   1.772  16.595 -0.1928 -0.0324  0.5617
  537TMC3    C2 8020   3.578   1.868  16.688  0.3776  0.1347  0.6019
  537TMC3    C3 8021   3.564   1.844  16.817 -0.5100  0.1043 -0.0861
  537TMC3    C4 8022   3.511   1.651  16.639 -0.5366  0.6747 -0.1226
  537TMC3    C5 8023   3.518   1.619  16.771 -1.0519 -0.2798  0.6156
  537TMC3    C6 8024   3.532   1.720  16.867  0.5253 -0.7146 -0.0076
  537TMC3     C 8025   3.526   1.809  16.455 -0.6052 -0.0469 -0.0753
  537TMC3     O 8026   3.437   1.756  16.395  0.4212  0.2359 -0.1452
  537TMC3     H 8027   3.622   1.962  16.657  1.1455 -0.9384 -1.5427
  537TMC3    H1 8028   3.495   1.578  16.560 -0.1895  0.3939  0.0686
  537TMC3    H2 8029   3.522   1.707  16.974  0.9937  0.8889  0.2235
  537TMC3    C7 8030   3.426   1.513  16.808 -0.5583 -0.8579 -0.1880
  537TMC3    C8 8031   3.560   1.953  16.914  0.7281 -0.1698  0.7336
  537TMC3    O1 8032   3.329   1.494  16.734  0.2336 -0.5477 -0.5231
  537TMC3    O2 8033   3.564   1.906  17.027 -0.1498 -0.6626  0.1304
  538TMC3    C1 8034   0.039   0.882  11.366  0.5460 -0.1232 -0.6533
  538TMC3    C2 8035   0.161   0.899  11.316  0.2218 -0.2323  0.0940
  538TMC3    C3 8036   0.182   0.974  11.200  0.7383 -0.6046 -0.1768
  538TMC3    C4 8037   4.671   0.925  11.283 -0.2340  0.2594  0.0750
  538TMC3    C5 8038   4.702   0.996  11.163  0.2220 -0.2838 -0.2075
  538TMC3    C6 8039   0.091   1.030  11.122 -0.4612 -0.0848  0.8627
  538TMC3     C 8040   0.010   0.909  11.501  0.0747  0.1384  0.3017
  538TMC3     O 8041   4.637   0.962  11.526  0.1332 -0.4001  0.3147
  538TMC3     H 8042   0.247   0.871  11.375 -0.5248  0.3037  1.4217
  538TMC3    H1 8043   4.566   0.903  11.300 -0.2547  0.3027  0.0034
  538TMC3    H2 8044   0.116   1.087  11.034  0.0855 -0.5130  0.7444
  538TMC3    C7 8045   4.592   1.045  11.088 -0.2072  0.4395  0.0238
  538TMC3    C8 8046   0.326   0.978  11.155 -0.2934 -0.1683 -0.0930
  538TMC3    O1 8047   4.498   0.969  11.085  0.0114  0.0780  0.1757
  538TMC3    O2 8048   0.410   0.964  11.245  0.0964 -0.0558 -0.3914
  539MPD2     C 8049   0.054   0.268  11.417  0.0890  0.4630 -0.0658
  539MPD2    C1 8050   4.672   0.220  11.459 -0.0047 -0.7276  0.4684
  539MPD2    C2 8051   4.555   0.296  11.468 -0.0794  0.2750  0.1113
  539MPD2    C3 8052   4.555   0.428  11.429  0.2159  0.5227  0.1940
  539MPD2    C4 8053   4.672   0.488  11.406  0.4926  0.8315  0.1784
  539MPD2    C5 8054   0.050   0.409  11.393  0.1267  0.3462 -0.7786
  539MPD2     H 8055   4.465   0.239  11.490 -0.9131  0.7022 -2.1840
  539MPD2    H1 8056   4.684   0.593  11.381  0.4846  1.0285  0.9963
  539MPD2    H2 8057   0.148   0.214  11.409 -0.4706 -0.4740 -0.1900
  539MPD2    H3 8058   0.138   0.450  11.346  1.1115 -0.6668  0.1764
  539MPD2     N 8059   4.435   0.502  11.430 -0.2480  0.3238 -0.0913
  539MPD2    H5 8060   4.359   0.458  11.481  1.2992 -1.3417  0.7929
  539MPD2    N1 8061   4.655   0.077  11.476  0.5596  0.1923  0.1195
  539MPD2    H7 8062   4.564   0.033  11.475  0.0198  1.3204  0.0420
  540TMC3    C1 8063   4.286   0.659  11.371  0.1577  0.3040  0.4952
  540TMC3    C2 8064   4.209   0.689  11.264 -0.2665 -0.4979 -0.1699
  540TMC3    C3 8065   4.084   0.745  11.282 -0.0720  0.2191  0.6333
  540TMC3    C4 8066   4.245   0.677  11.495  0.2776 -0.4030 -0.3706
  540TMC3    C5 8067   4.113   0.728  11.506  0.0444  0.1523  0.4077
  540TMC3    C6 8068   4.029   0.760  11.402  0.3875  0.5672  0.0324
  540TMC3     C 8069   4.414   0.604  11.343 -0.2396 -0.4279 -0.2368
  540TMC3     O 8070   4.464   0.617  11.232  0.2754 -0.1608 -0.3263
  540TMC3     H 8071   4.242   0.674  11.162  0.1756  1.2865 -0.2959
  540TMC3    H1 8072   4.309   0.663  11.582 -0.3454  2.5837  0.5813
  540TMC3    H2 8073   3.925   0.788  11.419  0.3561  1.0518 -0.9121
  540TMC3    C7 8074   4.041   0.670  11.614 -0.6723  0.6218  0.0697
  540TMC3    C8 8075   3.995   0.740  11.173 -0.2134  0.9257  0.0359
  540TMC3    O1 8076   4.072   0.555  11.642  0.6487 -0.1656 -0.0190
  540TMC3    O2 8077   3.945   0.849  11.146 -0.2965  0.6596 -0.4446
  541MPD2     C 8078   2.905   1.185  13.584  0.0079  0.0878 -0.1677
  541MPD2    C1 8079   2.939   1.079  13.496  0.5870  0.5783  0.1587
  541MPD2    C2 8080   2.933   1.104  13.360 -0.9166  0.0718 -0.0292
  541MPD2    C3 8081   2.898   1.230  13.321  0.0073 -0.6145  0.3327
  541MPD2    C4 8082   2.845   1.319  13.407 -0.0904  0.3917 -0.1298
  541MPD2    C5 8083   2.856   1.302  13.540 -0.2467  1.3385  0.8164
  541MPD2     H 8084   2.956   1.027  13.287  0.4503  0.7202 -0.2918
  541MPD2    H1 8085   2.806   1.409  13.362 -1.2543  0.2361  0.5580
  541MPD2    H2 8086   2.927   1.192  13.690 -0.2348  0.7372 -0.1581
  541MPD2    H3 8087   2.832   1.381  13.610  1.7693  1.0991  1.7576
  541MPD2     N 8088   2.875   1.273  13.186  0.1464 -0.1497 -0.0848
  541MPD2    H5 8089   2.853   1.371  13.175 -0.2601 -0.0550  1.5029
  541MPD2    N1 8090   2.972   0.945  13.531  0.5424 -0.2060  0.4022
  541MPD2    H7 8091   2.972   0.884  13.450  0.2163  0.2235  0.0749
  542TMC3    C1 8092   2.840   1.278  12.955  0.2169 -0.2634  0.1208
  542TMC3    C2 8093   2.857   1.226  12.829  0.0457 -0.1553 -0.3393
  542TMC3    C3 8094   2.808   1.301  12.718  0.4587 -1.2697 -0.2716
  542TMC3    C4 8095   2.773   1.400  12.969  0.2177 -0.1631  0.0540
  542TMC3    C5 8096   2.726   1.469  12.857  0.1478 -0.7910  0.1893
  542TMC3    C6 8097   2.733   1.416  12.731 -0.0277 -0.1635 -0.1477
  542TMC3     C 8098   2.885   1.199  13.070 -0.1147 -0.3029  0.0736
  542TMC3     O 8099   2.938   1.089  13.052  0.6342 -0.8126 -0.5653
  542TMC3     H 8100   2.891   1.126  12.806 -0.3464 -0.7044  1.4256
  542TMC3    H1 8101   2.774   1.450  13.065 -0.6841  0.4851 -0.2646
  542TMC3    H2 8102   2.700   1.469  12.643  0.1287 -2.6572 -1.6913
  542TMC3    C7 8103   2.663   1.595  12.890 -0.1332  0.1975  0.6357
  542TMC3    C8 8104   2.855   1.274  12.588 -0.0547  0.0756  0.1185
  542TMC3    O1 8105   2.655   1.617  13.009 -0.2706 -0.3902 -0.1050
  542TMC3    O2 8106   2.768   1.256  12.508 -0.1676 -0.2046  0.2537
  543TMC3    C1 8107   2.351   2.801  17.405 -0.5883  0.0644 -0.0565
  543TMC3    C2 8108   2.433   2.718  17.480  0.3217 -0.9088  0.1892
  543TMC3    C3 8109   2.404   2.686  17.609  0.3698 -0.0353  0.1810
  543TMC3    C4 8110   2.231   2.833  17.452  0.3311 -0.7531 -0.5389
  543TMC3    C5 8111   2.208   2.800  17.585  0.7782 -0.2400 -0.3564
  543TMC3    C6 8112   2.282   2.720  17.662 -0.1683 -0.0760 -0.1578
  543TMC3     C 8113   2.372   2.805  17.264 -0.5129 -0.1253  0.2601
  543TMC3     O 8114   2.461   2.731  17.222 -0.0575  0.7353  0.4328
  543TMC3     H 8115   2.518   2.673  17.431 -0.2457 -1.4412 -0.3025
  543TMC3    H1 8116   2.154   2.883  17.394 -0.4919  0.1828  1.3325
  543TMC3    H2 8117   2.252   2.701   0.022 -0.0451 -0.1733 -0.1397
  543TMC3    C7 8118   2.088   2.851  17.650  0.6597  0.1781 -0.3048
  543TMC3    C8 8119   2.462   2.565  17.661 -0.8525  0.1129 -0.0639
  543TMC3    O1 8120   2.048   2.793   0.009  0.0547  0.2268  0.0364
  543TMC3    O2 8121   2.531   2.506  17.576  0.8090  0.1518  0.0410
  544MPD2     C 8122   2.437   2.156   0.209 -0.5204 -0.4471 -0.0127
  544MPD2    C1 8123   2.451   2.171   0.075  0.1219 -0.4504 -0.1034
  544MPD2    C2 8124   2.451   2.291   0.023 -0.5107  0.6889  0.8224
  544MPD2    C3 8125   2.428   2.400   0.102  0.0123  0.0339 -0.0771
  544MPD2    C4 8126   2.404   2.388   0.240  0.2762  0.3151  0.3343
  544MPD2    C5 8127   2.418   2.262   0.289  0.1882  0.2624 -0.5109
  544MPD2     H 8128   2.478   2.313  17.662  0.2651  0.4221  0.9745
  544MPD2    H1 8129   2.372   2.472   0.301  0.3612 -0.0724  0.9126
  544MPD2    H2 8130   2.446   2.060   0.259  1.6789 -0.9641 -1.3819
  544MPD2    H3 8131   2.410   2.249   0.396  2.7059  1.5946 -0.1821
  544MPD2     N 8132   2.434   2.532   0.051 -0.2941 -0.0171 -0.2403
  544MPD2    H5 8133   2.393   2.604   0.109  1.2279  3.3316 -3.2712
  544MPD2    N1 8134   2.456   2.052  17.741  0.3702 -0.0274  0.0891
  544MPD2    H7 8135   2.457   1.966   0.053 -0.5797  0.7887  1.4091
  545TMC3    C1 8136   2.476   1.909  17.564  0.7061  0.3485  0.6251
  545TMC3    C2 8137   2.439   1.877  17.433  0.1943 -0.0521 -0.6465
  545TMC3    C3 8138   2.462   1.745  17.392  0.7024 -0.8471 -0.0156
  545TMC3    C4 8139   2.561   1.825  17.638  1.2457 -0.2068 -0.8089
  545TMC3    C5 8140   2.592   1.701  17.585 -0.1718  0.5508  0.0779
  545TMC3    C6 8141   2.539   1.663  17.464  0.3420  0.2637  0.7086
  545TMC3     C 8142   2.448   2.044  17.606 -1.0559  0.8145 -0.3250
  545TMC3     O 8143   2.436   2.134  17.525 -0.6051  0.1151 -0.7235
  545TMC3     H 8144   2.367   1.941  17.383  0.4031  1.1929  0.6492
  545TMC3    H1 8145   2.614   1.856  17.727 -0.3788 -0.4253  0.2481
  545TMC3    H2 8146   2.561   1.560  17.439  2.0646  0.8747 -0.2875
  545TMC3    C7 8147   2.671   1.619  17.672 -0.0609  0.4565  0.0712
  545TMC3    C8 8148   2.378   1.682  17.289 -0.5342  0.0185 -0.3473
  545TMC3    O1 8149   2.694   1.657   0.046 -0.7489  0.5195  0.6037
  545TMC3    O2 8150   2.390   1.563  17.283 -0.1739  0.1329  0.2837
  546MPD2     C 8151   3.558   2.468   0.005 -1.0136 -0.0797  0.0910
  546MPD2    C1 8152   3.495   2.525  17.640  0.6431 -0.5142  0.3818
  546MPD2    C2 8153   3.529   2.655  17.609  0.2623  0.0584 -0.1821
  546MPD2    C3 8154   3.616   2.733  17.686  0.0598  0.0260  0.4484
  546MPD2    C4 8155   3.669   2.678   0.055  0.7101  0.2130 -0.4725
  546MPD2    C5 8156   3.643   2.547   0.083  0.0741 -0.5022  0.2107
  546MPD2     H 8157   3.484   2.705  17.524  0.6167  0.2646 -0.2474
  546MPD2    H1 8158   3.734   2.731   0.124  0.9591 -0.0756 -0.4885
  546MPD2    H2 8159   3.548   2.364   0.035 -1.0203 -1.0265 -3.1286
  546MPD2    H3 8160   3.694   2.504   0.169  1.2945 -2.6317 -1.5746
  546MPD2     N 8161   3.658   2.866  17.653 -0.3725 -0.3874 -0.3139
  546MPD2    H5 8162   3.721   2.905  17.723 -0.3953 -0.5219 -0.2186
  546MPD2    N1 8163   3.420   2.433  17.555 -0.3500 -0.4791  0.1276
  546MPD2    H7 8164   3.402   2.338  17.586 -1.5474 -0.9371 -1.9481
  547TMC3    C1 8165   3.305   2.385  17.359  0.2786  0.2815  0.0956
  547TMC3    C2 8166   3.249   2.429  17.242  0.1143  0.7706 -0.0170
  547TMC3    C3 8167   3.208   2.339  17.144  0.2503  0.0312 -0.6513
  547TMC3    C4 8168   3.320   2.251  17.378  0.0929 -0.3105  0.0086
  547TMC3    C5 8169   3.288   2.165  17.276 -0.1443 -0.3568  0.1739
  547TMC3    C6 8170   3.228   2.201  17.158 -0.5374  0.3703 -0.4788
  547TMC3     C 8171   3.349   2.489  17.455 -0.1481 -0.2107  0.5702
  547TMC3     O 8172   3.327   2.604  17.412  0.2796  0.4658  0.4335
  547TMC3     H 8173   3.234   2.536  17.228  0.6147  1.1962  2.7216
  547TMC3    H1 8174   3.371   2.209  17.464 -1.2926 -1.1770  0.4084
  547TMC3    H2 8175   3.188   2.132  17.085 -0.4050 -0.6379  0.4020
  547TMC3    C7 8176   3.269   2.030  17.313 -0.2417  0.6549  0.7898
  547TMC3    C8 8177   3.126   2.380  17.043 -0.5859 -0.4863  0.1012
  547TMC3    O1 8178   3.259   2.004  17.434  0.5784  0.0256 -0.0959
  547TMC3    O2 8179   3.042   2.301  16.993  0.5815 -0.1281 -0.1937
  548MPD2     C 8180   2.863   3.097  12.666 -0.8542  0.1090 -0.0185
  548MPD2    C1 8181   2.833   2.981  12.736 -0.5886  0.6212 -0.3205
  548MPD2    C2 8182   2.931   2.888  12.753  0.2018  0.8215  0.0019
  548MPD2    C3 8183   3.055   2.900  12.701 -0.0948  0.3952 -0.3015
  548MPD2    C4 8184   3.078   3.006  12.617 -0.3453 -0.2118  0.5276
  548MPD2    C5 8185   2.983   3.099  12.600  0.2374  0.4570 -0.6486
  548MPD2     H 8186   2.925   2.801  12.818 -1.6531  1.3418  0.5053
  548MPD2    H1 8187   3.179   3.029  12.586 -0.2333 -0.9541  0.3401
  548MPD2    H2 8188   2.788   3.171  12.640 -0.7936  0.6274  1.2473
  548MPD2    H3 8189   3.006   3.185  12.538  1.1818 -0.8501 -2.1120
  548MPD2     N 8190   3.152   2.811  12.755  0.3152 -0.4384  0.4681
  548MPD2    H5 8191   3.126   2.740  12.822  0.7765 -0.5104  0.5752
  548MPD2    N1 8192   2.708   2.963  12.787 -0.0999 -0.6336 -0.0180
  548MPD2    H7 8193   2.641   3.040  12.780  0.5404 -0.0086  0.7150
  549TMC3    C1 8194   2.519   2.853  12.888  0.2901  0.8964 -0.0464
  549TMC3    C2 8195   2.467   2.969  12.931 -0.3801 -0.3354 -0.4532
  549TMC3    C3 8196   2.345   2.951  13.000  0.3109  0.3906 -0.6414
  549TMC3    C4 8197   2.464   2.726  12.901 -0.4858  0.0822  0.0265
  549TMC3    C5 8198   2.342   2.715  12.958 -0.0891 -0.0472  0.0340
  549TMC3    C6 8199   2.283   2.826  13.012 -0.3056  0.4675  0.7271
  549TMC3     C 8200   2.658   2.845  12.837  0.5917  0.5270 -0.3946
  549TMC3     O 8201   2.710   2.738  12.846 -0.2386 -0.7293  0.6345
  549TMC3     H 8202   2.515   3.066  12.926 -1.3849  0.0947 -1.8754
  549TMC3    H1 8203   2.507   2.639  12.853 -0.1897  0.1807  0.1120
  549TMC3    H2 8204   2.180   2.818  13.044 -0.9676  2.0756 -1.0074
  549TMC3    C7 8205   2.318   2.597  13.036  0.4460  0.0488  0.5092
  549TMC3    C8 8206   2.260   3.063  13.030  0.3000 -0.0860  0.3169
  549TMC3    O1 8207   2.227   2.596  13.116  0.1290 -0.5700 -0.3965
  549TMC3    O2 8208   2.142   3.039  13.045 -0.9729 -0.1572 -0.0351
  550TMC3    C1 8209   2.485   0.903  12.460 -0.2460 -0.5973  0.1192
  550TMC3    C2 8210   2.499   0.998  12.552 -0.1985 -0.0896 -0.5145
  550TMC3    C3 8211   2.384   1.050  12.608  0.0429  0.2451 -0.1100
  550TMC3    C4 8212   2.370   0.852  12.419  0.0905  0.8961 -0.0680
  550TMC3    C5 8213   2.253   0.899  12.483 -0.6170 -0.7780 -0.4831
  550TMC3    C6 8214   2.261   0.996  12.579 -0.8866  0.4423 -0.1551
  550TMC3     C 8215   2.598   0.866  12.375  0.3612  0.0153 -0.2119
  550TMC3     O 8216   2.578   0.820  12.264  0.0762 -0.3022 -0.5379
  550TMC3     H 8217   2.593   1.044  12.579 -0.9060 -0.7484  3.1407
  550TMC3    H1 8218   2.373   0.787  12.332 -2.3213  2.3446 -1.2461
  550TMC3    H2 8219   2.176   1.036  12.633 -1.1010 -0.8775  0.4839
  550TMC3    C7 8220   2.123   0.881  12.425 -0.6863  0.2151  0.2190
  550TMC3    C8 8221   2.403   1.149  12.714  0.1005  0.2197  0.1110
  550TMC3    O1 8222   2.034   0.951  12.470 -0.0022  0.0526 -0.1709
  550TMC3    O2 8223   2.517   1.147  12.762  0.5674 -0.1587  0.4335
  551TMC3    C1 8224   3.898   3.497  13.715 -0.3655 -0.7275  0.6724
  551TMC3    C2 8225   3.971   3.382  13.734  0.2377  0.5533 -0.0956
  551TMC3    C3 8226   4.071   3.388  13.824 -0.2737 -0.2475  0.8704
  551TMC3    C4 8227   3.923   3.618  13.784 -0.0995 -0.1768  0.3658
  551TMC3    C5 8228   3.997   3.601  13.892  0.1456  0.2285 -0.8444
  551TMC3    C6 8229   4.067   3.484  13.910 -0.4138 -0.4584 -0.0828
  551TMC3     C 8230   3.831   3.508  13.584  0.1214 -0.2815 -0.1627
  551TMC3     O 8231   3.796   3.402  13.532  0.6397 -1.2932  0.1812
  551TMC3     H 8232   3.954   3.301  13.664  0.9614  0.1494  0.2113
  551TMC3    H1 8233   3.876   3.714  13.769  0.2968 -0.1753 -0.8835
  551TMC3    H2 8234   4.132   3.466  13.994  0.9834 -0.3361 -1.1401
  551TMC3    C7 8235   4.048   3.704  13.968  0.6185 -0.2041 -0.1240
  551TMC3    C8 8236   4.203   3.359  13.771  0.3234 -0.6410  0.5692
  551TMC3    O1 8237   4.070   3.677  14.087  0.5211 -0.1487 -0.1537
  551TMC3    O2 8238   4.209   3.283  13.673 -0.5382  0.3391  0.1436
  552MPD2     C 8239   1.736   0.824  14.153 -0.5936  0.1960 -0.4737
  552MPD2    C1 8240   1.705   0.699  14.193  0.9058 -0.0450 -0.7007
  552MPD2    C2 8241   1.802   0.651  14.284  0.2992  0.3712 -0.2029
  552MPD2    C3 8242   1.911   0.723  14.327 -0.0715 -1.3322 -0.0144
  552MPD2    C4 8243   1.936   0.847  14.277  0.0518  0.1979 -0.1314
  552MPD2    C5 8244   1.847   0.900  14.195 -0.1184 -0.2019 -0.1450
  552MPD2     H 8245   1.785   0.555  14.331  1.1595  1.1590  1.7487
  552MPD2    H1 8246   2.023   0.907  14.301  0.1447  0.0350 -0.0606
  552MPD2    H2 8247   1.679   0.868  14.072 -0.3168 -1.4966 -1.5900
  552MPD2    H3 8248   1.865   0.997  14.150 -4.4230  0.5581 -0.2038
  552MPD2     N 8249   2.000   0.672  14.427 -0.0395 -0.1564  0.7622
  552MPD2    H5 8250   2.071   0.728  14.471  1.4848 -1.3851 -0.1068
  552MPD2    N1 8251   1.591   0.623  14.150 -0.7578 -0.4046  0.5368
  552MPD2    H7 8252   1.569   0.531  14.186 -0.9525  0.4278  2.5938
  553TMC3    C1 8253   1.387   0.575  14.042  0.1456  0.1245 -0.9445
  553TMC3    C2 8254   1.329   0.599  13.922 -0.5319 -0.2789 -0.0709
  553TMC3    C3 8255   1.306   0.490  13.848 -0.3964 -0.6190  0.1893
  553TMC3    C4 8256   1.405   0.448  14.087 -0.3983 -0.3575 -0.2105
  553TMC3    C5 8257   1.357   0.341  14.013  0.4159  0.6936 -0.4342
  553TMC3    C6 8258   1.309   0.355  13.885 -0.8514 -0.0678 -0.4994
  553TMC3     C 8259   1.487   0.680  14.076  0.0706 -0.2162  0.3027
  553TMC3     O 8260   1.473   0.793  14.041  0.0493 -0.1868 -0.0393
  553TMC3     H 8261   1.319   0.696  13.876  2.3620 -0.5751 -1.3158
  553TMC3    H1 8262   1.446   0.424  14.184 -1.3407  1.0729  0.5413
  553TMC3    H2 8263   1.297   0.274  13.815  1.6946  0.2683 -1.3280
  553TMC3    C7 8264   1.386   0.207  14.039 -0.0951 -0.6217  0.4317
  553TMC3    C8 8265   1.368   0.509  13.717 -0.7414 -0.1583  0.2233
  553TMC3    O1 8266   1.296   0.124  14.028 -0.3902  0.1714 -0.0687
  553TMC3    O2 8267   1.456   0.592  13.713 -0.2517 -0.5713  0.5883
  554TMC3    C1 8268   3.727   0.254  11.593 -0.0571 -0.6222  0.3981
  554TMC3    C2 8269   3.721   0.157  11.499  0.6516  0.3938  0.1885
  554TMC3    C3 8270   3.737   0.194  11.368  0.3516  0.0860  0.1227
  554TMC3    C4 8271   3.743   0.384  11.557  0.3426 -0.0111  0.4979
  554TMC3    C5 8272   3.735   0.423  11.429  0.1668  0.3253 -0.0386
  554TMC3    C6 8273   3.734   0.327  11.335 -0.6047  0.3248 -0.2674
  554TMC3     C 8274   3.765   0.219  11.729  0.2283 -0.0601  0.2156
  554TMC3     O 8275   3.794   0.310  11.801  0.1827 -0.2850  0.0974
  554TMC3     H 8276   3.728   0.052  11.524 -0.3351  0.7009  1.7616
  554TMC3    H1 8277   3.742   0.455  11.639  0.1662 -0.6625  1.0559
  554TMC3    H2 8278   3.746   0.355  11.231  2.4451 -0.5201 -0.1663
  554TMC3    C7 8279   3.722   0.554  11.375 -0.7248 -0.4041  0.4660
  554TMC3    C8 8280   3.670   0.119  11.271  0.5937  0.6709  1.2590
  554TMC3    O1 8281   3.747   0.584  11.260  0.0437  0.0535 -0.1492
  554TMC3    O2 8282   3.703   0.136  11.156  0.3228  0.5129 -0.5675
  555TMC3    C1 8283   2.444   4.029  15.189  0.0840 -1.1128  0.2501
  555TMC3    C2 8284   2.380   4.091  15.289  0.2825  0.0962 -0.4510
  555TMC3    C3 8285   2.371   4.029  15.410  0.3959 -0.1247  0.2163
  555TMC3    C4 8286   2.508   3.902  15.204 -0.6740  0.2700 -0.8714
  555TMC3    C5 8287   2.493   3.844  15.327  1.0022 -0.0783  1.6714
  555TMC3    C6 8288   2.432   3.905  15.431 -0.1966 -0.0303 -1.4130
  555TMC3     C 8289   2.475   4.101  15.063  0.2719  0.2076  0.2589
  555TMC3     O 8290   2.579   4.079  14.998 -0.4367  0.2641 -0.3220
  555TMC3     H 8291   2.334   4.187  15.267  1.2144  0.8994  1.1370
  555TMC3    H1 8292   2.540   3.848  15.116  1.0069  0.4824 -0.3837
  555TMC3    H2 8293   2.398   3.849  15.517  0.5525  0.7222 -0.6164
  555TMC3    C7 8294   2.489   3.704  15.320 -0.2349  0.1033 -0.5149
  555TMC3    C8 8295   2.330   4.121  15.515 -0.0532 -0.1488  0.6521
  555TMC3    O1 8296   2.398   3.651  15.380  0.4900  0.0925 -0.3422
  555TMC3    O2 8297   2.289   4.233  15.477 -0.2880  0.2870 -0.0772
  556MPD2     C 8298   0.711   1.855  10.886  0.1682  0.9685 -1.0629
  556MPD2    C1 8299   0.660   1.730  10.914  0.3612  0.1144 -0.0081
  556MPD2    C2 8300   0.620   1.648  10.809 -0.1797 -0.1818  0.2117
  556MPD2    C3 8301   0.631   1.682  10.675  0.8945 -0.9684 -0.1558
  556MPD2    C4 8302   0.686   1.803  10.642  0.1617 -0.5479  0.1750
  556MPD2    C5 8303   0.725   1.884  10.752 -0.1910  0.0630 -0.2263
  556MPD2     H 8304   0.578   1.552  10.835  2.0172 -0.9017  1.0708
  556MPD2    H1 8305   0.701   1.833  10.539 -1.2318 -3.1590 -0.7800
  556MPD2    H2 8306   0.751   1.920  10.963  0.6688  0.3277 -0.7879
  556MPD2    H3 8307   0.772   1.979  10.730  2.3030 -1.5632 -1.8426
  556MPD2     N 8308   0.588   1.583  10.584  0.3966  0.5546 -0.1934
  556MPD2    H5 8309   0.554   1.497  10.626  0.1155  1.7803  2.1016
  556MPD2    N1 8310   0.634   1.679  11.041  0.2361 -0.8104  0.0755
  556MPD2    H7 8311   0.561   1.610  11.048 -1.7349  1.2494 -0.1832
  557TMC3    C1 8312   0.535   1.473  10.393 -0.1673 -0.3176  0.6655
  557TMC3    C2 8313   0.450   1.485  10.287  0.5569  0.7909  0.6595
  557TMC3    C3 8314   0.364   1.385  10.254  0.5555 -0.4404  0.0875
  557TMC3    C4 8315   0.539   1.355  10.462 -0.0499  0.8919 -0.1681
  557TMC3    C5 8316   0.455   1.258  10.429 -1.1973 -0.3028  0.2806
  557TMC3    C6 8317   0.370   1.267  10.324  0.0271 -0.1578 -0.0997
  557TMC3     C 8318   0.589   1.594  10.449  1.1483  0.7298 -0.4678
  557TMC3     O 8319   0.624   1.691  10.381 -0.3132  0.3014 -0.1258
  557TMC3     H 8320   0.456   1.576  10.229 -4.1095  0.9868  0.5449
  557TMC3    H1 8321   0.595   1.344  10.554 -0.6208 -0.3961  0.0372
  557TMC3    H2 8322   0.289   1.195  10.326 -0.1594 -0.0417 -3.3042
  557TMC3    C7 8323   0.425   1.160  10.533  0.1780 -0.0224  0.3161
  557TMC3    C8 8324   0.243   1.424  10.188  0.1175  0.1711 -1.0698
  557TMC3    O1 8325   0.315   1.106  10.536 -0.2282 -0.0599 -0.0832
  557TMC3    O2 8326   0.208   1.542  10.205  0.0736 -0.1301 -0.9813
  558TMC3    C1 8327   3.081   3.468  10.495 -0.0436 -0.1426  0.4141
  558TMC3    C2 8328   2.954   3.522  10.516 -0.2489 -0.2943  0.4991
  558TMC3    C3 8329   2.867   3.536  10.406  0.2971  0.2853  0.0564
  558TMC3    C4 8330   3.119   3.425  10.372 -0.5762  0.2043  0.5531
  558TMC3    C5 8331   3.027   3.431  10.266 -0.1119  0.5763  0.1773
  558TMC3    C6 8332   2.904   3.485  10.285 -0.0178  0.5389 -0.0951
  558TMC3     C 8333   3.167   3.449  10.611 -0.5887 -0.5946 -0.6882
  558TMC3     O 8334   3.286   3.434  10.593  0.8402  0.6545 -0.2163
  558TMC3     H 8335   2.925   3.539  10.619 -0.6277 -1.2838  0.5571
  558TMC3    H1 8336   3.211   3.368  10.367 -0.5941  0.2173  0.0693
  558TMC3    H2 8337   2.833   3.501  10.204 -1.4643 -3.3215  0.3891
  558TMC3    C7 8338   3.083   3.438  10.138  0.8709  0.2777  0.1090
  558TMC3    C8 8339   2.746   3.612  10.424  0.3738  0.3444 -0.3980
  558TMC3    O1 8340   3.205   3.449  10.135 -0.1007  0.1515 -0.3322
  558TMC3    O2 8341   2.656   3.608  10.339 -0.6189  0.3446 -0.4806
  559MPD2     C 8342   3.200   4.531  10.430 -0.7264  0.3377 -0.2736
  559MPD2    C1 8343   3.131   4.452  10.518 -0.6929 -0.1035  0.7540
  559MPD2    C2 8344   3.184   4.425  10.635  0.3531 -0.0362  0.2790
  559MPD2    C3 8345   3.298   4.489  10.682 -0.1101  0.1366 -0.2380
  559MPD2    C4 8346   3.364   4.579  10.599  0.1442  0.5909 -0.7459
  559MPD2    C5 8347   3.318   4.600  10.475  0.3849  0.4694  0.0127
  559MPD2     H 8348   3.145   4.348  10.700  0.6187 -0.4412 -0.0492
  559MPD2    H1 8349   3.459   4.626  10.623  0.8651 -0.5634 -1.3498
  559MPD2    H2 8350   3.169   4.546  10.327 -0.5703  0.3384 -0.3203
  559MPD2    H3 8351   3.376   4.661  10.405 -1.3347 -0.3840 -2.1561
  559MPD2     N 8352   3.331   4.460  10.816  0.0375  0.1231  0.6944
  559MPD2    H5 8353   3.279   4.387  10.864  2.0778 -2.6991 -1.3993
  559MPD2    N1 8354   3.004   4.406  10.480 -0.3323 -0.4343  0.1565
  559MPD2    H7 8355   2.970   4.413  10.385 -0.5019  2.2393  0.4053
  560TMC3    C1 8356   3.495   4.418  10.989 -0.1057 -0.7992 -0.2521
  560TMC3    C2 8357   3.433   4.299  11.011 -0.4693  0.3764 -0.0257
  560TMC3    C3 8358   3.454   4.236  11.130  0.0018 -0.0545  0.4615
  560TMC3    C4 8359   3.570   4.488  11.079 -0.3086 -0.7056  0.4632
  560TMC3    C5 8360   3.595   4.411  11.193 -0.1072 -1.1896 -0.0857
  560TMC3    C6 8361   3.537   4.290  11.223 -0.9214  0.3581 -0.2048
  560TMC3     C 8362   3.449   4.500  10.878 -0.3729 -0.4088 -0.2323
  560TMC3     O 8363   3.534   4.583  10.843 -0.2894 -0.6986 -0.1190
  560TMC3     H 8364   3.385   4.247  10.929  1.9757 -1.1251 -0.5094
  560TMC3    H1 8365   3.613   4.586  11.059  1.1601 -1.4922 -0.2999
  560TMC3    H2 8366   3.547   4.245  11.321  1.5603  0.2898 -0.4868
  560TMC3    C7 8367   3.688   4.458  11.297  0.4433  0.0363  0.1425
  560TMC3    C8 8368   3.362   4.133  11.174 -0.3583 -0.1645  0.3640
  560TMC3    O1 8369   3.675   4.427  11.412 -0.9877 -0.1177 -0.4981
  560TMC3    O2 8370   3.261   4.116  11.108  0.0615  0.4280  0.0826
  561TMC3    C1 8371   1.019   3.564  11.128  0.4285 -0.6016 -0.0632
  561TMC3    C2 8372   0.917   3.478  11.172 -0.0234 -0.5816  0.4680
  561TMC3    C3 8373   0.792   3.519  11.201 -0.3239 -0.0211  0.1553
  561TMC3    C4 8374   0.983   3.693  11.111  0.0230 -0.3610 -0.8511
  561TMC3    C5 8375   0.865   3.745  11.151 -0.5350 -0.4211  0.0008
  561TMC3    C6 8376   0.768   3.660  11.183  0.2654  0.0706  0.0240
  561TMC3     C 8377   1.159   3.522  11.103 -0.9012 -0.1617  0.9416
  561TMC3     O 8378   1.234   3.606  11.053  0.2790  0.4785 -0.4394
  561TMC3     H 8379   0.935   3.373  11.194  0.1391  0.0060  3.2048
  561TMC3    H1 8380   1.048   3.759  11.054 -3.3369  0.7047 -3.4344
  561TMC3    H2 8381   0.667   3.699  11.181  0.7961  1.2618 -3.6692
  561TMC3    C7 8382   0.849   3.886  11.176 -0.3446  0.8185  0.5138
  561TMC3    C8 8383   0.683   3.419  11.220 -0.1355 -0.2663 -0.9763
  561TMC3    O1 8384   0.738   3.920  11.215 -0.3433 -0.1960 -0.8043
  561TMC3    O2 8385   0.701   3.308  11.179 -0.1610 -0.6322  0.0471
  562TMC3    C1 8386   2.076   3.771  16.235 -0.0703 -0.2001  1.0158
  562TMC3    C2 8387   2.086   3.904  16.269 -0.0778 -0.1719 -0.2229
  562TMC3    C3 8388   2.109   4.000  16.167  0.0183 -0.6328  0.6371
  562TMC3    C4 8389   2.105   3.730  16.108  0.1305  0.4729  0.0824
  562TMC3    C5 8390   2.125   3.820  16.009 -0.4040 -0.1739  0.3635
  562TMC3    C6 8391   2.125   3.955  16.035  0.5139 -0.1558  0.3586
  562TMC3     C 8392   2.075   3.673  16.348 -0.3208 -0.1185  0.4477
  562TMC3     O 8393   2.120   3.721  16.451  0.2806 -0.0530  0.0833
  562TMC3     H 8394   2.045   3.938  16.363  0.0292  0.5614 -0.4423
  562TMC3    H1 8395   2.113   3.623  16.089 -0.1901  0.5494 -0.4777
  562TMC3    H2 8396   2.157   4.014  15.950 -0.1642 -0.8608 -0.3876
  562TMC3    C7 8397   2.197   3.774  15.897 -0.1536 -0.7508  0.5608
  562TMC3    C8 8398   2.034   4.114  16.189  0.2787 -0.6695 -0.0957
  562TMC3    O1 8399   2.169   3.823  15.790  0.4572  0.2917 -0.3208
  562TMC3    O2 8400   1.961   4.126  16.288 -0.1995  0.4566  0.0343
  563MPD2     C 8401   0.098   1.138  15.506 -0.1170  0.0558  0.6844
  563MPD2    C1 8402   0.044   1.068  15.615 -0.6364 -0.4895  0.2767
  563MPD2    C2 8403   0.131   1.012  15.706 -0.5042  1.0029 -0.3555
  563MPD2    C3 8404   0.268   1.036  15.699  0.4276 -0.5940 -0.1315
  563MPD2    C4 8405   0.319   1.111  15.595 -0.7719  0.0377  0.0429
  563MPD2    C5 8406   0.234   1.166  15.500 -0.2070 -0.1164  0.1218
  563MPD2     H 8407   0.085   0.958  15.788  2.0037 -2.7371 -1.4062
  563MPD2    H1 8408   0.421   1.131  15.565 -0.5680  0.4560  1.0260
  563MPD2    H2 8409   0.040   1.156  15.416  0.1074  2.8462  1.0831
  563MPD2    H3 8410   0.269   1.227  15.418  1.7527 -1.9675 -0.4403
  563MPD2     N 8411   0.341   0.965  15.797  0.1658 -0.4153 -0.0390
  563MPD2    H5 8412   0.277   0.931  15.868 -0.4486 -0.7182 -0.7355
  563MPD2    N1 8413   4.642   1.042  15.630  0.2190  0.0115 -0.5194
  563MPD2    H7 8414   4.620   0.979  15.706 -0.0262 -0.4471 -0.9697
  564TMC3    C1 8415   4.411   1.076  15.637  0.0402 -0.0152  0.9552
  564TMC3    C2 8416   4.329   0.987  15.572  0.5914 -0.3598 -1.0218
  564TMC3    C3 8417   4.279   0.874  15.638 -0.2505 -0.0636  0.4077
  564TMC3    C4 8418   4.443   1.035  15.772  0.1535 -0.1892 -0.1134
  564TMC3    C5 8419   4.398   0.925  15.828  0.9376  0.6862 -0.4956
  564TMC3    C6 8420   4.323   0.837  15.762 -0.5547 -0.7334 -0.2468
  564TMC3     C 8421   4.536   1.111  15.573 -0.1588 -0.0772  0.6421
  564TMC3     O 8422   4.542   1.189  15.477  0.1506 -0.0878 -0.7452
  564TMC3     H 8423   4.306   1.012  15.469 -0.1674  0.6810 -0.6037
  564TMC3    H1 8424   4.514   1.094  15.830 -1.2361  0.8127  0.5720
  564TMC3    H2 8425   4.305   0.737  15.798 -0.1931 -0.9265 -0.6098
  564TMC3    C7 8426   4.505   0.842  15.880 -0.0999  0.2691 -0.2780
  564TMC3    C8 8427   4.266   0.756  15.562  0.5193 -0.3091  0.2088
  564TMC3    O1 8428   4.572   0.889  15.969 -0.3808 -0.0405  0.4354
  564TMC3    O2 8429   4.364   0.681  15.561  0.2174  0.4477 -0.1298
  565TMC3    C1 8430   4.542   2.234  10.185 -0.9053  0.0293  0.3011
  565TMC3    C2 8431   4.602   2.186  10.301 -0.0129  0.2923 -0.8138
  565TMC3    C3 8432   4.533   2.093  10.380  0.2941  0.1137  0.6070
  565TMC3    C4 8433   4.417   2.197  10.149 -0.3124  0.3845 -0.5181
  565TMC3    C5 8434   4.359   2.099  10.229  0.0669 -0.4342 -0.0260
  565TMC3    C6 8435   4.410   2.050  10.343  0.0298 -0.1582 -0.1399
  565TMC3     C 8436   4.592   2.357  10.121  0.2275  0.0269 -0.1364
  565TMC3     O 8437   4.509   2.430  10.069  0.4390 -0.2625  0.1608
  565TMC3     H 8438   4.701   2.219  10.332 -0.0077  0.1902 -0.7210
  565TMC3    H1 8439   4.368   2.240  10.062 -0.7266  1.6882  0.3769
  565TMC3    H2 8440   4.341   1.993  10.405 -0.6656 -1.9872 -2.6040
  565TMC3    C7 8441   4.226   2.068  10.192 -0.2877 -0.7122  0.2881
  565TMC3    C8 8442   4.599   2.024  10.481  0.3871  0.0360  0.2006
  565TMC3    O1 8443   4.157   2.159  10.147  0.0179  1.2610 -0.0653
  565TMC3    O2 8444   4.527   1.970  10.564 -0.0384 -0.1639  0.2689
  566MPD2     C 8445   1.906   3.709  14.715 -0.2705 -0.0817 -0.0687
  566MPD2    C1 8446   1.852   3.784  14.614 -1.1373 -0.0353  0.0019
  566MPD2    C2 8447   1.738   3.746  14.552 -0.5651  0.4682  0.0294
  566MPD2    C3 8448   1.666   3.625  14.581  0.5445  0.1755  0.4873
  566MPD2    C4 8449   1.723   3.553  14.686 -0.3440 -0.1885  0.2635
  566MPD2    C5 8450   1.833   3.600  14.751  0.0320  1.0400 -0.4202
  566MPD2     H 8451   1.710   3.818  14.475 -1.3366  0.1407 -0.0013
  566MPD2    H1 8452   1.672   3.464  14.723 -2.3027  0.1848 -1.4988
  566MPD2    H2 8453   1.992   3.743  14.772 -0.8113  1.3857 -0.1100
  566MPD2    H3 8454   1.874   3.544  14.834  0.2098  1.8940  0.0665
  566MPD2     N 8455   1.552   3.577  14.510  0.1044 -0.1768  0.4523
  566MPD2    H5 8456   1.520   3.486  14.541 -0.0581 -1.2764 -2.9982
  566MPD2    N1 8457   1.924   3.901  14.590 -0.1613  0.2178 -0.4619
  566MPD2    H7 8458   1.988   3.922  14.666 -0.6580  0.6769 -0.1684
  567TMC3    C1 8459   2.010   4.087  14.455 -0.0115  0.6792 -0.4647
  567TMC3    C2 8460   1.999   4.153  14.340  0.5140  0.0725  0.4833
  567TMC3    C3 8461   2.112   4.187  14.271  0.3871 -0.4445 -0.8383
  567TMC3    C4 8462   2.128   4.081  14.520  0.0537 -0.7760 -0.2692
  567TMC3    C5 8463   2.244   4.116  14.451 -0.1883 -0.9290 -0.1071
  567TMC3    C6 8464   2.239   4.173  14.323 -0.5685 -0.5959 -0.0494
  567TMC3     C 8465   1.916   3.970  14.474  0.1772 -0.9965 -0.4416
  567TMC3     O 8466   1.873   3.939  14.367  0.1795  0.3095  0.0807
  567TMC3     H 8467   1.901   4.167  14.295  1.0389  0.9974 -0.3664
  567TMC3    H1 8468   2.137   4.023  14.611 -1.6096 -1.1512 -0.3419
  567TMC3    H2 8469   2.330   4.196  14.270 -0.6147  3.3472  1.5780
  567TMC3    C7 8470   2.375   4.064  14.488 -0.0045  0.1788 -0.1993
  567TMC3    C8 8471   2.088   4.249  14.142  0.4707  0.4996  0.2397
  567TMC3    O1 8472   2.460   4.052  14.405  0.3250 -0.2668 -0.0142
  567TMC3    O2 8473   1.976   4.221  14.096  0.6900 -0.7078  0.3257
  568MPD2     C 8474   4.297   3.978  16.073 -1.1549 -0.8279 -0.3198
  568MPD2    C1 8475   4.299   4.068  16.176  0.4593  0.1137  0.7017
  568MPD2    C2 8476   4.256   4.196  16.149 -0.4160 -0.3250  0.3548
  568MPD2    C3 8477   4.208   4.235  16.021  0.5215  0.3109  0.1769
  568MPD2    C4 8478   4.204   4.142  15.921  0.3855  0.9881  0.8186
  568MPD2    C5 8479   4.242   4.017  15.948 -0.4015 -0.7506 -0.5951
  568MPD2     H 8480   4.253   4.271  16.227  0.0682 -0.0240  0.0829
  568MPD2    H1 8481   4.163   4.167  15.824  2.0889 -1.2592 -0.4604
  568MPD2    H2 8482   4.314   3.871  16.076  1.6077 -0.3878 -1.0750
  568MPD2    H3 8483   4.235   3.933  15.880  0.0685 -0.9415 -0.4032
  568MPD2     N 8484   4.180   4.372  15.998  0.0003 -0.2526 -0.0899
  568MPD2    H5 8485   4.194   4.438  16.074  1.9523 -1.5439  0.6810
  568MPD2    N1 8486   4.341   4.021  16.305 -0.4440 -0.0487 -0.3859
  568MPD2    H7 8487   4.363   3.922  16.303 -0.3953 -0.0732  1.4720
  569TMC3    C1 8488   4.120   4.573  15.894  0.6687 -0.8176 -0.9024
  569TMC3    C2 8489   4.138   4.631  16.013 -0.3352  0.0860  0.6026
  569TMC3    C3 8490   4.165   0.035  16.013  0.3994  0.1704  0.0904
  569TMC3    C4 8491   4.133   4.645  15.781 -0.1970  0.2644 -0.3012
  569TMC3    C5 8492   4.163   0.045  15.785  0.4611 -0.6343 -0.8328
  569TMC3    C6 8493   4.181   0.113  15.906  0.4627 -0.6326 -0.0711
  569TMC3     C 8494   4.136   4.429  15.879 -0.7687 -0.2967 -0.1576
  569TMC3     O 8495   4.131   4.375  15.770 -0.5013  0.0151  0.0989
  569TMC3     H 8496   4.123   4.575  16.104  3.4374 -1.5843  0.2375
  569TMC3    H1 8497   4.122   4.604  15.682 -0.3427  1.2928 -0.7061
  569TMC3    H2 8498   4.177   0.220  15.919  0.6221 -0.8986  2.1756
  569TMC3    C7 8499   4.105   0.124  15.676  0.7246  0.8405  0.1623
  569TMC3    C8 8500   4.174   0.093  16.145  0.8506 -0.1638  0.3513
  569TMC3    O1 8501   3.998   0.076  15.635  0.7049 -0.3454  0.3372
  569TMC3    O2 8502   4.105   0.047  16.235  0.0140 -0.4098  0.1529
  570TMC3    C1 8503   3.450   3.498  16.167 -0.1467  0.6567 -0.2617
  570TMC3    C2 8504   3.562   3.454  16.105  0.3864 -0.6020  0.0377
  570TMC3    C3 8505   3.636   3.551  16.041 -0.4449 -0.5650 -0.4083
  570TMC3    C4 8506   3.399   3.624  16.183 -0.6644  0.6444 -0.2118
  570TMC3    C5 8507   3.480   3.717  16.121  0.0024  0.1398 -0.4036
  570TMC3    C6 8508   3.594   3.682  16.055 -0.2280 -0.0011 -0.6436
  570TMC3     C 8509   3.389   3.392  16.255 -0.6652 -0.3481 -0.2698
  570TMC3     O 8510   3.403   3.276  16.216 -0.0911 -0.1371  0.4193
  570TMC3     H 8511   3.594   3.354  16.132 -0.4521 -1.0273 -0.5282
  570TMC3    H1 8512   3.305   3.650  16.230 -0.1756  1.6403  0.2132
  570TMC3    H2 8513   3.651   3.761  16.007  0.7070  1.5441  2.9610
  570TMC3    C7 8514   3.430   3.851  16.131  0.6391  0.1447 -0.2851
  570TMC3    C8 8515   3.770   3.522  15.990 -0.1940  0.4611 -0.4324
  570TMC3    O1 8516   3.368   3.876  16.232  0.0146  0.1969 -0.1585
  570TMC3    O2 8517   3.853   3.606  15.956  1.4000  0.5222  0.1482
  571MPD2     C 8518   2.621   0.558   0.244 -0.9610  0.0971 -0.3678
  571MPD2    C1 8519   2.502   0.489   0.256 -0.3542 -0.9824  0.0318
  571MPD2    C2 8520   2.411   0.531   0.348 -0.9426  0.4324  0.5119
  571MPD2    C3 8521   2.446   0.639   0.431  0.6987 -0.2368 -0.2545
  571MPD2    C4 8522   2.563   0.710   0.411 -0.0926  0.6045  0.0873
  571MPD2    C5 8523   2.652   0.674   0.316  0.1982  1.4477  0.2403
  571MPD2     H 8524   2.314   0.485   0.361 -1.4632  1.5560  0.6334
  571MPD2    H1 8525   2.587   0.800   0.466  1.5733  1.0796 -1.4033
  571MPD2    H2 8526   2.688   0.523   0.166 -0.7451 -0.2619 -0.0200
  571MPD2    H3 8527   2.750   0.720   0.312  0.6076  0.4706 -1.3128
  571MPD2     N 8528   2.356   0.697   0.517 -0.4456 -0.0600 -0.1787
  571MPD2    H5 8529   2.377   0.789   0.555 -1.8564  0.7875 -1.4124
  571MPD2    N1 8530   2.491   0.371   0.177 -0.4399 -0.3336 -0.1600
  571MPD2    H7 8531   2.562   0.354   0.107 -0.2201  3.0471 -0.7367
  572TMC3    C1 8532   2.148   0.764   0.602  0.9778  0.7858  0.2694
  572TMC3    C2 8533   2.028   0.731   0.662  0.5794 -0.5393  0.6194
  572TMC3    C3 8534   1.938   0.837   0.677 -0.7319 -0.4628  0.3829
  572TMC3    C4 8535   2.173   0.891   0.564  0.3225  0.3705  0.2752
  572TMC3    C5 8536   2.075   0.987   0.568 -1.2641 -0.2802 -0.0042
  572TMC3    C6 8537   1.960   0.969   0.635 -0.0530 -0.3134 -0.1091
  572TMC3     C 8538   2.228   0.657   0.551  0.4194  0.5253  0.0130
  572TMC3     O 8539   2.179   0.543   0.547  0.0324  0.5340  0.8547
  572TMC3     H 8540   2.007   0.629   0.691  2.3260 -1.2583 -0.5905
  572TMC3    H1 8541   2.248   0.900   0.486  1.4077  1.8823  1.4906
  572TMC3    H2 8542   1.882   1.043   0.646  0.0650  0.0271 -1.5984
  572TMC3    C7 8543   2.085   1.117   0.504 -0.5543  0.0614 -0.0160
  572TMC3    C8 8544   1.819   0.798   0.754  0.4589  0.3489 -0.4027
  572TMC3    O1 8545   1.983   1.176   0.466  0.1683  0.0707 -0.0982
  572TMC3    O2 8546   1.806   0.677   0.778 -0.3967  0.1726 -0.1212
  573MPD2     C 8547   2.994   0.644   0.365  0.3097  0.1550  0.1669
  573MPD2    C1 8548   3.080   0.756   0.387 -0.1520 -0.1735 -0.4868
  573MPD2    C2 8549   3.146   0.809   0.279  0.6940 -0.0695 -0.3043
  573MPD2    C3 8550   3.137   0.757   0.151  0.0098  0.2635 -0.9476
  573MPD2    C4 8551   3.054   0.643   0.130 -0.7141 -0.0147  0.5199
  573MPD2    C5 8552   2.991   0.591   0.243 -0.1515  0.3222  0.7416
  573MPD2     H 8553   3.198   0.903   0.292 -3.0658  1.4883  3.5854
  573MPD2    H1 8554   3.028   0.591   0.039  1.3615 -1.9187  0.9982
  573MPD2    H2 8555   2.940   0.598   0.447 -3.6664  1.7091 -1.5665
  573MPD2    H3 8556   2.937   0.498   0.227  1.9228 -0.9998  1.5243
  573MPD2     N 8557   3.208   0.818   0.045  0.2841  0.8574 -0.4000
  573MPD2    H5 8558   3.267   0.899   0.060  0.5241 -0.1288  3.9337
  573MPD2    N1 8559   3.093   0.805   0.521 -0.2201  0.8851 -0.1483
  573MPD2    H7 8560   3.029   0.770   0.591 -1.5078  0.0101 -1.7642
  574TMC3    C1 8561   3.274   0.877  17.569 -0.2258 -1.1489 -0.5285
  574TMC3    C2 8562   3.185   0.949  17.498 -0.1238 -0.4612  0.1445
  574TMC3    C3 8563   3.222   1.078  17.461 -0.7312  0.1469  0.2501
  574TMC3    C4 8564   3.393   0.929  17.611  0.3042 -0.3959  1.0960
  574TMC3    C5 8565   3.430   1.061  17.566  0.1565 -0.5222  0.0154
  574TMC3    C6 8566   3.339   1.133  17.494 -0.1065 -0.3621 -0.1843
  574TMC3     C 8567   3.202   0.785  17.652  0.0062 -0.3919 -0.4816
  574TMC3     O 8568   3.130   0.700  17.599 -0.3645  0.1006  0.0030
  574TMC3     H 8569   3.083   0.914  17.483 -0.8712  2.3629 -1.2817
  574TMC3    H1 8570   3.462   0.883  17.680  0.5497 -0.1897  0.9858
  574TMC3    H2 8571   3.352   1.239  17.477  0.9086 -0.6598 -1.2893
  574TMC3    C7 8572   3.555   1.125  17.602  0.3593  0.2758 -0.2756
  574TMC3    C8 8573   3.117   1.165  17.484  0.1938  0.8090  0.7159
  574TMC3    O1 8574   3.614   1.070  17.693  0.3106  1.0452  0.3084
  574TMC3    O2 8575   3.109   1.263  17.410  0.0017  0.0143 -0.5057
  575TMC3    C1 8576   0.114   1.788  11.261 -0.6140  0.0105  0.3398
  575TMC3    C2 8577   0.005   1.745  11.334 -0.1427 -0.7580  0.2291
  575TMC3    C3 8578   4.638   1.679  11.271  0.1293 -0.3069  0.0377
  575TMC3    C4 8579   0.124   1.770  11.126  0.2520 -0.1413  0.1149
  575TMC3    C5 8580   0.019   1.702  11.072  0.1972  0.8961 -0.5222
  575TMC3    C6 8581   4.646   1.655  11.134  0.8677  0.4561 -0.6746
  575TMC3     C 8582   0.215   1.838  11.352 -0.0371  0.0743  0.1227
  575TMC3     O 8583   0.198   1.816  11.474 -0.4197  0.9993 -0.8725
  575TMC3     H 8584   4.726   1.774  11.438  0.3173 -1.2521  0.4335
  575TMC3    H1 8585   0.213   1.799  11.071  0.3734 -2.8191 -1.0797
  575TMC3    H2 8586   4.582   1.595  11.071  1.4718 -2.0252  1.0886
  575TMC3    C7 8587   4.728   1.737  10.934  0.0583  0.3429 -0.1971
  575TMC3    C8 8588   4.506   1.730  11.305 -0.1612  1.0923  0.4714
  575TMC3    O1 8589   4.617   1.764  10.892 -0.4091 -0.3333  0.3504
  575TMC3    O2 8590   4.468   1.745  11.421  0.1060 -0.0546  0.0440
  576MPD2     C 8591   0.179   3.442  12.568 -1.1475  0.1021  0.4871
  576MPD2    C1 8592   0.134   3.555  12.507 -0.7288 -0.3036 -0.1219
  576MPD2    C2 8593   0.092   3.660  12.585 -0.0389 -0.2213  0.3228
  576MPD2    C3 8594   0.100   3.653  12.717  0.8708 -0.1634 -0.3540
  576MPD2    C4 8595   0.142   3.531  12.780 -0.0065 -0.1699 -0.2881
  576MPD2    C5 8596   0.179   3.426  12.700 -0.0704  0.4480 -0.4478
  576MPD2     H 8597   0.077   3.761  12.549 -0.6258 -0.3570  0.1843
  576MPD2    H1 8598   0.123   3.522  12.887  0.3016 -0.3197 -0.2462
  576MPD2    H2 8599   0.207   3.350  12.517 -4.0889 -0.0602 -0.8740
  576MPD2    H3 8600   0.199   3.328  12.742 -3.1232  0.4100  0.9116
  576MPD2     N 8601   0.054   3.764  12.784  0.1701 -0.5690  0.2293
  576MPD2    H5 8602   0.017   3.838  12.727 -0.8958 -0.9744  0.3939
  576MPD2    N1 8603   0.143   3.569  12.366  0.0592  0.0651  0.1458
  576MPD2    H7 8604   0.107   3.658  12.332  0.0011 -0.8279 -2.0972
  577TMC3    C1 8605   0.172   3.526  12.141 -0.6495  0.8816  0.2337
  577TMC3    C2 8606   0.206   3.433  12.045  0.4139  0.0150  0.2386
  577TMC3    C3 8607   0.245   3.478  11.928  0.0423 -0.7316 -0.3402
  577TMC3    C4 8608   0.178   3.663  12.124 -0.3341  0.5229 -0.1665
  577TMC3    C5 8609   0.213   3.704  11.999  0.2774 -0.3707  0.0568
  577TMC3    C6 8610   0.238   3.615  11.897 -0.0838  0.2797 -0.1140
  577TMC3     C 8611   0.170   3.470  12.274 -0.0907  0.1888  0.3361
  577TMC3     O 8612   0.194   3.354  12.286  0.1324 -0.0372  0.3194
  577TMC3     H 8613   0.211   3.327  12.068  0.3072  0.0148  0.2614
  577TMC3    H1 8614   0.126   3.733  12.189  1.8243  2.2588 -0.2983
  577TMC3    H2 8615   0.247   3.644  11.793 -1.8278  0.2650 -0.2826
  577TMC3    C7 8616   0.214   3.842  11.949  0.8591  0.0420 -0.5425
  577TMC3    C8 8617   0.271   3.380  11.819 -0.1638  0.1200 -0.0016
  577TMC3    O1 8618   0.242   3.865  11.830  0.2614 -0.1377  0.1782
  577TMC3    O2 8619   0.217   3.267  11.826 -0.0567 -0.2983 -0.1718
  578MPD2     C 8620   3.029   3.588   1.267  0.1202 -0.3181  0.4158
  578MPD2    C1 8621   3.104   3.658   1.179  0.2629  0.5611  0.3919
  578MPD2    C2 8622   3.227   3.609   1.146 -0.3735 -0.3399 -0.6233
  578MPD2    C3 8623   3.273   3.501   1.212  0.7143 -0.3431  0.2680
  578MPD2    C4 8624   3.203   3.434   1.305 -0.0341 -0.0557  0.9572
  578MPD2    C5 8625   3.079   3.477   1.334  0.5054  0.1448  0.4599
  578MPD2     H 8626   3.294   3.661   1.078 -1.2997  0.6640 -0.7571
  578MPD2    H1 8627   3.232   3.342   1.357  0.8725 -1.2934 -1.7446
  578MPD2    H2 8628   2.931   3.618   1.301  0.2714  0.1465  0.4463
  578MPD2    H3 8629   3.015   3.427   1.406  1.0419 -0.5966  0.4209
  578MPD2     N 8630   3.412   3.471   1.184  0.4455 -0.1874  0.1798
  578MPD2    H5 8631   3.455   3.531   1.114 -1.2659  1.2254  0.3626
  578MPD2    N1 8632   3.048   3.774   1.124 -0.8490  0.7168 -0.1042
  578MPD2    H7 8633   2.948   3.791   1.128 -1.0431 -0.6767  0.8140
  579TMC3    C1 8634   3.597   3.345   1.123  0.5824 -0.0762  0.0155
  579TMC3    C2 8635   3.677   3.452   1.116  0.5133 -0.0466 -0.1820
  579TMC3    C3 8636   3.788   3.436   1.038 -0.0322  0.4744  0.3095
  579TMC3    C4 8637   3.618   3.223   1.062 -0.5513 -0.0453 -0.2193
  579TMC3    C5 8638   3.723   3.218   0.970  0.6393  0.3562 -0.4698
  579TMC3    C6 8639   3.817   3.320   0.965 -0.8049  0.4711  0.1043
  579TMC3     C 8640   3.478   3.349   1.201  0.3158 -0.3984  0.1567
  579TMC3     O 8641   3.434   3.250   1.248  0.3309 -0.0585  0.5158
  579TMC3     H 8642   3.654   3.543   1.170  1.0834  0.1199 -0.2140
  579TMC3    H1 8643   3.561   3.134   1.086  1.6313 -1.4674 -0.2906
  579TMC3    H2 8644   3.897   3.322   0.892  0.1724 -1.1455  1.1149
  579TMC3    C7 8645   3.736   3.120   0.865 -0.9747 -0.6258  0.2249
  579TMC3    C8 8646   3.883   3.539   1.060  0.8124  0.5138 -0.0075
  579TMC3    O1 8647   3.850   3.097   0.833  0.1804 -0.0144  0.1528
  579TMC3    O2 8648   3.845   3.649   1.095 -0.1806 -0.6379 -0.0407
  580TMC3    C1 8649   2.282   2.544  12.225 -0.3996  0.8813 -0.7677
  580TMC3    C2 8650   2.275   2.644  12.312 -0.1860 -0.4062  0.1626
  580TMC3    C3 8651   2.362   2.636  12.413  0.5008 -0.6287  0.4414
  580TMC3    C4 8652   2.387   2.453  12.215  1.3629 -0.0074 -0.3442
  580TMC3    C5 8653   2.477   2.450  12.316  0.1308  0.0605 -0.5518
  580TMC3    C6 8654   2.468   2.545  12.417  0.0727  0.1942  0.2936
  580TMC3     C 8655   2.237   2.580  12.091 -0.4324  0.5407  0.7622
  580TMC3     O 8656   2.321   2.587  12.006 -0.6036  0.2528  0.4270
  580TMC3     H 8657   2.221   2.737  12.295 -1.7275 -1.1121  1.2249
  580TMC3    H1 8658   2.395   2.390  12.127 -1.0310 -3.6484  2.0722
  580TMC3    H2 8659   2.534   2.540  12.503 -0.5934  1.3671  0.8647
  580TMC3    C7 8660   2.542   2.321  12.359  0.0546  0.0237  0.2685
  580TMC3    C8 8661   2.407   2.768  12.443  0.6026 -0.0143 -0.1694
  580TMC3    O1 8662   2.566   2.311  12.479 -0.3674 -0.5099 -0.2526
  580TMC3    O2 8663   2.332   2.859  12.481  0.5918 -0.2468  0.1787
  581MPD2     C 8664   0.197   2.247  15.009  0.8090 -0.4715  0.0211
  581MPD2    C1 8665   0.063   2.213  14.992 -0.3432 -0.0763  0.0160
  581MPD2    C2 8666   4.727   2.264  14.886 -0.8942 -0.4939  0.7450
  581MPD2    C3 8667   0.038   2.367  14.812  0.3793 -0.0201  0.2754
  581MPD2    C4 8668   0.172   2.406  14.831  0.2788 -1.1497 -0.2780
  581MPD2    C5 8669   0.252   2.337  14.923  0.2163  0.4744  0.5797
  581MPD2     H 8670   4.623   2.245  14.866 -0.3768 -2.2830 -0.2118
  581MPD2    H1 8671   0.220   2.478  14.766  2.0847 -0.2864  2.0116
  581MPD2    H2 8672   0.259   2.202  15.086  2.9146  1.2323 -0.6663
  581MPD2    H3 8673   0.359   2.353  14.931  0.2990  0.3345 -0.2405
  581MPD2     N 8674   4.685   2.425  14.715 -0.0044  0.2359  0.8664
  581MPD2    H5 8675   4.598   2.385  14.684  0.2424  1.1115 -0.9706
  581MPD2    N1 8676   0.016   2.120  15.085 -0.6402 -0.1874 -0.4286
  581MPD2    H7 8677   0.077   2.075  15.152 -1.2854  0.9000  0.9039
  582TMC3    C1 8678   4.588   2.006  15.223  0.0988  0.1149  0.4591
  582TMC3    C2 8679   4.699   1.982  15.303  0.3257 -0.1241 -0.5688
  582TMC3    C3 8680   4.679   1.962  15.432  0.9549  0.2212 -0.4939
  582TMC3    C4 8681   4.458   2.020  15.273 -0.0322 -0.0944 -0.0190
  582TMC3    C5 8682   4.442   2.002  15.404 -0.2936 -0.2106 -0.1555
  582TMC3    C6 8683   4.553   1.979  15.486 -0.4661 -0.3808  0.3087
  582TMC3     C 8684   4.617   2.099  15.109 -0.4700  0.1522 -0.2613
  582TMC3     O 8685   4.516   2.136  15.047 -0.5186  0.3817 -0.1572
  582TMC3     H 8686   0.063   1.957  15.269  0.7652  3.0520 -1.6078
  582TMC3    H1 8687   4.380   2.065  15.213  0.0959  1.1320  0.7434
  582TMC3    H2 8688   4.539   2.001  15.591 -0.5342  1.4594 -0.0849
  582TMC3    C7 8689   4.353   2.102  15.459  0.0779 -0.4673 -0.1584
  582TMC3    C8 8690   0.058   1.984  15.518  0.1729  0.4206 -0.7285
  582TMC3    O1 8691   4.287   2.064  15.555  0.2457  0.3612 -0.0350
  582TMC3    O2 8692   0.097   2.094  15.533  0.2756 -0.1926 -0.5076
  583MPD2     C 8693   0.358   4.209  16.231  0.2620  0.9467  0.3799
  583MPD2    C1 8694   0.424   4.152  16.336 -0.2023  0.0719  0.1913
  583MPD2    C2 8695   0.447   4.222  16.458 -0.0826  0.7917  0.6354
  583MPD2    C3 8696   0.428   4.361  16.460 -0.3538 -0.1955  0.6435
  583MPD2    C4 8697   0.363   4.417  16.349 -0.3416 -0.5828 -0.9142
  583MPD2    C5 8698   0.337   4.344  16.232  0.2752 -0.1125 -0.2392
  583MPD2     H 8699   0.499   4.170  16.537  0.2602  0.4214  0.1629
  583MPD2    H1 8700   0.323   4.518  16.350  0.3541 -0.3543  2.4675
  583MPD2    H2 8701   0.331   4.150  16.144 -0.7848  3.2166 -0.8398
  583MPD2    H3 8702   0.283   4.397  16.154 -2.8037 -1.0096  1.2839
  583MPD2     N 8703   0.457   4.434  16.581 -0.2585  0.0728  0.2003
  583MPD2    H5 8704   0.497   4.383  16.659  0.0161  0.1394  0.1044
  583MPD2    N1 8705   0.494   4.030  16.328  0.2975  0.0909  0.4989
  583MPD2    H7 8706   0.553   3.987  16.399 -0.6638 -3.3685 -0.7679
  584TMC3    C1 8707   0.489   4.618  16.715  0.1039  0.1944  0.0565
  584TMC3    C2 8708   0.544   0.003  16.732  0.2992  0.3639 -0.7266
  584TMC3    C3 8709   0.575   0.036  16.863 -0.6618  0.3652 -0.0044
  584TMC3    C4 8710   0.431   4.543  16.818 -0.0084 -0.4540  0.0230
  584TMC3    C5 8711   0.449   4.604  16.944  0.2779  0.1812 -0.2691
  584TMC3    C6 8712   0.525   4.713  16.972  0.4336  0.3109  0.3140
  584TMC3     C 8713   0.466   4.570  16.590 -0.9316 -0.4776  0.3511
  584TMC3     O 8714   0.449   4.653  16.502  0.1045 -0.4794 -0.6900
  584TMC3     H 8715   0.579   0.057  16.644  1.2564  1.1432  0.1293
  584TMC3    H1 8716   0.357   4.464  16.809 -1.0684  0.3157  2.1515
  584TMC3    H2 8717   0.559   0.009  17.070  0.3933 -0.5252  0.6022
  584TMC3    C7 8718   0.359   4.552  17.050  1.0876  0.1233 -0.2590
  584TMC3    C8 8719   0.637   0.168  16.873 -0.0296  0.0819  0.5633
  584TMC3    O1 8720   0.314   4.434  17.030  0.2357 -0.1543 -0.0126
  584TMC3    O2 8721   0.687   0.200  16.767 -0.0334  0.3390  0.2586
  585MPD2     C 8722   0.426   2.961   0.450  0.1836  0.6250 -1.0414
  585MPD2    C1 8723   0.419   2.848   0.376 -0.1518  0.0994 -0.2350
  585MPD2    C2 8724   0.299   2.779   0.386 -0.2501 -0.1554 -0.2220
  585MPD2    C3 8725   0.205   2.819   0.471 -0.0674 -0.2054 -0.4592
  585MPD2    C4 8726   0.217   2.933   0.555 -0.0642 -0.6406  0.2449
  585MPD2    C5 8727   0.333   3.009   0.535  0.4925  0.2784 -0.1754
  585MPD2     H 8728   0.280   2.689   0.328 -1.5810  0.6026 -0.9770
  585MPD2    H1 8729   0.132   2.975   0.607 -0.4133 -0.9511 -0.0751
  585MPD2    H2 8730   0.511   3.029   0.453  1.0805 -0.5564  0.8973
  585MPD2    H3 8731   0.358   3.103   0.581 -1.8261  1.5411 -1.5005
  585MPD2     N 8732   0.069   2.769   0.467  0.1440 -0.1633  0.3128
  585MPD2    H5 8733   4.730   2.824   0.508 -0.9924 -1.3618 -0.1738
  585MPD2    N1 8734   0.528   2.829   0.286 -0.9013 -0.4807  0.2793
  585MPD2    H7 8735   0.609   2.890   0.292 -1.3173  0.0892  0.0886
  586TMC3    C1 8736   4.629   2.611   0.410  0.1016  0.1178  0.3371
  586TMC3    C2 8737   4.594   2.479   0.412  0.0235  0.3609  0.3279
  586TMC3    C3 8738   4.488   2.445   0.335  0.0184  0.1070  0.7470
  586TMC3    C4 8739   4.550   2.713   0.369  0.5068 -0.6043 -0.5538
  586TMC3    C5 8740   4.426   2.676   0.330  0.6732 -0.0445 -0.9739
  586TMC3    C6 8741   4.398   2.543   0.307 -0.6770  0.3514 -0.2446
  586TMC3     C 8742   0.039   2.643   0.410  0.0293  0.8345 -0.0049
  586TMC3     O 8743   0.104   2.551   0.360  0.2352 -0.4134  0.0564
  586TMC3     H 8744   4.676   2.412   0.433  0.1831  0.8933  1.4197
  586TMC3    H1 8745   4.585   2.814   0.348 -0.9528  0.2172  1.0125
  586TMC3    H2 8746   4.301   2.515   0.269 -1.1938  0.5198  0.9683
  586TMC3    C7 8747   4.357   2.761   0.244  0.5814 -0.2103 -0.2309
  586TMC3    C8 8748   4.519   2.355   0.226  0.0370 -0.3570 -0.1378
  586TMC3    O1 8749   4.237   2.768   0.265 -0.1977 -0.0142  0.1034
  586TMC3    O2 8750   4.608   2.276   0.241 -0.1329 -0.0057 -0.3111
  587TMC3    C1 8751   2.137   1.761  16.527 -0.1246 -0.2983  0.3340
  587TMC3    C2 8752   2.203   1.872  16.578  0.2486  0.0155 -1.0224
  587TMC3    C3 8753   2.305   1.846  16.665  0.1139 -0.2464 -0.1483
  587TMC3    C4 8754   2.169   1.630  16.565 -0.2593  0.4251 -0.1586
  587TMC3    C5 8755   2.269   1.618  16.661 -0.2414 -0.0436  0.1668
  587TMC3    C6 8756   2.340   1.719  16.713 -0.0246  0.7187  0.3909
  587TMC3     C 8757   2.002   1.782  16.474 -0.3544 -0.3435 -0.3029
  587TMC3     O 8758   1.992   1.895  16.422 -0.4355  0.3881 -0.1162
  587TMC3     H 8759   2.180   1.970  16.539  2.4574  1.3336  0.9776
  587TMC3    H1 8760   2.121   1.543  16.523  0.9153 -1.1235  1.6972
  587TMC3    H2 8761   2.403   1.714  16.802  0.7306 -1.7114 -0.2710
  587TMC3    C7 8762   2.315   1.478  16.662 -0.0261  0.1230 -0.3240
  587TMC3    C8 8763   2.369   1.959  16.737 -0.1149 -0.3177  0.0247
  587TMC3    O1 8764   2.237   1.388  16.632 -0.1943 -0.7532  0.6227
  587TMC3    O2 8765   2.461   1.943  16.813 -0.1272  0.0762  0.2404
  588TMC3    C1 8766   4.293   4.718  10.089  0.4068  0.3059  0.0365
  588TMC3    C2 8767   4.243   4.591  10.089 -0.6322  0.0997 -0.1829
  588TMC3    C3 8768   4.332   4.494  10.140 -0.2361 -0.8733 -0.7104
  588TMC3    C4 8769   4.418   0.006  10.133  0.0158 -0.0525  0.7622
  588TMC3    C5 8770   4.500   4.639  10.180  0.6440  0.1369  0.3211
  588TMC3    C6 8771   4.463   4.515  10.178  0.4817 -0.4196 -0.4855
  588TMC3     C 8772   4.213   0.091  10.031  0.1822 -0.1344 -0.2826
  588TMC3     O 8773   4.128   0.072   9.947 -0.6603  0.1434 -0.1458
  588TMC3     H 8774   4.146   4.569  10.045 -2.0999  1.7323  2.1849
  588TMC3    H1 8775   4.462   0.103  10.115 -2.0297  0.5228 -1.1438
  588TMC3    H2 8776   4.543   4.443  10.195  1.5961  0.6717 -1.0981
  588TMC3    C7 8777   4.636   4.676  10.200 -0.0114 -0.7022  0.1068
  588TMC3    C8 8778   4.283   4.368  10.168 -0.4849 -0.2939 -0.3378
  588TMC3    O1 8779   4.726   4.604  10.171 -0.1593 -0.3787  0.1861
  588TMC3    O2 8780   4.178   4.331  10.111 -0.2886  0.6312 -1.1387
  589TMC3    C1 8781   4.009   1.764   1.334 -0.0184  0.2805  0.5372
  589TMC3    C2 8782   4.114   1.766   1.425  0.1661 -0.2221 -0.2783
  589TMC3    C3 8783   4.180   1.647   1.430  0.0912 -0.2429  0.1560
  589TMC3    C4 8784   3.972   1.651   1.263 -0.2459  0.8399 -0.4032
  589TMC3    C5 8785   4.023   1.530   1.305  0.9643  0.2839 -0.6904
  589TMC3    C6 8786   4.127   1.528   1.388  1.0603  0.3227 -0.1110
  589TMC3     C 8787   3.918   1.879   1.322 -0.0262 -0.2824 -0.6241
  589TMC3     O 8788   3.801   1.855   1.324 -0.3162 -0.3755  0.3990
  589TMC3     H 8789   4.152   1.859   1.465 -0.7495  0.9212 -2.0338
  589TMC3    H1 8790   3.877   1.643   1.212  0.1684 -0.2837 -0.9901
  589TMC3    H2 8791   4.168   1.433   1.418 -0.2592 -0.6928 -1.5196
  589TMC3    C7 8792   4.014   1.424   1.204 -0.0717 -0.4383  0.4816
  589TMC3    C8 8793   4.309   1.650   1.487  0.4870  0.2906  0.4750
  589TMC3    O1 8794   4.038   1.315   1.260  1.1521  0.5095  0.1164
  589TMC3    O2 8795   4.333   1.735   1.569 -0.0287 -0.2735  0.6487
  590MPD2     C 8796   2.944   4.640  16.597 -0.3438  0.0471  0.4493
  590MPD2    C1 8797   2.897   0.027  16.549 -0.8254 -0.2484 -0.5773
  590MPD2    C2 8798   2.985   0.117  16.497 -0.5355 -0.2461  0.2396
  590MPD2    C3 8799   3.123   0.089  16.486 -0.9564 -0.2615 -0.0688
  590MPD2    C4 8800   3.165   4.703  16.540 -0.0468  0.8155  0.4081
  590MPD2    C5 8801   3.078   4.607  16.599 -0.0660 -0.0057 -0.0296
  590MPD2     H 8802   2.946   0.212  16.463  0.8288  0.3097  0.2275
  590MPD2    H1 8803   3.271   4.680  16.532 -0.5556 -1.1298 -0.6562
  590MPD2    H2 8804   2.873   4.567  16.632 -1.0305  0.6910  0.3977
  590MPD2    H3 8805   3.118   4.515  16.640  1.0707  0.2471 -0.5527
  590MPD2     N 8806   3.205   0.170  16.415  0.0811  0.2083 -0.9135
  590MPD2    H5 8807   3.296   0.130  16.392  0.3065 -0.1487  0.5408
  590MPD2    N1 8808   2.765   0.053  16.553 -0.7225  0.0993  0.5004
  590MPD2    H7 8809   2.710   4.717  16.599  0.6609 -2.0243 -1.2095
  591TMC3    C1 8810   3.266   0.363  16.295 -0.5485  0.1236  0.1646
  591TMC3    C2 8811   3.331   0.299  16.189  0.1358  0.0685  0.2913
  591TMC3    C3 8812   3.419   0.363  16.105 -0.0575 -0.2933  0.6575
  591TMC3    C4 8813   3.297   0.497  16.325 -0.3024 -0.0402 -0.0006
  591TMC3    C5 8814   3.386   0.562  16.238 -0.3712  0.1299 -0.6194
  591TMC3    C6 8815   3.439   0.501  16.126 -0.6162 -0.6284  0.0364
  591TMC3     C 8816   3.171   0.299  16.383  0.5556 -0.1132 -0.1404
  591TMC3     O 8817   3.093   0.373  16.437  0.1088 -0.3538  0.0038
  591TMC3     H 8818   3.303   0.197  16.165  1.7729 -0.2374 -0.3204
  591TMC3    H1 8819   3.257   0.552  16.409  0.4126  0.5007 -0.0141
  591TMC3    H2 8820   3.508   0.557  16.064 -2.8127  1.3157 -0.6727
  591TMC3    C7 8821   3.437   0.689  16.282  0.3122  0.4487 -0.5412
  591TMC3    C8 8822   3.458   0.292  15.981  0.3744 -0.3642 -0.5774
  591TMC3    O1 8823   3.451   0.700  16.404 -0.0840  0.2858 -0.3657
  591TMC3    O2 8824   3.424   0.173  15.966 -0.1095 -0.2682 -0.0986
  592MPD2     C 8825   3.406   2.466  11.851  0.3569  0.3432  0.0389
  592MPD2    C1 8826   3.433   2.451  11.985  0.3953  0.1235 -1.0587
  592MPD2    C2 8827   3.402   2.333  12.055  0.5995 -0.3806 -0.3725
  592MPD2    C3 8828   3.343   2.229  11.981  0.7054 -0.4843  0.4863
  592MPD2    C4 8829   3.322   2.244  11.842  0.2373 -0.8257  0.1808
  592MPD2    C5 8830   3.353   2.362  11.781 -0.7190  0.8492  0.1340
  592MPD2     H 8831   3.429   2.319  12.159  1.6526 -2.5084 -0.9322
  592MPD2    H1 8832   3.278   2.169  11.777 -0.5178 -0.9607  0.8480
  592MPD2    H2 8833   3.414   2.558  11.795 -0.5051 -0.5993 -1.6408
  592MPD2    H3 8834   3.331   2.366  11.675  1.2439  1.9911 -0.2253
  592MPD2     N 8835   3.299   2.116  12.051 -0.4274  0.0528  0.5130
  592MPD2    H5 8836   3.332   2.116  12.147 -0.4127  2.1224  0.5062
  592MPD2    N1 8837   3.507   2.551  12.048  0.4551 -0.2917  0.2262
  592MPD2    H7 8838   3.534   2.629  11.988 -2.0760 -0.1287 -0.7351
  593TMC3    C1 8839   3.651   2.644  12.189  0.1031 -0.2979  1.0633
  593TMC3    C2 8840   3.652   2.720  12.305  0.3586  0.3419  0.5162
  593TMC3    C3 8841   3.764   2.782  12.337 -0.1510 -0.2131 -0.1113
  593TMC3    C4 8842   3.759   2.634  12.104 -0.1574 -0.2567  0.4428
  593TMC3    C5 8843   3.870   2.691  12.147 -0.1549  1.2873 -0.0967
  593TMC3    C6 8844   3.881   2.761  12.263  0.2843 -0.5147 -0.4107
  593TMC3     C 8845   3.547   2.555  12.175 -0.5852 -0.0711  0.1922
  593TMC3     O 8846   3.521   2.494  12.277 -0.2477 -0.1215 -0.3540
  593TMC3     H 8847   3.559   2.727  12.361 -0.9318 -2.2757 -1.2846
  593TMC3    H1 8848   3.754   2.569  12.017  3.5969  0.0411  0.0050
  593TMC3    H2 8849   3.981   2.798  12.284 -0.5545  1.2768  0.4446
  593TMC3    C7 8850   3.986   2.720  12.060  0.2344 -0.3301 -0.0780
  593TMC3    C8 8851   3.754   2.913  12.399 -0.2940  0.4713  0.5827
  593TMC3    O1 8852   4.095   2.750  12.106  0.0263  0.2886  0.6444
  593TMC3    O2 8853   3.654   2.941  12.465  0.3277 -0.3248  0.3000
  594MPD2     C 8854   2.706   0.686  14.882  0.6251  1.0815 -0.5213
  594MPD2    C1 8855   2.620   0.747  14.791  0.3548  0.0580  0.2622
  594MPD2    C2 8856   2.674   0.840  14.706  0.3768 -0.0486 -0.2392
  594MPD2    C3 8857   2.808   0.862  14.712  0.2350 -0.0853  0.8360
  594MPD2    C4 8858   2.895   0.799  14.803  0.0159 -0.5016 -0.7694
  594MPD2    C5 8859   2.843   0.706  14.885  0.1858  0.1751 -0.2268
  594MPD2     H 8860   2.607   0.894  14.640  0.4153 -0.1026 -0.3223
  594MPD2    H1 8861   3.004   0.798  14.811 -0.0200 -0.0480 -0.2427
  594MPD2    H2 8862   2.682   0.588  14.921  0.2893  1.4351  0.1517
  594MPD2    H3 8863   2.908   0.647  14.949  0.0404  0.7525  0.4497
  594MPD2     N 8864   2.862   0.943  14.609  0.0301  0.2194 -0.2599
  594MPD2    H5 8865   2.799   0.968  14.533  0.0179 -1.9751 -0.9686
  594MPD2    N1 8866   2.497   0.684  14.771  0.1467 -0.4116  0.3488
  594MPD2    H7 8867   2.480   0.607  14.836 -1.6939  0.5408  1.0033
  595TMC3    C1 8868   3.156   1.252  14.412 -0.5911  0.3045  0.6333
  595TMC3    C2 8869   3.146   1.141  14.490  0.6296 -0.1010  0.4706
  595TMC3    C3 8870   3.022   1.092  14.513 -0.2160 -0.3619  0.3478
  595TMC3    C4 8871   3.053   1.321  14.361  0.4300  1.0641  0.3548
  595TMC3    C5 8872   2.930   1.262  14.381 -0.2543 -0.4314  0.1702
  595TMC3    C6 8873   2.914   1.148  14.449 -0.5085 -0.2228  0.6608
  595TMC3     C 8874   3.285   1.311  14.394  0.6696  0.4580 -0.3010
  595TMC3     O 8875   3.287   1.433  14.383  0.3949 -0.5498  0.3322
  595TMC3     H 8876   3.229   1.103  14.548  1.6581  2.5190  0.7189
  595TMC3    H1 8877   3.068   1.410  14.301  1.6409 -0.2524 -1.2994
  595TMC3    H2 8878   2.810   1.120  14.464 -0.4384 -0.2774  1.0342
  595TMC3    C7 8879   2.813   1.340  14.358  0.5262 -0.0728  0.4573
  595TMC3    C8 8880   2.999   0.984  14.606  0.2922 -0.0886 -0.5440
  595TMC3    O1 8881   2.708   1.302  14.411  0.0851  0.3027  0.2433
  595TMC3    O2 8882   3.094   0.949  14.673  0.1229  0.2986 -0.2040
  596MPD2     C 8883   0.862   3.633  16.510  0.2180  0.0608 -0.8048
  596MPD2    C1 8884   0.995   3.638  16.544  0.1457  0.0343 -0.6848
  596MPD2    C2 8885   1.087   3.578  16.467 -0.8580  0.1432  0.7308
  596MPD2    C3 8886   1.052   3.504  16.352 -0.0579 -0.1819  0.0770
  596MPD2    C4 8887   0.921   3.508  16.314 -0.1841 -0.3159 -0.6670
  596MPD2    C5 8888   0.833   3.571  16.392  0.3701 -0.2536 -0.2579
  596MPD2     H 8889   1.191   3.578  16.496 -0.0954 -3.4562 -1.9404
  596MPD2    H1 8890   0.889   3.454  16.226  0.9802  1.0384 -1.9170
  596MPD2    H2 8891   0.775   3.679  16.554 -0.4235 -2.8976  1.0526
  596MPD2    H3 8892   0.733   3.571  16.352 -0.1862 -0.6164  1.1114
  596MPD2     N 8893   1.145   3.460  16.255  0.2161 -0.1206  0.4567
  596MPD2    H5 8894   1.121   3.459  16.157 -0.8268 -0.4219  0.7118
  596MPD2    N1 8895   1.037   3.706  16.650  0.9407  0.2654 -0.3258
  596MPD2    H7 8896   1.137   3.707  16.668  0.6849  0.9099  1.0537
  597TMC3    C1 8897   1.039   3.860  16.825 -0.0547  0.2768 -0.2639
  597TMC3    C2 8898   1.167   3.892  16.799  0.1021  0.4561 -0.1077
  597TMC3    C3 8899   1.227   3.986  16.868 -0.3917  0.3327 -0.1088
  597TMC3    C4 8900   0.970   3.925  16.931  0.1210  0.4941 -0.2187
  597TMC3    C5 8901   1.034   4.031  16.987 -0.5206  0.0004  0.4294
  597TMC3    C6 8902   1.162   4.062  16.959  0.2161 -0.4541  0.3010
  597TMC3     C 8903   0.965   3.762  16.748  0.4302 -0.2472  0.1686
  597TMC3     O 8904   0.851   3.734  16.782  0.8570 -0.7282 -0.0965
  597TMC3     H 8905   1.223   3.838  16.723  1.2458  1.4580  0.0206
  597TMC3    H1 8906   0.865   3.904  16.947  0.4308 -0.7428  0.2057
  597TMC3    H2 8907   1.215   4.141  17.012 -0.1693  0.2908 -0.4123
  597TMC3    C7 8908   0.952   4.146  17.039 -0.0762  0.0880 -0.6145
  597TMC3    C8 8909   1.363   4.018  16.838 -0.0667  0.0338 -0.2288
  597TMC3    O1 8910   0.839   4.105  17.066 -0.2404 -0.2818  0.2604
  597TMC3    O2 8911   1.401   4.128  16.875 -0.7932  0.6122 -0.2545
  598TMC3    C1 8912   4.127   0.301  15.207 -0.5160  0.0445  0.2516
  598TMC3    C2 8913   3.999   0.314  15.173  0.0659 -0.5348  0.1250
  598TMC3    C3 8914   3.940   0.434  15.151 -0.3874 -0.0129 -0.1370
  598TMC3    C4 8915   4.208   0.408  15.207  0.1968 -0.0991  0.4698
  598TMC3    C5 8916   4.159   0.531  15.178 -0.2687 -0.2742  0.0791
  598TMC3    C6 8917   4.020   0.545  15.154  0.0884 -0.1776 -0.0114
  598TMC3     C 8918   4.177   0.170  15.262 -0.0103  0.1873 -0.3870
  598TMC3     O 8919   4.096   0.074  15.251  0.0194  0.6779 -0.1730
  598TMC3     H 8920   3.934   0.227  15.184 -0.9031  0.1859  0.1597
  598TMC3    H1 8921   4.316   0.400  15.210  0.0984 -0.8689  2.6603
  598TMC3    H2 8922   3.975   0.644  15.149 -0.5575 -0.4864 -0.3092
  598TMC3    C7 8923   4.231   0.652  15.186 -0.0490 -0.3127  0.1064
  598TMC3    C8 8924   3.800   0.452  15.116  0.5073 -0.3059 -1.2397
  598TMC3    O1 8925   4.178   0.752  15.144  0.0432 -0.0894 -0.4970
  598TMC3    O2 8926   3.761   0.567  15.134 -0.2077  0.4154 -0.3204
  599MPD2     C 8927   4.463   3.216  16.070 -1.1306  0.5390  0.8209
  599MPD2    C1 8928   4.385   3.096  16.081 -0.0278  0.2858 -0.2301
  599MPD2    C2 8929   4.253   3.105  16.124 -0.0650  0.1113 -0.2868
  599MPD2    C3 8930   4.205   3.224  16.178 -0.1662  0.0795  0.1782
  599MPD2    C4 8931   4.287   3.333  16.166 -0.5190 -0.3668 -0.2017
  599MPD2    C5 8932   4.410   3.333  16.115 -0.3237  0.0457 -0.5534
  599MPD2     H 8933   4.190   3.017  16.126  1.0279 -0.7320 -3.4182
  599MPD2    H1 8934   4.243   3.432  16.178 -1.9070 -1.1361  1.1823
  599MPD2    H2 8935   4.558   3.218  16.018 -0.2927 -0.2553  2.3128
  599MPD2    H3 8936   4.477   3.418  16.104  0.7279 -0.7832 -0.5101
  599MPD2     N 8937   4.078   3.254  16.229  0.5526 -0.3418  0.0730
  599MPD2    H5 8938   4.063   3.353  16.242 -0.3924 -0.7484  2.1432
  599MPD2    N1 8939   4.448   2.972  16.056  0.4588  0.0271  0.3637
  599MPD2    H7 8940   4.544   2.984  16.023  0.1987  2.7544  0.6252
  600TMC3    C1 8941   3.863   3.217  16.297  0.1196  0.2009  0.6722
  600TMC3    C2 8942   3.774   3.133  16.351 -0.2792 -0.3267 -0.0651
  600TMC3    C3 8943   3.684   3.182  16.444  0.6479 -0.0515  0.0054
  600TMC3    C4 8944   3.860   3.356  16.315 -0.0934 -0.1968  0.2096
  600TMC3    C5 8945   3.758   3.399  16.399 -0.0979  0.0751 -0.2566
  600TMC3    C6 8946   3.679   3.310  16.472  0.3860 -0.1438 -0.6088
  600TMC3     C 8947   3.981   3.162  16.245 -0.5349 -0.9878 -0.5836
  600TMC3     O 8948   3.983   3.041  16.232 -0.5087  0.1687  0.1938
  600TMC3     H 8949   3.783   3.026  16.342  1.5163 -0.3402  2.0368
  600TMC3    H1 8950   3.921   3.426  16.257 -2.5758 -0.3076 -2.5338
  600TMC3    H2 8951   3.610   3.349  16.546  0.0865 -2.6966  0.4672
  600TMC3    C7 8952   3.726   3.537  16.396 -0.2578  0.2294 -1.0137
  600TMC3    C8 8953   3.607   3.082  16.512 -0.2779  1.0841 -0.3735
  600TMC3    O1 8954   3.607   3.560  16.422 -0.2313 -0.1856  0.5910
  600TMC3    O2 8955   3.569   3.098  16.630 -0.0241 -0.4680 -0.4434
  601MPD2     C 8956   2.406   1.437   0.229 -0.4159  0.0318  0.2885
  601MPD2    C1 8957   2.266   1.437   0.238  0.1652 -0.6807 -0.5458
  601MPD2    C2 8958   2.209   1.345   0.325  0.3050  0.7438  0.0148
  601MPD2    C3 8959   2.278   1.249   0.396  0.3460  0.6828  0.2474
  601MPD2    C4 8960   2.415   1.247   0.384 -0.6605 -0.1856  0.0211
  601MPD2    C5 8961   2.473   1.344   0.302  0.5544 -0.2191 -0.2283
  601MPD2     H 8962   2.101   1.350   0.326  0.2778  0.4424 -1.5422
  601MPD2    H1 8963   2.479   1.175   0.435 -1.8613  0.2358  2.1020
  601MPD2    H2 8964   2.458   1.504   0.162 -0.1128 -0.8468 -0.3521
  601MPD2    H3 8965   2.580   1.336   0.288  0.9996 -0.2397  3.0744
  601MPD2     N 8966   2.222   1.152   0.481  0.3449 -0.0320  0.1720
  601MPD2    H5 8967   2.289   1.094   0.531  0.2886  0.1686  0.4796
  601MPD2    N1 8968   2.179   1.499   0.146  0.4821 -0.3941 -0.6471
  601MPD2    H7 8969   2.081   1.473   0.153 -0.2377  1.9616 -1.8172
  602TMC3    C1 8970   2.097   1.627  17.714 -0.3041 -0.0105 -0.2929
  602TMC3    C2 8971   2.119   1.742  17.640 -0.5007 -0.2050  0.0406
  602TMC3    C3 8972   2.019   1.773  17.541  0.4762  0.0120  0.5082
  602TMC3    C4 8973   1.979   1.563  17.722  0.7709 -0.4923  0.1411
  602TMC3    C5 8974   1.880   1.607  17.641  0.4938  0.5306  0.0035
  602TMC3    C6 8975   1.895   1.710  17.550 -0.3224  0.1918 -0.1542
  602TMC3     C 8976   2.212   1.591   0.051 -0.3732 -0.3211 -0.9868
  602TMC3     O 8977   2.316   1.658   0.039  0.1542 -0.1725  0.1208
  602TMC3     H 8978   2.216   1.790  17.632 -0.8963  0.4992 -0.6071
  602TMC3    H1 8979   1.959   1.474   0.038  3.2426 -1.3092 -0.2431
  602TMC3    H2 8980   1.810   1.757  17.502 -0.2852 -1.8050 -2.2041
  602TMC3    C7 8981   1.774   1.512  17.600 -0.3006 -0.3231 -0.4511
  602TMC3    C8 8982   2.037   1.893  17.468  0.3701  0.1475  0.0925
  602TMC3    O1 8983   1.735   1.423  17.671 -0.0242  0.4433 -0.6009
  602TMC3    O2 8984   2.128   1.976  17.492 -0.0388 -0.1564 -0.6310
  603TMC3    C1 8985   4.063   2.245  11.271 -0.3036 -0.6576 -0.5745
  603TMC3    C2 8986   4.098   2.219  11.402 -0.0344  0.9010  0.7231
  603TMC3    C3 8987   4.232   2.240  11.438 -0.4821  0.1301  1.0548
  603TMC3    C4 8988   4.152   2.292  11.176 -0.3029  0.2314  0.1835
  603TMC3    C5 8989   4.282   2.297  11.218 -0.3083 -0.2560 -0.2896
  603TMC3    C6 8990   4.322   2.274  11.343  0.1514  0.0856 -0.0567
  603TMC3     C 8991   3.929   2.202  11.220  0.1946 -0.4798  0.5334
  603TMC3     O 8992   3.907   2.224  11.100  0.4355 -0.2130  0.6619
  603TMC3     H 8993   4.029   2.202  11.484 -0.1620 -1.9371  0.0314
  603TMC3    H1 8994   4.112   2.308  11.077  0.6790  1.3640 -0.0428
  603TMC3    H2 8995   4.416   2.316  11.378  0.3492  0.5907 -1.1785
  603TMC3    C7 8996   4.365   2.384  11.131 -0.5244  0.2645  0.4247
  603TMC3    C8 8997   4.273   2.169  11.549  0.8552 -0.1907 -0.1866
  603TMC3    O1 8998   4.487   2.370  11.130  0.2206  0.4669  0.5462
  603TMC3    O2 8999   4.201   2.078  11.594  0.3060  0.3060  0.1159
  604MPD2     C 9000   0.857   0.264  16.101 -0.0537  0.6577 -0.6435
  604MPD2    C1 9001   0.748   0.186  16.060  0.0416  0.0513  0.3288
  604MPD2    C2 9002   0.769   0.087  15.963 -0.4427  0.4589 -0.8453
  604MPD2    C3 9003   0.890   0.055  15.917 -0.4583  0.4270  0.5254
  604MPD2    C4 9004   0.994   0.128  15.962 -0.3115  1.0976  0.7476
  604MPD2    C5 9005   0.979   0.230  16.059 -0.0032 -0.9107 -0.3724
  604MPD2     H 9006   0.688   0.029  15.921 -0.9362  0.9717 -0.5878
  604MPD2    H1 9007   1.096   0.117  15.927  0.4100  0.5128  3.0025
  604MPD2    H2 9008   0.854   0.339  16.179 -1.1843 -0.8170  0.7446
  604MPD2    H3 9009   1.071   0.285  16.074 -1.0044  0.8300 -0.5794
  604MPD2     N 9010   0.905   4.672  15.833 -0.0627  0.2306 -0.2820
  604MPD2    H5 9011   0.826   4.637  15.781 -0.4792  2.8049 -1.4056
  604MPD2    N1 9012   0.626   0.226  16.117  0.0539 -0.2231 -0.1040
  604MPD2    H7 9013   0.631   0.281  16.202 -0.1848 -0.5538  0.1223
  605TMC3    C1 9014   0.414   0.294  16.124  0.4108 -0.1589 -0.3237
  605TMC3    C2 9015   0.421   0.298  16.261  0.3019 -0.4576 -0.4318
  605TMC3    C3 9016   0.393   0.417  16.324 -0.0067 -0.1071  0.2035
  605TMC3    C4 9017   0.362   0.400  16.044 -1.3032 -0.6499  0.1281
  605TMC3    C5 9018   0.329   0.514  16.118 -0.4711 -0.6411 -0.1168
  605TMC3    C6 9019   0.356   0.528  16.252  0.2090 -0.0795  0.4763
  605TMC3     C 9020   0.503   0.204  16.060  0.3725  0.0333  0.2331
  605TMC3     O 9021   0.487   0.171  15.945 -0.4177 -0.5714  0.1103
  605TMC3     H 9022   0.461   0.211  16.312  1.9955  0.3978 -0.2709
  605TMC3    H1 9023   0.343   0.388  15.938  3.7180 -0.9935 -0.7226
  605TMC3    H2 9024   0.320   0.612  16.309 -3.2096  0.5607 -2.6283
  605TMC3    C7 9025   0.242   0.613  16.062 -0.0176  0.9945  0.1775
  605TMC3    C8 9026   0.448   0.434  16.456 -0.6207 -0.1955  0.7179
  605TMC3    O1 9027   0.157   0.662  16.130 -0.2955 -0.3518 -0.7281
  605TMC3    O2 9028   0.503   0.332  16.498 -0.7183 -0.5214 -0.0479
  606TMC3    C1 9029   1.596   4.026  17.221 -0.2522  0.3891 -0.2590
  606TMC3    C2 9030   1.698   4.043  17.312  0.3425 -0.0519 -0.1090
  606TMC3    C3 9031   1.797   3.952  17.323 -1.1369  0.2115 -0.6849
  606TMC3    C4 9032   1.589   3.918  17.146 -0.4681  0.3369  0.1480
  606TMC3    C5 9033   1.700   3.847  17.137 -0.4908 -0.4193 -0.6525
  606TMC3    C6 9034   1.806   3.856  17.220  0.3036  0.0519 -0.2120
  606TMC3     C 9035   1.473   4.101  17.237 -0.0758  0.3282  0.3559
  606TMC3     O 9036   1.379   4.071  17.166  0.7357 -0.3633 -0.1347
  606TMC3     H 9037   1.701   4.132  17.373 -0.3741 -0.9652  1.2696
  606TMC3    H1 9038   1.503   3.898  17.083 -0.1196  2.6607 -1.0498
  606TMC3    H2 9039   1.899   3.804  17.199  0.0885 -0.5725  0.3832
  606TMC3    C7 9040   1.681   3.715  17.074  0.4842  0.1947 -0.0579
  606TMC3    C8 9041   1.893   3.943  17.430 -0.6017  0.1051  0.5817
  606TMC3    O1 9042   1.783   3.664  17.042  0.1958 -0.1134 -0.1960
  606TMC3    O2 9043   2.008   3.905  17.414  0.2329 -0.1255 -0.1899
  607MPD2     C 9044   3.556   1.781  11.794 -0.5990  0.6797 -0.0134
  607MPD2    C1 9045   3.570   1.859  11.907  0.4536 -0.1076  0.0251
  607MPD2    C2 9046   3.552   1.796  12.033  1.0830 -0.3336  0.1568
  607MPD2    C3 9047   3.522   1.660  12.054 -0.0092  0.1167 -0.2192
  607MPD2    C4 9048   3.516   1.587  11.935 -0.0784  0.0075 -0.0441
  607MPD2    C5 9049   3.531   1.646  11.810  0.9069  0.5234 -0.0581
  607MPD2     H 9050   3.567   1.853  12.124 -0.8284  0.4093  0.0229
  607MPD2    H1 9051   3.507   1.479  11.930  1.3677 -0.0243 -1.8777
  607MPD2    H2 9052   3.537   1.816  11.693  0.0561 -0.4686 -0.5426
  607MPD2    H3 9053   3.519   1.585  11.721 -1.4895 -0.3961  0.8817
  607MPD2     N 9054   3.520   1.615  12.183 -0.0700 -0.1145  0.0370
  607MPD2    H5 9055   3.517   1.684  12.258 -2.3250 -1.2326  0.9741
  607MPD2    N1 9056   3.611   1.990  11.910  0.1331 -0.4266  0.1371
  607MPD2    H7 9057   3.637   2.026  12.001  0.7258  0.0923 -0.2344
  608TMC3    C1 9058   3.721   2.187  11.860 -0.5732 -0.5207 -0.3990
  608TMC3    C2 9059   3.746   2.204  11.994  0.1328 -0.8981  0.1073
  608TMC3    C3 9060   3.860   2.275  12.039  0.4975 -0.4697  0.1626
  608TMC3    C4 9061   3.811   2.242  11.772 -0.2192 -0.7832  0.3127
  608TMC3    C5 9062   3.921   2.317  11.818  0.0757  0.0543 -0.1462
  608TMC3    C6 9063   3.937   2.343  11.955  0.1859  0.2563 -0.1267
  608TMC3     C 9064   3.638   2.076  11.813  0.5017 -0.0844 -0.2242
  608TMC3     O 9065   3.600   2.072  11.696  0.0315 -0.4036 -0.1478
  608TMC3     H 9066   3.673   2.168  12.065  0.0055 -0.4638  0.1951
  608TMC3    H1 9067   3.809   2.207  11.670  2.7642  1.2792 -0.4553
  608TMC3    H2 9068   4.021   2.398  11.997  1.2025 -1.8498  0.5843
  608TMC3    C7 9069   3.991   2.404  11.720 -0.0681 -0.1814  0.2868
  608TMC3    C8 9070   3.874   2.279  12.185  0.0762 -0.2462 -0.5211
  608TMC3    O1 9071   3.930   2.430  11.618  0.0688  0.1989 -0.1201
  608TMC3    O2 9072   3.910   2.386  12.238  0.5635  0.1591  0.3315
  609TMC3    C1 9073   2.146   1.884   9.681  0.3567 -0.7169 -0.1868
  609TMC3    C2 9074   2.236   1.960   9.750 -0.1791  0.6312  0.3157
  609TMC3    C3 9075   2.339   2.012   9.678 -0.0208  0.1714 -0.0274
  609TMC3    C4 9076   2.161   1.834   9.550 -0.8512 -0.3555 -0.2204
  609TMC3    C5 9077   2.276   1.884   9.488 -0.4630 -0.8256  0.5572
  609TMC3    C6 9078   2.363   1.971   9.545 -0.5791 -0.7091  0.5462
  609TMC3     C 9079   2.032   1.853   9.766  0.0794 -0.2607  0.1283
  609TMC3     O 9080   2.017   1.916   9.870  0.7545  0.2906  0.0495
  609TMC3     H 9081   2.218   1.990   9.852 -0.1035  3.0443 -0.3824
  609TMC3    H1 9082   2.104   1.748   9.520 -1.6357  0.0025  0.2518
  609TMC3    H2 9083   2.444   2.001   9.479 -0.8274 -0.9283  0.1448
  609TMC3    C7 9084   2.349   1.793   9.404 -0.0402  0.5178 -0.2442
  609TMC3    C8 9085   2.442   2.089   9.745  0.3151 -0.1910 -0.1413
  609TMC3    O1 9086   2.471   1.794   9.409  0.6589 -0.0224  0.3035
  609TMC3    O2 9087   2.440   2.100   9.869 -0.0288  0.0338  0.2420
  610TMC3    C1 9088   4.077   1.806  12.782 -0.3824  0.2299 -0.5812
  610TMC3    C2 9089   4.060   1.769  12.655 -0.3484 -0.8917  0.0804
  610TMC3    C3 9090   4.174   1.736  12.586 -0.4531 -0.4445  0.2367
  610TMC3    C4 9091   4.193   1.788  12.856  0.4818  1.1233 -0.0683
  610TMC3    C5 9092   4.301   1.746  12.782 -0.3036  0.3625  0.2598
  610TMC3    C6 9093   4.293   1.735  12.644  0.3711  0.2205  0.0012
  610TMC3     C 9094   3.958   1.828  12.859 -0.7824  0.3194 -0.3415
  610TMC3     O 9095   3.861   1.760  12.825 -0.4632  0.7117 -0.2050
  610TMC3     H 9096   3.969   1.794  12.601  0.8178 -0.9783 -1.9360
  610TMC3    H1 9097   4.190   1.796  12.964  0.0826 -0.5640  0.0458
  610TMC3    H2 9098   4.376   1.694  12.588  0.5213  0.2879  0.1779
  610TMC3    C7 9099   4.411   1.671  12.844 -0.7794 -0.5104 -0.8978
  610TMC3    C8 9100   4.176   1.755  12.441  0.5576  0.3948  0.1516
  610TMC3    O1 9101   4.504   1.631  12.775 -0.1827 -0.0632 -0.3179
  610TMC3    O2 9102   4.260   1.833  12.403 -0.5305  0.0104 -0.5773
  611MPD2     C 9103   3.454   2.283  10.784  0.3291 -0.4919 -0.0889
  611MPD2    C1 9104   3.494   2.234  10.666  0.3728  0.2592 -0.4482
  611MPD2    C2 9105   3.595   2.293  10.590 -0.4028  0.3268  0.2830
  611MPD2    C3 9106   3.667   2.400  10.647  0.1855 -0.6061  0.2333
  611MPD2    C4 9107   3.622   2.453  10.765  0.0781 -0.0566 -0.7008
  611MPD2    C5 9108   3.514   2.396  10.831  0.3506 -0.1062  0.5443
  611MPD2     H 9109   3.623   2.253  10.493  1.2902  1.2258  0.4084
  611MPD2    H1 9110   3.671   2.541  10.807 -0.5110 -0.7622  1.4839
  611MPD2    H2 9111   3.367   2.249  10.839 -0.4767 -0.8725 -1.5886
  611MPD2    H3 9112   3.466   2.440  10.917 -0.5895  0.0676 -0.0680
  611MPD2     N 9113   3.768   2.478  10.575 -0.1134 -0.1246  0.0687
  611MPD2    H5 9114   3.828   2.538  10.631 -1.9642  1.2594  0.5568
  611MPD2    N1 9115   3.432   2.123  10.610 -0.1713 -0.2001  0.4657
  611MPD2    H7 9116   3.464   2.094  10.518 -1.4737  2.1532 -0.7268
  612TMC3    C1 9117   3.887   2.558  10.398 -0.3888 -0.4645  0.5013
  612TMC3    C2 9118   3.994   2.589  10.482 -0.0067  0.1763 -1.0328
  612TMC3    C3 9119   4.077   2.690  10.448 -0.0903  0.1621  0.0975
  612TMC3    C4 9120   3.857   2.636  10.291 -0.1434  0.4357  0.2856
  612TMC3    C5 9121   3.953   2.730  10.255 -0.9278  0.0247  0.3161
  612TMC3    C6 9122   4.061   2.761  10.332 -0.3677 -0.1234  0.0371
  612TMC3     C 9123   3.790   2.468  10.440  0.7751 -0.4805 -0.3483
  612TMC3     O 9124   3.718   2.409  10.356  0.4798  0.4288 -0.4642
  612TMC3     H 9125   4.011   2.532  10.572 -0.8527  0.4577 -0.6896
  612TMC3    H1 9126   3.767   2.609  10.237  0.7609  0.9887 -1.4988
  612TMC3    H2 9127   4.128   2.844  10.309  0.0839 -1.2140 -2.5402
  612TMC3    C7 9128   3.894   2.835  10.173  0.0244  0.5491 -0.3394
  612TMC3    C8 9129   4.185   2.734  10.535  0.0784 -0.2040  1.0266
  612TMC3    O1 9130   3.782   2.815  10.125  0.3443  0.1543  0.0016
  612TMC3    O2 9131   4.255   2.830  10.495  0.0384  0.0923 -0.5518
  613MPD2     C 9132   2.826   3.586  16.734 -0.1559 -0.0443 -0.1868
  613MPD2    C1 9133   2.757   3.628  16.616 -0.5208  0.2142  0.2148
  613MPD2    C2 9134   2.746   3.535  16.515  0.0287 -0.6537  0.3707
  613MPD2    C3 9135   2.814   3.416  16.526  0.5849  0.2197  0.1436
  613MPD2    C4 9136   2.882   3.380  16.637  0.0650  0.7831 -0.0108
  613MPD2    C5 9137   2.879   3.458  16.747 -0.5473 -0.0805  0.3955
  613MPD2     H 9138   2.691   3.559  16.426 -0.9721  0.2647  1.2436
  613MPD2    H1 9139   2.933   3.284  16.640 -2.6033 -0.6114  0.4053
  613MPD2    H2 9140   2.842   3.650  16.820  1.1659  0.4220 -0.7810
  613MPD2    H3 9141   2.925   3.414  16.835 -0.9460 -1.8619 -0.2845
  613MPD2     N 9142   2.834   3.324  16.417  0.1820 -0.2056  0.0472
  613MPD2    H5 9143   2.888   3.241  16.436 -0.8758 -1.0512 -0.6246
  613MPD2    N1 9144   2.708   3.765  16.607  0.0195  0.2344  0.0651
  613MPD2    H7 9145   2.733   3.828  16.682  0.5586  0.3903 -0.2449
  614TMC3    C1 9146   2.658   3.952  16.474 -0.3682 -0.1472  0.3137
  614TMC3    C2 9147   2.785   3.982  16.444 -0.6553 -1.2644  0.1505
  614TMC3    C3 9148   2.816   4.055  16.332  0.0762 -0.5232 -0.1200
  614TMC3    C4 9149   2.557   4.025  16.413  0.0180 -0.4003 -0.6708
  614TMC3    C5 9150   2.593   4.105  16.307 -0.2270  0.2636  0.5828
  614TMC3    C6 9151   2.722   4.111  16.255 -0.7125  0.8956 -0.0725
  614TMC3     C 9152   2.636   3.808  16.501  0.5375  1.2438 -0.1578
  614TMC3     O 9153   2.559   3.754  16.421  0.2796 -0.7884 -0.1649
  614TMC3     H 9154   2.862   3.944  16.511  1.6292  2.2029 -0.4943
  614TMC3    H1 9155   2.454   4.008  16.440  0.7415 -1.2024  1.5356
  614TMC3    H2 9156   2.755   4.176  16.175  2.3453  0.8096  1.1145
  614TMC3    C7 9157   2.481   4.163  16.232  0.1006  0.5835  0.0760
  614TMC3    C8 9158   2.939   4.020  16.267  1.2425  0.3214 -0.0347
  614TMC3    O1 9159   2.391   4.224  16.287  0.3637  0.4160  0.0051
  614TMC3    O2 9160   3.017   3.952  16.331  0.3351  0.3018 -0.6553
  615MPD2     C 9161   1.929   0.720  16.095  0.6671  0.8933  0.3557
  615MPD2    C1 9162   2.032   0.711  16.014 -0.5966  0.1407  0.3461
  615MPD2    C2 9163   2.015   0.733  15.876 -0.5241 -0.0152  0.4079
  615MPD2    C3 9164   1.887   0.749  15.827  0.7147 -1.0420 -0.5190
  615MPD2    C4 9165   1.784   0.766  15.915  0.1949 -0.8284  0.4288
  615MPD2    C5 9166   1.804   0.744  16.049  0.5615  0.2044 -0.6455
  615MPD2     H 9167   2.097   0.723  15.805 -1.5452  1.6258 -1.0057
  615MPD2    H1 9168   1.687   0.789  15.873  0.4079 -1.6453 -0.5212
  615MPD2    H2 9169   1.935   0.699  16.201 -1.2160  2.7268  0.8191
  615MPD2    H3 9170   1.720   0.734  16.115  0.6621 -2.0327 -0.8567
  615MPD2     N 9171   1.865   0.770  15.696 -0.1054  0.0983 -0.1810
  615MPD2    H5 9172   1.767   0.785  15.676  0.0039  0.7430 -0.2578
  615MPD2    N1 9173   2.148   0.665  16.075 -0.1406  0.2425  0.3525
  615MPD2    H7 9174   2.138   0.645  16.174  1.8705  0.3283  0.5807
  616TMC3    C1 9175   2.369   0.600  16.086  0.4863  0.4468 -0.0492
  616TMC3    C2 9176   2.476   0.560  16.015  0.4289  0.5955 -1.1900
  616TMC3    C3 9177   2.592   0.530  16.083  0.4099 -0.3878  0.2811
  616TMC3    C4 9178   2.363   0.603  16.221  0.6377 -0.1494  0.8002
  616TMC3    C5 9179   2.476   0.559  16.284  0.3443 -0.0908 -0.0569
  616TMC3    C6 9180   2.595   0.534  16.222  0.4863 -0.1739 -0.2046
  616TMC3     C 9181   2.262   0.652  16.011 -0.3975  0.1953 -0.4576
  616TMC3     O 9182   2.282   0.655  15.889  0.1141 -0.0701  0.0412
  616TMC3     H 9183   2.476   0.534  15.910 -0.1658 -0.0887 -1.0284
  616TMC3    H1 9184   2.279   0.643  16.276 -0.5848 -1.3802 -0.1749
  616TMC3    H2 9185   2.682   0.482  16.262  1.3765  0.7152 -1.0051
  616TMC3    C7 9186   2.473   0.554  16.430  0.5504  0.2293  0.2037
  616TMC3    C8 9187   2.710   0.568  16.010 -0.7004  0.0940  0.1106
  616TMC3    O1 9188   2.374   0.590  16.494 -0.1850  0.4278 -0.2042
  616TMC3    O2 9189   2.713   0.564  15.890  0.1047  0.0704 -0.1034
  617MPD2     C 9190   0.693   3.557  13.275 -0.2480 -0.5301  0.2187
  617MPD2    C1 9191   0.696   3.469  13.383 -0.0570 -0.0547  0.1761
  617MPD2    C2 9192   0.575   3.421  13.433 -0.1732 -0.0936  0.0321
  617MPD2    C3 9193   0.455   3.448  13.376  0.7313 -0.6238  0.2194
  617MPD2    C4 9194   0.454   3.523  13.264  0.2613  0.2091  0.7237
  617MPD2    C5 9195   0.565   3.582  13.220 -0.1765 -0.0137 -0.8167
  617MPD2     H 9196   0.576   3.350  13.515  1.0787 -1.7663 -1.4327
  617MPD2    H1 9197   0.363   3.542  13.207  0.2438 -0.1080  0.6500
  617MPD2    H2 9198   0.784   3.594  13.229 -0.8050  1.3378  0.6593
  617MPD2    H3 9199   0.552   3.629  13.123  0.2160  0.4598 -0.6425
  617MPD2     N 9200   0.332   3.388  13.420 -0.2237  0.3473  0.1958
  617MPD2    H5 9201   0.248   3.416  13.370 -0.2753  0.7936  0.5377
  617MPD2    N1 9202   0.825   3.439  13.442 -0.1262  0.1063 -0.2147
  617MPD2    H7 9203   0.907   3.480  13.399  1.0045 -1.3136  0.5560
  618TMC3    C1 9204   0.970   3.320  13.585  0.3907 -0.1543 -0.5149
  618TMC3    C2 9205   0.975   3.198  13.646 -0.3682  0.2817 -0.0361
  618TMC3    C3 9206   1.054   3.195  13.759  0.3361 -0.5655 -0.0099
  618TMC3    C4 9207   1.034   3.437  13.624 -0.1395  1.1265 -0.5991
  618TMC3    C5 9208   1.114   3.429  13.734 -0.0534  0.2168 -0.0608
  618TMC3    C6 9209   1.111   3.313  13.809 -0.4213  0.9343 -0.3089
  618TMC3     C 9210   0.834   3.330  13.532  0.4349  0.7035  0.2948
  618TMC3     O 9211   0.763   3.233  13.556 -0.2444  0.4807  0.0525
  618TMC3     H 9212   0.924   3.110  13.609  0.3833 -0.9384  1.8603
  618TMC3    H1 9213   1.027   3.528  13.564  0.4350  0.4002 -1.7573
  618TMC3    H2 9214   1.182   3.302  13.890  2.3738  0.3254 -2.8451
  618TMC3    C7 9215   1.197   3.547  13.770  0.2486  0.4990  0.3607
  618TMC3    C8 9216   1.087   3.056  13.801 -0.7071  0.5555  0.9533
  618TMC3    O1 9217   1.158   3.649  13.710 -0.2905 -0.2118 -0.3922
  618TMC3    O2 9218   1.048   2.962  13.731  0.1421 -0.0942  0.3536
  619MPD2     C 9219   1.830   4.584  13.966 -0.0962 -0.5120 -0.2474
  619MPD2    C1 9220   1.762   4.677  13.889 -0.8660 -0.3235  0.5082
  619MPD2    C2 9221   1.629   4.659  13.868 -0.0495 -0.1061  0.6624
  619MPD2    C3 9222   1.559   4.553  13.915 -0.1229 -0.0594  0.0319
  619MPD2    C4 9223   1.623   4.464  13.996  0.1913  0.3377  0.1778
  619MPD2    C5 9224   1.760   4.478  14.017  0.7961  0.7372 -0.5859
  619MPD2     H 9225   1.572   0.000  13.817 -0.1914 -0.1099  0.8128
  619MPD2    H1 9226   1.564   4.384  14.039  0.9323 -0.3666 -0.1374
  619MPD2    H2 9227   1.938   4.588  13.962 -0.1164 -0.6143 -0.9484
  619MPD2    H3 9228   1.803   4.404  14.084 -2.6736 -0.5584  0.2153
  619MPD2     N 9229   1.419   4.534  13.893 -0.6619  0.0588  0.1837
  619MPD2    H5 9230   1.375   4.460  13.947  1.3663 -0.6952  0.8454
  619MPD2    N1 9231   1.828   0.046  13.823 -0.3187  0.5219  0.4633
  619MPD2    H7 9232   1.771   0.094  13.754 -1.4560  0.8426  1.6380
  620TMC3    C1 9233   1.985   0.201  13.747  0.5060 -0.0904  0.5811
  620TMC3    C2 9234   1.929   0.217  13.626  0.1034 -0.2748  0.4949
  620TMC3    C3 9235   1.955   0.331  13.549 -0.3305 -0.4799 -0.4206
  620TMC3    C4 9236   2.079   0.291  13.786 -0.0126  0.4141 -1.0583
  620TMC3    C5 9237   2.116   0.400  13.711 -0.7758 -0.3365 -0.0262
  620TMC3    C6 9238   2.047   0.420  13.593 -0.2985 -0.1145  0.0771
  620TMC3     C 9239   1.953   0.087  13.836  0.3610 -1.0848 -0.2965
  620TMC3     O 9240   2.030   0.050  13.923  0.3803 -0.2166  0.1096
  620TMC3     H 9241   1.859   0.140  13.594 -0.2854  0.6468 -0.8376
  620TMC3    H1 9242   2.096   0.286  13.893  1.4260  1.7788 -1.2309
  620TMC3    H2 9243   2.067   0.509  13.533  0.1355 -1.7429 -2.2052
  620TMC3    C7 9244   2.139   0.516  13.793  0.7314 -0.3038 -0.3956
  620TMC3    C8 9245   1.834   0.399  13.522 -0.8263  0.0524  0.7263
  620TMC3    O1 9246   2.228   0.521  13.881  0.0323  0.5626  0.1006
  620TMC3    O2 9247   1.809   0.492  13.598  1.0202  0.1772 -0.6539
  621MPD2     C 9248   1.891   0.936   9.538 -0.2551 -0.0279 -0.8199
  621MPD2    C1 9249   1.999   0.901   9.617 -0.2805  0.5434  0.0930
  621MPD2    C2 9250   2.106   0.987   9.628 -0.0016 -0.3097  0.5738
  621MPD2    C3 9251   2.121   1.095   9.544 -0.0674  0.0387  0.6874
  621MPD2    C4 9252   2.018   1.116   9.456  0.1196 -0.3357 -0.4546
  621MPD2    C5 9253   1.900   1.042   9.449  0.2907  0.6847 -0.1713
  621MPD2     H 9254   2.186   0.972   9.699  0.2095 -1.6984  0.0331
  621MPD2    H1 9255   2.024   1.198   9.386  5.2245  0.6126  1.0338
  621MPD2    H2 9256   1.800   0.879   9.553 -0.7636  1.3614  1.3790
  621MPD2    H3 9257   1.818   1.069   9.384 -1.0466  0.2942  1.3403
  621MPD2     N 9258   2.240   1.176   9.563 -0.2291  0.4018  0.0264
  621MPD2    H5 9259   2.315   1.150   9.626  0.2670  0.8334 -0.3930
  621MPD2    N1 9260   2.001   0.786   9.697  0.2665 -0.6402 -0.4962
  621MPD2    H7 9261   2.081   0.773   9.758 -0.3519 -0.9754  0.2381
  622TMC3    C1 9262   1.951   0.576   9.788  0.8368 -0.1321 -0.8476
  622TMC3    C2 9263   2.017   0.611   9.907 -0.3948 -0.1003 -0.5077
  622TMC3    C3 9264   2.008   0.519  10.008 -0.1805  0.0656 -0.2612
  622TMC3    C4 9265   1.881   0.461   9.774  0.2000 -0.0956 -0.4812
  622TMC3    C5 9266   1.881   0.367   9.871  0.5096  0.6491 -0.4389
  622TMC3    C6 9267   1.940   0.397   9.992  0.6610 -0.1483 -0.7226
  622TMC3     C 9268   1.914   0.679   9.696  0.1736  0.2527  1.1034
  622TMC3     O 9269   1.811   0.674   9.634 -0.2260  0.1809  0.2784
  622TMC3     H 9270   2.033   0.715   9.934  4.5591 -0.9023 -0.2750
  622TMC3    H1 9271   1.827   0.441   9.682 -1.5218 -0.7441  0.6770
  622TMC3    H2 9272   1.938   0.323  10.071 -1.9905  1.0985  0.3584
  622TMC3    C7 9273   1.794   0.257   9.851  0.2174  0.1344  0.5491
  622TMC3    C8 9274   2.025   0.574  10.136 -0.2371  0.4689  0.1780
  622TMC3    O1 9275   1.703   0.273   9.772 -0.0137 -0.1992  0.3435
  622TMC3    O2 9276   2.094   0.675  10.144 -0.3403  0.2861  0.0362
  623MPD2     C 9277   1.133   0.801  16.030  0.2981 -0.0024 -0.6525
  623MPD2    C1 9278   1.030   0.715  16.079  0.5039 -0.2496  0.2583
  623MPD2    C2 9279   1.065   0.596  16.152 -0.0235 -1.1034 -0.6469
  623MPD2    C3 9280   1.193   0.571  16.187  0.5077  0.0520  0.1660
  623MPD2    C4 9281   1.295   0.655  16.145 -0.5891 -0.6139 -0.8090
  623MPD2    C5 9282   1.261   0.767  16.070  0.6689 -0.6314 -0.1068
  623MPD2     H 9283   0.979   0.548  16.197 -0.4910  1.7431  1.4901
  623MPD2    H1 9284   1.398   0.641  16.176 -1.2127 -0.5857  1.2876
  623MPD2    H2 9285   1.110   0.888  15.970  0.6945 -0.4676 -1.4873
  623MPD2    H3 9286   1.348   0.827  16.047  1.7060 -0.9778  2.8812
  623MPD2     N 9287   1.208   0.459  16.272  0.3048  0.3638 -0.1255
  623MPD2    H5 9288   1.125   0.415  16.310 -0.3306 -0.1073 -2.0749
  623MPD2    N1 9289   0.899   0.747  16.040  0.3411  0.1346  0.3390
  623MPD2    H7 9290   0.888   0.839  15.998  1.6370 -0.6717 -1.7649
  624TMC3    C1 9291   1.303   0.333  16.675  0.7943 -0.1451  0.8885
  624TMC3    C2 9292   1.165   0.329  16.679  0.3767  0.6265  0.2524
  624TMC3    C3 9293   1.102   0.313  16.558 -0.1513 -0.0870  0.2577
  624TMC3    C4 9294   1.367   0.327  16.554 -0.2412 -0.1558  0.4649
  624TMC3    C5 9295   1.297   0.309  16.436  0.0215  0.8564 -0.8542
  624TMC3    C6 9296   1.166   0.279  16.445  1.0119  0.0848 -1.3562
  624TMC3     C 9297   1.367   0.272  16.788  0.5690 -0.5149 -0.0995
  624TMC3     O 9298   1.480   0.305  16.817  0.1748  0.7094 -0.2060
  624TMC3     H 9299   1.100   0.342  16.765 -2.0632 -2.7119 -1.0938
  624TMC3    H1 9300   1.471   0.358  16.551 -0.6548  1.3290  1.0288
  624TMC3    H2 9301   1.106   0.249  16.360 -0.2628  0.1982 -0.4919
  624TMC3    C7 9302   1.321   0.421  16.346  0.9572 -0.9994 -0.2312
  624TMC3    C8 9303   0.969   0.365  16.539 -0.5727  0.9656 -0.1679
  624TMC3    O1 9304   1.433   0.473  16.351 -0.6674 -0.5846  0.3063
  624TMC3    O2 9305   0.914   0.327  16.431  0.0563  0.2666 -0.3579
  625MPD2     C 9306   1.663   1.729   0.463 -0.0126  0.6164 -0.1238
  625MPD2    C1 9307   1.663   1.863   0.446 -0.4079  0.8793 -0.0764
  625MPD2    C2 9308   1.763   1.938   0.495 -0.2210  0.0166 -0.5496
  625MPD2    C3 9309   1.866   1.887   0.577  0.0774 -0.0499  0.4077
  625MPD2    C4 9310   1.856   1.749   0.600  0.7236  0.3761  0.6325
  625MPD2    C5 9311   1.762   1.675   0.537  0.1050  0.9036 -0.4646
  625MPD2     H 9312   1.759   2.046   0.491  1.3284  0.0639 -1.0149
  625MPD2    H1 9313   1.915   1.693   0.672 -0.2903 -0.2153  1.0145
  625MPD2    H2 9314   1.588   1.667   0.416 -0.8153 -0.3471  2.4336
  625MPD2    H3 9315   1.764   1.567   0.548  0.4619  1.1243  1.7323
  625MPD2     N 9316   1.932   1.973   0.659 -0.6274  0.0168 -0.3406
  625MPD2    H5 9317   1.916   2.071   0.641  1.2628  0.4203  0.1287
  625MPD2    N1 9318   1.570   1.947   0.370  0.4267 -0.2188  0.7388
  625MPD2    H7 9319   1.590   2.046   0.374  1.0088 -0.2473 -1.9983
  626TMC3    C1 9320   1.368   2.025   0.284 -0.7411 -0.1095  0.4783
  626TMC3    C2 9321   1.258   1.997   0.208  0.2117  0.9066  0.3759
  626TMC3    C3 9322   1.150   2.081   0.220  0.2775  0.5713  0.1260
  626TMC3    C4 9323   1.380   2.144   0.361  0.2364 -0.3215  0.3075
  626TMC3    C5 9324   1.274   2.227   0.354 -0.3008 -0.4859  0.9583
  626TMC3    C6 9325   1.153   2.197   0.292  0.1286 -0.6969  0.4541
  626TMC3     C 9326   1.449   1.909   0.315  0.0629  0.2417  0.4550
  626TMC3     O 9327   1.411   1.798   0.297 -0.5327  0.3690 -0.5894
  626TMC3     H 9328   1.249   1.900   0.161  1.3001  0.4064  1.2012
  626TMC3    H1 9329   1.471   2.167   0.416 -3.4223  0.0097  6.2103
  626TMC3    H2 9330   1.082   2.278   0.277  0.4851 -0.8364 -1.9757
  626TMC3    C7 9331   1.279   2.354   0.425 -0.4999 -0.6702  0.7143
  626TMC3    C8 9332   1.059   2.077   0.110 -0.1442 -0.0845 -0.2617
  626TMC3    O1 9333   1.388   2.393   0.453 -0.2546 -0.3704 -0.1554
  626TMC3    O2 9334   0.981   2.173   0.104 -0.2472  0.5482  0.1064
  627MPD2     C 9335   4.224   2.204  14.235 -0.3663  0.2143  0.4806
  627MPD2    C1 9336   4.354   2.185  14.271 -0.7075  0.1133 -0.6240
  627MPD2    C2 9337   4.413   2.061  14.259 -0.7272  0.5188 -0.8390
  627MPD2    C3 9338   4.333   1.957  14.208  0.0883 -0.4898 -0.1192
  627MPD2    C4 9339   4.199   1.978  14.178  0.6427 -0.1387  0.8057
  627MPD2    C5 9340   4.145   2.101  14.196 -0.7542 -0.2913  0.2210
  627MPD2     H 9341   4.521   2.054  14.265 -0.7255  2.1342  0.8010
  627MPD2    H1 9342   4.133   1.900  14.140  0.9613  0.3427 -0.7310
  627MPD2    H2 9343   4.179   2.299  14.261 -0.3601 -0.1160  1.7128
  627MPD2    H3 9344   4.039   2.107  14.177 -0.5360  1.0539 -0.6194
  627MPD2     N 9345   4.398   1.832  14.191 -0.7472  0.2553  0.0330
  627MPD2    H5 9346   4.499   1.840  14.201 -0.7220 -0.7327  0.6447
  627MPD2    N1 9347   4.438   2.291  14.307 -0.0186  0.6707 -0.0509
  627MPD2    H7 9348   4.525   2.262  14.350 -0.7014 -2.7215 -0.9091
  628TMC3    C1 9349   4.497   2.517  14.360  0.1415 -0.3792 -0.4930
  628TMC3    C2 9350   4.562   2.476  14.479 -0.2783 -0.1377 -0.4419
  628TMC3    C3 9351   4.603   2.577  14.565  1.2797 -0.0015  0.0866
  628TMC3    C4 9352   4.495   2.648  14.319 -0.0989  0.3370  0.1802
  628TMC3    C5 9353   4.542   2.747  14.398 -0.0327  0.2363  0.1028
  628TMC3    C6 9354   4.589   2.713  14.527 -0.1742  0.2780  0.5236
  628TMC3     C 9355   4.406   2.426  14.297  0.3370 -0.7640 -0.3394
  628TMC3     O 9356   4.313   2.482  14.235 -1.0363 -0.6896  0.2193
  628TMC3     H 9357   4.574   2.371  14.506  0.9054  0.5041  1.4693
  628TMC3    H1 9358   4.462   2.672  14.219  1.0601 -1.9168 -0.7456
  628TMC3    H2 9359   4.650   2.787  14.576  0.2502 -0.2343  0.7613
  628TMC3    C7 9360   4.526   2.887  14.370 -0.7338  0.1795 -0.3455
  628TMC3    C8 9361   4.699   2.551  14.671 -0.4827 -0.3493  0.7285
  628TMC3    O1 9362   4.542   2.971  14.459  0.6864  0.0834 -0.2215
  628TMC3    O2 9363   0.036   2.637  14.708  0.3404 -0.3186 -0.4860
  629MPD2     C 9364   3.078   0.923  15.961  0.5539  0.5847  0.3139
  629MPD2    C1 9365   3.066   0.898  16.092  0.6085  0.4647  0.1075
  629MPD2    C2 9366   2.978   0.802  16.138 -0.2308  0.1507 -0.2338
  629MPD2    C3 9367   2.910   0.727  16.044  0.1103  0.7135 -0.3522
  629MPD2    C4 9368   2.932   0.740  15.909 -0.3458  0.7286 -0.1844
  629MPD2    C5 9369   3.010   0.850  15.869 -0.5066  0.0678  0.1259
  629MPD2     H 9370   2.968   0.787  16.245 -2.5014  0.7163 -0.3686
  629MPD2    H1 9371   2.867   0.703  15.831  1.9793 -0.9273 -1.3370
  629MPD2    H2 9372   3.141   0.995  15.911  1.1975  0.4366  0.9049
  629MPD2    H3 9373   3.025   0.872  15.764 -0.7969 -2.4762 -0.4619
  629MPD2     N 9374   2.795   0.645  16.089 -0.1578  0.2763  0.1298
  629MPD2    H5 9375   2.783   0.646  16.190  2.9752  1.4278  0.5017
  629MPD2    N1 9376   3.142   0.979  16.178  0.0636  0.1253 -0.4000
  629MPD2    H7 9377   3.195   1.052  16.132  1.5143  0.4336  1.7534
  630TMC3    C1 9378   3.251   1.054  16.371  0.0431  0.6233  0.6785
  630TMC3    C2 9379   3.252   1.186  16.331  0.1500 -0.0891  0.2448
  630TMC3    C3 9380   3.304   1.276  16.417 -0.2465  1.0097  1.2896
  630TMC3    C4 9381   3.289   1.018  16.500 -0.4519 -0.1401  0.8112
  630TMC3    C5 9382   3.352   1.113  16.570 -0.3513 -0.2819 -0.1766
  630TMC3    C6 9383   3.359   1.243  16.541 -0.4851  0.0123  0.4427
  630TMC3     C 9384   3.161   0.959  16.310  0.2341  0.2595 -0.0567
  630TMC3     O 9385   3.125   0.871  16.386 -0.1960 -0.1812  0.0715
  630TMC3     H 9386   3.217   1.218  16.233  0.5629  0.3854  0.2563
  630TMC3    H1 9387   3.302   0.912  16.517 -2.6698 -0.5858 -0.3032
  630TMC3    H2 9388   3.410   1.319  16.600 -0.3872 -0.6401  1.1910
  630TMC3    C7 9389   3.468   1.065  16.643  0.2907 -0.9620  0.1352
  630TMC3    C8 9390   3.391   1.377  16.353  0.0850  0.6294 -0.6137
  630TMC3    O1 9391   3.476   0.951  16.678 -0.8602  0.1684 -0.7369
  630TMC3    O2 9392   3.500   1.398  16.407  0.2875 -0.4672  0.0866
  631MPD2     C 9393   1.091   0.637  15.250  0.6897 -0.0741 -0.0864
  631MPD2    C1 9394   1.144   0.744  15.183 -0.2621 -1.0293 -0.7688
  631MPD2    C2 9395   1.280   0.747  15.168  0.3136 -0.2568 -0.1766
  631MPD2    C3 9396   1.366   0.661  15.231  0.0978 -0.6951  0.5603
  631MPD2    C4 9397   1.307   0.558  15.310  0.6422  0.4060 -0.2453
  631MPD2    C5 9398   1.176   0.552  15.320  0.4046 -0.3009  0.2301
  631MPD2     H 9399   1.331   0.831  15.122 -1.1534  2.5583  3.2976
  631MPD2    H1 9400   1.367   0.497  15.375 -0.9096  0.7633  1.5045
  631MPD2    H2 9401   0.987   0.609  15.256  0.5541  0.3482 -0.4882
  631MPD2    H3 9402   1.133   0.478  15.385  0.3753  0.2373  0.8232
  631MPD2     N 9403   1.503   0.694  15.221 -0.4985 -0.0680  0.1075
  631MPD2    H5 9404   1.526   0.763  15.150  0.2638  0.7545  1.1720
  631MPD2    N1 9405   1.055   0.849  15.133 -0.1140 -0.8926 -0.0217
  631MPD2    H7 9406   0.955   0.850  15.149 -0.1229 -0.0054 -0.1632
  632TMC3    C1 9407   1.011   1.061  15.032  0.4224  0.2880  0.4429
  632TMC3    C2 9408   0.948   1.114  15.139 -0.1403  0.3810  0.1206
  632TMC3    C3 9409   0.928   1.250  15.134  0.3150 -0.1179  0.2345
  632TMC3    C4 9410   1.035   1.135  14.919 -0.0872  0.3027 -0.4471
  632TMC3    C5 9411   1.006   1.268  14.916 -0.9719  1.0531 -0.2427
  632TMC3    C6 9412   0.961   1.329  15.031  0.3091 -0.1189 -0.6753
  632TMC3     C 9413   1.098   0.947  15.041  0.4532  0.2178  0.2050
  632TMC3     O 9414   1.203   0.952  14.974 -0.0619 -0.1061 -0.5437
  632TMC3     H 9415   0.933   1.052  15.226 -1.9136 -0.7112 -0.9637
  632TMC3    H1 9416   1.075   1.083  14.833  3.1280 -1.6287  2.2002
  632TMC3    H2 9417   0.932   1.433  15.030  3.1593  0.6794  0.6313
  632TMC3    C7 9418   1.068   1.341  14.813  0.0367 -0.3220 -0.9421
  632TMC3    C8 9419   0.882   1.318  15.257  0.1664  0.0116  0.0546
  632TMC3    O1 9420   1.074   1.275  14.710 -0.0892 -0.3962 -0.5905
  632TMC3    O2 9421   0.825   1.251  15.344 -0.1223  0.3737  0.2316
  633MPD2     C 9422   0.735   3.802  17.340  0.1202 -0.1727  0.2428
  633MPD2    C1 9423   0.688   3.690  17.274  0.5675 -0.5461 -0.0523
  633MPD2    C2 9424   0.743   3.568  17.303 -0.6199 -0.1464  0.6011
  633MPD2    C3 9425   0.838   3.556  17.399 -0.6626  0.0047 -0.5506
  633MPD2    C4 9426   0.895   3.669  17.456  0.3419 -0.7732 -0.1292
  633MPD2    C5 9427   0.840   3.788  17.427  0.6316  0.9992  0.2058
  633MPD2     H 9428   0.709   3.481  17.248  0.6521 -0.3104  0.0780
  633MPD2    H1 9429   0.978   3.672  17.526 -0.6057 -0.1403  0.9688
  633MPD2    H2 9430   0.695   3.902  17.325  0.5589  0.1430  1.1667
  633MPD2    H3 9431   0.875   3.881  17.471  1.0763  1.0035 -0.1483
  633MPD2     N 9432   0.912   3.437  17.430 -0.0617  0.1502 -0.0405
  633MPD2    H5 9433   1.006   3.442  17.469 -0.0852  2.1658 -0.2268
  633MPD2    N1 9434   0.606   3.695  17.154  0.0864 -1.1343  0.6197
  633MPD2    H7 9435   0.597   3.603  17.111  1.3700 -1.1422  0.3535
  634TMC3    C1 9436   0.541   3.797  16.948 -0.0626  0.3891 -0.6981
  634TMC3    C2 9437   0.513   3.678  16.892 -0.6705  0.2766 -0.5353
  634TMC3    C3 9438   0.504   3.675  16.755  0.2339  0.0380 -0.7436
  634TMC3    C4 9439   0.571   3.910  16.885  0.1677  0.7748  0.2338
  634TMC3    C5 9440   0.589   3.900  16.752  0.7605 -0.0432 -0.7490
  634TMC3    C6 9441   0.551   3.786  16.685 -0.1832  0.5240 -0.8405
  634TMC3     C 9442   0.564   3.807  17.091 -0.0657 -0.3785 -0.1099
  634TMC3     O 9443   0.566   3.921  17.141 -0.0923 -0.1375 -0.0192
  634TMC3     H 9444   0.491   3.594  16.957  0.4601  1.3560  1.2611
  634TMC3    H1 9445   0.602   4.000  16.935 -2.5110  2.2312 -0.7145
  634TMC3    H2 9446   0.549   3.779  16.577 -0.4264  0.2677 -0.8179
  634TMC3    C7 9447   0.653   4.004  16.678  0.4404  0.2658 -0.2993
  634TMC3    C8 9448   0.504   3.540  16.695  0.1674 -0.2530 -0.0697
  634TMC3    O1 9449   0.689   3.977  16.563  0.5645  0.3716  0.4626
  634TMC3    O2 9450   0.566   3.452  16.746  0.3830  0.5317  0.2294
  635TMC3    C1 9451   2.366   0.196   0.069  0.0459  0.2628 -1.0595
  635TMC3    C2 9452   2.240   0.154   0.045  0.3288 -0.3760  0.2784
  635TMC3    C3 9453   2.216   0.071  17.681 -0.3778 -0.2210  0.0287
  635TMC3    C4 9454   2.469   0.163  17.724  0.2456  0.4705  0.1146
  635TMC3    C5 9455   2.437   0.081  17.619 -0.5606 -0.3244  0.3950
  635TMC3    C6 9456   2.315   0.026  17.600 -0.2872 -0.2494 -0.5131
  635TMC3     C 9457   2.376   0.290   0.181 -0.1427  0.4746 -0.0614
  635TMC3     O 9458   2.290   0.285   0.267  0.9792  0.5024  0.2463
  635TMC3     H 9459   2.164   0.183   0.117  1.1442  1.6238  0.3190
  635TMC3    H1 9460   2.566   0.213  17.730  0.7820 -0.6777  0.9323
  635TMC3    H2 9461   2.293   4.689  17.522 -0.1633  0.0196 -0.7984
  635TMC3    C7 9462   2.532   0.043  17.520 -0.0646  0.1049 -0.0401
  635TMC3    C8 9463   2.073   0.056  17.658 -0.2850 -0.9470  0.3730
  635TMC3    O1 9464   2.499   4.688  17.448  0.2238 -0.0316 -0.5781
  635TMC3    O2 9465   1.998   0.109  17.735  0.6602 -0.4301 -0.1690
  636MPD2     C 9466   2.357   3.597  15.722 -0.6128 -0.0450 -0.2344
  636MPD2    C1 9467   2.383   3.620  15.855 -0.1255  0.8529  0.1595
  636MPD2    C2 9468   2.475   3.547  15.922  0.1245  0.5955  0.1543
  636MPD2    C3 9469   2.566   3.464  15.856 -0.6746 -0.0154 -0.0324
  636MPD2    C4 9470   2.542   3.444  15.720  0.2511  0.0781  0.1592
  636MPD2    C5 9471   2.438   3.508  15.655  0.8005 -0.2149  0.0283
  636MPD2     H 9472   2.497   3.578  16.023 -1.4489  1.9937  0.0721
  636MPD2    H1 9473   2.616   3.387  15.665 -1.4653 -1.3296 -0.7270
  636MPD2    H2 9474   2.272   3.636  15.667 -1.9348 -2.3785  0.1406
  636MPD2    H3 9475   2.410   3.496  15.551  0.0012  0.8919  0.1093
  636MPD2     N 9476   2.677   3.410  15.921 -0.2138 -0.1123 -0.2212
  636MPD2    H5 9477   2.675   3.418  16.022  5.1332  0.0410 -0.1222
  636MPD2    N1 9478   2.304   3.698  15.938  0.4614 -0.5102  0.0160
  636MPD2    H7 9479   2.327   3.705  16.037  0.5635 -5.0085  0.3128
  637TMC3    C1 9480   2.893   3.312  15.956  0.7289  0.1528 -0.8582
  637TMC3    C2 9481   2.839   3.266  16.077  0.3303  0.0937 -0.0362
  637TMC3    C3 9482   2.897   3.286  16.194  0.0628 -0.5906 -0.8066
  637TMC3    C4 9483   3.017   3.367  15.961 -0.2570 -0.1426 -0.6523
  637TMC3    C5 9484   3.066   3.407  16.081 -0.0040  0.2656  0.6705
  637TMC3    C6 9485   3.019   3.353  16.201  0.1036 -0.2910 -0.4376
  637TMC3     C 9486   2.797   3.374  15.859  0.2972 -0.5529  0.2040
  637TMC3     O 9487   2.835   3.399  15.741  0.6870  0.1229  0.6796
  637TMC3     H 9488   2.738   3.225  16.073  1.4913 -2.7845  0.3218
  637TMC3    H1 9489   3.049   3.411  15.867  0.4970  1.9576  0.5735
  637TMC3    H2 9490   3.057   3.379  16.299  1.1085 -1.2144 -0.5917
  637TMC3    C7 9491   3.084   3.552  16.103 -0.0083 -0.4600 -0.5565
  637TMC3    C8 9492   2.800   3.344  16.286  0.6917  0.8387 -0.4397
  637TMC3    O1 9493   3.043   3.594  16.210  0.3898 -0.2831 -0.0256
  637TMC3    O2 9494   2.736   3.436  16.235  0.7599 -0.0342 -0.1109
  638MPD2     C 9495   2.213   2.830  15.046 -0.0880 -0.3756 -0.4965
  638MPD2    C1 9496   2.179   2.743  14.950 -0.2575 -0.2105 -0.4102
  638MPD2    C2 9497   2.096   2.640  14.980  0.5586  0.4593 -0.4504
  638MPD2    C3 9498   2.054   2.620  15.105  0.1387  0.2022 -0.1762
  638MPD2    C4 9499   2.075   2.712  15.198 -0.1946  0.2375  0.2205
  638MPD2    C5 9500   2.156   2.813  15.169  0.3523 -0.3215 -0.0419
  638MPD2     H 9501   2.084   2.563  14.904  0.3107 -0.1215  0.1840
  638MPD2    H1 9502   2.039   2.716  15.300 -0.4496  2.9676  0.0069
  638MPD2    H2 9503   2.272   2.920  15.027  0.1675 -0.3130  0.6020
  638MPD2    H3 9504   2.182   2.894  15.235  1.9626 -2.3505  1.8024
  638MPD2     N 9505   1.992   2.497  15.140  0.3777  0.4338  0.0644
  638MPD2    H5 9506   1.954   2.442  15.064  1.8098  1.4148 -1.3685
  638MPD2    N1 9507   2.227   2.743  14.817  0.3460 -0.2382  0.0366
  638MPD2    H7 9508   2.194   2.671  14.753 -0.2312 -0.2502  0.3448
  639TMC3    C1 9509   1.977   2.302  15.249 -0.5138 -0.3916 -0.1463
  639TMC3    C2 9510   1.899   2.246  15.150  0.1413 -0.2065  0.8177
  639TMC3    C3 9511   1.924   2.119  15.105  0.0624 -0.5834  0.2416
  639TMC3    C4 9512   2.088   2.241  15.296  1.1295 -0.2812  0.0513
  639TMC3    C5 9513   2.117   2.117  15.232  0.1216 -0.3000 -0.0489
  639TMC3    C6 9514   2.028   2.049  15.156 -0.8206  0.3821  0.0001
  639TMC3     C 9515   1.970   2.447  15.267 -0.4505 -0.0142  0.4516
  639TMC3     O 9516   2.007   2.492  15.374 -0.2970 -0.0716 -0.5001
  639TMC3     H 9517   1.820   2.306  15.105  1.9300  0.9393 -0.7783
  639TMC3    H1 9518   2.164   2.291  15.355  0.1340  2.9113 -1.3746
  639TMC3    H2 9519   2.053   1.949  15.121  1.8467  0.5581  1.3959
  639TMC3    C7 9520   2.244   2.056  15.266 -0.2780  0.0005 -1.3195
  639TMC3    C8 9521   1.866   2.070  14.981 -0.5527  0.0603  0.4646
  639TMC3    O1 9522   2.246   1.934  15.277 -0.2966  0.2484  0.2964
  639TMC3    O2 9523   1.924   1.985  14.921  0.3714 -0.1369 -0.4740
  640MPD2     C 9524   3.239   2.254  10.387 -1.1286  0.3499 -0.3541
  640MPD2    C1 9525   3.161   2.210  10.290  0.1724 -0.4941  0.1914
  640MPD2    C2 9526   3.026   2.198  10.303  0.6416 -0.3866  0.5332
  640MPD2    C3 9527   2.964   2.235  10.421  0.0510 -0.2667  0.1513
  640MPD2    C4 9528   3.042   2.287  10.520 -1.1459 -0.3540  0.1085
  640MPD2    C5 9529   3.176   2.290  10.501  0.7294  0.2391 -0.1504
  640MPD2     H 9530   2.968   2.156  10.221  2.3965 -0.0788 -0.8619
  640MPD2    H1 9531   3.008   2.326  10.616 -2.9698 -2.6873  0.4093
  640MPD2    H2 9532   3.346   2.256  10.373 -1.0728 -1.5565 -0.2954
  640MPD2    H3 9533   3.231   2.324  10.588  1.6245 -1.1038 -0.2021
  640MPD2     N 9534   2.830   2.235  10.453  0.3522 -0.1721  0.1616
  640MPD2    H5 9535   2.815   2.263  10.550  0.6114  2.0320 -0.4257
  640MPD2    N1 9536   3.228   2.161  10.173  0.0984 -0.1601 -0.9588
  640MPD2    H7 9537   3.327   2.186  10.167 -0.1915  1.4020  0.8931
  641TMC3    C1 9538   3.280   2.034   9.987 -0.3632 -0.7799 -0.3042
  641TMC3    C2 9539   3.263   1.912   9.938 -0.4456  0.1998 -0.3994
  641TMC3    C3 9540   3.365   1.842   9.880  0.0871 -0.2790  0.7753
  641TMC3    C4 9541   3.401   2.097   9.969 -0.3105  0.4913 -0.4835
  641TMC3    C5 9542   3.494   2.029   9.895 -0.2191  0.1740 -0.2906
  641TMC3    C6 9543   3.479   1.903   9.845  0.3091 -0.1217 -0.2089
  641TMC3     C 9544   3.181   2.069  10.087 -0.3594  0.2232 -0.0220
  641TMC3     O 9545   3.077   2.005  10.088  0.0603  0.1391 -0.4487
  641TMC3     H 9546   3.178   1.849   9.962  0.8543 -1.3101  0.2555
  641TMC3    H1 9547   3.419   2.194  10.014 -0.5990  1.9519 -3.5262
  641TMC3    H2 9548   3.560   1.859   9.788  0.3902  0.2513 -0.3804
  641TMC3    C7 9549   3.583   2.109   9.813 -0.1326 -0.4576 -0.0326
  641TMC3    C8 9550   3.320   1.722   9.815 -0.3048 -0.8681  0.3681
  641TMC3    O1 9551   3.702   2.080   9.824  0.0562  0.2229 -0.1594
  641TMC3    O2 9552   3.201   1.717   9.791  0.0836  0.5077 -0.2026
  642TMC3    C1 9553   3.360   2.701  12.776  0.4391 -0.6122  0.3843
  642TMC3    C2 9554   3.493   2.701  12.735 -0.5354 -0.1004  0.8575
  642TMC3    C3 9555   3.558   2.584  12.742  0.3553  0.5588  0.1406
  642TMC3    C4 9556   3.297   2.582  12.820  0.5485 -0.1653 -0.2989
  642TMC3    C5 9557   3.370   2.470  12.828 -0.4317 -0.2286 -0.0841
  642TMC3    C6 9558   3.502   2.467  12.789  0.3022  0.4480 -0.2923
  642TMC3     C 9559   3.284   2.812  12.718  0.2180 -0.5717 -0.0971
  642TMC3     O 9560   3.344   2.883  12.638 -0.1627 -0.1054  0.4679
  642TMC3     H 9561   3.534   2.791  12.691 -1.9548 -0.2367 -0.7308
  642TMC3    H1 9562   3.190   2.570  12.830  0.2565  0.0050 -3.1639
  642TMC3    H2 9563   3.555   2.372  12.788 -0.0157  0.2477  2.8228
  642TMC3    C7 9564   3.302   2.344  12.830  0.5806  0.3587  0.5763
  642TMC3    C8 9565   3.695   2.570  12.690  0.6953 -0.0365  0.2433
  642TMC3    O1 9566   3.187   2.349  12.790 -0.2903  0.6359 -0.3499
  642TMC3    O2 9567   3.740   2.459  12.673 -0.0537 -0.4570 -0.4208
  643TMC3    C1 9568   3.037   1.865   0.017  0.0466  0.4969  0.4920
  643TMC3    C2 9569   2.928   1.908  17.686  0.1337 -0.5078 -0.7435
  643TMC3    C3 9570   2.903   1.841  17.569  0.4365  0.5221  0.0526
  643TMC3    C4 9571   3.125   1.767  17.720  0.3610 -0.1427 -0.0990
  643TMC3    C5 9572   3.090   1.700  17.604 -0.2223  0.2226 -0.0314
  643TMC3    C6 9573   2.986   1.740  17.526  0.1159 -0.4202 -0.1894
  643TMC3     C 9574   3.054   1.934   0.145  0.3167  0.1317  0.1589
  643TMC3     O 9575   3.017   2.051   0.142 -0.4640 -0.6899  1.3646
  643TMC3     H 9576   2.860   1.986  17.719  0.2653 -0.2912 -0.9792
  643TMC3    H1 9577   3.211   1.735   0.036  0.3590 -1.6309 -0.9204
  643TMC3    H2 9578   2.977   1.678  17.437 -1.3942  0.4232 -0.6304
  643TMC3    C7 9579   3.149   1.567  17.587  0.1642 -0.2139  0.2883
  643TMC3    C8 9580   2.853   1.920  17.456 -0.5152 -0.4098  0.5715
  643TMC3    O1 9581   3.159   1.504  17.687 -0.4490  0.1162  0.2973
  643TMC3    O2 9582   2.817   1.860  17.355  0.1880 -0.4656 -0.2276
  644MPD2     C 9583   3.492   2.564  10.119 -0.5493  0.0827  0.1721
  644MPD2    C1 9584   3.476   2.633  10.000  0.0364 -0.6275  0.1262
  644MPD2    C2 9585   3.344   2.675   9.958 -0.6119  0.2749  0.1928
  644MPD2    C3 9586   3.229   2.628  10.013 -0.0402  0.0862 -0.4331
  644MPD2    C4 9587   3.245   2.536  10.111 -0.5529  0.6324  0.2316
  644MPD2    C5 9588   3.368   2.510  10.165  1.1849  0.5404  0.0445
  644MPD2     H 9589   3.342   2.737   9.869 -0.5848  2.7614  1.9305
  644MPD2    H1 9590   3.159   2.492  10.160  0.0843 -0.2919  0.5259
  644MPD2    H2 9591   3.588   2.536  10.161 -0.2326  3.1746  1.4850
  644MPD2    H3 9592   3.362   2.451  10.256  0.5386 -2.1622 -1.7617
  644MPD2     N 9593   3.102   2.672   9.971  0.5054 -0.7777 -0.2772
  644MPD2    H5 9594   3.120   2.752   9.910  2.8398 -0.7044  0.5076
  644MPD2    N1 9595   3.595   2.684   9.940 -0.9665  0.5548 -0.7498
  644MPD2    H7 9596   3.683   2.659   9.986 -2.5893 -1.0860  1.4378
  645TMC3    C1 9597   2.866   2.716   9.957 -0.4906 -0.4541  0.3300
  645TMC3    C2 9598   2.746   2.656   9.942 -0.6868  0.1296 -0.0128
  645TMC3    C3 9599   2.655   2.716   9.853  0.1148 -0.5694 -0.3973
  645TMC3    C4 9600   2.901   2.823   9.885 -0.6260  0.5489 -0.6120
  645TMC3    C5 9601   2.809   2.880   9.802  0.0593 -0.3246  0.1030
  645TMC3    C6 9602   2.687   2.823   9.783  0.1393 -0.3537  0.8493
  645TMC3     C 9603   2.979   2.635  10.013  0.0495  0.0761  0.3513
  645TMC3     O 9604   2.951   2.536  10.085 -0.0757  0.2931 -0.2082
  645TMC3     H 9605   2.730   2.561   9.990  0.0024  0.2732  0.5020
  645TMC3    H1 9606   2.990   2.877   9.918 -2.1688  2.5308  0.3320
  645TMC3    H2 9607   2.609   2.867   9.721  2.1330  1.4184 -0.3917
  645TMC3    C7 9608   2.858   2.987   9.714 -0.6759 -0.0663 -0.5552
  645TMC3    C8 9609   2.565   2.629   9.793  0.3341  0.5585 -0.1956
  645TMC3    O1 9610   2.965   3.032   9.749  0.4856 -0.2520 -0.2267
  645TMC3    O2 9611   2.558   2.638   9.674  0.3329 -0.0594 -0.2992
  646MPD2     C 9612   2.365   1.503  14.249 -0.4837  0.0133  0.5781
  646MPD2    C1 9613   2.270   1.478  14.348  0.5670  0.6148 -1.0254
  646MPD2    C2 9614   2.150   1.545  14.350 -0.9062 -0.3022  0.0990
  646MPD2    C3 9615   2.126   1.641  14.257  0.3947  0.3072 -0.2327
  646MPD2    C4 9616   2.224   1.675  14.166 -0.2058 -0.1357  0.0155
  646MPD2    C5 9617   2.342   1.601  14.159 -0.8893 -0.0559  0.1821
  646MPD2     H 9618   2.069   1.512  14.414 -0.4493 -0.3520  0.6578
  646MPD2    H1 9619   2.207   1.756  14.096  1.4478 -0.4285 -0.7116
  646MPD2    H2 9620   2.454   1.442  14.236  0.1584  0.6397  2.0522
  646MPD2    H3 9621   2.420   1.623  14.087 -0.5484 -1.3188  0.1711
  646MPD2     N 9622   1.999   1.706  14.260  0.2725 -0.1130  0.0782
  646MPD2    H5 9623   1.943   1.689  14.342  0.5383 -1.2811  0.0114
  646MPD2    N1 9624   2.297   1.369  14.432  0.4063  0.6721  0.6287
  646MPD2    H7 9625   2.375   1.314  14.398  1.2120  2.2439 -0.0659
  647TMC3    C1 9626   2.296   1.235  14.627  0.3036 -0.4771 -0.1992
  647TMC3    C2 9627   2.220   1.155  14.710 -0.5541 -0.2949  0.6359
  647TMC3    C3 9628   2.275   1.090  14.810  0.2526  0.4037 -0.2383
  647TMC3    C4 9629   2.433   1.236  14.640  0.0937  0.0195  0.0547
  647TMC3    C5 9630   2.489   1.174  14.748  0.0878  0.5444 -0.0527
  647TMC3    C6 9631   2.405   1.101  14.839  0.8396 -0.2515  0.8846
  647TMC3     C 9632   2.221   1.322  14.537 -0.0996  0.2242 -0.3576
  647TMC3     O 9633   2.110   1.353  14.576 -0.4091  0.5604  0.5756
  647TMC3     H 9634   2.112   1.157  14.695 -0.2477 -0.8222 -1.5716
  647TMC3    H1 9635   2.483   1.300  14.569 -3.3096  0.2191 -2.1685
  647TMC3    H2 9636   2.449   1.024  14.901 -1.0084 -2.4951 -0.6032
  647TMC3    C7 9637   2.621   1.202  14.789 -0.2119 -0.7401 -0.3156
  647TMC3    C8 9638   2.200   1.003  14.896  0.1865  0.4767 -0.1320
  647TMC3    O1 9639   2.658   1.146  14.893  0.0771  0.3634 -0.0376
  647TMC3    O2 9640   2.240   0.994  15.009 -0.4899  0.0757 -0.2023
  648TMC3    C1 9641   1.373   3.440  16.190 -0.2748  0.0789 -0.2268
  648TMC3    C2 9642   1.492   3.379  16.215  0.3764  0.3785  0.5194
  648TMC3    C3 9643   1.576   3.366  16.111  0.2027 -0.2420  0.0824
  648TMC3    C4 9644   1.353   3.506  16.070  0.4518  0.0217 -0.3262
  648TMC3    C5 9645   1.441   3.485  15.969  0.5628 -0.4525  1.1214
  648TMC3    C6 9646   1.547   3.409  15.987 -0.5978  0.1515 -0.8676
  648TMC3     C 9647   1.272   3.428  16.297 -0.8201 -0.0501 -0.0153
  648TMC3     O 9648   1.315   3.406  16.410  0.4902 -0.1252  0.3462
  648TMC3     H 9649   1.501   3.324  16.308  0.6812  0.8874  0.7866
  648TMC3    H1 9650   1.263   3.564  16.050 -0.0696 -0.6221  0.1763
  648TMC3    H2 9651   1.602   3.393  15.895  1.3822  2.7878 -0.1397
  648TMC3    C7 9652   1.439   3.579  15.857  0.1855 -0.6013  0.1599
  648TMC3    C8 9653   1.695   3.276  16.136 -0.4326 -0.5776 -0.5606
  648TMC3    O1 9654   1.481   3.541  15.746  0.4249  0.0475 -0.2061
  648TMC3    O2 9655   1.726   3.253  16.253  0.7822 -0.5991 -0.2446
  649TMC3    C1 9656   0.618   0.340  12.766 -0.8805 -0.1154  0.2889
  649TMC3    C2 9657   0.755   0.343  12.765 -0.0515 -0.6686 -0.6084
  649TMC3    C3 9658   0.819   0.265  12.858  0.1137  0.7393 -0.3177
  649TMC3    C4 9659   0.554   0.268  12.862  0.1767 -0.0781  0.0553
  649TMC3    C5 9660   0.616   0.183  12.947 -0.3866 -0.9131 -0.4707
  649TMC3    C6 9661   0.756   0.179  12.949  0.2503 -0.0011 -0.5660
  649TMC3     C 9662   0.545   0.455  12.711 -0.1462 -0.8172 -0.4505
  649TMC3     O 9663   0.436   0.490  12.750  0.0173  0.7750 -0.2343
  649TMC3     H 9664   0.814   0.408  12.702  0.0383  0.3857  0.5425
  649TMC3    H1 9665   0.446   0.273  12.871  0.2860  1.2943  0.5958
  649TMC3    H2 9666   0.812   0.130  13.028 -1.5561  1.0726  1.3928
  649TMC3    C7 9667   0.535   0.123  13.053 -0.3942 -0.3945  0.3814
  649TMC3    C8 9668   0.966   0.271  12.861  0.9484 -0.2738 -0.1009
  649TMC3    O1 9669   0.431   0.178  13.086  0.8427 -0.3926  0.2600
  649TMC3    O2 9670   1.026   0.222  12.953 -0.1103  0.2802  0.2331
  650TMC3    C1 9671   2.942   1.805  12.954 -0.9647  0.7841  0.0186
  650TMC3    C2 9672   2.880   1.920  13.006 -0.0389  0.1668  0.0155
  650TMC3    C3 9673   2.856   2.027  12.919  1.3089  0.1876 -0.5491
  650TMC3    C4 9674   2.958   1.784  12.821  0.4072  0.4690 -0.7424
  650TMC3    C5 9675   2.922   1.883  12.734  0.3511  0.1872 -0.6785
  650TMC3    C6 9676   2.879   2.007  12.783  0.7731  0.0675 -0.5538
  650TMC3     C 9677   2.983   1.697  13.042  0.1669 -0.7195  0.4747
  650TMC3     O 9678   2.933   1.703  13.151  0.0368  0.0869  0.0182
  650TMC3     H 9679   2.850   1.919  13.110  0.4853 -1.0135  0.1492
  650TMC3    H1 9680   2.984   1.686  12.782 -1.1418  0.3695 -1.5093
  650TMC3    H2 9681   2.846   2.094  12.727  0.4013 -0.6883 -1.5046
  650TMC3    C7 9682   2.878   1.832  12.608  0.1096 -0.0928 -0.5169
  650TMC3    C8 9683   2.771   2.141  12.954 -0.2887 -0.0179  0.1338
  650TMC3    O1 9684   2.853   1.713  12.589 -0.1458 -0.2972 -0.1665
  650TMC3    O2 9685   2.754   2.236  12.875 -0.4111 -0.3396  0.1251
  651MPD2     C 9686   2.130   4.248  11.030  0.1150  0.3901  0.1378
  651MPD2    C1 9687   2.077   4.282  10.900 -0.3463  0.5642 -0.6041
  651MPD2    C2 9688   2.157   4.266  10.792  0.6659 -0.4745  0.3715
  651MPD2    C3 9689   2.291   4.232  10.808 -0.5795 -0.3119  0.5605
  651MPD2    C4 9690   2.338   4.205  10.933  0.1558  0.1196  0.0501
  651MPD2    C5 9691   2.261   4.224  11.040  0.2294 -0.1189  0.3857
  651MPD2     H 9692   2.129   4.297  10.691 -1.3111 -2.6352  0.2744
  651MPD2    H1 9693   2.444   4.192  10.954  0.7967  0.9530 -2.5934
  651MPD2    H2 9694   2.075   4.249  11.123  2.4584  1.5188  1.5124
  651MPD2    H3 9695   2.305   4.211  11.138  1.7426 -0.9995 -0.4188
  651MPD2     N 9696   2.366   4.231  10.689 -0.0542 -0.2703  0.6451
  651MPD2    H5 9697   2.309   4.235  10.606  1.6927 -1.0198 -0.5846
  651MPD2    N1 9698   1.942   4.324  10.881 -0.3743  0.2663 -0.3072
  651MPD2    H7 9699   1.910   4.341  10.787 -0.8050  0.6080 -0.0982
  652TMC3    C1 9700   2.786   4.327  10.498 -0.7194 -0.4671 -0.2020
  652TMC3    C2 9701   2.707   4.240  10.570 -0.3321  0.0539  0.6190
  652TMC3    C3 9702   2.570   4.240  10.563  0.4737  0.1612 -0.4216
  652TMC3    C4 9703   2.728   4.429  10.425  0.2884 -0.0084 -0.4505
  652TMC3    C5 9704   2.592   4.436  10.421  0.0823  0.2858  0.0533
  652TMC3    C6 9705   2.510   4.337  10.480 -0.5539  0.1897  1.0625
  652TMC3     C 9706   2.914   4.353  10.567  0.9017  0.0646  0.9500
  652TMC3     O 9707   2.912   4.332  10.689 -0.3416 -0.3231  0.4863
  652TMC3     H 9708   2.763   4.160  10.617 -0.2482  0.6371  1.4953
  652TMC3    H1 9709   2.784   4.488  10.354  0.6274 -2.5072 -2.2530
  652TMC3    H2 9710   2.402   4.351  10.475 -0.3979  0.7625 -0.6417
  652TMC3    C7 9711   2.534   4.539  10.332  0.3286 -0.3845  0.0449
  652TMC3    C8 9712   2.500   4.208  10.689 -0.1672  0.7529 -0.4141
  652TMC3    O1 9713   2.428   4.516  10.277  0.1219 -0.2169  0.2302
  652TMC3    O2 9714   2.577   4.186  10.785  0.1425  0.1154  0.1763
  653MPD2     C 9715   0.576   3.990   0.006 -0.4494 -0.4509 -0.2944
  653MPD2    C1 9716   0.500   4.019  17.636 -0.0676 -0.2678 -0.2555
  653MPD2    C2 9717   0.458   3.908  17.560  0.1655 -0.3547 -0.1994
  653MPD2    C3 9718   0.482   3.780  17.603 -0.0622 -0.0514  0.1644
  653MPD2    C4 9719   0.557   3.755  17.718  0.3717  0.4552  0.0257
  653MPD2    C5 9720   0.612   3.863   0.039  0.2672  0.1752 -0.6386
  653MPD2     H 9721   0.386   3.927  17.481 -1.4650 -0.3586  1.2927
  653MPD2    H1 9722   0.583   3.655   0.008 -1.4310  0.5397  1.7332
  653MPD2    H2 9723   0.615   4.067   0.071 -1.8867 -0.4060  0.5168
  653MPD2    H3 9724   0.675   3.852   0.126 -1.6588  1.0496  0.8578
  653MPD2     N 9725   0.432   3.674  17.522  0.1548 -0.2496 -0.3304
  653MPD2    H5 9726   0.374   3.705  17.444  1.2328 -0.3920 -1.1830
  653MPD2    N1 9727   0.442   4.140  17.604  0.3167 -0.3645 -0.2460
  653MPD2    H7 9728   0.384   4.153  17.522 -1.4032  0.3316  1.0799
  654TMC3    C1 9729   0.379   3.471  17.419 -0.6282 -0.7469 -0.1411
  654TMC3    C2 9730   0.345   3.528  17.306  0.4243 -0.1676 -0.1197
  654TMC3    C3 9731   0.282   3.450  17.211  0.0526  0.1377 -0.2940
  654TMC3    C4 9732   0.365   3.336  17.445  0.5344 -0.7257 -0.2182
  654TMC3    C5 9733   0.280   3.273  17.361 -0.2153 -0.5294 -0.2937
  654TMC3    C6 9734   0.245   3.323  17.242 -0.0919 -0.1835 -0.2621
  654TMC3     C 9735   0.457   3.537  17.530 -0.8363 -0.3559 -0.0252
  654TMC3     O 9736   0.507   3.468  17.622 -0.1327 -0.5021 -0.1835
  654TMC3     H 9737   0.367   3.632  17.281  0.3149 -0.2088 -0.3911
  654TMC3    H1 9738   0.384   3.292  17.542  0.9299  1.4161  0.6785
  654TMC3    H2 9739   0.205   3.254  17.168  0.1223 -1.2747  0.6509
  654TMC3    C7 9740   0.222   3.144  17.394  0.0566  0.7763  0.2594
  654TMC3    C8 9741   0.257   3.510  17.083  0.0921  1.1187 -0.3207
  654TMC3    O1 9742   0.113   3.112  17.339 -0.1290  0.3516  0.2290
  654TMC3    O2 9743   0.242   3.632  17.076  0.2982 -0.7094 -0.4691
  655MPD2     C 9744   2.009   3.466  15.866  0.5556  0.8620 -0.0944
  655MPD2    C1 9745   1.946   3.561  15.787  0.5364  0.6216 -0.6980
  655MPD2    C2 9746   1.970   3.563  15.648  0.1365 -0.1385 -1.2139
  655MPD2    C3 9747   2.066   3.478  15.596  0.1694 -0.0313  0.3034
  655MPD2    C4 9748   2.124   3.383  15.675  0.0964  0.0148  0.2433
  655MPD2    C5 9749   2.103   3.383  15.815  0.2894  0.5157 -0.3195
  655MPD2     H 9750   1.918   3.637  15.587  1.8769  2.6462  0.6891
  655MPD2    H1 9751   2.188   3.303  15.639 -0.8351 -1.8046  2.6360
  655MPD2    H2 9752   1.996   3.437  15.970  2.7630 -2.1311 -0.6490
  655MPD2    H3 9753   2.152   3.307  15.874  2.0516 -0.2055 -2.7237
  655MPD2     N 9754   2.097   3.481  15.462 -0.0058  0.0340 -0.7946
  655MPD2    H5 9755   2.168   3.417  15.429  0.9569 -0.0401  1.4361
  655MPD2    N1 9756   1.844   3.646  15.838  0.5848  0.5301  0.1068
  655MPD2    H7 9757   1.795   3.711  15.778  2.3111 -1.5314 -3.6008
  656TMC3    C1 9758   1.732   3.758  15.999 -0.1604  0.6284  0.0487
  656TMC3    C2 9759   1.679   3.759  16.122 -0.2051 -0.1292 -0.1781
  656TMC3    C3 9760   1.635   3.875  16.177 -0.0446  0.4138  0.1616
  656TMC3    C4 9761   1.737   3.874  15.925 -0.3556 -0.6951 -0.1143
  656TMC3    C5 9762   1.697   3.994  15.981  0.2011  0.7911  0.4558
  656TMC3    C6 9763   1.641   3.995  16.106 -0.5723  0.1731 -0.0998
  656TMC3     C 9764   1.796   3.641  15.961  0.2930 -0.2874 -0.1786
  656TMC3     O 9765   1.822   3.564  16.046  0.2645  0.2433  0.5273
  656TMC3     H 9766   1.668   3.670  16.183  1.1258  0.2849  0.6575
  656TMC3    H1 9767   1.776   3.878  15.824  0.9156  0.0025  0.4012
  656TMC3    H2 9768   1.592   4.085  16.141 -0.3195  0.7444 -1.2346
  656TMC3    C7 9769   1.620   4.080  15.891 -0.1188  0.5300 -0.2650
  656TMC3    C8 9770   1.503   3.861  16.232 -0.7147  0.9537 -0.2460
  656TMC3    O1 9771   1.515   4.134  15.925 -0.0476  0.0995  0.7189
  656TMC3    O2 9772   1.432   3.780  16.174  0.3016 -0.1137  0.1942
  657TMC3    C1 9773   0.769   2.986  15.054  0.2241 -0.1638 -0.0962
  657TMC3    C2 9774   0.877   3.021  15.136  0.2587 -0.0504  0.2839
  657TMC3    C3 9775   0.933   3.147  15.109 -0.2813  0.4487  0.0193
  657TMC3    C4 9776   0.722   3.068  14.952 -0.0593 -0.3662 -0.2915
  657TMC3    C5 9777   0.776   3.193  14.936  0.3163 -0.4980 -0.2786
  657TMC3    C6 9778   0.880   3.228  15.019 -0.0802  0.7860 -0.1863
  657TMC3     C 9779   0.731   2.846  15.036 -0.2165 -0.2004  0.0174
  657TMC3     O 9780   0.673   2.825  14.930 -0.4198 -0.6968  0.6815
  657TMC3     H 9781   0.908   2.955  15.216  0.8565 -1.1423 -0.8483
  657TMC3    H1 9782   0.632   3.039  14.900  0.1900 -2.0012  0.1703
  657TMC3    H2 9783   0.926   3.325  15.003 -0.3117  0.6224 -1.8135
  657TMC3    C7 9784   0.701   3.281  14.852  0.6895  0.5302 -0.6549
  657TMC3    C8 9785   1.012   3.209  15.210  0.0089  0.1702 -0.3823
  657TMC3    O1 9786   0.613   3.223  14.792  0.7398 -0.4688 -0.0510
  657TMC3    O2 9787   1.024   3.331  15.199 -0.3786  0.4485 -0.9540
  658MPD2     C 9788   2.606   3.708  14.783  0.1940 -0.7787 -0.5202
  658MPD2    C1 9789   2.490   3.755  14.843 -0.5293 -0.3819 -0.1809
  658MPD2    C2 9790   2.433   3.870  14.791  0.2017  0.5133  0.6838
  658MPD2    C3 9791   2.464   3.916  14.666  0.4452  0.7585  0.8050
  658MPD2    C4 9792   2.565   3.848  14.595 -0.1631 -0.4281  0.6184
  658MPD2    C5 9793   2.634   3.755  14.655  0.1813  0.0605 -0.2682
  658MPD2     H 9794   2.344   3.915  14.835 -0.0647  1.0590 -0.4248
  658MPD2    H1 9795   2.583   3.876  14.492 -1.8568  1.8768  0.9542
  658MPD2    H2 9796   2.656   3.624  14.829 -1.8059 -2.5035 -1.5124
  658MPD2    H3 9797   2.706   3.690  14.606  0.8723 -1.2914  2.5139
  658MPD2     N 9798   2.378   4.020  14.617 -0.3447  0.5185 -0.0105
  658MPD2    H5 9799   2.311   4.065  14.678 -0.5564  0.0122  0.1321
  658MPD2    N1 9800   2.433   3.677  14.945 -0.1825  0.4226 -0.1128
  658MPD2    H7 9801   2.481   3.590  14.961 -2.9085 -0.9688  0.5459
  659TMC3    C1 9802   2.264   3.588  15.083 -0.5495 -0.3228  0.3206
  659TMC3    C2 9803   2.171   3.628  15.176  0.6111 -0.1008 -0.0131
  659TMC3    C3 9804   2.092   3.532  15.240 -0.0439  0.6175  0.0769
  659TMC3    C4 9805   2.280   3.454  15.045  0.8262 -0.5094 -0.0173
  659TMC3    C5 9806   2.198   3.364  15.102  0.2207 -0.0662  0.9133
  659TMC3    C6 9807   2.108   3.401  15.200 -0.6164  0.5785  0.1812
  659TMC3     C 9808   2.309   3.695  14.994 -0.4779  0.1735  0.7674
  659TMC3     O 9809   2.248   3.799  15.003  0.3948 -0.0368 -0.0603
  659TMC3     H 9810   2.155   3.733  15.198  2.3224 -0.1571  1.4338
  659TMC3    H1 9811   2.335   3.428  14.955 -1.3403 -0.2896 -1.4188
  659TMC3    H2 9812   2.066   3.323  15.263  0.3263 -0.2989 -0.2726
  659TMC3    C7 9813   2.134   3.261  15.016 -0.2746 -0.0840 -0.5138
  659TMC3    C8 9814   2.057   3.574  15.370  0.3835 -0.0650 -0.0122
  659TMC3    O1 9815   2.201   3.240  14.916  0.0150  0.4732 -0.4334
  659TMC3    O2 9816   2.022   3.692  15.379 -0.0668  0.7611  0.7834
  660MPD2     C 9817   4.729   2.739  12.373  0.0139 -0.6159 -0.4779
  660MPD2    C1 9818   4.647   2.810  12.458 -0.1294  0.5218  0.0563
  660MPD2    C2 9819   4.567   2.736  12.543 -0.2354  0.0787  0.4385
  660MPD2    C3 9820   4.571   2.597  12.542  0.6301  0.2357  0.1474
  660MPD2    C4 9821   4.650   2.527  12.458  0.6834  0.3997  0.1390
  660MPD2    C5 9822   4.731   2.603  12.375  0.6429 -0.1146  0.0716
  660MPD2     H 9823   4.490   2.784  12.602  1.0512  1.1457  1.2448
  660MPD2    H1 9824   4.646   2.419  12.449  0.8308  0.5062 -1.1523
  660MPD2    H2 9825   0.067   2.786  12.308  1.1249 -0.3334  0.9818
  660MPD2    H3 9826   0.065   2.546  12.313  1.4541  0.0068  0.8774
  660MPD2     N 9827   4.480   2.519  12.619 -0.1702  0.1731 -0.3821
  660MPD2    H5 9828   4.467   2.425  12.584  0.1379 -0.2200  0.5610
  660MPD2    N1 9829   4.640   2.949  12.453  0.4272  0.1043 -0.4233
  660MPD2    H7 9830   4.713   2.985  12.391  1.6124 -0.1135  0.8347
  661TMC3    C1 9831   4.571   3.165  12.478 -0.2251  0.8108 -0.6081
  661TMC3    C2 9832   4.624   3.220  12.364  0.0548  0.2705 -0.5518
  661TMC3    C3 9833   4.564   3.335  12.314  0.5795 -0.1368  0.1075
  661TMC3    C4 9834   4.487   3.246  12.557 -0.6245  0.5076 -0.0566
  661TMC3    C5 9835   4.444   3.370  12.512  0.9430  0.6077  0.2398
  661TMC3    C6 9836   4.483   3.419  12.391 -0.2111  0.1953 -0.3934
  661TMC3     C 9837   4.546   3.032  12.503 -0.2652 -0.4480 -0.0369
  661TMC3     O 9838   4.448   3.007  12.571 -0.4578 -0.2679 -0.6610
  661TMC3     H 9839   4.700   3.167  12.308 -0.0715 -0.1543 -0.3167
  661TMC3    H1 9840   4.436   3.200  12.641 -3.0705 -2.6586 -3.2978
  661TMC3    H2 9841   4.437   3.513  12.366 -1.8139 -0.9168 -1.6638
  661TMC3    C7 9842   4.300   3.390  12.526 -0.3230  0.3356 -0.0143
  661TMC3    C8 9843   4.586   3.358  12.172 -0.4585 -0.9457  0.2152
  661TMC3    O1 9844   4.255   3.502  12.565 -0.1619 -0.0062  0.1915
  661TMC3    O2 9845   4.622   3.260  12.105  0.0521 -0.5287  0.2586
  662MPD2     C 9846   4.587   2.397  17.462 -0.9033 -0.2131 -0.9033
  662MPD2    C1 9847   4.674   2.342  17.555 -0.5957 -0.3156  0.2342
  662MPD2    C2 9848   4.632   2.335  17.689 -0.3759 -0.4613  0.3693
  662MPD2    C3 9849   4.511   2.404  17.730 -0.0934 -0.2359  0.3973
  662MPD2    C4 9850   4.429   2.460  17.632 -0.4834  0.0385  0.1794
  662MPD2    C5 9851   4.470   2.452  17.501 -0.2783 -0.0030  0.0415
  662MPD2     H 9852   4.699   2.299   0.024 -2.4154 -3.0647  0.9045
  662MPD2    H1 9853   4.330   2.502  17.644 -0.9631 -1.0569  0.0745
  662MPD2    H2 9854   4.614   2.401  17.357  0.8632  0.1482 -0.4402
  662MPD2    H3 9855   4.402   2.480  17.421 -0.0996 -0.4271 -0.2643
  662MPD2     N 9856   4.459   2.402   0.116 -0.0058 -0.2288 -0.6256
  662MPD2    H5 9857   4.369   2.447   0.132 -0.9831 -1.1459 -3.5115
  662MPD2    N1 9858   0.063   2.287  17.519 -0.2637 -0.1056  0.3514
  662MPD2    H7 9859   0.104   2.219  17.583  1.1543  1.2822  0.9188
  663TMC3    C1 9860   0.225   2.197  17.381  1.1182  0.4426 -0.6043
  663TMC3    C2 9861   0.259   2.100  17.468  0.3305 -0.1981  0.6681
  663TMC3    C3 9862   0.340   1.997  17.431 -0.1134  0.4246 -0.0784
  663TMC3    C4 9863   0.251   2.186  17.245  0.8809 -0.1774  0.7092
  663TMC3    C5 9864   0.310   2.064  17.213  0.0256 -0.1382  1.0479
  663TMC3    C6 9865   0.352   1.967  17.299 -0.3229 -0.6605  0.1131
  663TMC3     C 9866   0.131   2.307  17.406 -0.3329  0.5243 -0.4573
  663TMC3     O 9867   0.115   2.399  17.326 -0.2681  0.3663  0.4311
  663TMC3     H 9868   0.252   2.117  17.575 -0.4992  1.7296  0.3104
  663TMC3    H1 9869   0.216   2.251  17.166 -0.7585 -0.3081  1.3372
  663TMC3    H2 9870   0.423   1.885  17.286  1.5284  0.9077  0.3513
  663TMC3    C7 9871   0.287   2.010  17.086 -0.5177  0.8626 -0.4075
  663TMC3    C8 9872   0.338   1.865  17.513  0.2386  0.5669  0.3374
  663TMC3    O1 9873   0.228   2.083  17.011  0.0603  0.4567 -0.1079
  663TMC3    O2 9874   0.420   1.783  17.475 -0.0105  0.0258  0.1904
  664MPD2     C 9875   3.512   0.388  17.449 -0.2124 -0.3500 -0.0051
  664MPD2    C1 9876   3.555   0.509  17.512 -0.1785 -0.2484 -0.1273
  664MPD2    C2 9877   3.504   0.524  17.643 -0.1735 -0.1460  1.1266
  664MPD2    C3 9878   3.435   0.433  17.709  0.5517 -0.3981 -0.4967
  664MPD2    C4 9879   3.394   0.323  17.636  0.1812 -0.4635 -0.4218
  664MPD2    C5 9880   3.427   0.307  17.504 -0.0176  0.0898 -0.8308
  664MPD2     H 9881   3.522   0.620  17.689 -1.7359  1.4129 -1.4539
  664MPD2    H1 9882   3.331   0.242  17.672 -0.3552  0.4107  0.5926
  664MPD2    H2 9883   3.525   0.373  17.342  0.1438  0.8639 -0.1236
  664MPD2    H3 9884   3.377   0.226  17.452  1.6176 -1.3898 -0.1201
  664MPD2     N 9885   3.405   0.457   0.102  0.8699  0.2324 -0.4531
  664MPD2    H5 9886   3.446   0.535   0.152  1.1159  1.1310 -2.0590
  664MPD2    N1 9887   3.629   0.608  17.446  0.1835  0.6984 -0.1542
  664MPD2    H7 9888   3.643   0.697  17.492 -0.7951  2.0171 -2.4276
  665TMC3    C1 9889   3.338   0.414   0.317  0.4362  0.5951  0.6905
  665TMC3    C2 9890   3.231   0.372   0.396 -0.0213  0.0652  0.4648
  665TMC3    C3 9891   3.197   0.442   0.511 -0.1882 -0.1483 -0.0894
  665TMC3    C4 9892   3.402   0.532   0.347  0.3210  0.1684 -0.6799
  665TMC3    C5 9893   3.377   0.579   0.471 -0.0621 -0.2352 -0.4836
  665TMC3    C6 9894   3.279   0.542   0.552 -0.5138 -0.0238 -0.1996
  665TMC3     C 9895   3.337   0.370   0.182  0.5837  0.4268 -0.7549
  665TMC3     O 9896   3.270   0.275   0.147 -0.6377 -0.2424 -0.1338
  665TMC3     H 9897   3.152   0.310   0.354 -1.2102  1.9601 -0.1231
  665TMC3    H1 9898   3.494   0.564   0.298 -0.8670  0.4612 -2.7298
  665TMC3    H2 9899   3.250   0.604   0.636 -1.1046  0.6690 -0.9144
  665TMC3    C7 9900   3.452   0.696   0.508  0.7488 -0.0665 -0.4237
  665TMC3    C8 9901   3.079   0.414   0.593 -0.2527 -1.0209 -0.0307
  665TMC3    O1 9902   3.481   0.770   0.417  0.4068 -0.1804  0.6465
  665TMC3    O2 9903   3.033   0.518   0.644  0.0226  0.1326 -0.1968
  666TMC3    C1 9904   2.375   1.375   9.557 -0.0426  0.1170  0.8444
  666TMC3    C2 9905   2.474   1.293   9.596 -0.2333  0.0277 -0.2201
  666TMC3    C3 9906   2.583   1.352   9.644 -0.0479 -0.2005  0.0162
  666TMC3    C4 9907   2.364   1.508   9.582 -0.4899 -0.1907 -0.1252
  666TMC3    C5 9908   2.470   1.574   9.642 -0.5571 -0.6268  0.1017
  666TMC3    C6 9909   2.582   1.489   9.662  0.1214  0.3716 -0.3338
  666TMC3     C 9910   2.248   1.308   9.513  0.5321 -0.0800  0.1644
  666TMC3     O 9911   2.167   1.385   9.465 -0.6408  0.3149  0.2444
  666TMC3     H 9912   2.484   1.189   9.568  0.0093  0.4183 -1.5483
  666TMC3    H1 9913   2.287   1.578   9.553 -0.8394 -0.3987  0.3042
  666TMC3    H2 9914   2.681   1.533   9.667  0.9172 -1.3346 -1.1843
  666TMC3    C7 9915   2.447   1.632   9.769 -0.3120  0.4249 -0.5557
  666TMC3    C8 9916   2.641   1.291   9.761 -0.2887  0.3857 -0.5720
  666TMC3    O1 9917   2.364   1.576   9.842 -0.1625 -0.8088  0.5766
  666TMC3    O2 9918   2.651   1.168   9.753  0.5709 -0.2924  0.3387
  667MPD2     C 9919   4.473   0.816  14.648  0.1106 -0.0861 -0.4463
  667MPD2    C1 9920   4.385   0.811  14.753 -0.8835 -0.0863  0.2650
  667MPD2    C2 9921   4.317   0.694  14.777  0.4526  0.3854  0.3982
  667MPD2    C3 9922   4.333   0.584  14.695 -0.3188 -0.3583 -0.8747
  667MPD2    C4 9923   4.424   0.595  14.597 -0.1683  1.0712 -0.0699
  667MPD2    C5 9924   4.486   0.712  14.567 -0.5856 -0.5222 -0.1479
  667MPD2     H 9925   4.240   0.704  14.853 -0.1727  3.3844 -0.6006
  667MPD2    H1 9926   4.451   0.511  14.534 -2.3904 -0.6400  1.2408
  667MPD2    H2 9927   4.547   0.893  14.627 -0.8407  0.9186 -0.1492
  667MPD2    H3 9928   4.548   0.717  14.478  0.1998  1.5777  0.5158
  667MPD2     N 9929   4.250   0.472  14.694  0.2355  0.1667 -0.1854
  667MPD2    H5 9930   4.272   0.390  14.638 -0.1174  0.5013 -0.8189
  667MPD2    N1 9931   4.343   0.927  14.827 -0.1204  0.2085  0.7530
  667MPD2    H7 9932   4.275   0.903  14.899  1.1175  1.1542  2.2372
  668TMC3    C1 9933   4.301   1.154  14.877 -0.3408  0.4386  0.4480
  668TMC3    C2 9934   4.335   1.289  14.850 -0.6629  0.0751 -0.8630
  668TMC3    C3 9935   4.283   1.382  14.932  0.7767 -0.4426 -0.4535
  668TMC3    C4 9936   4.213   1.114  14.977  0.0274 -0.4688  0.1021
  668TMC3    C5 9937   4.171   1.216  15.064 -0.2954  0.2055  0.0821
  668TMC3    C6 9938   4.212   1.345  15.045 -0.0605 -0.6888 -0.1263
  668TMC3     C 9939   4.360   1.056  14.785  0.8252 -0.5135  0.0530
  668TMC3     O 9940   4.442   1.105  14.705 -0.4109 -0.5748  0.0316
  668TMC3     H 9941   4.402   1.315  14.769  1.1113  1.0547  0.9441
  668TMC3    H1 9942   4.202   1.012  15.014  2.2352 -1.0337 -0.7753
  668TMC3    H2 9943   4.180   1.409  15.127  1.4139  0.4279 -0.4259
  668TMC3    C7 9944   4.149   1.179  15.205  0.0901  0.8172  0.5047
  668TMC3    C8 9945   4.304   1.526  14.927 -0.4643 -0.5222 -0.3883
  668TMC3    O1 9946   4.226   1.225  15.290 -0.4080 -0.1067 -0.2120
  668TMC3    O2 9947   4.246   1.579  15.019 -0.0218  1.0501  0.7725
  669TMC3    C1 9948   2.178   0.446  14.794 -0.2663 -0.0736  0.1341
  669TMC3    C2 9949   2.086   0.437  14.691  0.9174  0.0910 -0.1038
  669TMC3    C3 9950   2.106   0.519  14.582  0.1410 -0.2986 -0.5735
  669TMC3    C4 9951   2.276   0.542  14.799  0.3173 -0.0745  1.1523
  669TMC3    C5 9952   2.291   0.621  14.687  0.4041 -0.2335 -0.2455
  669TMC3    C6 9953   2.212   0.603  14.577  0.7947  0.1026 -0.2744
  669TMC3     C 9954   2.155   0.355  14.912 -0.5104 -0.0093  0.2569
  669TMC3     O 9955   2.048   0.297  14.924 -0.1610 -0.1984 -0.1360
  669TMC3     H 9956   1.992   0.385  14.706  0.3880  1.4942  1.4602
  669TMC3    H1 9957   2.319   0.578  14.892  0.1370 -2.2291  2.0645
  669TMC3    H2 9958   2.223   0.669  14.491 -1.3830 -0.9380 -1.3616
  669TMC3    C7 9959   2.408   0.704  14.669  0.9439 -0.1338 -0.1556
  669TMC3    C8 9960   1.986   0.550  14.504  0.1233  0.8974  0.1977
  669TMC3    O1 9961   2.411   0.779  14.573  0.1169 -0.7112  0.3948
  669TMC3    O2 9962   1.884   0.490  14.521 -0.0913  0.6865  0.6125
  670MPD2     C 9963   1.055   2.561  13.431 -0.0243 -0.5124 -0.3840
  670MPD2    C1 9964   1.044   2.641  13.542 -0.4069 -0.4779 -0.0133
  670MPD2    C2 9965   0.919   2.692  13.575  0.4481 -0.1030 -0.7012
  670MPD2    C3 9966   0.802   2.647  13.503  0.8293  0.3083  0.1287
  670MPD2    C4 9967   0.813   2.563  13.392 -0.4790 -0.2696  0.3396
  670MPD2    C5 9968   0.940   2.515  13.363 -0.3726 -0.5736  0.0042
  670MPD2     H 9969   0.901   2.757  13.660 -2.2593 -2.6209  0.6307
  670MPD2    H1 9970   0.732   2.534  13.327 -0.2201  0.1262 -0.1595
  670MPD2    H2 9971   1.152   2.534  13.389 -0.0484 -1.9483  0.4963
  670MPD2    H3 9972   0.951   2.470  13.265  0.0448  0.3373 -0.3736
  670MPD2     N 9973   0.672   2.692  13.545  0.0031 -0.1618 -0.8041
  670MPD2    H5 9974   0.674   2.768  13.612 -5.4235  0.5153 -1.3772
  670MPD2    N1 9975   1.158   2.713  13.586  0.0177  0.1652  0.6399
  670MPD2    H7 9976   1.151   2.795  13.645 -1.2052  2.3731 -2.6024
  671TMC3    C1 9977   0.445   2.711  13.588 -0.6020  0.6697  0.0324
  671TMC3    C2 9978   0.457   2.714  13.726 -0.0785  0.1096 -0.3359
  671TMC3    C3 9979   0.349   2.712  13.802 -0.4068 -0.6664 -0.8894
  671TMC3    C4 9980   0.325   2.738  13.531 -0.1783 -0.1925 -0.0419
  671TMC3    C5 9981   0.215   2.758  13.610  0.2918 -0.4707  0.1984
  671TMC3    C6 9982   0.224   2.739  13.747 -0.7650 -0.0252  0.5289
  671TMC3     C 9983   0.547   2.652  13.508 -0.0072 -0.1458 -0.3673
  671TMC3     O 9984   0.503   2.569  13.428 -0.1744 -0.0719 -0.3383
  671TMC3     H 9985   0.541   2.657  13.764  0.2518  1.0476  0.3443
  671TMC3    H1 9986   0.313   2.731  13.423  0.4273  2.6604 -0.2923
  671TMC3    H2 9987   0.140   2.715  13.811 -1.6025  0.2483 -0.4669
  671TMC3    C7 9988   0.089   2.742  13.545  0.0459  0.0526 -0.0147
  671TMC3    C8 9989   0.349   2.606  13.903 -0.4912  0.4396 -0.0056
  671TMC3    O1 9990   0.093   2.698  13.427  0.2085 -0.2028 -0.2960
  671TMC3    O2 9991   0.282   2.509  13.877  0.0319  0.2844  0.2393
  672MPD2     C 9992   0.413   3.877   0.334  0.1150 -0.3099 -0.1800
  672MPD2    C1 9993   0.532   3.814   0.355  0.1363 -0.2851  0.6887
  672MPD2    C2 9994   0.649   3.886   0.377  0.6256  0.5272 -0.0381
  672MPD2    C3 9995   0.648   4.022   0.377 -0.2440 -0.4777 -0.1293
  672MPD2    C4 9996   0.531   4.093   0.349 -1.2067  0.2588 -0.1712
  672MPD2    C5 9997   0.418   4.019   0.332  0.5977 -0.5195  0.0317
  672MPD2     H 9998   0.739   3.832   0.403  0.4837  1.5628  2.6841
  672MPD2    H1 9999   0.519   4.199   0.366  0.9275  0.4599  0.1040
  672MPD2    H210000   0.321   3.824   0.312  0.1402 -0.0591 -0.8811
  672MPD2    H310001   0.324   4.073   0.337  1.9266  1.7105  1.1228
  672MPD2     N10002   0.771   4.095   0.406 -0.2193 -1.1816  0.7106
  672MPD2    H510003   0.753   4.194   0.416  1.2768 -1.0302  1.8682
  672MPD2    N110004   0.535   3.679   0.333 -0.9176 -0.2100 -0.8389
  672MPD2    H710005   0.443   3.637   0.335 -1.4115  0.9573  1.0098
  673TMC3    C110006   0.605   3.458   0.287  0.1022 -0.3992  0.3763
  673TMC3    C210007   0.694   3.363   0.336  0.6758  0.1131  0.0988
  673TMC3    C310008   0.660   3.233   0.306  0.0650  0.4440 -0.4168
  673TMC3    C410009   0.494   3.427   0.217  0.8261  0.5382 -0.0576
  673TMC3    C510010   0.462   3.288   0.199 -0.3619 -0.7603 -0.5166
  673TMC3    C610011   0.544   3.196   0.243  0.0193 -0.3934  0.1609
  673TMC3     C10012   0.639   3.590   0.333  0.3545  0.1233 -0.1915
  673TMC3     O10013   0.761   3.615   0.344  0.0156  0.5048 -0.0221
  673TMC3     H10014   0.778   3.403   0.393 -1.8798  3.8198  1.2584
  673TMC3    H110015   0.435   3.510   0.181 -0.2230 -1.3402 -2.6226
  673TMC3    H210016   0.521   3.090   0.235  3.7514 -1.0524 -1.7837
  673TMC3    C710017   0.342   3.255   0.128  0.1582 -0.2116  0.1995
  673TMC3    C810018   0.749   3.125   0.345 -0.4299 -0.1417 -0.3619
  673TMC3    O110019   0.311   3.141   0.114  0.1265  0.7010  0.2277
  673TMC3    O210020   0.714   3.011   0.316  0.7752 -0.6898 -0.4135
  674MPD2     C10021   0.521   1.940   0.043 -0.3826 -0.1395 -0.0401
  674MPD2    C110022   0.423   1.987   0.123 -0.0853  0.6149  0.1732
  674MPD2    C210023   0.378   2.119   0.109 -0.1741  0.5011 -0.3973
  674MPD2    C310024   0.435   2.197   0.001 -0.1229 -0.0059  0.1416
  674MPD2    C410025   0.535   2.151  17.673  0.5364  0.0370 -0.6163
  674MPD2    C510026   0.583   2.025  17.693  0.1768 -0.2380  0.1564
  674MPD2     H10027   0.303   2.170   0.169 -0.6445  0.5596 -1.0299
  674MPD2    H110028   0.570   2.207  17.587 -0.6791  0.6865 -0.6853
  674MPD2    H210029   0.552   1.836   0.044 -2.2407 -0.7039 -1.0896
  674MPD2    H310030   0.647   1.998  17.610  0.6766  0.1917  0.4007
  674MPD2     N10031   0.394   2.328  17.721 -0.2622  0.5309  0.2808
  674MPD2    H510032   0.443   2.385  17.654 -0.8197 -0.7916 -1.2526
  674MPD2    N110033   0.368   1.896   0.219  0.3147  0.1400 -0.2815
  674MPD2    H710034   0.423   1.814   0.244  0.7650  0.7825  0.8571
  675TMC3    C110035   0.227   1.831   0.404  0.1765 -0.0715  0.4142
  675TMC3    C210036   0.201   1.887   0.527  0.4209  0.7850 -0.3248
  675TMC3    C310037   0.224   1.814   0.641  0.0341 -0.1999  0.4407
  675TMC3    C410038   0.289   1.707   0.403  0.1436 -0.4763  0.4063
  675TMC3    C510039   0.309   1.639   0.519 -0.8970  0.3701  0.0698
  675TMC3    C610040   0.273   1.690   0.635  0.1852 -0.0816  0.8538
  675TMC3     C10041   0.244   1.915   0.283  0.4863 -0.5923 -0.3984
  675TMC3     O10042   0.167   2.006   0.263 -0.7083  0.8870 -0.0450
  675TMC3     H10043   0.157   1.987   0.530  0.5599  0.7795  2.1858
  675TMC3    H110044   0.316   1.661   0.309 -2.7049  0.9773 -1.1137
  675TMC3    H210045   0.287   1.637   0.729  0.7629  0.4060  1.0385
  675TMC3    C710046   0.361   1.510   0.512  0.2504 -0.5636  0.6780
  675TMC3    C810047   0.226   1.883   0.772  0.3822  0.6687 -0.0350
  675TMC3    O110048   0.314   1.434   0.596 -0.1680  0.5161  0.2088
  675TMC3    O210049   0.204   1.817   0.878  0.4406 -0.2369  0.3656
  676MPD2     C10050   3.138   1.942  11.126  0.3988 -0.9478 -0.6879
  676MPD2    C110051   3.082   1.832  11.187  0.1544 -0.5907  0.2385
  676MPD2    C210052   3.076   1.708  11.123 -0.3022  0.1248  0.1289
  676MPD2    C310053   3.117   1.696  10.992  0.3419 -0.0991 -0.8193
  676MPD2    C410054   3.181   1.806  10.930 -0.3171  0.0190  0.3876
  676MPD2    C510055   3.184   1.923  10.997 -0.3832  0.2614  0.1191
  676MPD2     H10056   3.027   1.631  11.181 -0.4467  0.1587  0.0520
  676MPD2    H110057   3.200   1.801  10.823 -2.2788  1.7645 -0.0658
  676MPD2    H210058   3.147   2.043  11.165 -2.5663 -1.7381  2.0458
  676MPD2    H310059   3.217   2.013  10.947  0.7273  1.2253  2.5541
  676MPD2     N10060   3.107   1.579  10.916 -0.3401 -0.2430  0.0433
  676MPD2    H510061   3.160   1.571  10.830 -3.0685  0.3671 -1.6816
  676MPD2    N110062   3.027   1.839  11.318 -0.0905  0.0322  0.4570
  676MPD2    H710063   2.990   1.754  11.359  0.6737  0.0125  1.1031
  677TMC3    C110064   2.908   1.934  11.503 -0.0532  0.0923 -0.5173
  677TMC3    C210065   2.817   1.829  11.496  0.7401 -0.4422 -0.1754
  677TMC3    C310066   2.716   1.821  11.590  0.2031 -0.1978 -0.1529
  677TMC3    C410067   2.899   2.028  11.605 -0.1010  0.7667  0.2123
  677TMC3    C510068   2.786   2.019  11.688 -0.0425 -0.6685  0.1693
  677TMC3    C610069   2.689   1.924  11.676 -0.8295 -0.3680  0.1641
  677TMC3     C10070   3.005   1.958  11.394  0.4771 -0.5426  0.3577
  677TMC3     O10071   3.052   2.068  11.368  0.2329  0.3774 -0.5467
  677TMC3     H10072   2.826   1.742  11.432 -2.1312  0.0354 -1.2178
  677TMC3    H110073   2.976   2.103  11.618  0.3102  0.3330  0.2907
  677TMC3    H210074   2.605   1.916  11.744 -0.5939  1.4938  0.6559
  677TMC3    C710075   2.803   2.067  11.824 -0.4306  0.1872 -0.4363
  677TMC3    C810076   2.734   1.702  11.666 -0.2165  0.2968  0.2712
  677TMC3    O110077   2.727   2.017  11.905  0.0565  0.1046  0.4172
  677TMC3    O210078   2.849   1.663  11.658  0.1916  0.0504 -0.0216
  678MPD2     C10079   0.056   1.487   1.485  0.1829 -0.0401  0.4188
  678MPD2    C110080   4.730   1.430   1.374 -0.4323 -0.2216  0.2125
  678MPD2    C210081   4.604   1.471   1.351 -0.0609  0.1389 -0.0798
  678MPD2    C310082   4.533   1.553   1.441 -0.6959 -0.6618  0.3180
  678MPD2    C410083   4.594   1.605   1.556  0.0043  0.6482 -0.1035
  678MPD2    C510084   4.728   1.570   1.576 -0.6589  0.1245  0.8982
  678MPD2     H10085   4.558   1.426   1.263 -0.4062  0.0683  0.1363
  678MPD2    H110086   4.548   1.671   1.629  0.8579  0.2418  0.7895
  678MPD2    H210087   0.157   1.457   1.510  1.1722  2.9913  0.1093
  678MPD2    H310088   0.048   1.608   1.661  0.3890  0.6411 -0.0131
  678MPD2     N10089   4.392   1.566   1.415  0.1858  0.0904 -0.3965
  678MPD2    H510090   4.354   1.548   1.323 -0.1071 -2.8519  0.3059
  678MPD2    N110091   0.046   1.342   1.285  0.2156  0.3908 -0.3892
  678MPD2    H710092   0.005   1.341   1.192 -0.4906  1.1398 -0.0779
  679TMC3    C110093   0.372   1.164   1.018  0.4455 -0.9976  0.5648
  679TMC3    C210094   0.340   1.214   1.137 -0.6241  0.5719 -0.0535
  679TMC3    C310095   0.214   1.205   1.180 -0.1446  0.6135 -0.1572
  679TMC3    C410096   0.283   1.109   0.930 -0.1515  0.2415  0.4693
  679TMC3    C510097   0.153   1.100   0.976 -0.5304  0.0932 -0.0610
  679TMC3    C610098   0.119   1.143   1.103 -0.3379  0.4292  0.1019
  679TMC3     C10099   0.514   1.131   0.991  0.3677 -0.3241 -0.1083
  679TMC3     O10100   0.532   1.022   0.940  0.1978  0.3127 -0.2368
  679TMC3     H10101   0.426   1.250   1.192 -0.5968 -1.5080  1.2485
  679TMC3    H110102   0.314   1.061   0.837 -2.3575  0.4630 -0.3688
  679TMC3    H210103   0.016   1.166   1.125  0.5259  2.5001  2.0391
  679TMC3    C710104   0.051   1.116   0.873  0.1501  0.7546 -0.7479
  679TMC3    C810105   0.169   1.282   1.300 -0.5861 -0.0098 -0.4074
  679TMC3    O110106   0.091   1.146   0.763 -0.6337  0.2942  0.1441
  679TMC3    O210107   0.257   1.303   1.381  0.4619  0.2144  0.3695
  680MPD2     C10108   4.633   0.552  13.466  0.1279 -0.1435  0.1224
  680MPD2    C110109   4.718   0.489  13.560  0.5668 -0.0736 -0.5120
  680MPD2    C210110   0.058   0.565  13.649  0.2428  1.2391 -0.3817
  680MPD2    C310111   0.037   0.701  13.652 -0.1877 -1.1541  0.0545
  680MPD2    C410112   4.694   0.768  13.562  1.2523 -0.4169  0.6787
  680MPD2    C510113   4.622   0.696  13.466  0.4598  0.0766  0.2189
  680MPD2     H10114   0.127   0.513  13.716  0.4804 -0.0463 -1.6285
  680MPD2    H110115   4.681   0.875  13.569 -0.0582 -0.5420  0.2709
  680MPD2    H210116   4.588   0.491  13.389 -0.3506  0.5764 -0.1753
  680MPD2    H310117   4.552   0.751  13.405 -0.8619  0.1518  1.7982
  680MPD2     N10118   0.107   0.788  13.744  0.3929 -0.6486  0.0219
  680MPD2    H510119   0.140   0.876  13.704  0.3572 -0.3953  0.5529
  680MPD2    N110120   4.722   0.343  13.564 -0.3817 -0.1860  0.4260
  680MPD2    H710121   0.057   0.299  13.623  0.8319  2.0868  0.6738
  681TMC3    C110122   4.663   0.116  13.530  0.2343  0.1336  0.0350
  681TMC3    C210123   4.565   0.025  13.524 -0.2528  0.0892 -0.8994
  681TMC3    C310124   4.597   4.635  13.569  0.7329  0.3184  0.5902
  681TMC3    C410125   0.053   0.084  13.564 -0.6679  0.4574 -0.2313
  681TMC3    C510126   0.079   4.692  13.598 -0.5657  0.0900  0.5661
  681TMC3    C610127   4.718   4.596  13.598  0.2178 -0.2991  0.1772
  681TMC3     C10128   4.625   0.255  13.523 -0.0811 -0.4763  0.5090
  681TMC3     O10129   4.507   0.287  13.491 -0.9620 -0.8251 -0.0243
  681TMC3     H10130   4.460   0.048  13.508 -0.6348  0.5222  2.3030
  681TMC3    H110131   0.124   0.166  13.575  0.0638 -0.5118  2.3562
  681TMC3    H210132   4.733   4.496  13.636 -2.0666 -0.6482  0.1497
  681TMC3    C710133   0.215   4.640  13.576 -0.4918  0.4705 -0.7046
  681TMC3    C810134   4.499   4.549  13.629 -0.4929  0.3265  0.1888
  681TMC3    O110135   0.246   4.532  13.624  0.3003 -0.2933 -0.5455
  681TMC3    O210136   4.394   4.538  13.566 -0.1743 -0.6550 -0.1625
  682MPD2     C10137   2.153   1.637  11.059 -0.2322 -0.8226  0.0771
  682MPD2    C110138   2.173   1.521  10.986  0.6579 -0.5703 -0.1533
  682MPD2    C210139   2.127   1.402  11.034 -0.1696 -0.6421 -0.6947
  682MPD2    C310140   2.076   1.394  11.163 -0.2794  0.3056  0.3026
  682MPD2    C410141   2.046   1.517  11.227 -0.1088  0.0343 -0.6115
  682MPD2    C510142   2.097   1.634  11.180 -0.1458 -0.3387 -0.1250
  682MPD2     H10143   2.141   1.312  10.976  0.6178 -2.1092  1.7381
  682MPD2    H110144   1.983   1.511  11.315 -0.4440 -1.6015 -0.9677
  682MPD2    H210145   2.209   1.722  11.023  1.2829 -1.6157  0.5609
  682MPD2    H310146   2.075   1.730  11.224 -1.6930 -0.7223 -0.0435
  682MPD2     N10147   2.037   1.271  11.226  0.2245  0.2263  0.3867
  682MPD2    H510148   1.984   1.277  11.312 -1.5358  1.3854 -0.7700
  682MPD2    N110149   2.245   1.513  10.868  0.2768 -0.3907  0.4347
  682MPD2    H710150   2.259   1.421  10.828  0.5737 -0.0842 -0.1622
  683TMC3    C110151   2.054   1.005  11.487  0.3599  0.1345 -0.3671
  683TMC3    C210152   2.160   0.928  11.451 -0.6704 -0.1775 -0.2548
  683TMC3    C310153   2.179   0.882  11.327  0.2252 -0.0101 -0.1246
  683TMC3    C410154   1.988   1.070  11.391 -0.0260 -0.5443  0.1259
  683TMC3    C510155   2.013   1.035  11.259  0.3802 -0.0395  0.3258
  683TMC3    C610156   2.092   0.925  11.228 -0.2930  0.1291  0.4501
  683TMC3     C10157   2.059   1.080  11.613 -0.7071  0.0007 -0.3417
  683TMC3     O10158   2.011   1.190  11.624 -0.3851  0.4097  0.4152
  683TMC3     H10159   2.235   0.901  11.525 -0.6963  0.0579 -0.1402
  683TMC3    H110160   1.907   1.137  11.415  0.6011  0.0061  0.6862
  683TMC3    H210161   2.079   0.876  11.132  0.2004 -2.0665  1.5102
  683TMC3    C710162   2.040   1.145  11.172  0.0933 -0.1626  0.9398
  683TMC3    C810163   2.260   0.764  11.303 -0.0363  0.1871 -0.3493
  683TMC3    O110164   2.088   1.120  11.061  0.0463 -0.5733 -0.7569
  683TMC3    O210165   2.204   0.665  11.259 -0.0985  0.5195  0.2131
  684MPD2     C10166   0.471   1.076  16.519  0.2115  0.2193 -0.2672
  684MPD2    C110167   0.422   1.134  16.401 -0.2603 -0.4821  0.5182
  684MPD2    C210168   0.401   1.272  16.395  0.1021  0.0835  0.7751
  684MPD2    C310169   0.432   1.357  16.499 -0.3609  0.5255 -0.3805
  684MPD2    C410170   0.477   1.298  16.613  0.3833  0.3896  0.4301
  684MPD2    C510171   0.495   1.162  16.626  0.6740 -0.5693 -0.1870
  684MPD2     H10172   0.379   1.307  16.294 -0.9504  0.9876  1.3158
  684MPD2    H110173   0.509   1.366  16.691 -0.7140 -0.9145  2.0224
  684MPD2    H210174   0.496   0.971  16.528 -1.0741 -0.2351 -1.9037
  684MPD2    H310175   0.549   1.125  16.713  0.2247  0.4026  0.5020
  684MPD2     N10176   0.442   1.494  16.493 -0.2675  0.7911 -0.1038
  684MPD2    H510177   0.480   1.541  16.574 -1.8342  1.6388  0.1319
  684MPD2    N110178   0.399   1.057  16.287  0.2517 -0.4074 -0.4059
  684MPD2    H710179   0.387   1.111  16.202 -0.1588  0.0237 -0.0805
  685TMC3    C110180   0.474   0.871  16.155  0.4564  0.7258 -0.4595
  685TMC3    C210181   0.434   0.925  16.039 -0.7680 -0.1022  0.2236
  685TMC3    C310182   0.515   0.900  15.932 -0.4300  0.4464  0.6185
  685TMC3    C410183   0.577   0.781  16.163  0.3064  0.0310 -0.2395
  685TMC3    C510184   0.662   0.766  16.058  0.6833 -0.5746  0.0540
  685TMC3    C610185   0.632   0.827  15.943  0.9275 -0.3183 -0.6911
  685TMC3     C10186   0.419   0.918  16.281  0.0053  0.2022  0.1381
  685TMC3     O10187   0.417   0.834  16.369  0.2584  0.4843 -0.0127
  685TMC3     H10188   0.343   0.984  16.034 -2.7493 -3.1317  0.3362
  685TMC3    H110189   0.599   0.724  16.252  1.2883  1.3909  0.3934
  685TMC3    H210190   0.693   0.803  15.857 -0.0007  3.1677 -2.3113
  685TMC3    C710191   0.779   0.679  16.072  0.1724  0.0464  0.7695
  685TMC3    C810192   0.476   0.953  15.801  0.5741 -0.4543  0.0117
  685TMC3    O110193   0.759   0.585  16.146 -0.2666  0.2842 -0.5826
  685TMC3    O210194   0.558   0.980  15.717 -0.0340  0.3454 -0.3098
  686MPD2     C10195   1.306   1.126  15.302 -0.2082 -0.1741 -0.0374
  686MPD2    C110196   1.394   1.056  15.374  0.1248  1.0738  0.3795
  686MPD2    C210197   1.526   1.085  15.350  0.4886 -0.3528  0.5695
  686MPD2    C310198   1.563   1.149  15.234 -0.6505 -0.0819 -0.9406
  686MPD2    C410199   1.467   1.202  15.148  0.4827 -0.2178  0.2921
  686MPD2    C510200   1.340   1.198  15.191 -0.7322 -0.2107  0.4668
  686MPD2     H10201   1.607   1.046  15.411 -0.3842 -0.7311  1.4852
  686MPD2    H110202   1.489   1.251  15.054  0.7583  0.1512  0.5483
  686MPD2    H210203   1.200   1.121  15.324 -0.3574  0.9926 -0.4871
  686MPD2    H310204   1.264   1.247  15.129 -0.1720  1.6525  1.2659
  686MPD2     N10205   1.699   1.156  15.197  0.0407 -0.6974 -0.6980
  686MPD2    H510206   1.717   1.227  15.126 -2.7138 -1.6823 -2.3638
  686MPD2    N110207   1.354   0.954  15.466 -0.0108 -0.6141 -0.3070
  686MPD2    H710208   1.254   0.939  15.473  0.3030 -1.3850  2.4944
  687TMC3    C110209   1.798   0.956  15.289 -0.5668  0.2054  0.5869
  687TMC3    C210210   1.713   0.864  15.236 -0.1212 -0.4820  0.0761
  687TMC3    C310211   1.715   0.747  15.310 -0.3949 -0.8369  0.2493
  687TMC3    C410212   1.869   0.935  15.403  0.5153 -0.1777 -0.2195
  687TMC3    C510213   1.881   0.813  15.461  1.2016  0.0141 -0.0183
  687TMC3    C610214   1.802   0.712  15.414  0.2472 -0.0778  0.1196
  687TMC3     C10215   1.809   1.089  15.243  0.2714 -0.7750 -0.1220
  687TMC3     O10216   1.928   1.112  15.217  0.7305 -0.2656  0.1490
  687TMC3     H10217   1.651   0.880  15.149 -1.7436 -0.0931  1.3005
  687TMC3    H110218   1.907   1.020  15.458 -0.1367  0.0279 -0.0821
  687TMC3    H210219   1.801   0.623  15.474  0.4741 -0.9665 -1.1924
  687TMC3    C710220   1.952   0.797  15.591 -0.8954  0.6894 -0.1072
  687TMC3    C810221   1.603   0.648  15.302 -0.4014  0.2419  0.2532
  687TMC3    O110222   2.076   0.805  15.591  0.5678  0.4882 -0.1576
  687TMC3    O210223   1.599   0.558  15.388  0.2511  0.6257 -0.2876
  688MPD2     C10224   0.798   4.615  17.173  0.2523  0.0986  0.1792
  688MPD2    C110225   0.752   4.493  17.213  0.3103 -0.1801  0.3062
  688MPD2    C210226   0.808   4.382  17.147  0.2335 -0.6402 -0.1797
  688MPD2    C310227   0.918   4.393  17.061  0.1155 -0.4875 -0.0847
  688MPD2    C410228   0.968   4.518  17.038 -0.4197 -0.3658  0.1929
  688MPD2    C510229   0.900   4.619  17.089  0.5300 -1.1356 -0.5960
  688MPD2     H10230   0.783   4.291  17.199 -1.0698  0.0712  0.4308
  688MPD2    H110231   1.060   4.535  16.984 -1.4244  1.4937 -0.9515
  688MPD2    H210232   0.754   4.709  17.203 -0.7547 -1.0365  2.2436
  688MPD2    H310233   0.928   4.719  17.060  2.5984 -0.7230  2.8001
  688MPD2     N10234   0.994   4.274  17.021  0.1265 -0.8510 -1.0494
  688MPD2    H510235   1.082   4.295  16.975  0.3230  0.0302 -0.2776
  688MPD2    N110236   0.644   4.473  17.314  0.2663 -0.2166 -0.1715
  688MPD2    H710237   0.622   4.375  17.328  2.5052 -0.5916  0.7615
  689TMC3    C110238   0.508   4.534  17.496  0.6066  0.8065 -0.8040
  689TMC3    C210239   0.457   4.630  17.583  0.1154 -1.2529 -0.3216
  689TMC3    C310240   0.380   4.585  17.691 -0.0724 -1.3003  0.2301
  689TMC3    C410241   0.478   4.403  17.510  0.3753  0.2603 -0.6185
  689TMC3    C510242   0.403   4.367  17.619 -0.0911 -0.5044  0.3630
  689TMC3    C610243   0.350   4.453  17.711 -0.3032 -0.0373 -0.0318
  689TMC3     C10244   0.587   4.577  17.388  0.4115 -0.0956 -0.0891
  689TMC3     O10245   0.606   4.697  17.364 -0.2522 -0.2144  0.4908
  689TMC3     H10246   0.494   4.731  17.582 -0.0780 -1.1545  1.9011
  689TMC3    H110247   0.529   4.324  17.455 -3.0566 -1.4009 -1.3853
  689TMC3    H210248   0.325   4.409   0.065 -1.3621 -0.6206 -0.5730
  689TMC3    C710249   0.460   4.252  17.686  0.0938  0.2476 -0.3726
  689TMC3    C810250   0.363   4.674   0.059 -0.7640  0.3297 -0.7275
  689TMC3    O110251   0.547   4.278   0.028  0.1493 -0.1729  0.3163
  689TMC3    O210252   0.445   0.031   0.075  0.5476 -0.2801 -0.1766
  690MPD2     C10253   2.726   1.741  16.065 -0.0345  0.6617  0.2788
  690MPD2    C110254   2.814   1.641  16.033  0.3191  0.2468 -0.0956
  690MPD2    C210255   2.902   1.660  15.933  0.7453  1.0318  0.3815
  690MPD2    C310256   2.886   1.763  15.849  0.3451 -0.4456  0.0647
  690MPD2    C410257   2.795   1.862  15.878 -0.5138 -0.5444 -0.3780
  690MPD2    C510258   2.716   1.857  15.989 -0.6678 -0.2716 -0.4451
  690MPD2     H10259   2.974   1.583  15.908 -0.3891  0.1945 -0.3068
  690MPD2    H110260   2.786   1.945  15.810 -1.3711 -0.8407 -0.6307
  690MPD2    H210261   2.661   1.744  16.152 -1.5458  2.8744 -0.9070
  690MPD2    H310262   2.641   1.933  16.003 -0.0441  0.5262 -1.4593
  690MPD2     N10263   2.970   1.766  15.731 -0.0912  0.3300  0.2359
  690MPD2    H510264   3.049   1.703  15.733  0.4089  1.0055  2.0146
  690MPD2    N110265   2.826   1.518  16.095  0.5143  0.1063  0.5149
  690MPD2    H710266   2.895   1.449  16.066 -0.4901 -1.1154  1.0125
  691TMC3    C110267   2.750   1.328  16.220  0.0366  0.6829 -0.1730
  691TMC3    C210268   2.642   1.302  16.306 -0.0571  0.8961  0.2483
  691TMC3    C310269   2.552   1.207  16.262  0.2833 -0.1021  0.0858
  691TMC3    C410270   2.770   1.253  16.112  0.1738  0.6266 -0.5927
  691TMC3    C510271   2.689   1.147  16.086  0.2237  0.0258 -0.2209
  691TMC3    C610272   2.570   1.123  16.154  0.1755  0.3755  0.1049
  691TMC3     C10273   2.736   1.471  16.186 -0.1106  1.0947 -0.3697
  691TMC3     O10274   2.631   1.524  16.225  0.4420  0.2424  0.1112
  691TMC3     H10275   2.627   1.362  16.396 -0.0798  1.7453 -0.3179
  691TMC3    H110276   2.840   1.293  16.040  0.1110 -0.0943 -1.0506
  691TMC3    H210277   2.497   1.048  16.125  0.8065  0.2902 -1.2715
  691TMC3    C710278   2.723   1.079  15.962 -0.2971 -0.0469  0.2937
  691TMC3    C810279   2.410   1.245  16.278 -0.0664 -0.1599 -0.5194
  691TMC3    O110280   2.818   1.129  15.899 -0.2256  0.1936 -0.3344
  691TMC3    O210281   2.320   1.173  16.240 -0.1606  0.7382 -0.2530
  692TMC3    C110282   4.471   2.742  16.017  0.0649 -0.5167  0.1775
  692TMC3    C210283   4.600   2.776  16.005 -0.2220  0.1837 -0.1990
  692TMC3    C310284   4.700   2.680  16.037 -0.0570  0.4676  0.6969
  692TMC3    C410285   4.440   2.621  16.075 -0.0324  0.7506  0.6175
  692TMC3    C510286   4.536   2.534  16.107  0.2546  0.4233 -0.2669
  692TMC3    C610287   4.667   2.553  16.074 -0.0748  0.1126 -0.6600
  692TMC3     C10288   4.384   2.845  16.059  0.2106 -0.3535  0.6966
  692TMC3     O10289   4.267   2.818  16.089  0.2806 -0.2946 -1.0209
  692TMC3     H10290   4.624   2.855  15.935 -3.2403  0.8572 -0.4718
  692TMC3    H110291   4.335   2.607  16.097  0.5707 -0.8440  2.4803
  692TMC3    H210292   0.008   2.489  16.117 -2.3301 -1.2124  1.4296
  692TMC3    C710293   4.493   2.406  16.161  0.1588  0.0315 -0.7501
  692TMC3    C810294   0.041   2.748  16.137  0.0747 -1.0023  0.1057
  692TMC3    O110295   4.374   2.377  16.138 -0.1242 -0.2860  0.0288
  692TMC3    O210296   0.044   2.688  16.244 -0.1762  0.6208  0.0683
  693MPD2     C10297   4.342   1.377  10.793 -0.1057 -0.5202 -0.5381
  693MPD2    C110298   4.297   1.275  10.873 -0.2418 -0.2577 -0.2808
  693MPD2    C210299   4.386   1.206  10.958 -0.1702  0.1694 -0.6997
  693MPD2    C310300   4.521   1.241  10.958  0.5343  0.0865 -0.8513
  693MPD2    C410301   4.559   1.349  10.880 -0.5043  0.1765 -0.1477
  693MPD2    C510302   4.476   1.414  10.795  0.5462 -0.2786  0.5939
  693MPD2     H10303   4.346   1.125  11.018  4.1931  1.2931  3.7463
  693MPD2    H110304   4.661   1.384  10.876 -0.7216  0.7912 -0.2150
  693MPD2    H210305   4.282   1.418  10.712  0.6031  4.6293  1.5777
  693MPD2    H310306   4.501   1.496  10.729 -0.0692  0.0454  0.7574
  693MPD2     N10307   4.611   1.168  11.032  0.2122  0.2059 -0.4026
  693MPD2    H510308   4.696   1.220  11.049 -1.3529  3.0224 -1.2099
  693MPD2    N110309   4.164   1.236  10.884 -0.0271  0.4005  0.1817
  693MPD2    H710310   4.137   1.177  10.963  0.4588  1.1279  0.8988
  694TMC3    C110311   3.929   1.215  10.850 -0.5856 -1.2185  0.7631
  694TMC3    C210312   3.849   1.147  10.757  0.3864  0.0828  0.1957
  694TMC3    C310313   3.735   1.097  10.810 -0.6599  0.9349 -0.0417
  694TMC3    C410314   3.893   1.243  10.980 -0.7223 -1.0664  0.1809
  694TMC3    C510315   3.784   1.176  11.023  0.1383 -0.3441 -0.4440
  694TMC3    C610316   3.695   1.121  10.940 -0.3838  0.0487 -0.3997
  694TMC3     C10317   4.056   1.262  10.798 -0.0479  0.0368 -0.8906
  694TMC3     O10318   4.062   1.301  10.683  0.5239 -0.2463 -0.2340
  694TMC3     H10319   3.896   1.115  10.665  2.4894 -0.7705  1.5834
  694TMC3    H110320   3.959   1.290  11.052 -1.8432 -3.9134  3.0458
  694TMC3    H210321   3.594   1.094  10.970  0.0871 -0.0594  1.0697
  694TMC3    C710322   3.768   1.159  11.165  0.2090 -1.1840 -0.2829
  694TMC3    C810323   3.665   0.988  10.742 -0.0351  0.0851 -0.2523
  694TMC3    O110324   3.802   1.257  11.233 -0.2866 -0.6581  0.4445
  694TMC3    O210325   3.593   0.919  10.812  0.4276  0.1438  0.6654
  695MPD2     C10326   0.364   1.834  13.418 -0.0557 -0.4328  0.5806
  695MPD2    C110327   0.351   1.950  13.491  0.7543 -0.0067 -0.8662
  695MPD2    C210328   0.259   2.038  13.445 -0.3259  0.6678  0.2204
  695MPD2    C310329   0.192   2.017  13.327  0.4682  0.8065  0.1113
  695MPD2    C410330   0.214   1.908  13.252  0.4332 -0.3107  0.0778
  695MPD2    C510331   0.298   1.813  13.298  0.2205 -0.4774  0.5835
  695MPD2     H10332   0.233   2.126  13.503  0.1355 -0.0269  1.4799
  695MPD2    H110333   0.161   1.878  13.163 -0.5418 -0.8349  0.8237
  695MPD2    H210334   0.422   1.750  13.454  1.4194  0.3304 -0.0284
  695MPD2    H310335   0.303   1.719  13.245  0.2258  0.0505 -0.3534
  695MPD2     N10336   0.094   2.110  13.292 -0.0922 -0.2288  0.1068
  695MPD2    H510337   0.059   2.173  13.364 -1.0093  1.7789 -2.1090
  695MPD2    N110338   0.415   1.973  13.614  0.4726 -0.4625 -0.0024
  695MPD2    H710339   0.385   2.051  13.671  0.8521 -2.4038  2.8343
  696TMC3    C110340   4.687   2.226  13.155 -0.5283 -0.0910  0.0001
  696TMC3    C210341   4.590   2.226  13.249 -0.1059 -0.3879  0.0851
  696TMC3    C310342   4.481   2.307  13.239 -0.6288 -0.2130  0.6289
  696TMC3    C410343   4.675   2.305  13.042  0.3569  0.5062  0.2968
  696TMC3    C510344   4.568   2.388  13.034  0.4088 -0.6346 -0.0559
  696TMC3    C610345   4.470   2.390  13.132 -0.0119  0.2239  0.1000
  696TMC3     C10346   0.068   2.147  13.166  1.4244  0.0038 -0.5720
  696TMC3     O10347   0.125   2.137  13.060  0.0224  0.6500  0.1188
  696TMC3     H10348   4.577   2.148  13.323  0.9055 -2.7708 -2.2369
  696TMC3    H110349   0.016   2.299  12.966 -1.7443 -2.4638 -1.5908
  696TMC3    H210350   4.398   2.471  13.132 -0.4822 -0.2056  3.5993
  696TMC3    C710351   4.601   2.505  12.959  0.4265 -0.4574  0.4150
  696TMC3    C810352   4.478   2.382  13.364  0.9498 -0.3686  0.5838
  696TMC3    O110353   4.684   2.496  12.866  0.0496 -0.1383  0.4234
  696TMC3    O210354   4.560   2.346  13.448  0.3755  0.5089  0.0088
  697MPD2     C10355   4.612   4.187  15.610 -0.4314  0.3283  0.0939
  697MPD2    C110356   4.526   4.119  15.521 -0.5965  0.1762 -0.3194
  697MPD2    C210357   4.481   4.196  15.414  0.1265 -0.2105 -0.2518
  697MPD2    C310358   4.521   4.324  15.382 -0.0440  0.1961  0.5812
  697MPD2    C410359   4.623   4.372  15.460  0.2726 -0.2040  0.6503
  697MPD2    C510360   4.656   4.314  15.578  0.2856  0.4712 -0.6882
  697MPD2     H10361   4.409   4.154  15.345  0.2910 -0.5713 -0.2040
  697MPD2    H110362   4.668   4.469  15.442 -1.8217  0.3596 -1.4746
  697MPD2    H210363   4.646   4.143  15.702  0.6797 -1.6606 -1.2834
  697MPD2    H310364   4.721   4.361  15.651  0.3190  0.5699 -0.7820
  697MPD2     N10365   4.477   4.393  15.261  0.0669 -0.2110  0.4080
  697MPD2    H510366   4.398   4.355  15.210  0.2701 -1.4454  1.0179
  697MPD2    N110367   4.475   3.990  15.540 -0.9729  0.1152  0.4574
  697MPD2    H710368   4.423   3.950  15.463 -2.1874  1.8068  0.4154
  698TMC3    C110369   4.468   4.579  15.116  0.2384  0.3335 -0.1027
  698TMC3    C210370   4.480   4.714  15.116  0.4894 -0.1261  0.4071
  698TMC3    C310371   4.409   0.049  15.021 -0.1072  0.0424 -0.8640
  698TMC3    C410372   4.378   4.521  15.032  0.4451 -0.5323  0.0716
  698TMC3    C510373   4.305   4.600  14.947 -0.2862 -0.3651 -0.4399
  698TMC3    C610374   4.317   4.729  14.935  0.1809 -0.2274  0.3376
  698TMC3     C10375   4.536   4.510  15.219  0.3058  0.3608  0.6482
  698TMC3     O10376   4.630   4.575  15.261 -0.1032  0.2342 -0.7285
  698TMC3     H10377   4.532   0.020  15.201 -0.9791  0.9175  0.7930
  698TMC3    H110378   4.389   4.415  15.013 -2.4487 -0.6569 -0.8819
  698TMC3    H210379   4.253   0.054  14.872  0.2667 -1.3975 -0.8830
  698TMC3    C710380   4.241   4.534  14.838 -0.7118 -0.2205  0.0760
  698TMC3    C810381   4.444   0.187  14.999  0.6887  0.1549  0.4351
  698TMC3    O110382   4.240   4.587  14.726  1.0337  0.3937 -0.5801
  698TMC3    O210383   4.353   0.270  14.970  0.1700  0.3961 -0.2500
  699TMC3    C110384   4.284   2.474  12.761 -0.1808  0.3573 -0.4944
  699TMC3    C210385   4.297   2.341  12.733  0.3911 -0.4424  0.3979
  699TMC3    C310386   4.207   2.260  12.787  0.2506  0.0639  0.0720
  699TMC3    C410387   4.175   2.521  12.828 -0.0589 -0.0873 -0.2934
  699TMC3    C510388   4.077   2.440  12.863 -0.2693  0.3004 -0.6665
  699TMC3    C610389   4.094   2.307  12.848 -0.4242  0.1472 -0.6024
  699TMC3     C10390   4.383   2.570  12.714  0.2210 -0.4797 -0.2966
  699TMC3     O10391   4.371   2.680  12.764 -0.9760  0.3016 -0.0269
  699TMC3     H10392   4.387   2.297  12.691  1.9591  1.9182  1.2775
  699TMC3    H110393   4.169   2.626  12.857 -0.8085 -0.7106  1.7866
  699TMC3    H210394   4.016   2.236  12.872 -0.6060  0.0366 -1.5464
  699TMC3    C710395   3.960   2.484  12.936  0.9810  0.0394 -0.2630
  699TMC3    C810396   4.268   2.154  12.876 -0.6619  0.5445 -0.6807
  699TMC3    O110397   3.887   2.391  12.979 -0.1794 -0.2782 -0.1087
  699TMC3    O210398   4.197   2.108  12.965  0.3877 -0.2126  0.0652
  700TMC3    C110399   3.906   4.694  17.236  0.1270  0.2284 -0.2034
  700TMC3    C210400   3.990   4.628  17.153 -0.2139  0.6886  0.2154
  700TMC3    C310401   4.082   4.547  17.211  0.0235  0.0748 -0.3562
  700TMC3    C410402   3.906   4.684  17.380 -0.5503 -0.0200 -0.0618
  700TMC3    C510403   4.003   4.596  17.433 -0.7379  0.2062 -0.0344
  700TMC3    C610404   4.084   4.530  17.348 -0.1751 -0.2885  0.1822
  700TMC3     C10405   3.809   0.056  17.181  0.5895  0.4895  0.0108
  700TMC3     O10406   3.715   0.089  17.254  0.1640  0.4592 -0.1045
  700TMC3     H10407   3.993   4.644  17.046  0.0785  0.0999  0.1361
  700TMC3    H110408   3.867   0.026  17.445 -0.2658  1.9053 -2.2165
  700TMC3    H210409   4.149   4.459  17.397  0.1496 -0.2228 -0.1554
  700TMC3    C710410   4.051   4.617  17.564 -0.0276 -0.1448  0.3482
  700TMC3    C810411   4.186   4.493  17.123 -0.5229  0.2255  0.2608
  700TMC3    O110412   4.078   4.517  17.621  0.0381  0.0175 -0.0092
  700TMC3    O210413   4.160   4.475  17.005 -0.5197  0.4164 -0.1916
  701TMC3    C110414   3.877   3.419  15.571 -0.1527  0.1180 -0.0773
  701TMC3    C210415   3.924   3.398  15.442  0.2398 -0.2590  0.1200
  701TMC3    C310416   4.008   3.491  15.381  0.2065 -0.1484 -0.0802
  701TMC3    C410417   3.910   3.535  15.637 -0.5076 -0.4713 -0.0203
  701TMC3    C510418   3.999   3.624  15.581 -0.6050  0.9350  0.3593
  701TMC3    C610419   4.049   3.603  15.452 -0.1914  0.0307 -0.2409
  701TMC3     C10420   3.768   3.343  15.618 -0.6346  0.3581 -0.9216
  701TMC3     O10421   3.688   3.396  15.691 -0.3067  0.6740 -0.1879
  701TMC3     H10422   3.895   3.304  15.398  0.3807 -0.3821  0.2900
  701TMC3    H110423   3.861   3.556  15.731 -0.9007 -0.0248 -0.3273
  701TMC3    H210424   4.093   3.680  15.390  0.5482  0.0977  0.3666
  701TMC3    C710425   3.999   3.764  15.617 -0.1902 -0.0954 -0.1208
  701TMC3    C810426   4.029   3.484  15.240  0.0658  1.3797 -0.0967
  701TMC3    O110427   4.050   3.836  15.535  0.4178 -0.1513 -0.2839
  701TMC3    O210428   4.128   3.544  15.202  0.3004 -0.5598 -0.2259
  702MPD2     C10429   3.171   1.361  10.239  0.4372  0.2490 -0.3131
  702MPD2    C110430   3.204   1.428  10.358 -0.0327 -0.8411  0.4256
  702MPD2    C210431   3.285   1.539  10.332 -0.4673 -0.5645  0.1080
  702MPD2    C310432   3.319   1.586  10.209  1.0189  0.2739  0.2779
  702MPD2    C410433   3.296   1.511  10.105 -0.1296 -0.1097 -0.1914
  702MPD2    C510434   3.215   1.398  10.119 -0.5414  0.2146 -0.5708
  702MPD2     H10435   3.339   1.572  10.420 -1.3872  1.1513  0.0282
  702MPD2    H110436   3.333   1.536  10.006  0.6263 -1.1948 -0.1838
  702MPD2    H210437   3.106   1.275  10.249 -0.2322  0.6427 -1.2527
  702MPD2    H310438   3.191   1.338  10.031 -1.6704  0.4365 -0.4054
  702MPD2     N10439   3.404   1.695  10.197  0.7037  0.8120  0.2589
  702MPD2    H510440   3.465   1.690  10.116  0.1372 -0.5927 -0.0694
  702MPD2    N110441   3.176   1.379  10.489  0.2120 -0.3554  0.4246
  702MPD2    H710442   3.211   1.431  10.568 -0.9176  1.4644 -0.2859
  703TMC3    C110443   3.322   1.851  10.366  0.0721  0.3638 -0.4141
  703TMC3    C210444   3.187   1.839  10.336  0.0371 -0.4709 -0.5368
  703TMC3    C310445   3.097   1.863  10.438  0.5373  0.5152 -0.6793
  703TMC3    C410446   3.369   1.920  10.469 -0.4996 -0.0150  0.4181
  703TMC3    C510447   3.273   1.959  10.560  0.1606  0.1507 -0.0517
  703TMC3    C610448   3.140   1.933  10.545  0.0644 -0.0225  0.1774
  703TMC3     C10449   3.427   1.799  10.285 -0.1439 -0.4097 -0.7585
  703TMC3     O10450   3.522   1.875  10.276  0.4942  0.0373  0.1584
  703TMC3     H10451   3.146   1.783  10.253  1.1755  0.0326 -1.4518
  703TMC3    H110452   3.476   1.931  10.481 -0.9277  2.1165  2.3352
  703TMC3    H210453   3.065   1.968  10.614 -0.1169 -0.2423  0.0915
  703TMC3    C710454   3.314   2.062  10.653 -0.1254 -0.0362  0.6515
  703TMC3    C810455   2.996   1.767  10.467  0.7908  0.6441 -0.4914
  703TMC3    O110456   3.221   2.101  10.725 -0.4826  0.0576 -0.1612
  703TMC3    O210457   2.980   1.673  10.393 -0.2385  0.2964 -0.3651
  704TMC3    C110458   0.377   3.947  12.569  0.6435 -0.8012  0.2188
  704TMC3    C210459   0.397   3.887  12.450  0.6412 -0.5878 -0.0036
  704TMC3    C310460   0.449   3.760  12.453  0.3505 -0.3769  0.4932
  704TMC3    C410461   0.386   3.882  12.686 -0.5246 -0.4408  0.3020
  704TMC3    C510462   0.429   3.754  12.681 -0.1560  0.1952 -0.6775
  704TMC3    C610463   0.453   3.682  12.571 -0.4851  0.8825 -0.1051
  704TMC3     C10464   0.323   4.082  12.576  0.6118 -1.1278 -0.1295
  704TMC3     O10465   0.226   4.090  12.645 -0.3621 -0.1715 -0.3572
  704TMC3     H10466   0.369   3.952  12.368  0.3787  0.6723  1.0993
  704TMC3    H110467   0.375   3.928  12.783 -2.1426  0.6206 -0.3706
  704TMC3    H210468   0.504   3.587  12.564  0.2975  1.2178  1.0358
  704TMC3    C710469   0.495   3.691  12.795 -0.3611 -0.3492  0.2876
  704TMC3    C810470   0.489   3.686  12.330  0.2503 -0.0401 -0.1914
  704TMC3    O110471   0.483   3.568  12.795  0.0768  0.0270 -0.4750
  704TMC3    O210472   0.518   3.568  12.344  0.5167  0.1654 -0.2572
  705MPD2     C10473   0.423   2.408  16.766 -0.4479 -0.2121  0.0972
  705MPD2    C110474   0.329   2.446  16.672  1.3167 -0.5506  0.0760
  705MPD2    C210475   0.222   2.521  16.713 -0.3703  0.7166  0.0704
  705MPD2    C310476   0.196   2.546  16.851 -0.7210 -0.6367  0.0141
  705MPD2    C410477   0.283   2.495  16.942 -0.9439  0.4495  0.1435
  705MPD2    C510478   0.399   2.438  16.898 -0.8738  0.0145  0.0415
  705MPD2     H10479   0.157   2.540  16.629  0.6051  0.0038 -0.8564
  705MPD2    H110480   0.273   2.496  17.050 -0.1178 -0.1676  0.2223
  705MPD2    H210481   0.514   2.354  16.743 -0.4494  0.4781 -1.4799
  705MPD2    H310482   0.473   2.403  16.969 -0.5141  2.9511  1.1173
  705MPD2     N10483   0.076   2.605  16.900  0.4746  0.6988  0.0457
  705MPD2    H510484   0.059   2.606  17.000  1.1061  0.6165  0.1568
  705MPD2    N110485   0.350   2.414  16.535 -0.0516  0.4415  0.2548
  705MPD2    H710486   0.269   2.433  16.476 -0.6053  2.3855  1.6414
  706TMC3    C110487   0.409   2.222  16.138 -0.6090  0.2891 -0.6640
  706TMC3    C210488   0.342   2.323  16.069 -0.1106 -0.8210  0.8158
  706TMC3    C310489   0.329   2.440  16.140  0.8653 -0.2392  0.1440
  706TMC3    C410490   0.463   2.232  16.264 -0.9935 -0.2983 -0.6943
  706TMC3    C510491   0.437   2.345  16.329  0.0520  0.2672  0.5022
  706TMC3    C610492   0.374   2.448  16.268 -0.1365  0.6169  0.6132
  706TMC3     C10493   0.386   2.082  16.094 -0.2370  0.0549  0.3768
  706TMC3     O10494   0.443   1.991  16.152 -0.4603 -0.3592  0.1440
  706TMC3     H10495   0.298   2.311  15.971 -0.7827 -1.5067  1.2048
  706TMC3    H110496   0.502   2.140  16.306  0.5340 -0.3008 -2.1662
  706TMC3    H210497   0.380   2.548  16.309 -0.3541  0.0169  2.0916
  706TMC3    C710498   0.447   2.344  16.476  0.0483  0.0767  0.2832
  706TMC3    C810499   0.306   2.552  16.056  0.7784  0.8602  0.2884
  706TMC3    O110500   0.544   2.279  16.517 -0.4662  0.0463 -0.5748
  706TMC3    O210501   0.235   2.554  15.957  0.2190  0.0013  0.2834
  707TMC3    C110502   2.423   1.575   0.662  0.3879  0.0457 -0.3917
  707TMC3    C210503   2.326   1.495   0.711 -0.3438  0.3045  0.0245
  707TMC3    C310504   2.200   1.493   0.659  0.2739 -0.4817 -0.6815
  707TMC3    C410505   2.391   1.662   0.560 -0.2744 -0.0508 -0.1346
  707TMC3    C510506   2.261   1.670   0.521  0.2589  0.4657 -0.1250
  707TMC3    C610507   2.157   1.588   0.571 -0.3087  0.5782 -0.8869
  707TMC3     C10508   2.554   1.545   0.708  0.0210 -0.3083  0.3448
  707TMC3     O10509   2.560   1.451   0.789 -0.2094 -0.4427 -1.1351
  707TMC3     H10510   2.348   1.427   0.792 -1.3575 -0.8706 -0.6921
  707TMC3    H110511   2.464   1.727   0.514  1.3670 -1.6766  0.2191
  707TMC3    H210512   2.053   1.582   0.539 -1.3881  3.7050  1.9967
  707TMC3    C710513   2.222   1.773   0.436  0.2599  0.0172 -0.2026
  707TMC3    C810514   2.091   1.402   0.717  0.1009 -0.1527 -0.2717
  707TMC3    O110515   2.312   1.849   0.398  0.4359 -0.0608 -0.1661
  707TMC3    O210516   1.974   1.442   0.714 -0.1732  0.4837  0.6745
  708MPD2     C10517   3.997   0.846  13.884  0.5189  0.3163  0.2825
  708MPD2    C110518   3.884   0.851  13.954 -0.4225  0.0171  0.0535
  708MPD2    C210519   3.883   0.805  14.084 -0.2708 -0.4068 -0.2602
  708MPD2    C310520   3.998   0.749  14.137 -0.2387  0.8304 -0.2358
  708MPD2    C410521   4.119   0.744  14.064 -0.3161 -0.4728 -0.5713
  708MPD2    C510522   4.109   0.798  13.941 -0.1546 -0.1396 -0.2062
  708MPD2     H10523   3.795   0.807  14.147  1.0860 -3.1269  1.7158
  708MPD2    H110524   4.214   0.708  14.100  0.1812  0.6661 -0.7514
  708MPD2    H210525   4.004   0.897  13.788  0.7944  0.1845  0.2308
  708MPD2    H310526   4.190   0.822  13.874 -0.3527 -0.6955 -0.6389
  708MPD2     N10527   3.994   0.705  14.271  0.2814  0.0819 -0.0684
  708MPD2    H510528   3.898   0.701  14.306  0.5259 -0.2165  0.5787
  708MPD2    N110529   3.770   0.887  13.887  0.3016 -0.0997 -0.0858
  708MPD2    H710530   3.770   0.905  13.787  0.4857 -0.4098 -0.1407
  709TMC3    C110531   3.541   0.885  13.847 -0.4863 -0.4780 -0.0252
  709TMC3    C210532   3.559   0.795  13.754  0.6276  0.6602  0.5480
  709TMC3    C310533   3.448   0.717  13.729 -0.9344 -0.3295 -0.1507
  709TMC3    C410534   3.415   0.915  13.899 -0.4638 -0.5156 -0.2741
  709TMC3    C510535   3.316   0.828  13.882  0.0327  0.3168  0.0227
  709TMC3    C610536   3.335   0.727  13.798  0.3218  0.2101 -0.0136
  709TMC3     C10537   3.647   0.901  13.947 -0.5399  0.5130  0.1915
  709TMC3     O10538   3.617   0.931  14.061 -0.0862  0.1718  0.3735
  709TMC3     H10539   3.657   0.755  13.730 -0.6136 -0.3599 -2.8395
  709TMC3    H110540   3.387   1.003  13.955  0.4555  0.9435 -2.1105
  709TMC3    H210541   3.253   0.656  13.785  0.9947 -0.7942  1.3263
  709TMC3    C710542   3.258   0.803  14.014  0.1504 -0.2121 -0.0527
  709TMC3    C810543   3.449   0.625  13.619 -0.2855 -0.4674  0.1946
  709TMC3    O110544   3.141   0.756  14.026  0.3472 -0.3246 -0.1335
  709TMC3    O210545   3.375   0.531  13.628 -0.1644 -0.5184  0.3012
  710TMC3    C110546   4.313   1.641   0.417 -0.6045  0.2754 -0.3932
  710TMC3    C210547   4.418   1.690   0.345  0.1861  0.1228 -0.2823
  710TMC3    C310548   4.515   1.604   0.297  0.2736 -0.1299  0.3021
  710TMC3    C410549   4.314   1.515   0.459  0.2861 -0.5990  0.1940
  710TMC3    C510550   4.418   1.431   0.409 -1.0678 -0.0668 -0.9558
  710TMC3    C610551   4.524   1.471   0.327  0.1247 -0.0987 -0.3079
  710TMC3     C10552   4.220   1.730   0.482  0.1741 -0.2113  0.5185
  710TMC3     O10553   4.110   1.683   0.501 -0.8629 -0.3505  0.3629
  710TMC3     H10554   4.423   1.795   0.317  2.5230 -0.1049 -0.7501
  710TMC3    H110555   4.233   1.472   0.517 -0.9610 -0.0033 -1.1014
  710TMC3    H210556   4.608   1.414   0.289 -1.6945 -1.4696 -2.2677
  710TMC3    C710557   4.475   1.334   0.494  0.5476 -0.1972 -0.1933
  710TMC3    C810558   4.618   1.663   0.213 -0.2093  0.2548 -0.2012
  710TMC3    O110559   4.592   1.322   0.491 -0.2081  0.6336  0.3098
  710TMC3    O210560   4.593   1.771   0.167 -0.6785  0.0256  0.5260
  711TMC3    C110561   4.187   2.906  14.694  0.3882  0.1543  0.0824
  711TMC3    C210562   4.086   2.966  14.759 -0.4106 -0.2241  0.0649
  711TMC3    C310563   4.123   3.088  14.814 -0.0627 -0.3265 -0.6640
  711TMC3    C410564   4.314   2.958  14.676 -0.0419  0.1396  0.8353
  711TMC3    C510565   4.344   3.085  14.732 -0.3083  0.3121  0.2292
  711TMC3    C610566   4.242   3.153  14.794 -0.3710 -0.6427  0.3619
  711TMC3     C10567   4.157   2.783  14.626  0.2846  0.4760  0.3798
  711TMC3     O10568   4.041   2.769  14.589 -0.0009 -0.1224 -0.1091
  711TMC3     H10569   3.990   2.919  14.780 -0.3202 -0.6377 -0.4486
  711TMC3    H110570   4.384   2.904  14.614 -0.4173  0.3971  0.1889
  711TMC3    H210571   4.264   3.255  14.825  1.2754 -1.1020  0.6863
  711TMC3    C710572   4.469   3.102  14.806 -0.0015 -0.7080  0.2208
  711TMC3    C810573   4.072   3.098  14.948 -0.1605 -0.4106 -0.2508
  711TMC3    O110574   4.440   3.139  14.921  0.2845  0.2059  0.4422
  711TMC3    O210575   3.964   3.050  14.977  0.5625  0.1323 -0.4713
  712MPD2     C10576   0.991   3.788  13.961  0.5130 -0.1953 -0.3519
  712MPD2    C110577   0.922   3.846  13.856 -0.1511  0.3099  0.0387
  712MPD2    C210578   0.948   3.975  13.830 -0.1422  0.3217 -0.3170
  712MPD2    C310579   1.029   4.052  13.908 -0.2288 -0.5946 -0.6003
  712MPD2    C410580   1.093   3.997  14.014  0.1650  0.6852 -0.4822
  712MPD2    C510581   1.080   3.864  14.036 -0.4710 -0.8189 -0.2207
  712MPD2     H10582   0.909   4.020  13.739 -0.0378  0.7952 -0.1321
  712MPD2    H110583   1.161   4.050  14.080 -0.5940  0.3546  0.5512
  712MPD2    H210584   0.988   3.687  14.000  1.0213 -0.9716 -2.3567
  712MPD2    H310585   1.132   3.814  14.117  0.9813 -0.6094 -1.0165
  712MPD2     N10586   1.048   4.191  13.887 -0.6710  0.3496  0.7500
  712MPD2    H510587   1.096   4.243  13.960 -1.0889  0.8475  0.6693
  712MPD2    N110588   0.828   3.780  13.775 -0.0645  0.4431  0.4539
  712MPD2    H710589   0.772   3.834  13.709 -0.0722 -1.8049 -1.3667
  713TMC3    C110590   1.025   4.415  13.822 -0.0339  0.3116  0.2576
  713TMC3    C210591   1.159   4.444  13.826 -0.7405 -0.4376  0.4792
  713TMC3    C310592   1.201   4.579  13.835  0.1453  0.0879  0.3043
  713TMC3    C410593   0.929   4.515  13.813  0.3048 -0.4096  0.3186
  713TMC3    C510594   0.973   4.644  13.837  0.1296  0.4822 -0.5319
  713TMC3    C610595   1.109   4.676  13.848  0.1068 -0.0885  0.0242
  713TMC3     C10596   0.983   4.275  13.792 -0.0202 -0.0795 -0.6441
  713TMC3     O10597   0.877   4.261  13.732 -0.7105  0.0355 -0.1551
  713TMC3     H10598   1.237   4.369  13.826  0.2631  0.5959  1.4555
  713TMC3    H110599   0.823   4.501  13.799  0.5858 -1.0349 -1.1152
  713TMC3    H210600   1.143   0.043  13.850 -1.8447  0.5483 -0.0959
  713TMC3    C710601   0.874   0.016  13.837 -0.6433 -0.6764  0.0917
  713TMC3    C810602   1.340   4.618  13.823  0.0592  1.1676 -0.5306
  713TMC3    O110603   0.767   4.731  13.786  1.0098 -0.0514  0.0402
  713TMC3    O210604   1.373   4.718  13.760 -0.2208 -0.0766  0.4459
  714MPD2     C10605   3.155   3.048   1.159  0.4832 -0.2003  0.4285
  714MPD2    C110606   3.159   2.917   1.112 -0.4381 -0.2362 -0.1047
  714MPD2    C210607   3.033   2.868   1.068  0.3484  0.0103 -0.0791
  714MPD2    C310608   2.920   2.951   1.068  0.2113 -0.8324  0.0059
  714MPD2    C410609   2.924   3.075   1.124 -0.2106  0.4614  0.9285
  714MPD2    C510610   3.044   3.125   1.166 -0.3687 -0.1703 -0.3017
  714MPD2     H10611   3.022   2.771   1.021  0.0997 -0.8218  1.6875
  714MPD2    H110612   2.842   3.145   1.135 -1.3163 -0.2331 -2.7628
  714MPD2    H210613   3.243   3.091   1.205 -0.2424  2.4530 -0.6386
  714MPD2    H310614   3.044   3.214   1.226  1.6143 -0.5144  0.2073
  714MPD2     N10615   2.795   2.896   1.011 -0.4902 -0.3760  0.3977
  714MPD2    H510616   2.799   2.798   0.983 -2.5105 -0.7233  1.3224
  714MPD2    N110617   3.281   2.850   1.096  0.3634  0.6832  0.3642
  714MPD2    H710618   3.362   2.899   1.132  1.0245  1.4351 -2.1800
  715TMC3    C110619   3.453   2.709   1.036 -0.2987 -0.3053 -0.1816
  715TMC3    C210620   3.498   2.591   0.990 -0.3864 -0.4368  0.1325
  715TMC3    C310621   3.633   2.567   0.988  0.8337  0.4373 -0.6061
  715TMC3    C410622   3.547   2.803   1.078  0.5394 -0.0538  0.2612
  715TMC3    C510623   3.680   2.772   1.090 -0.3428  0.5204  0.6929
  715TMC3    C610624   3.724   2.655   1.048 -0.9579 -0.3675 -0.5416
  715TMC3     C10625   3.307   2.727   1.042  0.5864  0.7278 -0.7238
  715TMC3     O10626   3.232   2.642   0.991 -0.1688 -0.4000 -0.3222
  715TMC3     H10627   3.431   2.515   0.950 -1.0882 -0.9607  2.3245
  715TMC3    H110628   3.518   2.905   1.102 -0.2941 -0.2213 -0.0549
  715TMC3    H210629   3.827   2.628   1.069 -0.4028  1.3327 -1.1181
  715TMC3    C710630   3.776   2.861   1.152 -0.3610  0.2392 -0.3073
  715TMC3    C810631   3.663   2.428   1.006 -0.6559 -0.0337  0.2585
  715TMC3    O110632   3.893   2.859   1.107  0.0980 -0.0395 -0.6191
  715TMC3    O210633   3.571   2.353   0.978 -0.0053 -0.0803  0.6914
  716MPD2     C10634   3.512   1.429   9.729  1.1454  0.9859 -0.4634
  716MPD2    C110635   3.408   1.526   9.717 -0.4826 -0.3906  0.0198
  716MPD2    C210636   3.298   1.498   9.636  0.3895 -0.0975  0.1721
  716MPD2    C310637   3.285   1.386   9.559 -0.1758 -0.3920 -0.6061
  716MPD2    C410638   3.385   1.290   9.571  0.5022  0.1295 -0.3883
  716MPD2    C510639   3.499   1.316   9.650 -0.2963  0.2860  0.5564
  716MPD2     H10640   3.215   1.565   9.618  1.3368  1.2127  0.6472
  716MPD2    H110641   3.381   1.196   9.518  0.3725  0.3699 -0.8057
  716MPD2    H210642   3.597   1.434   9.796  2.8549 -2.2781 -2.4330
  716MPD2    H310643   3.580   1.245   9.649  0.5902  1.2734  1.2351
  716MPD2     N10644   3.166   1.363   9.482 -0.1031 -0.4022  0.3717
  716MPD2    H510645   3.085   1.423   9.492  0.6061  0.4732  0.9079
  716MPD2    N110646   3.424   1.644   9.788  0.2003  0.0741 -0.1072
  716MPD2    H710647   3.505   1.660   9.846 -0.0152 -1.4932  0.6188
  717TMC3    C110648   3.018   1.221   9.360 -0.2525 -0.1990 -0.0817
  717TMC3    C210649   2.931   1.327   9.332 -0.1151 -0.0380 -0.5684
  717TMC3    C310650   2.812   1.295   9.269  0.4632  0.0313  0.2679
  717TMC3    C410651   2.990   1.100   9.308  0.1477  0.1901  0.3044
  717TMC3    C510652   2.869   1.079   9.237 -0.6777  0.0917 -0.0235
  717TMC3    C610653   2.779   1.175   9.217  0.5677  0.1906  0.3260
  717TMC3     C10654   3.152   1.254   9.401  0.1151  0.0010  0.4547
  717TMC3     O10655   3.236   1.183   9.353 -0.9218 -0.5524  0.2887
  717TMC3     H10656   2.950   1.429   9.364 -3.8459 -0.8549  4.3422
  717TMC3    H110657   3.066   1.023   9.318 -0.6260 -0.4932  0.9426
  717TMC3    H210658   2.684   1.150   9.171  1.4568 -0.2843 -1.2396
  717TMC3    C710659   2.867   0.966   9.156 -0.7468  0.4077  0.3128
  717TMC3    C810660   2.705   1.400   9.281 -0.1514  0.0359 -0.4856
  717TMC3    O110661   2.802   0.966   9.053  0.7945  0.1916  0.6890
  717TMC3    O210662   2.727   1.488   9.359 -0.5172 -0.9322 -0.0629
  718MPD2     C10663   2.603   4.725  13.432 -0.2435 -0.9276  0.1772
  718MPD2    C110664   2.640   4.655  13.315  0.1109  0.2374 -0.0415
  718MPD2    C210665   2.631   4.514  13.318  0.5550  0.3502 -0.2796
  718MPD2    C310666   2.587   4.439  13.436 -0.6576 -0.1136  0.8693
  718MPD2    C410667   2.540   4.510  13.548  0.6963  0.2712 -0.2969
  718MPD2    C510668   2.553   4.652  13.536  0.1561 -0.8245 -0.6033
  718MPD2     H10669   2.675   4.458  13.237 -0.9673  1.0975 -1.6331
  718MPD2    H110670   2.498   4.465  13.637  1.3679 -0.4481 -0.3421
  718MPD2    H210671   2.595   0.097  13.437  1.1171 -0.9101  2.2183
  718MPD2    H310672   2.509   4.709  13.617  2.2352  0.4594 -0.3853
  718MPD2     N10673   2.588   4.299  13.437 -0.3478  0.0882 -0.7342
  718MPD2    H510674   2.563   4.266  13.530 -1.1274 -0.9035 -1.2890
  718MPD2    N110675   2.679   4.726  13.200  0.2807 -0.7729 -0.0178
  718MPD2    H710676   2.682   0.091  13.209 -3.0850 -0.7148  0.2848
  719TMC3    C110677   2.680   0.041  12.971  0.1221  0.9167 -0.5514
  719TMC3    C210678   2.589   4.728  12.889 -0.4809 -0.5722  0.0761
  719TMC3    C310679   2.622   4.718  12.757 -0.2027 -0.3993 -0.1060
  719TMC3    C410680   2.804   0.084  12.931  0.5918  0.1185 -0.4429
  719TMC3    C510681   2.828   0.082  12.793 -0.1091 -0.3325  0.1063
  719TMC3    C610682   2.730   0.046  12.710  0.9484  0.0941  0.1172
  719TMC3     C10683   2.682   4.675  13.074  0.3304 -0.4289  0.8241
  719TMC3     O10684   2.648   4.559  13.046  0.1795  0.5631  0.5453
  719TMC3     H10685   2.495   4.689  12.929 -1.2198  0.3901 -0.7247
  719TMC3    H110686   2.877   0.087  13.011 -1.2309  0.9961  1.1862
  719TMC3    H210687   2.751   0.043  12.603  1.6180 -1.4727  0.2984
  719TMC3    C710688   2.958   0.111  12.734  0.5589 -0.2959 -0.0426
  719TMC3    C810689   2.616   4.587  12.693 -0.1489  0.7180 -0.3580
  719TMC3    O110690   2.988   0.058  12.631 -0.4952 -0.6043 -0.4642
  719TMC3    O210691   2.647   4.569  12.577  0.5954  0.5106  0.3594
  720MPD2     C10692   0.904   1.205  13.662  0.2105  0.3439 -0.1446
  720MPD2    C110693   0.984   1.297  13.597 -0.2378  0.0985 -0.0436
  720MPD2    C210694   1.099   1.341  13.658 -0.2131 -0.1244  0.0807
  720MPD2    C310695   1.125   1.319  13.789  0.6790  0.1881  0.7530
  720MPD2    C410696   1.042   1.234  13.859  0.5620  0.2171 -0.0173
  720MPD2    C510697   0.934   1.178  13.794  0.0316  0.2682 -0.5935
  720MPD2     H10698   1.153   1.415  13.601 -1.5391  2.1885  1.8600
  720MPD2    H110699   1.059   1.209  13.964  1.0307 -0.7999 -0.3351
  720MPD2    H210700   0.823   1.153  13.613 -0.3236  0.8307  0.2290
  720MPD2    H310701   0.868   1.109  13.846  1.2921 -1.8306 -1.7414
  720MPD2     N10702   1.229   1.393  13.850 -0.2618 -0.3344  1.2153
  720MPD2    H510703   1.286   1.453  13.791 -1.3890  0.3391  0.7987
  720MPD2    N110704   0.955   1.346  13.465 -0.2514 -0.0420  0.1471
  720MPD2    H710705   1.027   1.388  13.408 -0.9108 -1.5142 -1.7724
  721TMC3    C110706   1.367   1.461  14.032 -0.0097  0.5794  1.0351
  721TMC3    C210707   1.353   1.513  14.157 -0.9697  0.4468  0.6519
  721TMC3    C310708   1.466   1.557  14.216 -0.6947 -0.1451  0.6025
  721TMC3    C410709   1.486   1.455  13.965  0.0349  0.2066  1.1668
  721TMC3    C510710   1.592   1.515  14.029  0.0707 -0.4800 -0.7465
  721TMC3    C610711   1.587   1.559  14.153 -0.1685 -0.2790 -0.3395
  721TMC3     C10712   1.245   1.393  13.989  1.0383 -0.2952  0.5949
  721TMC3     O10713   1.163   1.363  14.077 -0.1895  0.0688 -0.1349
  721TMC3     H10714   1.257   1.510  14.207 -1.2421 -0.2001  0.1038
  721TMC3    H110715   1.504   1.407  13.869  0.3688  0.7269  0.9711
  721TMC3    H210716   1.677   1.597  14.199 -0.7069  0.5892 -0.0188
  721TMC3    C710717   1.727   1.466  14.002  0.1291 -0.0970 -0.0109
  721TMC3    C810718   1.463   1.597  14.353 -0.0618  0.2538  0.0019
  721TMC3    O110719   1.790   1.524  13.916 -0.2392  0.4063  0.2773
  721TMC3    O210720   1.565   1.653  14.391  0.3091 -0.8802 -0.3181
  722MPD2     C10721   0.082   0.160  13.185 -0.3837 -0.5893 -0.0849
  722MPD2    C110722   0.056   0.292  13.199 -0.3708 -0.2053 -1.0649
  722MPD2    C210723   4.670   0.338  13.152  0.1687 -0.2519 -0.0116
  722MPD2    C310724   4.575   0.252  13.095  0.5881  0.5339 -0.4578
  722MPD2    C410725   4.609   0.118  13.072 -0.0281  0.2333  0.7007
  722MPD2    C510726   4.730   0.079  13.123  0.8452 -0.2503  0.4325
  722MPD2     H10727   4.639   0.439  13.174 -1.2549 -1.1453  2.0538
  722MPD2    H110728   4.538   0.044  13.037 -0.5574  0.5139  1.1945
  722MPD2    H210729   0.176   0.116  13.214 -1.9944 -2.8813  1.5883
  722MPD2    H310730   0.027   4.712  13.109 -0.7107 -0.6176 -0.4687
  722MPD2     N10731   4.452   0.317  13.051  0.7227 -0.3695  0.1263
  722MPD2    H510732   4.437   0.416  13.067  0.3704 -0.4251  0.1349
  722MPD2    N110733   0.144   0.383  13.257 -0.6838 -0.4660 -0.2928
  722MPD2    H710734   0.122   0.482  13.259  2.1355  0.1206  2.4901
  723TMC3    C110735   4.237   0.325  12.960  0.0642  0.6351 -0.6120
  723TMC3    C210736   4.121   0.249  12.974 -0.4430  0.4920 -0.3220
  723TMC3    C310737   4.001   0.318  12.995  0.0048 -0.3503 -0.1900
  723TMC3    C410738   4.235   0.463  12.968  0.2555  0.1387 -0.2907
  723TMC3    C510739   4.113   0.531  12.985  0.1181  0.0193 -0.3489
  723TMC3    C610740   3.998   0.454  13.005 -1.3257  0.1687  0.9037
  723TMC3     C10741   4.357   0.253  12.978 -0.9423  0.2294 -0.5384
  723TMC3     O10742   4.349   0.137  12.937  0.1984  0.1312  0.2402
  723TMC3     H10743   4.121   0.145  13.005  0.0695  0.1589 -1.4347
  723TMC3    H110744   4.320   0.526  12.945 -1.5987  3.1853  1.1790
  723TMC3    H210745   3.898   0.498  13.007 -1.2684  0.3852 -1.5967
  723TMC3    C710746   4.106   0.661  12.916  0.3515  0.0271 -0.7042
  723TMC3    C810747   3.877   0.254  13.049 -0.6915  1.2524 -0.6773
  723TMC3    O110748   4.192   0.682  12.829  0.3473  0.0379  0.0025
  723TMC3    O210749   3.807   0.327  13.115 -0.1932  0.3717  0.1663
  724TMC3    C110750   4.590   2.632  10.385 -0.1663 -0.3361  0.0849
  724TMC3    C210751   4.496   2.723  10.347 -0.2210  0.2381 -0.1819
  724TMC3    C310752   4.517   2.861  10.332 -0.3600  0.3884 -0.2686
  724TMC3    C410753   4.717   2.682  10.420 -0.0413 -0.0595 -0.0157
  724TMC3    C510754   0.009   2.820  10.416 -0.2831  0.1051 -0.2722
  724TMC3    C610755   4.648   2.907  10.364 -0.2074 -0.2574  0.1811
  724TMC3     C10756   4.557   2.506  10.449  0.5022 -0.4835 -0.1331
  724TMC3     O10757   4.641   2.447  10.512  0.3849  0.2758  0.0534
  724TMC3     H10758   4.408   2.690  10.292 -0.4367  1.2562 -0.4487
  724TMC3    H110759   0.061   2.613  10.446 -0.8192 -0.3461  1.6133
  724TMC3    H210760   4.674   3.011  10.350 -3.0896  0.8342  2.9360
  724TMC3    C710761   0.149   2.870  10.416 -0.1015 -0.0179 -0.1379
  724TMC3    C810762   4.435   2.939  10.230 -0.1845  0.6849  0.4247
  724TMC3    O110763   0.161   2.975  10.361 -0.0854  0.0682  0.1424
  724TMC3    O210764   4.347   2.876  10.166  0.8331  0.3762 -0.2612
  725TMC3    C110765   1.784   1.879  13.010  0.2769  0.1651  0.3843
  725TMC3    C210766   1.713   1.928  12.906 -0.3091 -0.2040 -0.2656
  725TMC3    C310767   1.704   1.853  12.791  0.8994  0.3837  0.2225
  725TMC3    C410768   1.845   1.759  13.014  0.9376  0.0801 -0.3213
  725TMC3    C510769   1.840   1.687  12.891  0.5902 -0.3633  0.5087
  725TMC3    C610770   1.772   1.733  12.785 -0.0603  0.5327 -0.4861
  725TMC3     C10771   1.815   1.969  13.121  0.7952 -0.6479 -0.1059
  725TMC3     O10772   1.920   1.963  13.184  1.2345  0.2122 -0.6913
  725TMC3     H10773   1.662   2.024  12.909 -0.2428 -0.1627 -0.4499
  725TMC3    H110774   1.904   1.732  13.101  0.7724 -2.5599 -1.0464
  725TMC3    H210775   1.780   1.678  12.692  0.7693  1.1718 -0.7896
  725TMC3    C710776   1.930   1.578  12.865 -0.0242 -0.1536  0.3226
  725TMC3    C810777   1.642   1.892  12.662 -0.0477  0.6541 -0.3551
  725TMC3    O110778   1.905   1.496  12.783  0.3342 -0.3202  0.3631
  725TMC3    O210779   1.647   2.012  12.649  0.4981  0.9617  0.0963
  726MPD2     C10780   4.093   3.705  10.952 -0.2335 -0.2491 -0.4215
  726MPD2    C110781   3.977   3.702  10.873 -0.4142 -0.2884 -0.0290
  726MPD2    C210782   3.884   3.600  10.890 -0.2613  0.0688 -0.3628
  726MPD2    C310783   3.895   3.507  10.993  0.4932 -0.6930  0.4207
  726MPD2    C410784   4.014   3.509  11.071 -0.3691  0.5202 -0.4884
  726MPD2    C510785   4.108   3.612  11.049 -0.5347  0.4643  0.2831
  726MPD2     H10786   3.804   3.598  10.817 -1.0455 -0.5486  0.5019
  726MPD2    H110787   4.044   3.431  11.140  1.6027  0.6261 -1.2458
  726MPD2    H210788   4.169   3.781  10.937  0.2606 -0.3962  1.3751
  726MPD2    H310789   4.204   3.611  11.100  0.5684 -0.0699 -1.7938
  726MPD2     N10790   3.816   3.385  11.011  0.1686  0.3320  0.4478
  726MPD2    H510791   3.842   3.312  11.076  1.0183 -1.0495 -1.4525
  726MPD2    N110792   3.942   3.792  10.770 -0.3381  0.2655  0.5646
  726MPD2    H710793   3.849   3.781  10.731  0.0984 -0.3873 -0.2973
  727TMC3    C110794   3.939   3.978  10.644 -0.4242  0.2983  0.5359
  727TMC3    C210795   3.996   4.096  10.611 -0.3990  0.2100  0.3796
  727TMC3    C310796   3.957   4.155  10.499  0.0140  0.8415 -0.8495
  727TMC3    C410797   3.843   3.915  10.562 -0.8635  0.0366  0.2336
  727TMC3    C510798   3.807   3.978  10.449  0.4284 -0.0787 -0.9219
  727TMC3    C610799   3.870   4.100  10.411  0.7303 -0.2937 -0.0292
  727TMC3     C10800   4.013   3.904  10.738  0.0952 -0.8312  0.1540
  727TMC3     O10801   4.109   3.963  10.787  0.4134 -0.2065 -0.2341
  727TMC3     H10802   4.089   4.138  10.647 -1.4753  3.5566 -0.7746
  727TMC3    H110803   3.780   3.832  10.594 -1.7348 -0.3009 -2.3968
  727TMC3    H210804   3.839   4.154  10.322 -1.0305 -1.3083 -0.0263
  727TMC3    C710805   3.677   3.941  10.393 -0.0820  0.4473 -0.1620
  727TMC3    C810806   4.024   4.281  10.471 -0.5102  0.4267 -0.5813
  727TMC3    O110807   3.617   3.842  10.430  0.1942 -0.0594 -0.0582
  727TMC3    O210808   4.087   4.332  10.561 -0.3691 -0.3818  0.4595
  728TMC3    C110809   3.062   1.826  15.526 -0.1698 -0.3240 -0.7334
  728TMC3    C210810   3.187   1.795  15.571  0.8123 -0.2984 -0.3192
  728TMC3    C310811   3.286   1.810  15.481  0.0369  0.3586  0.4726
  728TMC3    C410812   3.034   1.855  15.397 -0.4655 -0.2988  0.5678
  728TMC3    C510813   3.143   1.861  15.305  0.1387 -0.3677  0.6384
  728TMC3    C610814   3.266   1.830  15.346 -0.4337  0.5085 -0.1664
  728TMC3     C10815   2.947   1.841  15.616  0.4665 -0.1121  0.3254
  728TMC3     O10816   2.849   1.913  15.589  0.0989 -0.4224 -0.1534
  728TMC3     H10817   3.204   1.759  15.672 -4.1619 -1.8528 -0.0080
  728TMC3    H110818   2.934   1.883  15.365 -0.2004 -0.9181 -0.8045
  728TMC3    H210819   3.341   1.824  15.267 -0.5204  3.9343 -0.5294
  728TMC3    C710820   3.112   1.856  15.167  0.0842 -0.4612 -0.4869
  728TMC3    C810821   3.419   1.809  15.537 -1.1510 -0.4061  0.3571
  728TMC3    O110822   2.997   1.815  15.150 -0.3344  0.3441 -0.3395
  728TMC3    O210823   3.426   1.760  15.645 -0.4236 -0.3227  0.0469
  729MPD2     C10824   0.606   2.759  16.801  0.2153  0.2004 -0.6840
  729MPD2    C110825   0.741   2.786  16.772  0.3694  0.8549  0.3067
  729MPD2    C210826   0.827   2.817  16.875 -0.3294  0.6382  0.2755
  729MPD2    C310827   0.778   2.829  17.006  0.0419  0.9961  0.6722
  729MPD2    C410828   0.647   2.799  17.035 -0.2750  0.1152  0.1014
  729MPD2    C510829   0.561   2.765  16.928  0.2260  0.3319  0.3396
  729MPD2     H10830   0.926   2.860  16.862 -0.3746  1.1930  1.7413
  729MPD2    H110831   0.611   2.790  17.136 -1.8491  0.2538 -0.4536
  729MPD2    H210832   0.541   2.728  16.721 -1.7091 -0.6260  1.1955
  729MPD2    H310833   0.459   2.733  16.945  0.1125  0.9244  0.7919
  729MPD2     N10834   0.866   2.872  17.106  0.1953 -0.4057 -0.2269
  729MPD2    H510835   0.952   2.915  17.071  0.3285  0.3462  1.0293
  729MPD2    N110836   0.775   2.793  16.634 -0.3791  1.0328 -0.9469
  729MPD2    H710837   0.707   2.802  16.559 -2.1770 -2.4128  0.2960
  730TMC3    C110838   0.944   2.984  17.301  0.7235 -0.2385  0.1552
  730TMC3    C210839   1.053   3.014  17.218  0.1953 -0.0240 -0.0331
  730TMC3    C310840   1.113   3.137  17.230  0.7663 -0.2739 -0.1860
  730TMC3    C410841   0.901   3.079  17.392  0.3074  0.0857 -0.5853
  730TMC3    C510842   0.952   3.204  17.400  0.2467  0.0087  0.3916
  730TMC3    C610843   1.059   3.231  17.316  0.1462  0.0762 -0.5390
  730TMC3     C10844   0.842   2.897  17.239  0.1513 -0.4808 -0.3202
  730TMC3     O10845   0.741   2.880  17.303  0.3193 -0.7266  0.2453
  730TMC3     H10846   1.102   2.943  17.153 -0.7852  0.1978 -1.0134
  730TMC3    H110847   0.821   3.059  17.463 -0.0759  0.5665 -0.8844
  730TMC3    H210848   1.093   3.334  17.314  0.3312  0.0400  1.0710
  730TMC3    C710849   0.854   3.312  17.410 -0.1470 -0.0843 -0.1351
  730TMC3    C810850   1.221   3.174  17.137 -1.0034  0.4210  0.3543
  730TMC3    O110851   0.739   3.288  17.384 -0.0078 -0.5310 -0.3472
  730TMC3    O210852   1.249   3.088  17.052  0.2512  0.3386  0.3900
  731MPD2     C10853   0.919   0.917  12.380 -0.1412  0.3131 -0.2122
  731MPD2    C110854   1.053   0.934  12.401  0.5843 -0.2498 -0.4743
  731MPD2    C210855   1.112   0.888  12.528 -0.4218  0.4565  0.3423
  731MPD2    C310856   1.037   0.826  12.620  0.4910  0.4197 -0.8044
  731MPD2    C410857   0.901   0.809  12.598 -0.0888 -0.3491  0.0762
  731MPD2    C510858   0.841   0.860  12.481 -0.2711  0.2250 -1.3544
  731MPD2     H10859   1.218   0.893  12.550 -0.2041  1.1419 -0.8392
  731MPD2    H110860   0.826   0.763  12.661  0.3481 -3.0436 -1.3488
  731MPD2    H210861   0.865   0.939  12.288 -0.6089 -0.6728 -0.1726
  731MPD2    H310862   0.734   0.858  12.467 -0.4629 -2.3173  0.3958
  731MPD2     N10863   1.107   0.779  12.741  0.0967 -0.2405  0.0514
  731MPD2    H510864   1.207   0.797  12.742 -0.1242  0.9993 -0.9923
  731MPD2    N110865   1.126   0.977  12.286 -0.0250 -0.0404 -0.4279
  731MPD2    H710866   1.077   0.979  12.197 -0.8095  0.5442  0.0091
  732TMC3    C110867   1.325   1.025  12.160  0.1322 -0.0616 -0.7846
  732TMC3    C210868   1.251   1.050  12.047  0.1479 -0.1792  0.4739
  732TMC3    C310869   1.307   1.023  11.926  0.6513  0.6445  0.8219
  732TMC3    C410870   1.452   0.979  12.159  0.7033  0.1940  0.0944
  732TMC3    C510871   1.508   0.956  12.035 -0.6675 -0.5239 -0.2422
  732TMC3    C610872   1.436   0.978  11.923  0.3197  0.0853  0.6501
  732TMC3     C10873   1.260   1.015  12.291 -0.5130 -0.5892  0.5473
  732TMC3     O10874   1.328   1.038  12.392  0.7422  0.2014 -0.0040
  732TMC3     H10875   1.163   1.112  12.060  1.2802  1.7929 -1.2041
  732TMC3    H110876   1.499   0.948  12.251 -0.9357  2.2784  1.6336
  732TMC3    H210877   1.484   0.959  11.828  1.1685 -0.7802  1.2473
  732TMC3    C710878   1.614   0.857  12.035  0.7031  0.7762  0.3896
  732TMC3    C810879   1.231   1.034  11.807 -0.7292  0.0358  0.2151
  732TMC3    O110880   1.604   0.776  11.941 -0.4351  0.3174  0.3209
  732TMC3    O210881   1.291   1.022  11.699  0.3003  0.3729  0.1154
  733TMC3    C110882   2.371   3.954  13.336 -0.8200  0.3470 -0.1714
  733TMC3    C210883   2.444   4.055  13.389 -0.2821 -1.0745  0.5036
  733TMC3    C310884   2.575   4.076  13.342  0.1382  0.7000  0.5322
  733TMC3    C410885   2.417   3.882  13.226  0.2459 -0.1364  0.9531
  733TMC3    C510886   2.534   3.924  13.172 -0.6063  0.9289  0.6999
  733TMC3    C610887   2.625   4.002  13.237 -0.1409  0.0191 -0.8854
  733TMC3     C10888   2.222   3.959  13.347 -0.5160 -0.4790  0.2374
  733TMC3     O10889   2.175   4.070  13.348  0.5262  0.3516  0.0221
  733TMC3     H10890   2.392   4.115  13.463 -1.1326  0.6937 -1.5207
  733TMC3    H110891   2.353   3.829  13.156  0.3730  0.5563  0.3183
  733TMC3    H210892   2.713   4.024  13.178  0.8659  0.8160  0.9257
  733TMC3    C710893   2.544   3.948  13.024 -0.6481 -0.3580 -0.6870
  733TMC3    C810894   2.611   4.216  13.328  0.4343  0.1070  0.1111
  733TMC3    O110895   2.496   3.861  12.953  0.4405 -0.6338  1.2783
  733TMC3    O210896   2.646   4.243  13.214 -0.8105  0.7680 -0.1123
  734MPD2     C10897   3.796   2.049  12.639 -1.1809  0.6756  0.4382
  734MPD2    C110898   3.749   1.969  12.538  0.4639  0.7358  0.4364
  734MPD2    C210899   3.776   2.007  12.406  0.5595 -0.1244  0.5238
  734MPD2    C310900   3.828   2.131  12.373 -0.1670 -0.7176  0.6803
  734MPD2    C410901   3.864   2.211  12.478 -0.4191 -0.2495 -0.8972
  734MPD2    C510902   3.860   2.166  12.609 -0.7854  0.1625 -0.3596
  734MPD2     H10903   3.741   1.941  12.328  2.2228 -0.4097  0.0111
  734MPD2    H110904   3.909   2.307  12.456 -1.5739  0.0416 -1.9771
  734MPD2    H210905   3.786   2.022  12.744  1.1087  0.7794  0.6655
  734MPD2    H310906   3.882   2.226  12.696  0.2206  0.0252 -0.5189
  734MPD2     N10907   3.837   2.155  12.236 -0.1814  0.7392 -0.0538
  734MPD2    H510908   3.825   2.079  12.170  1.7419  0.6281 -0.2897
  734MPD2    N110909   3.692   1.837  12.570  0.8737 -0.1556  0.0208
  734MPD2    H710910   3.699   1.811  12.668  1.6386 -2.3016 -0.6042
  735TMC3    C110911   3.568   1.636  12.523  0.1971  0.1489 -0.3559
  735TMC3    C210912   3.481   1.585  12.432  0.9993 -0.0127 -0.2314
  735TMC3    C310913   3.509   1.465  12.375 -0.1249  0.3387  0.7477
  735TMC3    C410914   3.684   1.576  12.557 -0.0524 -0.2129  0.2565
  735TMC3    C510915   3.709   1.454  12.508  0.4582 -0.5124  0.0939
  735TMC3    C610916   3.622   1.401  12.408  0.2236  0.0224  0.1919
  735TMC3     C10917   3.599   1.771  12.487 -0.0667  0.5040  0.4289
  735TMC3     O10918   3.545   1.808  12.383  0.0838 -0.3472 -0.2920
  735TMC3     H10919   3.392   1.645  12.417  2.0755  1.7166  0.2975
  735TMC3    H110920   3.761   1.628  12.614  0.4580  1.2312 -1.7331
  735TMC3    H210921   3.642   1.311  12.351  1.0506 -0.9280  1.9628
  735TMC3    C710922   3.850   1.414  12.507  0.2408 -0.0262  0.1465
  735TMC3    C810923   3.516   1.483  12.227  0.2355  0.0285  0.1362
  735TMC3    O110924   3.943   1.492  12.534 -0.1980  0.3731 -0.2764
  735TMC3    O210925   3.504   1.383  12.161  0.3046  0.2151  1.0263
  736MPD2     C10926   3.956   1.069  12.409 -0.2832  0.5805  0.1076
  736MPD2    C110927   3.965   1.211  12.417  0.2053  0.0272  0.2162
  736MPD2    C210928   4.073   1.271  12.373  0.1878  0.6914 -0.1494
  736MPD2    C310929   4.175   1.204  12.309 -0.2249 -0.1167  0.7619
  736MPD2    C410930   4.160   1.070  12.286 -0.3225 -0.1896 -0.0063
  736MPD2    C510931   4.056   0.999  12.339 -0.0795 -0.5848 -0.2042
  736MPD2     H10932   4.084   1.379  12.381  1.5792  0.5644 -0.3757
  736MPD2    H110933   4.230   1.013  12.225  2.4491  3.1989  0.0027
  736MPD2    H210934   3.875   1.012  12.451 -0.0225 -0.8435 -1.3098
  736MPD2    H310935   4.037   0.894  12.325 -2.4851 -0.1076 -0.5610
  736MPD2     N10936   4.288   1.270  12.251  0.0096  0.1032 -0.4249
  736MPD2    H510937   4.350   1.214  12.193 -0.2159 -2.2266  1.5803
  736MPD2    N110938   3.857   1.279  12.475 -1.1049  0.2856 -0.0144
  736MPD2    H710939   3.777   1.217  12.483  0.1452 -1.5554 -1.7614
  737TMC3    C110940   4.390   1.467  12.170  0.2608  0.1065  1.0590
  737TMC3    C210941   4.404   1.603  12.182 -0.5299  0.7373  0.3303
  737TMC3    C310942   4.431   1.669  12.062  0.4711  0.5735  0.8066
  737TMC3    C410943   4.413   1.403  12.049 -0.2427  0.7763  0.0982
  737TMC3    C510944   4.459   1.475  11.941 -0.9347  0.2894 -0.0044
  737TMC3    C610945   4.474   1.605  11.947 -0.1741 -0.4682 -0.0362
  737TMC3     C10946   4.317   1.399  12.275 -0.7583 -0.7633 -0.3289
  737TMC3     O10947   4.295   1.461  12.378  0.4907 -0.0670 -0.5245
  737TMC3     H10948   4.387   1.652  12.277 -0.8099  0.3562  0.4749
  737TMC3    H110949   4.382   1.299  12.054 -0.8625  0.9215 -0.6925
  737TMC3    H210950   4.508   1.663  11.862 -2.0196 -1.7109 -1.6169
  737TMC3    C710951   4.510   1.397  11.828  0.2815 -0.2303  0.5067
  737TMC3    C810952   4.424   1.809  12.076 -0.0263 -0.3419  0.1872
  737TMC3    O110953   4.465   1.286  11.818 -0.8430  0.1890  0.5383
  737TMC3    O210954   4.467   1.857  12.181  0.0937 -0.2386 -0.1815
  738MPD2     C10955   4.597   0.444  14.962  0.5441  0.2642  0.1990
  738MPD2    C110956   4.655   0.320  14.973 -0.5087  0.1908  0.1768
  738MPD2    C210957   0.060   0.317  14.961  0.1400 -0.3620  0.2641
  738MPD2    C310958   0.136   0.426  14.939  0.5270  0.0428 -0.2385
  738MPD2    C410959   0.074   0.553  14.936 -0.1912  0.0845 -0.5635
  738MPD2    C510960   4.678   0.560  14.954  0.4467  0.4986 -1.1054
  738MPD2     H10961   0.108   0.221  14.977 -0.4005 -0.6967 -0.1246
  738MPD2    H110962   0.125   0.644  14.908  0.9533 -1.4056 -3.3168
  738MPD2    H210963   4.488   0.449  14.962  0.5891  1.2161 -1.6291
  738MPD2    H310964   4.636   0.660  14.957  0.3222  0.3911  0.8829
  738MPD2     N10965   0.277   0.421  14.905 -0.0493  0.1378  0.6791
  738MPD2    H510966   0.319   0.505  14.868  0.7181 -0.8788 -0.7770
  738MPD2    N110967   4.584   0.200  14.991 -0.1485 -0.8066  0.1757
  738MPD2    H710968   4.634   0.113  15.003  0.9502 -0.1014  0.6659
  739TMC3    C110969   0.493   0.327  14.853  0.5809 -0.1285  0.0075
  739TMC3    C210970   0.506   0.382  14.737 -0.1498 -0.4401  0.6140
  739TMC3    C310971   0.630   0.401  14.691 -0.3350  0.1400  0.8193
  739TMC3    C410972   0.598   0.273  14.925 -0.2527  0.2932  0.1616
  739TMC3    C510973   0.722   0.277  14.866  0.4362 -0.1651  0.4418
  739TMC3    C610974   0.741   0.346  14.749  0.0340 -0.0537  0.3108
  739TMC3     C10975   0.362   0.310  14.919 -0.7925  0.1592  0.7370
  739TMC3     O10976   0.351   0.215  14.991  0.2385  0.3465  0.2878
  739TMC3     H10977   0.421   0.417  14.679  1.4591 -1.5727 -2.4166
  739TMC3    H110978   0.586   0.231  15.024 -0.2412  1.5159  0.6868
  739TMC3    H210979   0.834   0.350  14.694 -1.7835 -1.4841 -2.8694
  739TMC3    C710980   0.824   0.222  14.943  0.1431 -0.4079 -0.4590
  739TMC3    C810981   0.644   0.489  14.578 -0.3553  0.3358 -0.7432
  739TMC3    O110982   0.795   0.127  15.019  0.8503 -0.0144  0.5160
  739TMC3    O210983   0.548   0.484  14.505 -0.0310 -0.0605  0.1455
  740TMC3    C110984   0.417   1.706  14.284  0.0869 -0.2180  0.3705
  740TMC3    C210985   0.329   1.609  14.255  0.2612 -0.3233  0.4192
  740TMC3    C310986   0.356   1.531  14.141  0.3389 -0.4489 -0.0681
  740TMC3    C410987   0.527   1.735  14.213 -0.3635 -0.4083  0.0318
  740TMC3    C510988   0.555   1.647  14.106  0.0085 -0.2022  0.3919
  740TMC3    C610989   0.466   1.551  14.067 -0.4502 -0.4283 -0.2039
  740TMC3     C10990   0.396   1.779  14.402  0.1216  0.9283  0.3345
  740TMC3     O10991   0.457   1.883  14.415 -0.0276 -0.2416  0.0970
  740TMC3     H10992   0.238   1.584  14.309 -1.2976  0.4643 -1.8527
  740TMC3    H110993   0.598   1.813  14.237 -1.6916  0.2064  1.9559
  740TMC3    H210994   0.494   1.473  13.997 -0.2956  1.5715 -2.3758
  740TMC3    C710995   0.689   1.643  14.058  0.7238 -0.0187  0.1885
  740TMC3    C810996   0.258   1.433  14.099  0.2091  0.1294  0.5754
  740TMC3    O110997   0.780   1.673  14.136 -0.2747  0.0173 -0.4129
  740TMC3    O210998   0.189   1.386  14.192 -0.0269  0.0796 -0.0961
  741TMC3    C110999   0.472   0.985  14.577  0.7058 -0.5502 -0.3482
  741TMC3    C211000   0.420   0.910  14.474 -0.1947 -0.2913 -0.1514
  741TMC3    C311001   0.383   0.780  14.504  0.6827  0.7765  1.2709
  741TMC3    C411002   0.457   0.939  14.707 -0.2920 -0.2323  0.1576
  741TMC3    C511003   0.422   0.811  14.730  0.3979  0.7425  1.0212
  741TMC3    C611004   0.376   0.727  14.626 -0.4314 -0.0319  0.0918
  741TMC3     C11005   0.566   1.102  14.559 -0.0327  0.3586  0.4807
  741TMC3     O11006   0.614   1.137  14.664 -0.4632 -0.2983 -0.8221
  741TMC3     H11007   0.423   0.950  14.373 -0.2859  3.2520  1.2515
  741TMC3    H111008   0.497   1.002  14.786 -0.0008 -0.6783  0.3704
  741TMC3    H211009   0.342   0.626  14.641 -0.9030 -0.4039 -3.4040
  741TMC3    C711010   0.422   0.752  14.853  0.1911  0.2176  0.0589
  741TMC3    C811011   0.292   0.724  14.402  0.0015 -0.1942  0.1478
  741TMC3    O111012   0.429   0.632  14.851 -0.1863  0.4716 -0.1573
  741TMC3    O211013   0.219   0.805  14.345 -0.7432 -0.1701 -0.0251
  742TMC3    C111014   0.870   4.390  15.053 -0.5252  0.0002  0.2122
  742TMC3    C211015   0.745   4.360  15.010 -0.8553  0.2442 -0.1325
  742TMC3    C311016   0.723   4.239  14.953  0.5002 -0.0542 -0.0320
  742TMC3    C411017   0.972   4.291  15.052  0.2998  0.0280  0.0944
  742TMC3    C511018   0.943   4.167  15.011  0.4294 -0.0540  0.6926
  742TMC3    C611019   0.819   4.142  14.955 -0.0166 -0.2408  0.3340
  742TMC3     C11020   0.892   4.507  15.144  0.2104 -0.2769 -0.0165
  742TMC3     O11021   1.006   4.544  15.155  0.1543  0.1550 -0.0280
  742TMC3     H11022   0.672   4.440  15.004 -0.7358  0.5599  2.8392
  742TMC3    H111023   1.063   4.321  15.103  1.3194 -3.6442  0.4784
  742TMC3    H211024   0.790   4.043  14.922 -0.6853  0.4483 -1.1528
  742TMC3    C711025   1.029   4.058  15.040 -0.3347  0.0089 -0.0161
  742TMC3    C811026   0.599   4.221  14.875  0.0187  0.3000 -0.3895
  742TMC3    O111027   0.975   3.950  15.035  0.2633  0.4049  0.3434
  742TMC3    O211028   0.567   4.105  14.850 -0.2263  0.0798 -0.2274
  743MPD2     C11029   2.396   0.918   1.536 -0.2519  0.6421  0.2034
  743MPD2    C111030   2.489   0.842   1.465  0.2133  0.4311 -0.2347
  743MPD2    C211031   2.621   0.850   1.505  0.6901  0.0959  0.3117
  743MPD2    C311032   2.664   0.936   1.607  0.1320 -0.5552 -0.1825
  743MPD2    C411033   2.569   1.014   1.673 -0.5141 -0.1960 -0.1097
  743MPD2    C511034   2.438   0.993   1.644  0.5767  0.2144 -0.2220
  743MPD2     H11035   2.699   0.796   1.454  0.1757  1.5834 -2.0335
  743MPD2    H111036   2.593   1.100   1.735  1.4208  0.5268 -1.8457
  743MPD2    H211037   2.289   0.915   1.523 -0.1109  0.4762 -0.8568
  743MPD2    H311038   2.368   1.054   1.701  1.0104  0.3447  0.1711
  743MPD2     N11039   2.799   0.947   1.624 -0.0922 -0.1187 -0.4676
  743MPD2    H511040   2.860   0.891   1.565 -1.5258 -1.8618 -0.2987
  743MPD2    N111041   2.449   0.755   1.366  0.0028 -0.3146 -0.3733
  743MPD2    H711042   2.358   0.774   1.326 -0.4884 -0.2669  0.7544
  744TMC3    C111043   2.468   0.631   1.166 -0.7613 -0.6764 -0.2759
  744TMC3    C211044   2.365   0.702   1.114 -0.2426 -0.5203 -0.0597
  744TMC3    C311045   2.361   0.700   0.977  0.5294  0.0686  0.0529
  744TMC3    C411046   2.536   0.539   1.087  0.6977 -0.0500  0.2220
  744TMC3    C511047   2.522   0.534   0.945 -0.0330 -0.2569  0.4020
  744TMC3    C611048   2.441   0.619   0.888  0.4344  0.6374 -0.3878
  744TMC3     C11049   2.521   0.659   1.298 -0.2973 -0.0676 -0.1089
  744TMC3     O11050   2.623   0.603   1.337 -0.2935  0.1841 -0.9942
  744TMC3     H11051   2.305   0.768   1.175 -0.8536  1.5194 -2.8680
  744TMC3    H111052   2.612   0.487   1.144  1.5331  0.4722 -0.4184
  744TMC3    H211053   2.426   0.626   0.780  0.0086  0.8231 -0.3179
  744TMC3    C711054   2.632   0.479   0.873 -0.0265  0.4077 -0.4530
  744TMC3    C811055   2.296   0.817   0.918  0.4308 -0.2074  0.6848
  744TMC3    O111056   2.651   0.534   0.766 -0.1424  0.4601  0.2979
  744TMC3    O211057   2.350   0.865   0.822 -0.0217 -0.7129 -0.5548
  745TMC3    C111058   0.675   3.633  13.689 -0.3283 -0.3275  0.2049
  745TMC3    C211059   0.557   3.601  13.736  0.1782  0.3658 -0.7816
  745TMC3    C311060   0.450   3.670  13.687  0.3964  0.1259  0.1454
  745TMC3    C411061   0.688   3.726  13.593  0.6749  0.3230 -0.0161
  745TMC3    C511062   0.583   3.788  13.533  0.7308  0.7623  0.1488
  745TMC3    C611063   0.464   3.774  13.589  0.2168  0.0552  0.0777
  745TMC3     C11064   0.779   3.652  13.787  0.0981  0.3010  0.2729
  745TMC3     O11065   0.796   3.560  13.870  0.4643 -0.2581  0.3322
  745TMC3     H11066   0.558   3.550  13.832  0.6997  1.6771 -0.0862
  745TMC3    H111067   0.780   3.716  13.535 -0.2871 -1.5072 -1.2486
  745TMC3    H211068   0.374   3.825  13.557  0.0750 -0.5973 -0.5615
  745TMC3    C711069   0.605   3.901  13.440 -0.3144 -0.3603  0.1509
  745TMC3    C811070   0.362   3.701  13.790  0.2764  0.0579  0.6436
  745TMC3    O111071   0.506   3.959  13.395 -0.4249  0.3350  0.0655
  745TMC3    O211072   0.308   3.617  13.860 -0.0907  0.3179  0.3028
  746TMC3    C111073   3.033   1.365  10.873 -0.1117 -0.1976 -0.5278
  746TMC3    C211074   3.059   1.376  10.741  0.0621 -0.5783  0.7660
  746TMC3    C311075   3.058   1.266  10.662 -0.9707  0.0633  0.3000
  746TMC3    C411076   3.011   1.244  10.925  0.2351 -0.1710 -0.6115
  746TMC3    C511077   2.997   1.136  10.847 -0.2375 -0.6346 -0.2106
  746TMC3    C611078   3.023   1.145  10.715  0.1296  0.3062  0.6019
  746TMC3     C11079   3.031   1.475  10.968  0.7967 -0.1468 -0.0447
  746TMC3     O11080   2.951   1.456  11.058 -0.1432  0.2005 -0.5871
  746TMC3     H11081   3.063   1.473  10.694  1.3105 -0.7529  0.5147
  746TMC3    H111082   2.998   1.236  11.032 -1.0547 -1.9971 -0.9119
  746TMC3    H211083   3.005   1.057  10.654  1.7874 -0.5917  1.3964
  746TMC3    C711084   2.887   1.052  10.885  0.0960  0.3410 -0.1062
  746TMC3    C811085   3.097   1.268  10.519  0.1204 -0.1289 -0.5103
  746TMC3    O111086   2.841   0.980  10.796  0.3020 -0.2308  0.1966
  746TMC3    O211087   3.054   1.174  10.450 -0.4126  0.2712  0.2031
  747TMC3    C111088   0.610   1.686  11.275  0.3281  0.5086  0.2416
  747TMC3    C211089   0.496   1.612  11.262  0.6377  0.1952 -0.3292
  747TMC3    C311090   0.450   1.543  11.374  0.2201 -0.4295  0.5617
  747TMC3    C411091   0.673   1.689  11.394  0.2463 -0.6082  0.0947
  747TMC3    C511092   0.614   1.637  11.509  0.2796 -0.3793 -0.2395
  747TMC3    C611093   0.516   1.547  11.488  0.2418 -0.5265 -0.8496
  747TMC3     C11094   0.678   1.738  11.158 -0.2504 -0.0003  0.8059
  747TMC3     O11095   0.776   1.809  11.174 -0.0569  0.0177 -0.2737
  747TMC3     H11096   0.447   1.610  11.165  1.3227  0.5483 -0.6838
  747TMC3    H111097   0.764   1.743  11.416 -0.0417  0.5674 -1.5991
  747TMC3    H211098   0.468   1.486  11.564 -1.3566  0.6934 -0.8775
  747TMC3    C711099   0.715   1.604  11.605  0.2300 -0.0900  0.2299
  747TMC3    C811100   0.336   1.459  11.366  0.3902 -0.3304 -0.4205
  747TMC3    O111101   0.830   1.595  11.566  0.1754 -0.0033 -0.2933
  747TMC3    O211102   0.313   1.403  11.259  0.4436  0.1782  0.2729
  748MPD2     C11103   1.613   1.864   0.933  0.4476  0.4911  0.0610
  748MPD2    C111104   1.658   1.738   0.897 -0.9094 -0.0647 -0.5101
  748MPD2    C211105   1.790   1.705   0.922 -0.5572  0.0014 -0.1411
  748MPD2    C311106   1.876   1.788   0.995 -0.3541  0.1992 -0.4400
  748MPD2    C411107   1.825   1.906   1.039 -0.4854  0.1523  1.1120
  748MPD2    C511108   1.695   1.941   1.011  0.3597 -0.3223  0.2283
  748MPD2     H11109   1.827   1.609   0.886  0.1725  0.8222 -1.5936
  748MPD2    H111110   1.882   1.973   1.104 -1.8001 -0.8157  3.2440
  748MPD2    H211111   1.516   1.905   0.910  0.5167  0.0361 -1.0496
  748MPD2    H311112   1.658   2.033   1.055  0.1190  0.4926 -1.7014
  748MPD2     N11113   2.007   1.744   1.027 -0.1113  0.0933 -0.1841
  748MPD2    H511114   2.037   1.654   0.990 -2.2990 -0.7310  0.0150
  748MPD2    N111115   1.566   1.656   0.833  0.4101  0.3688  0.7839
  748MPD2    H711116   1.470   1.685   0.847 -0.7005 -2.0721 -1.7620
  749TMC3    C111117   2.229   1.760   1.076  0.3086 -0.5747 -0.5544
  749TMC3    C211118   2.246   1.626   1.086 -0.5131 -0.2003  0.5336
  749TMC3    C311119   2.371   1.573   1.062 -0.2161  0.2390 -1.0521
  749TMC3    C411120   2.334   1.840   1.040 -0.4065 -0.3243 -0.1919
  749TMC3    C511121   2.451   1.784   1.004 -0.6987  0.4689 -0.3669
  749TMC3    C611122   2.473   1.651   1.025 -1.3734 -0.6247 -0.2717
  749TMC3     C11123   2.101   1.820   1.090  0.1900 -0.0896  0.3087
  749TMC3     O11124   2.094   1.937   1.127  0.1430  0.1553 -0.5552
  749TMC3     H11125   2.170   1.559   1.127 -2.6031  1.3728 -0.7392
  749TMC3    H111126   2.315   1.947   1.043  1.3876 -0.0587  1.3346
  749TMC3    H211127   2.569   1.603   1.009 -2.5516 -2.4724 -1.7794
  749TMC3    C711128   2.558   1.872   0.966  0.2610 -0.4541  0.9495
  749TMC3    C811129   2.395   1.438   1.111  0.2369 -0.1894 -0.1139
  749TMC3    O111130   2.523   1.981   0.923 -0.8359  0.4974  0.6121
  749TMC3    O211131   2.294   1.370   1.110 -1.1231 -0.2217  0.0444
  750MPD2     C11132   2.925   3.425  11.558 -0.1202 -0.1030  0.9399
  750MPD2    C111133   2.858   3.315  11.604  0.0846  0.0914  0.3246
  750MPD2    C211134   2.911   3.187  11.576 -0.1517  0.2296  0.0259
  750MPD2    C311135   3.036   3.170  11.519 -0.4055  0.0221  0.3440
  750MPD2    C411136   3.103   3.287  11.486  0.5374  0.0024 -0.4461
  750MPD2    C511137   3.043   3.413  11.493 -0.2390  0.1226 -0.0063
  750MPD2     H11138   2.859   3.098  11.610  2.8877 -0.6698  2.3715
  750MPD2    H111139   3.203   3.270  11.448  0.6528  0.8910 -0.5384
  750MPD2    H211140   2.877   3.521  11.575 -0.3734 -0.3027  1.3473
  750MPD2    H311141   3.093   3.505  11.464 -0.1893 -0.2068 -0.9559
  750MPD2     N11142   3.101   3.046  11.495 -0.2662 -0.2420  0.0539
  750MPD2    H511143   3.196   3.046  11.458  0.2325 -1.3824  1.3328
  750MPD2    N111144   2.737   3.337  11.689  0.4656  0.2569  0.0768
  750MPD2    H711145   2.700   3.432  11.692 -1.4276 -0.4448 -1.4166
  751TMC3    C111146   3.134   2.817  11.504 -0.4507 -0.1433 -0.2024
  751TMC3    C211147   3.099   2.706  11.573 -0.1232 -0.6069 -0.4754
  751TMC3    C311148   3.160   2.587  11.535  0.9173  0.5758 -1.2366
  751TMC3    C411149   3.217   2.819  11.396  0.4845 -0.0079 -0.4331
  751TMC3    C511150   3.266   2.696  11.355  0.5621  0.7506  0.5059
  751TMC3    C611151   3.238   2.580  11.425 -0.2720  0.0781  0.0987
  751TMC3     C11152   3.046   2.924  11.523  0.2855 -0.6553  0.1296
  751TMC3     O11153   2.934   2.901  11.551 -0.5186  0.9926 -0.9455
  751TMC3     H11154   3.020   2.713  11.647  0.7835 -1.8051  0.6027
  751TMC3    H111155   3.207   2.898  11.322  0.9931 -0.8016 -1.3633
  751TMC3    H211156   3.287   2.486  11.403  0.8878  0.9623 -1.1449
  751TMC3    C711157   3.309   2.690  11.215 -0.4880 -0.2099 -0.1556
  751TMC3    C811158   3.060   2.482  11.530  0.7265 -0.1252 -0.5544
  751TMC3    O111159   3.342   2.789  11.157 -0.3876 -0.5725 -0.5189
  751TMC3    O211160   3.052   2.426  11.421  0.4746 -0.1198 -0.2077
  752TMC3    C111161   1.805   2.958  17.046 -0.0492 -0.3694  0.1176
  752TMC3    C211162   1.916   2.894  17.081 -0.4195  0.5627  0.1069
  752TMC3    C311163   1.928   2.858  17.212 -0.3752 -0.4274 -0.0164
  752TMC3    C411164   1.730   3.025  17.138 -0.5971  0.1710  0.1609
  752TMC3    C511165   1.752   3.001  17.272 -0.7561 -0.0249  0.4400
  752TMC3    C611166   1.846   2.908  17.307 -0.5396 -0.1710 -0.5226
  752TMC3     C11167   1.784   2.980  16.906 -0.2122 -0.3399 -0.6626
  752TMC3     O11168   1.884   2.976  16.839 -0.1582 -0.2869 -0.2120
  752TMC3     H11169   1.984   2.865  17.002  1.7535  0.6117  1.9605
  752TMC3    H111170   1.634   3.071  17.115  0.3598  2.5976  1.0479
  752TMC3    H211171   1.873   2.897  17.411 -2.7903  1.0331  0.2075
  752TMC3    C711172   1.656   3.029  17.376 -0.0758  0.5150  0.3944
  752TMC3    C811173   1.984   2.730  17.230  0.1101  0.1153 -0.0635
  752TMC3    O111174   1.636   2.932  17.456 -0.0880 -0.4497 -0.2505
  752TMC3    O211175   2.027   2.677  17.128 -0.2777 -0.4008 -0.2363
  753TMC3    C111176   3.473   3.936  13.294  0.2777 -0.1262  0.0735
  753TMC3    C211177   3.459   3.884  13.419 -0.9577  1.1541  0.3642
  753TMC3    C311178   3.422   3.751  13.437  1.0180  0.2961 -0.7800
  753TMC3    C411179   3.428   3.862  13.185 -0.7660  0.1818 -0.4204
  753TMC3    C511180   3.376   3.737  13.210 -0.3988 -0.1699 -0.1999
  753TMC3    C611181   3.377   3.680  13.337 -0.2767 -0.2926  0.2349
  753TMC3     C11182   3.538   4.059  13.290  0.0366  0.3521 -0.5807
  753TMC3     O11183   3.526   4.137  13.383 -0.0438 -0.5508  0.4312
  753TMC3     H11184   3.479   3.946  13.506  2.0710 -0.9687  1.1427
  753TMC3    H111185   3.409   3.904  13.087  1.0007  1.0122 -0.4091
  753TMC3    H211186   3.350   3.577  13.358 -0.6165 -0.2530  0.0078
  753TMC3    C711187   3.283   3.686  13.111  0.1112  0.1709  0.1385
  753TMC3    C811188   3.464   3.686  13.562 -0.0274 -0.0748  0.9167
  753TMC3    O111189   3.287   3.737  13.000  0.3096  0.1926  0.2938
  753TMC3    O211190   3.449   3.568  13.561 -0.5443 -0.1141  0.3544
  754MPD2     C11191   2.755   2.851  13.178  0.2289  0.0826 -0.9744
  754MPD2    C111192   2.763   2.711  13.189 -0.0688 -0.1769  0.1885
  754MPD2    C211193   2.657   2.643  13.255  0.0723 -0.7586 -0.0026
  754MPD2    C311194   2.544   2.710  13.298  0.2179  0.7562 -0.0471
  754MPD2    C411195   2.541   2.845  13.277  0.5175  0.6353  0.5326
  754MPD2    C511196   2.643   2.917  13.222 -0.5738  0.4561  0.1499
  754MPD2     H11197   2.659   2.536  13.269 -1.1583 -0.5709  1.5670
  754MPD2    H111198   2.460   2.901  13.323 -2.2512 -1.8444 -1.3401
  754MPD2    H211199   2.836   2.908  13.134  3.7769 -1.1437  3.9994
  754MPD2    H311200   2.631   3.024  13.214 -0.8617  0.4197  0.0967
  754MPD2     N11201   2.444   2.646  13.369  0.4637 -0.4488  0.0678
  754MPD2    H511202   2.357   2.695  13.383 -0.7420 -3.5697  3.6342
  754MPD2    N111203   2.881   2.652  13.137 -0.7995  0.0329  0.8140
  754MPD2    H711204   2.926   2.700  13.060  0.3241 -1.4128  0.5604
  755MPD2     C11205   2.114   3.176  13.957  0.3310 -0.4652  0.2988
  755MPD2    C111206   2.071   3.048  14.013  0.4205  0.8174 -0.5272
  755MPD2    C211207   2.082   2.937  13.937 -0.2575  0.6193  0.2000
  755MPD2    C311208   2.145   2.936  13.814 -0.3276  0.1489 -0.0198
  755MPD2    C411209   2.182   3.061  13.764 -0.6778  0.2477  0.6725
  755MPD2    C511210   2.160   3.178  13.829  0.2587 -0.5592 -0.0982
  755MPD2     H11211   2.047   2.842  13.976 -0.5216  1.5628  2.2633
  755MPD2    H111212   2.251   3.069  13.681 -0.4293  0.5459  0.9063
  755MPD2    H211213   2.101   3.270  14.010 -0.9013  0.3258 -1.3603
  755MPD2    H311214   2.187   3.270  13.777 -0.5170 -0.5809 -0.5397
  755MPD2     N11215   2.175   2.815  13.741  0.5110 -0.6519 -0.1280
  755MPD2    H511216   2.220   2.817  13.650  0.2168 -0.9466 -0.2796
  755MPD2    N111217   2.009   3.037  14.139 -0.0330  0.4647 -0.0422
  755MPD2    H711218   1.990   2.941  14.164 -0.1520  1.2134  2.7890
  756MPD2     C11219   3.136   3.590   9.887 -0.3599  0.0587  0.6177
  756MPD2    C111220   3.028   3.510   9.909 -0.4679 -0.3777 -0.1922
  756MPD2    C211221   2.931   3.488   9.806 -0.3142  0.7554 -0.4850
  756MPD2    C311222   2.941   3.554   9.688 -0.4269  0.5321  0.0294
  756MPD2    C411223   3.052   3.629   9.665  0.2479 -0.4132 -0.0985
  756MPD2    C511224   3.140   3.659   9.766  0.5157  0.0965 -0.3838
  756MPD2     H11225   2.846   3.423   9.827 -0.5877  0.4969 -2.3759
  756MPD2    H111226   3.058   3.683   9.571 -2.8126 -0.6198 -0.4249
  756MPD2    H211227   3.210   3.623   9.959  0.8496 -0.0269 -0.5742
  756MPD2    H311228   3.209   3.742   9.757 -0.9609  1.4086  0.4380
  756MPD2     N11229   2.836   3.528   9.591  0.0671 -0.7155 -0.5625
  756MPD2    H511230   2.758   3.477   9.632  1.3038 -0.3386  2.2946
  756MPD2    N111231   2.996   3.450  10.031 -0.4101  0.2272 -0.5194
  756MPD2    H711232   2.908   3.401  10.043 -0.4816  0.7046  0.8385
  757MPD2     C11233   2.291   2.863   9.655 -0.6743 -0.1490  0.9497
  757MPD2    C111234   2.362   2.940   9.747 -0.3689 -0.1366 -0.8361
  757MPD2    C211235   2.417   3.058   9.700  0.1201 -0.3449  0.3914
  757MPD2    C311236   2.414   3.096   9.565 -0.3952  0.2131  0.0579
  757MPD2    C411237   2.338   3.016   9.480  0.0295 -0.2318 -0.2514
  757MPD2    C511238   2.282   2.901   9.526  0.3157 -0.4461  1.2107
  757MPD2     H11239   2.453   3.135   9.768 -1.7698  0.1531  0.8513
  757MPD2    H111240   2.334   3.026   9.372  1.9105  0.7026 -0.2414
  757MPD2    H211241   2.231   2.774   9.671 -0.7895 -0.2037  0.1905
  757MPD2    H311242   2.234   2.840   9.450  1.4198 -0.6447  0.6764
  757MPD2     N11243   2.473   3.209   9.518 -0.1290 -0.5638  0.5888
  757MPD2    H511244   2.525   3.267   9.582 -0.5632  1.3045 -0.7732
  757MPD2    N111245   2.353   2.909   9.882  0.3319  0.5411  0.5162
  757MPD2    H711246   2.301   2.826   9.909 -1.2725  1.0039 -1.1817
  758MPD2     C11247   2.638   2.455  15.821  0.7428 -0.8001  0.2163
  758MPD2    C111248   2.709   2.372  15.908  0.1275 -0.2903 -0.0133
  758MPD2    C211249   2.666   2.366  16.042  0.7125  0.5845  0.3672
  758MPD2    C311250   2.557   2.441  16.083 -0.2430  0.3204 -0.4121
  758MPD2    C411251   2.487   2.524  15.993 -0.4038 -0.2361  0.8262
  758MPD2    C511252   2.532   2.527  15.865  0.2565 -0.9276  0.3115
  758MPD2     H11253   2.710   2.304  16.119 -0.6807 -1.3790 -0.4233
  758MPD2    H111254   2.405   2.592  16.014 -0.3565 -0.6373  2.2826
  758MPD2    H211255   2.668   2.462  15.717 -2.6287 -0.6707 -0.7757
  758MPD2    H311256   2.473   2.588  15.799 -0.0530 -1.8853 -0.2897
  758MPD2     N11257   2.510   2.438  16.218  0.5352 -0.2991 -0.0580
  758MPD2    H511258   2.414   2.466  16.236 -0.6454 -3.4546 -1.5260
  758MPD2    N111259   2.824   2.309  15.860 -0.0950 -0.0923  0.2686
  758MPD2    H711260   2.865   2.325  15.768  0.8661  0.3123  0.7633
  759MPD2     C11261   1.109   1.128  10.693  0.2876 -1.2711  0.3657
  759MPD2    C111262   1.198   1.089  10.602  0.8020  0.0416  0.6167
  759MPD2    C211263   1.295   1.175  10.564 -0.1232 -0.3816 -0.1069
  759MPD2    C311264   1.294   1.301  10.620  0.6791  0.2684 -0.3408
  759MPD2    C411265   1.196   1.336  10.714 -0.3278  0.0203 -0.5049
  759MPD2    C511266   1.104   1.248  10.759  0.2438 -0.2371  0.0745
  759MPD2     H11267   1.376   1.157  10.495  0.1313 -2.3515  0.7146
  759MPD2    H111268   1.186   1.436  10.755 -0.6108 -1.2943  2.6384
  759MPD2    H211269   1.031   1.060  10.726 -1.4497  1.6676  2.1996
  759MPD2    H311270   1.029   1.274  10.833  0.5980 -0.2195  0.4242
  759MPD2     N11271   1.405   1.386  10.592 -0.5393  0.1934  0.1045
  759MPD2    H511272   1.465   1.338  10.525 -1.0953  1.0944 -1.0211
  759MPD2    N111273   1.211   0.950  10.556 -0.0433 -0.8242  0.4298
  759MPD2    H711274   1.292   0.916  10.504  0.5942  0.3732  0.6431
  760MPD2     C11275   0.996   2.897  11.692  0.3122  0.1439  0.2685
  760MPD2    C111276   1.044   2.898  11.820  0.6511  0.9054 -0.1904
  760MPD2    C211277   1.080   2.777  11.878 -0.7173  0.7084 -0.3179
  760MPD2    C311278   1.093   2.664  11.801 -0.9783 -0.5951  0.5917
  760MPD2    C411279   1.057   2.674  11.667  0.0799  0.1660  0.3785
  760MPD2    C511280   0.991   2.781  11.616  0.2456  0.1234 -0.3420
  760MPD2     H11281   1.125   2.776  11.977  0.3816  1.7118 -0.8202
  760MPD2    H111282   1.077   2.587  11.604  2.3934  0.8283  0.2103
  760MPD2    H211283   0.956   2.989  11.649  4.2688  2.2276  1.0827
  760MPD2    H311284   0.956   2.786  11.514  2.2860 -1.9589 -1.1370
  760MPD2     N11285   1.139   2.537  11.839  0.1747  0.7199  0.0299
  760MPD2    H511286   1.127   2.465  11.769  1.0994  0.4601  0.1453
  760MPD2    N111287   1.053   3.020  11.892  0.2005 -0.4288  0.8062
  760MPD2    H711288   1.095   3.008  11.984  2.9635 -0.4600 -0.4361
  761MPD2     C11289   2.584   2.365  11.664  0.1731  0.1687  0.1249
  761MPD2    C111290   2.663   2.305  11.566  0.3903 -0.0224 -0.9976
  761MPD2    C211291   2.795   2.355  11.548 -0.6245 -0.4282 -0.0520
  761MPD2    C311292   2.844   2.442  11.650 -0.0454 -0.2623 -0.0351
  761MPD2    C411293   2.773   2.477  11.764 -0.3943  0.4079 -0.5715
  761MPD2    C511294   2.641   2.437  11.765 -0.0462  0.3026  0.1979
  761MPD2     H11295   2.864   2.302  11.484 -1.4107  0.8581 -1.9614
  761MPD2    H111296   2.818   2.541  11.838 -0.1899 -0.9428  0.4787
  761MPD2    H211297   2.477   2.354  11.671  0.2337 -0.8331 -0.5780
  761MPD2    H311298   2.581   2.453  11.853 -2.4553  0.0267 -1.4042
  761MPD2     N11299   2.976   2.486  11.640  0.3669  0.5550 -0.2585
  761MPD2    H511300   3.013   2.539  11.718 -0.9891  2.3451 -0.8417
  761MPD2    N111301   2.594   2.209  11.485  0.1325 -0.2712  0.1783
  761MPD2    H711302   2.506   2.181  11.528  0.8871  1.6388  3.0053
  762MPD2     C11303   2.700   1.536  10.824  0.7047 -0.3896 -0.3069
  762MPD2    C111304   2.711   1.671  10.848  0.4354  0.5187  0.7926
  762MPD2    C211305   2.775   1.746  10.754  0.0612 -0.1383 -0.3405
  762MPD2    C311306   2.835   1.695  10.645 -0.2619 -0.0563  0.1769
  762MPD2    C411307   2.813   1.561  10.614  0.0628  0.6805 -0.1838
  762MPD2    C511308   2.736   1.486  10.703  0.3966 -0.1306 -0.2307
  762MPD2     H11309   2.776   1.854  10.763 -2.7306 -0.1498  0.0498
  762MPD2    H111310   2.856   1.511  10.529  1.3463  2.2950 -0.4857
  762MPD2    H211311   2.647   1.474  10.896 -1.7442  0.4120 -1.4402
  762MPD2    H311312   2.728   1.379  10.690 -2.7729  0.0732  0.2650
  762MPD2     N11313   2.917   1.793  10.575 -0.5061  0.3282  0.6187
  762MPD2    H511314   2.917   1.886  10.615 -0.3243 -0.3326  2.1952
  762MPD2    N111315   2.660   1.728  10.967  0.3900  0.2985  0.3350
  762MPD2    H711316   2.617   1.665  11.034  1.0152 -1.1472 -0.6096
  763MPD2     C11317   4.026   2.209  16.451  0.1142  0.4684  0.8771
  763MPD2    C111318   4.029   2.289  16.345  0.0876  0.4253 -0.1381
  763MPD2    C211319   4.005   2.421  16.364  0.4573 -0.0030  0.3478
  763MPD2    C311320   4.007   2.481  16.487  0.2443  0.3169 -0.0492
  763MPD2    C411321   4.010   2.399  16.595  0.5438  0.0330 -0.4556
  763MPD2    C511322   4.012   2.260  16.580 -0.3234 -1.5927 -0.3110
  763MPD2     H11323   4.014   2.485  16.277  1.0062 -0.9824 -0.3192
  763MPD2    H111324   4.006   2.449  16.691  0.4632  0.5641 -0.7365
  763MPD2    H211325   4.039   2.102  16.437  1.7094  0.4750  2.4936
  763MPD2    H311326   4.031   2.205  16.671  0.2626  2.2356  1.8890
  763MPD2     N11327   4.021   2.621  16.496 -0.9993 -0.6264 -0.1016
  763MPD2    H511328   4.043   2.663  16.406  0.1164  2.2351  1.4882
  763MPD2    N111329   4.046   2.244  16.210 -0.3959 -0.4388  0.0748
  763MPD2    H711330   4.036   2.316  16.139  1.3955  1.0876  1.3546
  764MPD2     C11331   3.035   3.822  17.573 -0.0720 -0.2097 -0.2648
  764MPD2    C111332   2.913   3.881  17.537  0.3383 -0.3425 -0.2454
  764MPD2    C211333   2.809   3.820  17.599  0.0099  0.2599  0.2364
  764MPD2    C311334   2.823   3.711  17.680 -0.1511  0.1065 -0.5814
  764MPD2    C411335   2.944   3.657  17.714  0.1675 -0.0210 -0.2537
  764MPD2    C511336   3.048   3.719  17.659 -0.2060  1.1027 -0.3031
  764MPD2     H11337   2.709   3.848  17.569 -0.7369 -0.8561  1.6952
  764MPD2    H111338   2.970   3.563   0.020  1.2920  0.1802 -0.4809
  764MPD2    H211339   3.126   3.849  17.521 -0.6698 -0.0134 -1.2090
  764MPD2    H311340   3.146   3.687  17.693 -1.3636  0.6016  2.4753
  764MPD2     N11341   2.702   3.659  17.734 -0.2259 -0.3583 -0.2591
  764MPD2    H511342   2.618   3.714  17.718 -0.4518 -0.1967  1.4250
  764MPD2    N111343   2.884   3.961  17.424 -0.6081 -0.5005  0.2198
  764MPD2    H711344   2.788   3.970  17.394 -0.8993 -0.8718  1.0720
  765MPD2     C11345   2.044   1.579  16.188  0.0624 -0.2253  0.3297
  765MPD2    C111346   2.165   1.623  16.141 -0.6819 -1.0469  1.0573
  765MPD2    C211347   2.285   1.558  16.184  0.7716  0.1041  0.5234
  765MPD2    C311348   2.281   1.448  16.269 -0.5262  0.4056  1.0382
  765MPD2    C411349   2.150   1.399  16.303 -0.0945 -0.6911  0.0796
  765MPD2    C511350   2.035   1.462  16.260  0.3439 -0.3876  0.0296
  765MPD2     H11351   2.379   1.583  16.136  0.1635 -3.7441 -2.7442
  765MPD2    H111352   2.133   1.312  16.366  1.8093  0.6193  2.3784
  765MPD2    H211353   1.951   1.620  16.151  0.0557 -1.3083 -0.8506
  765MPD2    H311354   1.945   1.411  16.292 -2.0215  3.2100 -0.9314
  765MPD2     N11355   2.404   1.381  16.289 -0.4963  1.0564 -0.1617
  765MPD2    H511356   2.488   1.436  16.273  0.0662 -0.0946 -1.1685
  765MPD2    N111357   2.159   1.720  16.043  0.4762 -0.6251 -0.8026
  765MPD2    H711358   2.066   1.756  16.022  1.1697  0.7450 -1.4455
  766MPD2     C11359   1.833   1.610  15.338 -0.4007 -0.1276 -0.2424
  766MPD2    C111360   1.945   1.676  15.318  0.1870 -0.7499 -0.2899
  766MPD2    C211361   1.999   1.683  15.195  0.0213 -0.3676  0.1722
  766MPD2    C311362   1.935   1.630  15.081 -0.1454  0.2051 -0.0420
  766MPD2    C411363   1.811   1.564  15.102 -0.7482 -0.5136  0.3221
  766MPD2    C511364   1.771   1.550  15.234  0.4216 -0.5664  0.4303
  766MPD2     H11365   2.097   1.729  15.189 -0.1354  0.0436  0.7094
  766MPD2    H111366   1.760   1.519  15.017 -1.7305 -1.0505  1.1922
  766MPD2    H211367   1.794   1.599  15.439  1.7344 -0.2971  0.5592
  766MPD2    H311368   1.679   1.495  15.253  1.4024 -1.7669  1.7392
  766MPD2     N11369   1.996   1.639  14.953 -0.4705 -0.7424  0.3006
  766MPD2    H511370   1.946   1.607  14.871  2.2166 -0.5416 -1.3978
  766MPD2    N111371   2.020   1.737  15.417  0.1064  0.1577  0.2192
  766MPD2    H711372   2.086   1.804  15.378  0.6989 -1.8073 -2.1756
  767MPD2     C11373   1.530   2.160  14.886  0.5262  0.1197 -0.1574
  767MPD2    C111374   1.653   2.112  14.861 -0.2442 -0.8484  0.0001
  767MPD2    C211375   1.692   2.058  14.741 -0.3673 -0.0304 -0.6694
  767MPD2    C311376   1.603   2.041  14.639  0.2469 -0.2208 -0.2744
  767MPD2    C411377   1.468   2.079  14.670 -0.2874 -0.3881  0.0357
  767MPD2    C511378   1.435   2.130  14.791 -0.4981  0.5223  0.5560
  767MPD2     H11379   1.797   2.042  14.722 -0.5844 -1.3903 -0.6704
  767MPD2    H111380   1.386   2.049  14.605  0.3984 -1.0207 -0.5396
  767MPD2    H211381   1.488   2.208  14.973 -0.6362 -5.1998  2.2319
  767MPD2    H311382   1.332   2.154  14.815 -0.4763 -1.5260  2.7170
  767MPD2     N11383   1.642   1.988  14.515 -0.7551 -0.4421 -0.1528
  767MPD2    H511384   1.740   1.963  14.509 -0.5551  0.5475 -0.8058
  767MPD2    N111385   1.745   2.129  14.964 -0.6788  0.3635 -0.3257
  767MPD2    H711386   1.706   2.165  15.050 -0.5577  1.8059 -0.8708
  768MPD2     C11387   2.636   0.131  10.908  0.0520  0.1126  0.1098
  768MPD2    C111388   2.672   0.261  10.910 -0.2494 -0.0630 -0.0758
  768MPD2    C211389   2.790   0.293  10.978 -0.1731 -0.3925 -0.0183
  768MPD2    C311390   2.868   0.196  11.045 -0.6321  0.3827  0.4590
  768MPD2    C411391   2.828   0.068  11.048 -0.3999  0.4008 -0.0899
  768MPD2    C511392   2.711   0.041  10.976  0.5976 -0.2412  0.5982
  768MPD2     H11393   2.810   0.399  10.981 -1.6403 -0.1024 -0.3373
  768MPD2    H111394   2.882   4.729  11.104  0.7998 -0.4049 -2.3061
  768MPD2    H211395   2.550   0.091  10.854 -0.2627  0.5237  0.3029
  768MPD2    H311396   2.679   4.673  10.979  0.5070 -0.1865  1.6125
  768MPD2     N11397   2.981   0.227  11.127  0.2578  0.5002 -0.0031
  768MPD2    H511398   3.034   0.152  11.171 -0.4515  0.5377  0.9085
  768MPD2    N111399   2.603   0.368  10.851  0.2750 -0.0053  0.5035
  768MPD2    H711400   2.633   0.460  10.880 -0.6654  0.2678  0.5993
  769MPD2     C11401   3.879   3.362  14.765 -0.1590 -0.3889  0.8343
  769MPD2    C111402   3.765   3.360  14.844  0.2051  0.5820 -0.4031
  769MPD2    C211403   3.783   3.375  14.985 -0.0943 -0.0543  0.1088
  769MPD2    C311404   3.908   3.416  15.032  0.1989  0.6704 -0.2211
  769MPD2    C411405   4.013   3.432  14.946  0.0678  0.3776  0.1200
  769MPD2    C511406   3.996   3.407  14.817  0.0370 -0.4473 -0.4763
  769MPD2     H11407   3.700   3.376  15.055  0.5006 -1.0094  0.8265
  769MPD2    H111408   4.114   3.458  14.977  0.9973  0.5693 -3.1030
  769MPD2    H211409   3.875   3.351  14.657  0.1528 -1.3288  0.9204
  769MPD2    H311410   4.080   3.418  14.749  0.4896 -1.4891 -0.0731
  769MPD2     N11411   3.914   3.440  15.174  0.2091 -0.1772  0.3167
  769MPD2    H511412   3.827   3.425  15.223 -0.5149 -1.3356 -1.3263
  769MPD2    N111413   3.644   3.317  14.791  0.2300  0.0018  0.0187
  769MPD2    H711414   3.656   3.284  14.696  0.1853  1.0342 -0.3552
  770MPD2     C11415   2.771   2.912  14.894 -0.0058 -0.7502 -0.1891
  770MPD2    C111416   2.901   2.868  14.879 -0.0427  0.0756  0.8573
  770MPD2    C211417   3.004   2.961  14.866 -0.0943 -0.5264 -0.7341
  770MPD2    C311418   2.982   3.092  14.837  0.8183  0.1048 -0.6022
  770MPD2    C411419   2.855   3.136  14.853  0.2574  0.9472  0.4085
  770MPD2    C511420   2.750   3.046  14.889  0.0963 -0.1010  0.2216
  770MPD2     H11421   3.104   2.926  14.841 -0.3075 -0.3039 -1.9114
  770MPD2    H111422   2.819   3.235  14.826 -1.0343  0.1255 -0.9106
  770MPD2    H211423   2.686   2.852  14.923 -0.2870 -0.0734  0.3895
  770MPD2    H311424   2.646   3.074  14.898  0.3177  0.4855  0.9949
  770MPD2     N11425   3.088   3.176  14.792  0.1049 -0.4416  0.5620
  770MPD2    H511426   3.183   3.141  14.790  0.6009  0.9432 -0.6152
  770MPD2    N111427   2.917   2.723  14.876 -0.9368 -0.1799 -0.0172
  770MPD2    H711428   2.838   2.660  14.863 -0.8874 -0.4702  1.0514
  771MPD2     C11429   4.111   1.513  13.779  0.6328  0.0015  0.9211
  771MPD2    C111430   4.156   1.540  13.651 -0.0455 -0.3411  0.0494
  771MPD2    C211431   4.078   1.498  13.542 -0.3767  0.2397 -0.3660
  771MPD2    C311432   3.953   1.438  13.565  0.3018  0.3792 -0.5089
  771MPD2    C411433   3.909   1.408  13.695 -0.0626  0.0585 -0.0379
  771MPD2    C511434   3.990   1.450  13.800 -0.2939  0.0899  0.1889
  771MPD2     H11435   4.108   1.522  13.440 -1.0141  0.1545 -0.5732
  771MPD2    H111436   3.806   1.383  13.717  0.4071 -0.9774  0.9766
  771MPD2    H211437   4.158   1.558  13.866  0.3243  0.0514  1.0638
  771MPD2    H311438   3.956   1.443  13.902  0.4353 -2.9367  0.2119
  771MPD2     N11439   3.865   1.418  13.455 -0.0228  0.2952  0.6832
  771MPD2    H511440   3.899   1.455  13.366 -2.4460 -0.6205 -0.6261
  771MPD2    N111441   4.283   1.602  13.625  0.0527  1.4829  0.1021
  771MPD2    H711442   4.279   1.658  13.541 -1.0047  0.4096 -0.5497
  772MPD2     C11443   4.114   2.205  13.853  0.1959  0.8282 -0.2530
  772MPD2    C111444   4.118   2.066  13.833  0.3010  0.4951 -0.3555
  772MPD2    C211445   4.017   1.988  13.878 -0.5829  0.0788 -0.5964
  772MPD2    C311446   3.902   2.044  13.947 -0.2067 -0.5154  1.0131
  772MPD2    C411447   3.899   2.179  13.950  0.0462 -0.4134  0.3602
  772MPD2    C511448   4.000   2.260  13.910 -0.0956  0.6990 -0.0572
  772MPD2     H11449   4.008   1.882  13.858  0.2972 -0.1448  0.1911
  772MPD2    H111450   3.806   2.221  13.988 -0.6281 -0.3297 -1.3868
  772MPD2    H211451   4.186   2.274  13.811  2.5067 -0.6136  1.3752
  772MPD2    H311452   3.986   2.366  13.898  2.9536  1.2777  1.5312
  772MPD2     N11453   3.791   1.973  14.000  0.4083  0.8763 -0.0935
  772MPD2    H511454   3.716   2.038  14.021 -0.6977 -0.1649 -0.8247
  772MPD2    N111455   4.220   1.994  13.772 -0.6649  0.1651  0.6937
  772MPD2    H711456   4.210   1.893  13.774  1.2407 -0.0063  1.2390
  773MPD2     C11457   3.274   2.837   0.153  0.1016  0.0240 -0.6946
  773MPD2    C111458   3.213   2.729   0.090  0.0301  0.4270 -0.2670
  773MPD2    C211459   3.237   2.609   0.151 -0.1427 -0.0797 -0.2141
  773MPD2    C311460   3.326   2.589   0.252  0.7997 -0.5581 -0.8166
  773MPD2    C411461   3.383   2.694   0.312 -0.5478  0.5800 -0.5914
  773MPD2    C511462   3.356   2.814   0.260 -0.6901  0.1588 -0.3779
  773MPD2     H11463   3.182   2.524   0.113  2.1002 -1.0252 -1.2973
  773MPD2    H111464   3.454   2.693   0.394 -0.3422 -1.7387 -0.8009
  773MPD2    H211465   3.260   2.938   0.118 -1.1116 -0.2733 -1.0797
  773MPD2    H311466   3.412   2.896   0.302 -3.0571  1.7166 -0.2584
  773MPD2     N11467   3.354   2.455   0.275 -0.2920 -0.5022  0.0560
  773MPD2    H511468   3.292   2.391   0.226 -1.8084 -0.8226  2.3620
  773MPD2    N111469   3.133   2.737  17.712 -0.2392  0.0420  0.0407
  773MPD2    H711470   3.116   2.650  17.662  0.7999  0.1967 -0.5910
  774MPD2     C11471   2.374   1.947  13.607 -0.1537 -0.0401 -0.5213
  774MPD2    C111472   2.502   1.887  13.596 -0.2769  0.7607  0.5606
  774MPD2    C211473   2.610   1.964  13.561  0.2782  0.1982  0.2895
  774MPD2    C311474   2.597   2.104  13.562  0.4973 -0.0741  0.1246
  774MPD2    C411475   2.471   2.157  13.580  0.3450  1.0294 -0.0878
  774MPD2    C511476   2.360   2.080  13.592  0.4931 -0.2834 -0.0606
  774MPD2     H11477   2.709   1.921  13.556  0.0410 -0.4981  1.4900
  774MPD2    H111478   2.457   2.264  13.568  0.2350  1.0493  0.2132
  774MPD2    H211479   2.281   1.897  13.630 -0.3999  1.5282  1.8892
  774MPD2    H311480   2.259   2.120  13.591  0.9402  0.8237 -0.2081
  774MPD2     N11481   2.699   2.199  13.533 -0.2913 -0.2326 -0.0284
  774MPD2    H511482   2.667   2.296  13.529 -2.3051 -0.9289 -0.5548
  774MPD2    N111483   2.537   1.752  13.623  0.5679 -0.2304 -0.2581
  774MPD2    H711484   2.635   1.728  13.618  0.2690 -1.5786  0.3435
  775MPD2     C11485   3.903   3.183  15.938 -0.1799 -0.6964  0.2374
  775MPD2    C111486   3.904   3.317  15.940 -0.1424  0.5951 -0.7708
  775MPD2    C211487   4.015   3.379  15.885 -0.3688 -0.5361  0.1057
  775MPD2    C311488   4.123   3.309  15.832 -0.0459  0.0003  0.6668
  775MPD2    C411489   4.109   3.172  15.814  0.3968 -0.3393  0.6791
  775MPD2    C511490   3.997   3.107  15.862  0.5353 -0.0605 -0.4876
  775MPD2     H11491   4.022   3.486  15.872  1.6422 -0.6818 -0.0023
  775MPD2    H111492   4.198   3.113  15.796 -0.5949 -2.5800  3.1653
  775MPD2    H211493   3.822   3.130  15.986  1.1561 -1.1661  1.9847
  775MPD2    H311494   3.991   2.999  15.849 -1.4055  0.1478 -1.2797
  775MPD2     N11495   4.239   3.377  15.776 -0.5579 -0.1837  0.4431
  775MPD2    H511496   4.291   3.318  15.711 -1.7316 -1.0519  0.2912
  775MPD2    N111497   3.795   3.383  15.998 -0.1403 -0.1183  0.2963
  775MPD2    H711498   3.722   3.319  16.028 -0.3830  1.0446  2.1802
  776MPD2     C11499   2.066   3.744  11.594  0.3560 -0.2276  0.5574
  776MPD2    C111500   2.189   3.751  11.655 -0.7265  0.1404 -0.6049
  776MPD2    C211501   2.272   3.864  11.630  0.1936 -0.3722 -0.3026
  776MPD2    C311502   2.232   3.965  11.538 -0.4422  0.3457 -0.3721
  776MPD2    C411503   2.113   3.949  11.470  0.1500 -0.7067  0.1082
  776MPD2    C511504   2.033   3.843  11.498 -0.2672  0.1345 -0.0442
  776MPD2     H11505   2.365   3.878  11.683  1.0620 -1.6270 -1.5170
  776MPD2    H111506   2.079   4.031  11.408 -1.6934 -0.8837  0.8922
  776MPD2    H211507   2.002   3.659  11.612 -1.4810  0.8630 -0.8424
  776MPD2    H311508   1.940   3.831  11.443  1.4401  0.5951 -2.9658
  776MPD2     N11509   2.307   4.084  11.509  0.2043 -0.0707 -0.2039
  776MPD2    H511510   2.246   4.153  11.465  0.7192  0.0057 -0.7836
  776MPD2    N111511   2.231   3.631  11.714  0.9390 -0.4992  0.1272
  776MPD2    H711512   2.169   3.551  11.719  1.7554 -1.1396  0.0352
  777MPD2     C11513   3.597   1.061   0.795 -0.1193 -0.3773 -0.4383
  777MPD2    C111514   3.504   0.999   0.866 -0.9477  0.6197 -0.5245
  777MPD2    C211515   3.473   0.877   0.810 -0.3550 -0.1312  0.2890
  777MPD2    C311516   3.524   0.832   0.684  0.0692  0.2031  0.2570
  777MPD2    C411517   3.617   0.904   0.619  0.2312  0.3253  0.2322
  777MPD2    C511518   3.654   1.014   0.675 -0.6081  0.1723  0.1276
  777MPD2     H11519   3.412   0.811   0.871 -0.1775 -0.7492 -0.2016
  777MPD2    H111520   3.656   0.874   0.522 -0.9304 -0.5359  0.0106
  777MPD2    H211521   3.637   1.154   0.833 -0.0019 -0.2725 -0.8139
  777MPD2    H311522   3.722   1.076   0.618 -1.5592  1.7739  0.7677
  777MPD2     N11523   3.468   0.712   0.644 -0.3097 -0.1753 -0.4401
  777MPD2    H511524   3.429   0.647   0.712  0.4692  1.8627  1.9269
  777MPD2    N111525   3.469   1.044   0.990  0.2542  0.0835  0.4199
  777MPD2    H711526   3.506   1.135   1.015 -1.0128  1.2230 -1.9135
  778MPD2     C11527   4.299   1.802  14.848 -0.1539  0.0193  0.7717
  778MPD2    C111528   4.381   1.706  14.793  0.1311 -0.1184  0.4472
  778MPD2    C211529   4.483   1.751  14.712  0.3827 -1.2895  0.3557
  778MPD2    C311530   4.498   1.885  14.682 -0.9199 -0.0689 -0.0150
  778MPD2    C411531   4.413   1.977  14.736 -0.1786  0.0713 -0.0294
  778MPD2    C511532   4.325   1.932  14.827  0.5210  0.4341 -0.0288
  778MPD2     H11533   4.543   1.682  14.653  2.2709  0.1126  0.6318
  778MPD2    H111534   4.421   2.081  14.707  1.2041  0.0130  0.1587
  778MPD2    H211535   4.208   1.782  14.904 -0.6865 -0.4471 -0.2638
  778MPD2    H311536   4.259   2.006  14.871  0.9821 -0.1006  1.5802
  778MPD2     N11537   4.610   1.921  14.597  0.0101  0.1142  0.7282
  778MPD2    H511538   4.661   1.840  14.561 -1.4068 -0.7219  0.6112
  778MPD2    N111539   4.376   1.568  14.823  0.3458 -0.3522  0.4542
  778MPD2    H711540   4.426   1.504  14.762  2.2040 -0.2095  1.8531
  779MPD2     C11541   3.819   0.028  13.972  0.1189 -0.3058 -0.0813
  779MPD2    C111542   3.943   4.710  14.002  0.2249  0.0245  0.4912
  779MPD2    C211543   4.049   0.063  13.990  0.3170 -0.5092 -0.9413
  779MPD2    C311544   4.043   0.189  13.940  0.8118  0.2821 -0.0011
  779MPD2    C411545   3.920   0.231  13.906  0.1244  0.2809 -0.0437
  779MPD2    C511546   3.813   0.150  13.927 -0.0536  0.3408  0.0774
  779MPD2     H11547   4.151   0.031  14.009  0.1704 -0.8771 -0.7647
  779MPD2    H111548   3.909   0.332  13.866 -1.6194  0.0808 -0.0459
  779MPD2    H211549   3.723   4.714  13.988  0.2271 -0.4252  0.2002
  779MPD2    H311550   3.712   0.182  13.905  0.2800  0.7749 -0.8209
  779MPD2     N11551   4.160   0.271  13.933 -0.1075 -0.3303  0.5526
  779MPD2    H511552   4.243   0.228  13.973  0.4270 -1.1018 -1.3976
  779MPD2    N111553   3.958   4.581  14.049 -0.2279 -0.1700 -0.2455
  779MPD2    H711554   4.049   4.558  14.088 -1.0111  0.4188  1.9340
  780MPD2     C11555   4.062   0.538   1.194 -0.6436  0.0352 -0.1631
  780MPD2    C111556   4.042   0.420   1.127 -0.1607 -0.0363 -0.4297
  780MPD2    C211557   4.070   0.415   0.993 -0.0559 -0.6797  0.0921
  780MPD2    C311558   4.148   0.516   0.939 -0.6892 -0.1182 -0.9642
  780MPD2    C411559   4.176   0.630   1.011  0.8369  0.2483  0.6333
  780MPD2    C511560   4.127   0.646   1.136 -0.1956  0.3805 -0.6206
  780MPD2     H11561   4.047   0.325   0.936 -0.7044 -2.0703  2.5682
  780MPD2    H111562   4.249   0.708   0.990 -1.7425  2.0771 -1.5009
  780MPD2    H211563   4.028   0.545   1.296 -0.4640 -0.0806 -0.0943
  780MPD2    H311564   4.166   0.727   1.196  0.0036 -0.1375 -0.0526
  780MPD2     N11565   4.182   0.495   0.805  0.1643  0.6713 -0.2842
  780MPD2    H511566   4.141   0.419   0.753 -0.2709 -0.3788  1.5845
  780MPD2    N111567   3.970   0.315   1.190  0.7059  1.0219 -0.0779
  780MPD2    H711568   3.910   0.318   1.272  3.0975 -2.7918  1.8038
  781MPD2     C11569   0.944   1.962  11.700  0.2107 -0.4052 -1.2211
  781MPD2    C111570   1.000   1.969  11.822 -0.6616  0.7184  0.3604
  781MPD2    C211571   1.116   1.897  11.844  0.6184  0.0804  0.0377
  781MPD2    C311572   1.177   1.825  11.742 -0.0878 -0.3793  0.0061
  781MPD2    C411573   1.121   1.827  11.614 -0.2248 -0.0969 -0.3675
  781MPD2    C511574   1.004   1.897  11.592  0.0936  0.4995 -0.0998
  781MPD2     H11575   1.158   1.892  11.944 -1.9337  2.0317  1.2080
  781MPD2    H111576   1.152   1.772  11.525  0.5418 -1.5976  0.8297
  781MPD2    H211577   0.856   2.016  11.668  0.2102  0.5035  0.3301
  781MPD2    H311578   0.958   1.879  11.496  1.3380  1.5823 -0.8901
  781MPD2     N11579   1.283   1.738  11.764  0.1395 -0.2986  0.7159
  781MPD2    H511580   1.321   1.676  11.693 -0.8051 -0.9704  0.8031
  781MPD2    N111581   0.936   2.018  11.934 -0.5019 -0.0284  0.3350
  781MPD2    H711582   0.965   1.983  12.025 -3.5843  1.7682  1.9968
  782MPD2     C11583   3.079   3.047  10.415 -0.1348  0.5063 -0.1050
  782MPD2    C111584   3.217   3.072  10.392 -0.1728 -0.1598  0.5163
  782MPD2    C211585   3.301   3.082  10.504 -0.2116  0.3612  0.1078
  782MPD2    C311586   3.247   3.075  10.635 -0.2095  0.1793 -0.6014
  782MPD2    C411587   3.117   3.047  10.652  0.1502 -0.3611  0.0335
  782MPD2    C511588   3.032   3.032  10.543 -0.0733  0.6011  0.3454
  782MPD2     H11589   3.409   3.081  10.488 -0.4577 -0.0937 -1.5173
  782MPD2    H111590   3.075   3.038  10.751  0.2940 -0.5708  0.0760
  782MPD2    H211591   3.013   3.014  10.336  0.6449  1.2771 -1.0897
  782MPD2    H311592   2.926   3.019  10.559 -0.1912  1.2141  0.0416
  782MPD2     N11593   3.337   3.104  10.737  0.1700 -0.5797  0.6914
  782MPD2    H511594   3.430   3.137  10.712  0.5224 -1.6534  0.6150
  782MPD2    N111595   3.257   3.040  10.257 -0.5927  0.1462  0.1638
  782MPD2    H711596   3.194   3.061  10.181  0.3547 -1.1329 -0.9691
  783MPD2     C11597   3.173   2.452  10.987 -0.3024 -0.5360  0.4358
  783MPD2    C111598   3.254   2.559  11.018  0.5200  0.4865  0.3773
  783MPD2    C211599   3.296   2.647  10.916  1.1537 -0.5382  0.7497
  783MPD2    C311600   3.255   2.621  10.790 -0.2151  0.1579  0.0757
  783MPD2    C411601   3.168   2.513  10.766  0.1868 -0.0947 -0.3303
  783MPD2    C511602   3.141   2.418  10.859 -1.1955 -0.2156 -0.0354
  783MPD2     H11603   3.368   2.725  10.935  1.1034 -0.5023  0.7937
  783MPD2    H111604   3.134   2.489  10.666  0.1054 -1.8616  0.1373
  783MPD2    H211605   3.158   2.378  11.065 -2.9636 -0.6729 -0.1965
  783MPD2    H311606   3.104   2.318  10.841 -0.6747 -0.3881 -0.1577
  783MPD2     N11607   3.324   2.691  10.684  0.6884 -0.4750 -0.5100
  783MPD2    H511608   3.404   2.747  10.713 -0.4787  1.3918 -0.9312
  783MPD2    N111609   3.283   2.573  11.159  0.4144  0.3233  0.8145
  783MPD2    H711610   3.250   2.500  11.220 -0.9357  0.0294 -0.2662
  784MPD2     C11611   1.197   2.927   0.521 -0.9237 -0.0429 -0.0452
  784MPD2    C111612   1.189   3.056   0.566  0.7116 -0.2708  0.0527
  784MPD2    C211613   1.075   3.133   0.528 -0.7528  0.0323 -0.4023
  784MPD2    C311614   0.978   3.080   0.443 -0.1156 -0.6493  0.1213
  784MPD2    C411615   0.998   2.955   0.393  0.4360 -0.2312  0.1392
  784MPD2    C511616   1.104   2.882   0.429 -0.0580  0.7937 -0.3303
  784MPD2     H11617   1.064   3.233   0.567 -2.0735 -0.9661  1.7847
  784MPD2    H111618   0.927   2.915   0.321 -0.0624 -1.0565  1.0856
  784MPD2    H211619   1.281   2.863   0.542 -2.9922 -2.9802 -0.7947
  784MPD2    H311620   1.111   2.784   0.384 -0.9536 -0.3478  2.0416
  784MPD2     N11621   0.866   3.163   0.407 -0.5702  0.5049 -0.1256
  784MPD2    H511622   0.879   3.261   0.429  0.8140  0.5989 -1.3360
  784MPD2    N111623   1.291   3.123   0.640  0.3535 -0.2580  0.0589
  784MPD2    H711624   1.278   3.220   0.665  2.3420 -0.1865  0.7959
  785MPD2     C11625   1.852   1.408  11.941 -0.1100  0.1528 -0.0611
  785MPD2    C111626   1.777   1.491  11.872  0.4130 -0.4455  0.2169
  785MPD2    C211627   1.684   1.434  11.783 -0.2925 -0.2341  0.7091
  785MPD2    C311628   1.681   1.296  11.763 -0.2211  0.0024  0.2983
  785MPD2    C411629   1.756   1.213  11.832  1.0294  0.3235  0.1613
  785MPD2    C511630   1.841   1.271  11.924  0.2595  0.1160  0.1211
  785MPD2     H11631   1.633   1.503  11.717  3.1357  0.6139 -1.0088
  785MPD2    H111632   1.782   1.110  11.813  0.6190  0.1872  0.3292
  785MPD2    H211633   1.917   1.443  12.020  0.3836 -0.4090 -0.2191
  785MPD2    H311634   1.902   1.198  11.976  1.0666  0.8448  0.2012
  785MPD2     N11635   1.602   1.246  11.653  0.1331  0.5294 -0.1557
  785MPD2    H511636   1.562   1.312  11.587  3.3934  2.6284 -0.0173
  785MPD2    N111637   1.781   1.634  11.873 -0.3707  0.5373  0.2737
  785MPD2    H711638   1.711   1.676  11.812  0.4623 -1.1923 -1.8663
  786MPD2     C11639   0.169   4.379  14.640 -0.1584 -0.2895 -0.3670
  786MPD2    C111640   0.212   4.250  14.668 -0.3901  0.6323  0.0423
  786MPD2    C211641   0.332   4.234  14.735  0.5497 -1.0632 -0.2368
  786MPD2    C311642   0.411   4.345  14.769  0.4818  0.1682  0.2399
  786MPD2    C411643   0.370   4.472  14.733 -0.3555  0.4969 -0.4462
  786MPD2    C511644   0.250   4.485  14.667  0.2468  1.0390  0.1570
  786MPD2     H11645   0.363   4.138  14.775 -0.4251 -2.3163 -2.5052
  786MPD2    H111646   0.421   4.561  14.768  0.6729  0.1004 -0.9255
  786MPD2    H211647   0.073   4.395  14.591 -0.3028 -2.7798 -0.9061
  786MPD2    H311648   0.209   4.583  14.646 -1.1075  0.7580  1.4789
  786MPD2     N11649   0.536   4.333  14.837  0.5193  0.1143  0.0788
  786MPD2    H511650   0.583   4.421  14.859  2.1717 -1.1921  1.7477
  786MPD2    N111651   0.134   4.130  14.635  0.6303  0.0191 -0.2250
  786MPD2    H711652   0.163   4.038  14.666  1.2244 -0.3510 -1.9196
  787MPD2     C11653   0.026   3.288  14.423 -0.1888  0.1428 -0.5746
  787MPD2    C111654   0.085   3.416  14.397 -0.3495  0.4246 -0.3630
  787MPD2    C211655   0.188   3.429  14.305 -0.5774  0.1989 -0.0464
  787MPD2    C311656   0.218   3.322  14.230  0.5035 -0.3402 -0.3526
  787MPD2    C411657   0.155   3.201  14.252  0.6302  0.6678  0.0778
  787MPD2    C511658   0.070   3.176  14.353 -0.2519  0.3174  0.0991
  787MPD2     H11659   0.245   3.519  14.286  0.6237 -0.8005 -1.2254
  787MPD2    H111660   0.171   3.114  14.189  0.0598 -0.2083  1.1542
  787MPD2    H211661   4.683   3.271  14.496 -1.1554  3.2084 -0.9146
  787MPD2    H311662   0.030   3.077  14.372 -0.1286  0.9076  3.3882
  787MPD2     N11663   0.327   3.332  14.140  0.5408  0.4415 -0.1881
  787MPD2    H511664   0.386   3.414  14.137  1.2842 -0.0067  2.3064
  787MPD2    N111665   0.037   3.533  14.461 -0.3891  0.7495 -0.4515
  787MPD2    H711666   4.679   3.522  14.499  0.3110  0.0787  1.0971
  788MPD2     C11667   1.862   2.633   1.010  0.3546  0.6598  0.9264
  788MPD2    C111668   1.939   2.626   0.900 -0.5245 -0.6266 -0.2167
  788MPD2    C211669   1.949   2.741   0.817  0.0822  0.3935 -0.5288
  788MPD2    C311670   1.883   2.857   0.840 -0.0966  0.2527  0.8524
  788MPD2    C411671   1.808   2.855   0.950  0.0601  0.2266 -0.1015
  788MPD2    C511672   1.793   2.748   1.034  0.1514 -0.0300 -0.0716
  788MPD2     H11673   2.004   2.728   0.725  0.8318 -1.2215  0.1611
  788MPD2    H111674   1.747   2.940   0.977  0.3706 -0.0500  1.4617
  788MPD2    H211675   1.854   2.546   1.074  0.1287  0.1009  0.1286
  788MPD2    H311676   1.726   2.750   1.120  2.1902 -1.2336  1.5525
  788MPD2     N11677   1.884   2.974   0.756  0.4190  0.2661  0.3587
  788MPD2    H511678   1.845   3.060   0.794 -2.0964 -0.6191 -0.1862
  788MPD2    N111679   1.995   2.500   0.859  0.0668  0.6925 -0.5789
  788MPD2    H711680   2.051   2.499   0.775  2.1379 -0.0374  0.7918
  789MPD2     C11681   2.400   2.223  16.896 -1.4504 -0.1693 -0.4061
  789MPD2    C111682   2.291   2.185  16.828  0.0503 -0.3466 -0.8072
  789MPD2    C211683   2.178   2.263  16.837 -0.4528 -0.8032 -0.1945
  789MPD2    C311684   2.177   2.381  16.910 -0.3379  0.2762 -0.2461
  789MPD2    C411685   2.290   2.418  16.993 -0.3385 -0.3544  0.0372
  789MPD2    C511686   2.395   2.332  16.985  0.7291  0.2555  0.4717
  789MPD2     H11687   2.091   2.229  16.782 -1.0573  0.2535  0.1021
  789MPD2    H111688   2.293   2.507  17.054  0.1085 -0.7575  0.5962
  789MPD2    H211689   2.491   2.167  16.880 -0.9436  1.0805 -1.8910
  789MPD2    H311690   2.481   2.353  17.047  1.2601  0.7185 -0.4200
  789MPD2     N11691   2.057   2.458  16.917  0.5632 -0.2336 -0.3549
  789MPD2    H511692   2.054   2.537  16.980  0.4606 -1.4925  1.2313
  789MPD2    N111693   2.283   2.064  16.745 -0.3128 -0.4179 -0.3920
  789MPD2    H711694   2.197   2.051  16.693 -0.3978  0.8994 -0.6036
  790MPD2     C11695   3.264   3.957  13.793 -0.1606  0.0432  0.1755
  790MPD2    C111696   3.215   3.820  13.788 -0.9678  0.0529  0.9807
  790MPD2    C211697   3.163   3.785  13.665  0.2255  0.1465  0.4697
  790MPD2    C311698   3.143   3.877  13.560 -0.4635 -0.6086 -0.2319
  790MPD2    C411699   3.179   4.006  13.583  0.1295  0.5585 -0.2537
  790MPD2    C511700   3.236   4.045  13.694 -0.4946  0.0227  0.1023
  790MPD2     H11701   3.133   3.681  13.654  0.6041  0.1713 -0.7578
  790MPD2    H111702   3.149   4.086  13.518 -0.5235  0.7689  0.3041
  790MPD2    H211703   3.320   3.992  13.879 -0.5099  1.2242 -0.0848
  790MPD2    H311704   3.263   4.149  13.707  3.5493 -0.8141 -1.7237
  790MPD2     N11705   3.074   3.835  13.449  0.4289  0.1531  0.4660
  790MPD2    H511706   3.072   3.735  13.436  1.7683 -0.2191  3.1335
  790MPD2    N111707   3.234   3.730  13.896  0.2582 -0.0438 -0.1352
  790MPD2    H711708   3.278   3.763  13.981 -0.3671  1.1363 -0.2721
  791MPD2     C11709   2.453   3.724  13.502  0.1366 -0.1761 -0.6457
  791MPD2    C111710   2.504   3.632  13.413 -0.8167 -0.0667 -0.4743
  791MPD2    C211711   2.433   3.517  13.390  0.0359  0.7154 -0.7269
  791MPD2    C311712   2.308   3.491  13.440  0.2976 -0.4949  0.6741
  791MPD2    C411713   2.261   3.578  13.540 -0.0544  0.0327  0.1412
  791MPD2    C511714   2.330   3.695  13.563 -0.8107  0.0144  0.2299
  791MPD2     H11715   2.467   3.453  13.310  1.1597 -1.8390  1.8216
  791MPD2    H111716   2.165   3.558  13.586 -0.5140  0.4288 -0.6639
  791MPD2    H211717   2.502   3.816  13.532  0.9326 -0.5262 -0.8933
  791MPD2    H311718   2.283   3.775  13.620  0.7591 -0.4906  2.2321
  791MPD2     N11719   2.253   3.370  13.406 -0.1305 -0.4138  0.0732
  791MPD2    H511720   2.311   3.299  13.361 -1.5946 -1.7674  0.3208
  791MPD2    N111721   2.626   3.657  13.352  0.0662 -0.0946  0.5160
  791MPD2    H711722   2.678   3.738  13.384 -0.1085  0.7556 -1.3456
  792MPD2     C11723   3.379   3.899  11.452 -0.7059  0.4953 -0.3784
  792MPD2    C111724   3.320   3.984  11.362 -0.2926 -0.3706 -0.1937
  792MPD2    C211725   3.176   3.969  11.345 -0.2251  0.6136  0.0545
  792MPD2    C311726   3.097   3.879  11.410  0.1582  0.0220 -0.3869
  792MPD2    C411727   3.165   3.804  11.498  0.0469  0.5715 -0.4175
  792MPD2    C511728   3.298   3.812  11.518 -0.1802  0.7719 -0.7026
  792MPD2     H11729   3.128   4.038  11.277  0.0212 -0.3679 -1.1034
  792MPD2    H111730   3.106   3.734  11.556 -3.0639  2.5467 -1.2217
  792MPD2    H211731   3.485   3.898  11.475 -0.4449 -2.9736 -1.7992
  792MPD2    H311732   3.336   3.752  11.599  0.5393 -0.6551 -2.1080
  792MPD2     N11733   2.960   3.856  11.385  0.2260  0.5327 -0.0493
  792MPD2    H511734   2.916   3.778  11.434  0.9929 -0.6437 -1.2630
  792MPD2    N111735   3.404   4.069  11.292  0.5316  0.3852  0.0965
  792MPD2    H711736   3.499   4.077  11.327 -0.1525 -0.2264  2.0570
  793MPD2     C11737   2.516   3.749  10.553  0.4461  0.2898 -0.0570
  793MPD2    C111738   2.645   3.734  10.611 -0.4702 -0.1161  0.1612
  793MPD2    C211739   2.663   3.769  10.740 -0.4661  0.3575  0.1273
  793MPD2    C311740   2.556   3.820  10.814 -0.7565 -0.0182 -0.7322
  793MPD2    C411741   2.439   3.854  10.748 -0.2953 -0.5723  0.0539
  793MPD2    C511742   2.424   3.822  10.617 -0.3876  0.3926  0.1640
  793MPD2     H11743   2.752   3.745  10.799  0.2195 -0.6327 -1.3213
  793MPD2    H111744   2.353   3.901  10.796  0.5432 -0.1076  1.0993
  793MPD2    H211745   2.487   3.705  10.458 -1.8958  2.8431 -0.5316
  793MPD2    H311746   2.327   3.829  10.568 -0.6836  3.2660  1.1383
  793MPD2     N11747   2.580   3.849  10.953  0.4283  0.1173  0.1759
  793MPD2    H511748   2.670   3.818  10.989  0.1432  2.4742  2.8654
  793MPD2    N111749   2.752   3.677  10.540  0.4122  0.6761  0.7161
  793MPD2    H711750   2.845   3.674  10.581 -0.1408  0.2454  1.9416
  794MPD2     C11751   2.917   3.359  17.165  0.4798 -0.8307 -0.8546
  794MPD2    C111752   2.871   3.236  17.128 -0.6598 -0.1178  0.5189
  794MPD2    C211753   2.765   3.233  17.043  0.2516  0.2840 -0.2279
  794MPD2    C311754   2.704   3.349  16.997 -0.3920  0.0313  0.0301
  794MPD2    C411755   2.745   3.470  17.047  0.4848  0.0723  0.0994
  794MPD2    C511756   2.854   3.474  17.127 -0.4486 -0.1454 -0.4676
  794MPD2     H11757   2.733   3.139  16.999  0.5479  0.0483  0.0575
  794MPD2    H111758   2.705   3.567  17.020  0.9396  0.0182 -0.7542
  794MPD2    H211759   2.998   3.357  17.236 -0.4831 -1.1626  0.2348
  794MPD2    H311760   2.887   3.565  17.174  1.5925 -1.5071  0.7152
  794MPD2     N11761   2.590   3.353  16.915  0.7493 -0.1315  0.1795
  794MPD2    H511762   2.551   3.446  16.902  2.2690  0.0879 -2.8559
  794MPD2    N111763   2.918   3.116  17.189  0.2185 -0.2707  0.0725
  794MPD2    H711764   2.858   3.037  17.165 -0.8637  1.1947 -2.0500
  795MPD2     C11765   0.741   0.495  13.886 -0.6899 -0.1926  0.0560
  795MPD2    C111766   0.695   0.401  13.796  0.5885  0.1028 -0.1410
  795MPD2    C211767   0.757   0.275  13.801  0.2004 -1.2631 -1.1639
  795MPD2    C311768   0.853   0.248  13.900  0.8983 -0.2207  0.0557
  795MPD2    C411769   0.898   0.345  13.978  0.2063  0.5625 -0.1579
  795MPD2    C511770   0.850   0.469  13.968 -0.3295 -0.2378  0.0750
  795MPD2     H11771   0.732   0.207  13.720 -2.4854 -1.5676 -0.0984
  795MPD2    H111772   0.979   0.327  14.048 -0.2195  0.4771  0.3076
  795MPD2    H211773   0.706   0.597  13.888 -0.7163 -0.1973 -0.2091
  795MPD2    H311774   0.895   0.547  14.029 -0.6455 -0.7869  1.0160
  795MPD2     N11775   0.922   0.127  13.907 -0.4987  0.0376  0.0397
  795MPD2    H511776   0.986   0.107  13.984  0.5359 -0.8002 -1.0509
  795MPD2    N111777   0.597   0.430  13.693 -0.0310  0.0765 -0.0903
  795MPD2    H711778   0.577   0.361  13.622 -0.0021  0.5224 -0.5342
  796MPD2     C11779   4.613   1.933  16.285 -0.5522  0.0039 -0.0712
  796MPD2    C111780   4.723   2.007  16.316  0.2696 -0.3354 -0.4699
  796MPD2    C211781   4.714   2.144  16.295  0.4110 -0.6634  0.4800
  796MPD2    C311782   4.596   2.200  16.244  0.5253 -0.7029 -0.1267
  796MPD2    C411783   4.485   2.123  16.224 -0.0004  0.9410  0.6046
  796MPD2    C511784   4.492   1.987  16.242 -0.4710  0.0131 -0.2899
  796MPD2     H11785   0.063   2.206  16.324  0.5837 -0.4532 -0.4928
  796MPD2    H111786   4.390   2.160  16.189  0.1380 -0.4615 -1.2455
  796MPD2    H211787   4.606   1.827  16.304 -3.4014  0.2347  0.1301
  796MPD2    H311788   4.410   1.923  16.213  2.0610 -3.6810  0.6837
  796MPD2     N11789   4.598   2.340  16.217 -0.9009  0.0808 -0.0782
  796MPD2    H511790   4.682   2.393  16.238 -0.2386 -0.7852 -0.5366
  796MPD2    N111791   0.100   1.947  16.378 -0.6916  0.4689 -0.6787
  796MPD2    H711792   0.094   1.846  16.386  1.2921  0.4521  0.6153
  797MPD2     C11793   1.540   1.401  17.442  0.0938  0.4243 -0.2820
  797MPD2    C111794   1.626   1.496  17.400 -0.8538  0.6601  0.0161
  797MPD2    C211795   1.600   1.566  17.284  0.4164  0.2698 -0.2768
  797MPD2    C311796   1.501   1.527  17.200 -0.6364 -0.7417 -0.1844
  797MPD2    C411797   1.408   1.435  17.247  0.4404 -0.2614 -0.1874
  797MPD2    C511798   1.425   1.376  17.372 -0.5568 -0.2090 -0.6303
  797MPD2     H11799   1.673   1.642  17.256 -1.6340  1.6371 -1.8598
  797MPD2    H111800   1.330   1.400  17.181  0.5138 -1.1036  0.1837
  797MPD2    H211801   1.564   1.342  17.530  1.9607  0.0151 -1.0658
  797MPD2    H311802   1.367   1.290  17.403 -0.3376  0.9608  2.9660
  797MPD2     N11803   1.489   1.592  17.075 -0.3531  0.2025 -0.0334
  797MPD2    H511804   1.563   1.656  17.049  0.1071 -0.7527 -1.0828
  797MPD2    N111805   1.744   1.535  17.468 -0.6032  0.1771  0.8185
  797MPD2    H711806   1.806   1.595  17.416 -0.8666 -1.7476 -1.6898
  798MPD2     C11807   1.836   2.156  17.083  0.9282  0.0621  0.2679
  798MPD2    C111808   1.804   2.025  17.067 -0.3082  0.0655 -0.3519
  798MPD2    C211809   1.844   1.938  17.169 -0.0562 -0.3075 -0.0097
  798MPD2    C311810   1.930   1.978  17.265  0.3969  0.3982 -0.6782
  798MPD2    C411811   1.969   2.111  17.275 -0.3291 -0.1870  0.9979
  798MPD2    C511812   1.921   2.193  17.185 -0.3621  0.5628 -0.0664
  798MPD2     H11813   1.806   1.839  17.187 -2.5868  0.2851 -2.0945
  798MPD2    H111814   2.038   2.142  17.353  0.7197 -2.7553  1.0931
  798MPD2    H211815   1.796   2.234  17.019 -0.0768 -1.7461 -1.3274
  798MPD2    H311816   1.960   2.294  17.189 -1.1609  0.7568  2.8017
  798MPD2     N11817   1.956   1.883  17.362  0.1725 -0.4926  0.6073
  798MPD2    H511818   1.916   1.793  17.341 -1.1189  0.1367  0.3578
  798MPD2    N111819   1.705   1.991  16.974 -0.0876 -0.3002 -0.1605
  798MPD2    H711820   1.664   2.072  16.929 -0.1043  0.5357  1.3658
  799MPD2     C11821   4.501   3.155  14.237 -0.6746 -0.2506  0.1097
  799MPD2    C111822   4.540   3.034  14.174 -0.0672  0.6285 -0.2311
  799MPD2    C211823   4.612   3.046  14.057  0.0496 -0.4713 -0.4582
  799MPD2    C311824   4.639   3.168  14.002  0.3182  0.3667 -0.3250
  799MPD2    C411825   4.580   3.280  14.052 -0.3719 -0.3423  0.4495
  799MPD2    C511826   4.512   3.273  14.173  0.4290  0.0365 -0.2665
  799MPD2     H11827   4.657   2.957  14.014  2.4273  0.5851 -0.1692
  799MPD2    H111828   4.588   3.376  14.002  2.1341 -1.5114 -1.4117
  799MPD2    H211829   4.462   3.159  14.338 -0.2343 -1.4240  0.3223
  799MPD2    H311830   4.474   3.363  14.221  1.3918 -0.4632  1.4637
  799MPD2     N11831   4.705   3.180  13.880 -0.2094 -0.6978 -0.2444
  799MPD2    H511832   4.725   3.271  13.840 -0.7298 -0.9835 -1.1517
  799MPD2    N111833   4.530   2.906  14.234 -0.4003 -0.2890  0.5911
  799MPD2    H711834   4.548   2.822  14.179  1.3656  0.0961  0.5965
  800MPD2     C11835   0.303   4.005  14.198  0.3675  0.0354 -0.0583
  800MPD2    C111836   0.378   4.074  14.105 -0.7798  0.6973 -0.1692
  800MPD2    C211837   0.380   4.020  13.973 -0.4348  0.3471 -0.1540
  800MPD2    C311838   0.333   3.891  13.944 -0.2722 -0.5658  0.2161
  800MPD2    C411839   0.264   3.832  14.043  0.1284 -0.1755  0.1212
  800MPD2    C511840   0.232   3.895  14.162 -0.3773  0.3888  0.1196
  800MPD2     H11841   0.436   4.078  13.900  0.4363  0.8095  0.8775
  800MPD2    H111842   0.237   3.727  14.035 -2.0818  0.4119 -0.0638
  800MPD2    H211843   0.296   4.029  14.303  0.6478  1.6027 -0.3992
  800MPD2    H311844   0.171   3.845  14.235  1.8775 -0.1907  1.6210
  800MPD2     N11845   0.365   3.835  13.819  0.4134  0.1595 -0.2291
  800MPD2    H511846   0.431   3.897  13.774  0.1884  1.7320  1.6352
  800MPD2    N111847   0.448   4.186  14.148 -0.3834  0.2221  0.2549
  800MPD2    H711848   0.443   4.216  14.245 -3.8317 -2.0719  0.7636
  801MPD2     C11849   0.341   0.076  14.486 -0.7125  0.0152 -0.3752
  801MPD2    C111850   0.312   4.713  14.398  0.0012 -0.3298 -0.7892
  801MPD2    C211851   0.176   4.671  14.381  0.8313 -1.0585 -0.1747
  801MPD2    C311852   0.080   4.723  14.465 -0.3281  0.5020  0.4367
  801MPD2    C411853   0.113   0.093  14.556  0.1596  0.3260  0.2227
  801MPD2    C511854   0.240   0.138  14.560  0.1364  0.0357 -0.1364
  801MPD2     H11855   0.161   4.586  14.317 -0.2502 -0.9938 -0.0014
  801MPD2    H111856   0.042   0.136  14.625 -0.9413  0.1452 -0.7980
  801MPD2    H211857   0.444   0.109  14.489 -0.0834 -1.8749 -1.2710
  801MPD2    H311858   0.275   0.205  14.638  1.3054 -0.6252 -0.0881
  801MPD2     N11859   4.694   4.656  14.460  0.1876 -0.3259 -0.1762
  801MPD2    H511860   4.683   4.579  14.395 -1.9615 -1.9533  2.1257
  801MPD2    N111861   0.403   4.643  14.320  0.1603 -0.1369  0.1481
  801MPD2    H711862   0.354   4.577  14.260 -1.5454  1.0985  0.1712
  802MPD2     C11863   4.591   0.930  17.275 -0.1038 -0.4335  0.2718
  802MPD2    C111864   4.700   0.922  17.358 -0.5412  0.0294  0.0240
  802MPD2    C211865   0.005   0.800  17.392  0.1629  0.0790 -0.3540
  802MPD2    C311866   4.681   0.683  17.347 -0.2261  0.7520  0.8397
  802MPD2    C411867   4.568   0.694  17.264  0.1898  0.0407 -0.2875
  802MPD2    C511868   4.531   0.820  17.229 -0.0352 -0.3775  0.2252
  802MPD2     H11869   0.086   0.797  17.463  1.8434 -1.1442 -2.3304
  802MPD2    H111870   4.514   0.609  17.223  0.7630 -0.3337 -0.2652
  802MPD2    H211871   4.573   1.030  17.238  2.0957 -0.5381 -1.0953
  802MPD2    H311872   4.446   0.828  17.163  0.6300  3.5673 -0.1333
  802MPD2     N11873   0.014   0.566  17.373 -0.5970  0.2059  0.5891
  802MPD2    H511874   0.111   0.576  17.401  0.0978  0.2828 -1.7878
  802MPD2    N111875   0.020   1.035  17.425 -0.8848  0.0788 -0.5089
  802MPD2    H711876   0.089   1.013  17.496 -1.1746  1.3293  0.1502
  803MPD2     C11877   0.854   2.817  12.179  0.2733  0.5751  0.4300
  803MPD2    C111878   0.815   2.950  12.182 -0.3268 -0.1328 -0.2811
  803MPD2    C211879   0.861   3.021  12.291 -0.7335 -0.2071  0.0561
  803MPD2    C311880   0.933   2.956  12.393  0.4706  0.7332  0.0615
  803MPD2    C411881   0.966   2.828  12.384  0.5229 -0.3090 -0.8142
  803MPD2    C511882   0.925   2.755  12.282 -0.3265 -0.6071 -0.0210
  803MPD2     H11883   0.831   3.126  12.295 -1.8372 -0.4756 -1.1678
  803MPD2    H111884   1.016   2.785  12.470  0.6528 -2.0875 -1.7833
  803MPD2    H211885   0.833   2.747  12.098 -2.4105 -0.5113  2.0793
  803MPD2    H311886   0.949   2.650  12.273  2.0122 -0.0358 -0.3846
  803MPD2     N11887   0.957   3.012  12.515 -0.4293 -0.4011  0.3018
  803MPD2    H511888   0.997   2.952  12.586  1.0411 -0.1508 -0.3185
  803MPD2    N111889   0.749   3.016  12.075 -0.4577 -0.3539  0.3445
  803MPD2    H711890   0.745   3.117  12.084  1.3112 -0.3576  1.0356
  804MPD2     C11891   0.716   0.451  16.932  0.1102  0.5020  0.4548
  804MPD2    C111892   0.697   0.356  17.025 -0.0749  0.5750  0.3972
  804MPD2    C211893   0.719   0.389  17.158  0.6745  0.1752  0.3285
  804MPD2    C311894   0.764   0.511  17.197 -0.3185 -0.4752 -0.3239
  804MPD2    C411895   0.795   0.608  17.099  0.2562  0.4673 -0.0069
  804MPD2    C511896   0.771   0.573  16.970  0.2019  0.5210  0.4088
  804MPD2     H11897   0.692   0.322  17.239  2.1648 -0.4622  0.2963
  804MPD2    H111898   0.835   0.705  17.129  0.7799  0.3757 -0.4193
  804MPD2    H211899   0.700   0.432  16.826  3.3974 -0.8501  0.1991
  804MPD2    H311900   0.793   0.642  16.889  0.2492  1.5847  1.3364
  804MPD2     N11901   0.768   0.543  17.334  0.5346  0.3575 -0.5904
  804MPD2    H511902   0.741   0.466  17.396 -0.0632  0.3765 -0.8327
  804MPD2    N111903   0.645   0.222  17.002 -0.4461  0.2693  0.7308
  804MPD2    H711904   0.608   0.162  17.075  0.8788 -2.2068 -0.6373
  805MPD2     C11905   4.083   3.099  15.250  0.3192 -0.3466  0.5323
  805MPD2    C111906   4.187   3.129  15.169 -0.2227  0.1210  0.9488
  805MPD2    C211907   4.313   3.152  15.227  0.9595 -0.1606 -0.6281
  805MPD2    C311908   4.329   3.152  15.369  0.7336 -0.1698  0.1262
  805MPD2    C411909   4.220   3.126  15.448  0.3423 -0.1654  0.0464
  805MPD2    C511910   4.100   3.096  15.386  0.0193 -0.2253 -0.2491
  805MPD2     H11911   4.389   3.183  15.156  0.4585  0.4521 -0.8986
  805MPD2    H111912   4.216   3.110  15.555 -1.2468  0.8247  0.1402
  805MPD2    H211913   3.981   3.090  15.214  0.6107 -0.9023 -0.1487
  805MPD2    H311914   4.018   3.061  15.448 -0.7062 -0.7460 -1.5073
  805MPD2     N11915   4.456   3.183  15.428  0.1506  0.5332  0.8716
  805MPD2    H511916   4.532   3.190  15.361  0.9822  2.7260  2.0564
  805MPD2    N111917   4.172   3.146  15.028 -0.2886 -0.1567  0.8065
  805MPD2    H711918   4.256   3.168  14.976 -0.3350  2.4585  1.8567
  806MPD2     C11919   0.333   2.300   1.064  0.5492  0.6706 -0.2733
  806MPD2    C111920   0.367   2.331   0.933  1.2367  0.3084 -0.3162
  806MPD2    C211921   0.343   2.240   0.830  0.0067 -0.0439  0.2138
  806MPD2    C311922   0.302   2.108   0.873 -0.1119  0.1054 -0.0603
  806MPD2    C411923   0.282   2.083   1.006 -0.7559 -0.2761 -0.3757
  806MPD2    C511924   0.283   2.180   1.104  0.4094  0.3193  0.0040
  806MPD2     H11925   0.357   2.258   0.724  1.4033 -0.5938  0.3124
  806MPD2    H111926   0.242   1.993   1.050  0.9082 -0.0552  1.5839
  806MPD2    H211927   0.350   2.376   1.140 -0.0884 -0.6604  1.1861
  806MPD2    H311928   0.288   2.161   1.211  0.1172 -2.7076 -0.5260
  806MPD2     N11929   0.280   2.012   0.770 -0.5509 -0.1882  0.0837
  806MPD2    H511930   0.328   2.032   0.682  1.0729 -1.4623  0.6636
  806MPD2    N111931   0.396   2.463   0.905 -0.1939 -0.4317  0.2076
  806MPD2    H711932   0.404   2.526   0.984 -0.7622 -2.0511  1.5689
  807MPD2     C11933   0.270   3.182   1.097  0.4762 -0.4026 -0.1102
  807MPD2    C111934   0.247   3.048   1.098 -0.2830  0.2646  0.6321
  807MPD2    C211935   0.165   3.003   1.194 -0.0143  0.7620 -0.2170
  807MPD2    C311936   0.098   3.094   1.281  0.2247  0.2840  0.0544
  807MPD2    C411937   0.127   3.229   1.276 -0.2370 -0.1804 -0.5893
  807MPD2    C511938   0.214   3.268   1.185  0.4158 -0.2343  0.8313
  807MPD2     H11939   0.144   2.897   1.208 -1.9347  0.6412 -3.6961
  807MPD2    H111940   0.081   3.309   1.332  1.6186 -0.3786  1.2234
  807MPD2    H211941   0.322   3.229   1.015 -0.7958  1.9063  0.4046
  807MPD2    H311942   0.237   3.373   1.169  1.5253 -0.7548 -0.9364
  807MPD2     N11943   0.003   3.041   1.374  0.4978 -0.0506 -0.0047
  807MPD2    H511944   4.728   2.941   1.360 -0.9834  0.3896 -1.9644
  807MPD2    N111945   0.311   2.948   1.019 -0.1485 -0.5320  0.7878
  807MPD2    H711946   0.289   2.850   1.034 -2.0123 -0.1136  0.7658
  808MPD2     C11947   0.295   3.777  10.576  0.0567 -0.3167  0.0860
  808MPD2    C111948   0.292   3.878  10.479  0.3192  0.6732 -0.0279
  808MPD2    C211949   0.394   3.973  10.481  0.0500 -0.1451 -0.3358
  808MPD2    C311950   0.514   3.953  10.557  0.1734 -0.2837  0.3150
  808MPD2    C411951   0.524   3.845  10.637 -0.9395  0.1014  0.1089
  808MPD2    C511952   0.417   3.759  10.645 -0.1837 -0.7369  1.0063
  808MPD2     H11953   0.384   4.052  10.408  0.6246 -0.7767 -1.1002
  808MPD2    H111954   0.607   3.838  10.706  1.4350  0.6113 -2.6796
  808MPD2    H211955   0.216   3.704  10.589 -0.1718 -0.2785 -1.0891
  808MPD2    H311956   0.428   3.667  10.701 -0.1569 -1.8988 -0.8796
  808MPD2     N11957   0.612   4.050  10.552 -0.3525  0.1828 -0.0078
  808MPD2    H511958   0.705   4.031  10.591  0.0514  2.4696  0.1592
  808MPD2    N111959   0.200   3.884  10.379 -0.3950 -0.1541 -0.5311
  808MPD2    H711960   0.201   3.975  10.334  1.7969 -0.3459 -0.8687
  809MPD2     C11961   1.438   3.849  10.405 -0.5032 -0.0165 -1.0058
  809MPD2    C111962   1.451   3.982  10.379 -1.1840 -0.2173 -0.2824
  809MPD2    C211963   1.341   4.064  10.396 -0.4463  0.7896 -0.7485
  809MPD2    C311964   1.217   4.009  10.440 -0.0922  0.3555  0.9556
  809MPD2    C411965   1.207   3.876  10.461  0.4590 -0.9254 -0.4616
  809MPD2    C511966   1.319   3.796  10.443  0.8370 -0.0759  0.5045
  809MPD2     H11967   1.356   4.171  10.390  1.0349  0.6706  1.0085
  809MPD2    H111968   1.117   3.821  10.486  0.3909 -0.9332 -0.7231
  809MPD2    H211969   1.527   3.788  10.397  1.1216  2.3761 -1.3317
  809MPD2    H311970   1.306   3.689  10.453  1.8714 -0.2053  0.4637
  809MPD2     N11971   1.099   4.084  10.465 -0.2834 -0.2033 -0.0316
  809MPD2    H511972   1.013   4.033  10.484 -0.1095 -0.7820 -0.8047
  809MPD2    N111973   1.576   4.041  10.352 -0.4998  0.2732 -0.1999
  809MPD2    H711974   1.583   4.137  10.319  1.8406  1.2295  3.2321
  810MPD2     C11975   0.154   4.346  11.105  0.8296  0.3419  0.0477
  810MPD2    C111976   0.071   4.317  11.002 -0.8868 -0.7938 -1.0455
  810MPD2    C211977   4.735   4.415  10.934 -0.1788  0.6157 -0.8154
  810MPD2    C311978   0.002   4.544  10.988  0.3112  0.2337  0.0598
  810MPD2    C411979   0.070   4.571  11.100  0.3728  0.5092 -0.7223
  810MPD2    C511980   0.150   4.475  11.152  0.0764  0.8727 -0.4096
  810MPD2     H11981   4.682   4.387  10.843 -1.5193 -1.4611  0.6168
  810MPD2    H111982   0.080   4.668  11.147  2.6334  0.3600 -0.8622
  810MPD2    H211983   0.226   4.277  11.148  1.2172  0.6560 -0.0978
  810MPD2    H311984   0.215   4.502  11.234  1.2472 -0.6860 -0.8299
  810MPD2     N11985   4.678   4.656  10.926  0.3014  0.3350 -0.3475
  810MPD2    H511986   4.702   0.004  10.977  0.4852  1.0282 -1.5784
  810MPD2    N111987   0.062   4.183  10.950 -0.2110  0.1806 -0.3683
  810MPD2    H711988   4.732   4.178  10.873 -0.9658  1.5981  0.1717
  811MPD2     C11989   4.298   3.954  10.472  0.3077  0.0535 -0.5427
  811MPD2    C111990   4.411   4.028  10.491  0.3406 -0.2845 -0.0664
  811MPD2    C211991   4.432   4.148  10.420 -0.1344 -0.4737  0.3942
  811MPD2    C311992   4.336   4.189  10.326 -0.4386  0.0659  1.0432
  811MPD2    C411993   4.224   4.109  10.303  0.0095  0.4829  0.1736
  811MPD2    C511994   4.211   3.996  10.377 -0.2903 -0.3352 -0.6811
  811MPD2     H11995   4.509   4.218  10.449  2.0605 -1.8203 -2.2986
  811MPD2    H111996   4.153   4.132  10.224  0.0765  1.0614  0.2788
  811MPD2    H211997   4.286   3.856  10.517  0.1060  0.8124  1.0630
  811MPD2    H311998   4.126   3.930  10.360 -2.0793  0.8394  3.7324
  811MPD2     N11999   4.357   4.313  10.266 -0.7190  0.0072  0.1312
  811MPD2    H512000   4.423   4.378  10.307  0.7212 -0.1998 -1.8658
  811MPD2    N112001   4.501   3.971  10.586 -0.6836  0.2832 -1.0341
  811MPD2    H712002   4.469   3.887  10.635 -0.4183  0.3849 -0.6849
  812MPD2     C12003   3.366   3.571  12.099 -0.6083 -0.3023 -0.0555
  812MPD2    C112004   3.427   3.657  12.183 -0.5577  0.4426  0.0006
  812MPD2    C212005   3.473   3.617  12.308 -0.1196  0.1504 -0.4375
  812MPD2    C312006   3.448   3.486  12.356 -0.2370 -0.4190  0.2157
  812MPD2    C412007   3.378   3.398  12.273  0.2277 -0.3846 -0.3888
  812MPD2    C512008   3.340   3.441  12.145 -0.4361 -0.3655  0.4016
  812MPD2     H12009   3.520   3.691  12.371 -1.2116  0.1965  0.3307
  812MPD2    H112010   3.340   3.300  12.302  3.7935 -1.2952  1.3124
  812MPD2    H212011   3.329   3.610  12.005  0.0662  0.9326  0.1891
  812MPD2    H312012   3.272   3.383  12.083  1.1959 -1.6059 -0.2098
  812MPD2     N12013   3.477   3.456  12.496  0.0068 -0.4973 -0.1278
  812MPD2    H512014   3.522   3.530  12.550  0.0461 -0.2330 -0.5214
  812MPD2    N112015   3.439   3.786  12.130 -0.2652 -0.6880  0.4666
  812MPD2    H712016   3.399   3.794  12.037  0.1868 -1.6505  0.1909
  813MPD2     C12017   3.070   0.498  12.970 -0.6579 -0.0258  0.5906
  813MPD2    C112018   3.176   0.572  13.009 -0.5690  0.3097 -1.1706
  813MPD2    C212019   3.201   0.575  13.144  0.1724  0.9884  0.0137
  813MPD2    C312020   3.122   0.507  13.234  0.4272 -0.3058 -0.1745
  813MPD2    C412021   3.029   0.415  13.188 -0.4016 -0.1088  0.8247
  813MPD2    C512022   2.988   0.424  13.059  0.4835 -0.3764 -0.0671
  813MPD2     H12023   3.287   0.636  13.169 -0.4588  1.8987 -0.0160
  813MPD2    H112024   2.960   0.364  13.255 -2.3490  0.7813 -0.5246
  813MPD2    H212025   3.046   0.485  12.865  0.9839  0.2337  0.1720
  813MPD2    H312026   2.892   0.387  13.026 -0.5989  2.5895 -0.2632
  813MPD2     N12027   3.143   0.542  13.374 -0.3964 -0.0148 -0.3242
  813MPD2    H512028   3.206   0.620  13.392 -0.7129  0.5520 -1.6093
  813MPD2    N112029   3.246   0.658  12.928  0.5804  0.2411  0.1643
  813MPD2    H712030   3.317   0.713  12.976  1.2640 -1.1970  0.8082
  814MPD2     C12031   3.336   1.860  12.726  0.3625 -0.7222 -0.2598
  814MPD2    C112032   3.281   1.962  12.655 -0.1811 -0.4516 -0.1309
  814MPD2    C212033   3.300   2.089  12.709  1.3011  0.6664  0.2525
  814MPD2    C312034   3.361   2.115  12.830 -0.3348  0.1816  0.2680
  814MPD2    C412035   3.425   2.005  12.892 -0.4315 -0.1064 -0.0720
  814MPD2    C512036   3.408   1.877  12.840 -0.1980  0.6457 -0.5707
  814MPD2     H12037   3.254   2.171  12.656  0.9323 -1.7887 -3.2642
  814MPD2    H112038   3.478   2.030  12.983 -0.7722 -0.1753  0.1452
  814MPD2    H212039   3.331   1.756  12.697 -1.2701 -0.3417 -1.3833
  814MPD2    H312040   3.470   1.793  12.869 -0.7784 -0.5641 -2.8223
  814MPD2     N12041   3.371   2.244  12.883 -0.2484  0.0142  0.5182
  814MPD2    H512042   3.457   2.260  12.935  0.3267  0.3364 -0.5394
  814MPD2    N112043   3.217   1.950  12.527  1.0391 -0.5839 -0.3347
  814MPD2    H712044   3.204   2.039  12.479  1.3673 -0.7201 -0.6715
  815MPD2     C12045   3.844   0.863  11.856 -0.3626 -0.0433  0.2071
  815MPD2    C112046   3.893   0.747  11.797  0.5995 -0.0103  0.1752
  815MPD2    C212047   3.868   0.621  11.849  0.0998  0.1087 -0.3622
  815MPD2    C312048   3.797   0.615  11.972 -0.2763  0.2381  0.5888
  815MPD2    C412049   3.756   0.734  12.027  0.5893 -0.6789 -0.1942
  815MPD2    C512050   3.780   0.853  11.974  0.3077  0.1395  0.0749
  815MPD2     H12051   3.909   0.532  11.804  1.0044 -0.7541  2.1673
  815MPD2    H112052   3.698   0.738  12.119  2.1949 -1.1142  0.8458
  815MPD2    H212053   3.874   0.960  11.820  0.5482  0.1610  1.5238
  815MPD2    H312054   3.750   0.946  12.021  1.1404  0.2933  0.2971
  815MPD2     N12055   3.761   0.485  12.016  0.4145 -0.0561 -0.2594
  815MPD2    H512056   3.769   0.404  11.956 -1.1635 -0.3656 -0.0550
  815MPD2    N112057   3.957   0.763  11.673 -0.3417  0.5046  0.2424
  815MPD2    H712058   3.951   0.860  11.647  0.7466  0.2674 -0.8608
  816MPD2     C12059   4.523   4.408  17.230 -0.3665 -0.0875 -0.2478
  816MPD2    C112060   4.415   4.405  17.142  0.0021 -0.5916 -0.7409
  816MPD2    C212061   4.427   4.356  17.015 -0.2179 -0.3811  0.7079
  816MPD2    C312062   4.551   4.304  16.970  0.3758  0.7038  0.6018
  816MPD2    C412063   4.662   4.303  17.053 -0.3886 -0.0229  0.2691
  816MPD2    C512064   4.642   4.358  17.179  0.1365  0.3102  0.3196
  816MPD2     H12065   4.336   4.343  16.957  0.2413  0.5207 -0.2052
  816MPD2    H112066   0.028   4.287  17.021 -0.6463 -0.6791 -0.2191
  816MPD2    H212067   4.531   4.455  17.327 -1.6480  0.1586 -0.2638
  816MPD2    H312068   4.726   4.367  17.246  0.8025  1.9651 -0.7451
  816MPD2     N12069   4.546   4.239  16.844  0.6399  0.5763 -0.1980
  816MPD2    H512070   4.459   4.239  16.792  0.5146 -1.7010  0.0110
  816MPD2    N112071   4.303   4.478  17.189  0.6232 -0.7769 -0.4178
  816MPD2    H712072   4.311   4.503  17.287 -0.6537 -0.9178 -0.2808
  817MPD2     C12073   4.187   2.112   9.819  0.4541  0.1472  0.1868
  817MPD2    C112074   4.052   2.123   9.842  0.0909  0.1362 -0.1368
  817MPD2    C212075   3.997   2.251   9.869  0.3798  0.0515  0.1644
  817MPD2    C312076   4.071   2.364   9.834  0.0950  0.2168  0.3386
  817MPD2    C412077   4.195   2.349   9.788  0.5342  0.3779 -0.1414
  817MPD2    C512078   4.257   2.228   9.791  0.0170 -0.9282  0.1086
  817MPD2     H12079   3.893   2.258   9.899 -0.1835 -0.9109 -1.5123
  817MPD2    H112080   4.254   2.435   9.757  0.4709 -0.1890 -1.7937
  817MPD2    H212081   4.246   2.021   9.809  0.1023  0.0040 -0.5722
  817MPD2    H312082   4.358   2.219   9.752 -0.2542 -1.6471 -0.4313
  817MPD2     N12083   4.007   2.489   9.839 -0.0346 -0.2561 -0.0891
  817MPD2    H512084   3.920   2.505   9.890  0.3373  1.0688  0.1383
  817MPD2    N112085   3.968   2.012   9.820  0.4577 -0.6381 -0.1565
  817MPD2    H712086   3.867   2.023   9.819  0.5558  0.2670 -0.3052
  818MPD2     C12087   2.641   1.868  10.176 -0.5066  0.2210 -0.8882
  818MPD2    C112088   2.567   1.754  10.168  0.3230  0.4657  0.8349
  818MPD2    C212089   2.528   1.718  10.043 -0.1835  0.2458 -0.1492
  818MPD2    C312090   2.587   1.768   9.931  0.7510  0.0453  0.1148
  818MPD2    C412091   2.684   1.864   9.939  0.0963 -0.2434  0.0459
  818MPD2    C512092   2.694   1.921  10.058 -0.2228 -0.9111  0.5489
  818MPD2     H12093   2.478   1.621  10.037  0.9949 -0.3818  0.1467
  818MPD2    H112094   2.736   1.896   9.850  0.1353  2.0135  0.8590
  818MPD2    H212095   2.685   1.903  10.269  2.6434 -0.6656 -2.0619
  818MPD2    H312096   2.749   2.014  10.067 -0.1165 -0.8974 -0.2216
  818MPD2     N12097   2.554   1.713   9.802  0.1927 -0.3227  0.1442
  818MPD2    H512098   2.610   1.738   9.721  1.6267 -4.0158 -0.0269
  818MPD2    N112099   2.541   1.666  10.277  0.2693 -0.2778 -0.0784
  818MPD2    H712100   2.495   1.576  10.265 -0.7983  0.0300  1.7862
  819MPD2     C12101   0.591   3.125  15.606 -0.3237 -0.0866  0.2374
  819MPD2    C112102   0.555   2.991  15.617 -0.1644  0.0614 -0.6053
  819MPD2    C212103   0.632   2.908  15.701 -0.1161 -0.0828  0.1361
  819MPD2    C312104   0.740   2.954  15.775 -0.7361  0.3917 -0.7191
  819MPD2    C412105   0.769   3.087  15.764 -0.5391  0.0698 -0.2107
  819MPD2    C512106   0.696   3.163  15.682  0.9510 -0.2774 -0.5270
  819MPD2     H12107   0.592   2.809  15.718 -1.8552  1.2199  3.5911
  819MPD2    H112108   0.853   3.128  15.818 -0.5789 -1.1098  0.7650
  819MPD2    H212109   0.545   3.194  15.536 -0.9051 -0.8930 -0.1654
  819MPD2    H312110   0.721   3.268  15.675 -2.9423  0.6610 -0.1625
  819MPD2     N12111   0.796   2.860  15.872  0.9142 -0.1239 -0.1007
  819MPD2    H512112   0.744   2.774  15.888  1.6441 -0.4816  0.3656
  819MPD2    N112113   0.436   2.947  15.551 -0.3420 -0.1834 -0.3619
  819MPD2    H712114   0.385   3.015  15.495  0.6069  0.6168 -0.2591
  820MPD2     C12115   0.085   3.071  14.736  0.2215 -0.2444 -0.6165
  820MPD2    C112116   4.712   3.068  14.816 -0.4798 -0.5124  0.2951
  820MPD2    C212117   4.722   3.080  14.945  0.1043  0.4274  0.4793
  820MPD2    C312118   0.109   3.058  15.007 -0.5857  1.2372 -0.4172
  820MPD2    C412119   0.220   3.031  14.930 -0.0058 -0.1402 -0.3162
  820MPD2    C512120   0.212   3.045  14.794 -0.4052  0.6728  0.1380
  820MPD2     H12121   4.629   3.083  15.000 -0.2346  1.1973 -0.1427
  820MPD2    H112122   0.317   3.017  14.977 -0.9635  1.5403  2.1973
  820MPD2    H212123   0.091   3.074  14.628 -0.7219  0.9969 -0.6357
  820MPD2    H312124   0.298   3.032  14.729 -0.0414  0.8451  0.5929
  820MPD2     N12125   0.134   3.015  15.143 -0.2061  0.4410  0.1490
  820MPD2    H512126   0.220   2.967  15.165  1.1858  2.0907 -1.6897
  820MPD2    N112127   4.586   3.069  14.748 -0.2868 -0.2552 -0.0162
  820MPD2    H712128   4.582   3.051  14.648  0.5455 -0.8766  0.0655
  821MPD2     C12129   0.696   4.120  13.250 -0.1020 -0.3595 -0.0021
  821MPD2    C112130   0.775   4.028  13.311 -0.0720  0.8516 -0.3300
  821MPD2    C212131   0.913   4.046  13.288 -0.2434  0.9693  0.3388
  821MPD2    C312132   0.967   4.152  13.211  0.3915  0.1211  0.1593
  821MPD2    C412133   0.874   4.240  13.156 -0.4415 -0.5972 -0.9858
  821MPD2    C512134   0.739   4.220  13.173 -0.0637  0.4054  0.1017
  821MPD2     H12135   0.986   3.984  13.340 -1.6598 -1.6840 -0.8032
  821MPD2    H112136   0.907   4.317  13.087  1.3894 -1.0327 -0.5883
  821MPD2    H212137   0.588   4.118  13.263 -0.1430 -3.6617 -0.7694
  821MPD2    H312138   0.662   4.272  13.119 -2.4421 -0.5110  2.5854
  821MPD2     N12139   1.101   4.181  13.194  0.0640  0.3525  0.3732
  821MPD2    H512140   1.129   4.274  13.162  1.2823  0.1953  0.9562
  821MPD2    N112141   0.737   3.928  13.409  0.2757  0.0852 -0.4146
  821MPD2    H712142   0.805   3.876  13.463  0.0036  0.4581  0.2910
  822MPD2     C12143   1.329   3.814  15.689 -0.0442  0.0203  0.1375
  822MPD2    C112144   1.334   3.809  15.829  0.8181  0.7563  0.1478
  822MPD2    C212145   1.264   3.909  15.893  0.3503 -0.7346 -0.0701
  822MPD2    C312146   1.208   4.010  15.824 -0.5983  0.1114 -0.1437
  822MPD2    C412147   1.214   4.015  15.684 -0.1435  0.1150 -0.7390
  822MPD2    C512148   1.267   3.912  15.621  0.3300 -0.3300 -0.3053
  822MPD2     H12149   1.270   3.919  16.001 -0.7842 -1.1774  0.0326
  822MPD2    H112150   1.172   4.094  15.623 -1.2313 -0.7371 -1.0908
  822MPD2    H212151   1.370   3.734  15.628  1.6107  0.3494  0.8121
  822MPD2    H312152   1.284   3.900  15.515  2.2993 -1.9229  0.1934
  822MPD2     N12153   1.150   4.108  15.907  0.0281  0.1209  0.1629
  822MPD2    H512154   1.138   4.084  16.005  0.2270  0.3378  0.2424
  822MPD2    N112155   1.392   3.704  15.901  0.0217  0.7359 -0.6660
  822MPD2    H712156   1.387   3.711  16.002 -1.8404 -2.8673 -0.5204
  823MPD2     C12157   0.821   4.487  16.614  0.1910 -0.2279  0.2905
  823MPD2    C112158   0.812   4.384  16.521  0.1594 -0.0350 -0.2936
  823MPD2    C212159   0.776   4.258  16.570  0.1476  0.0550  0.4146
  823MPD2    C312160   0.721   4.241  16.698  0.4382 -0.6604  0.0711
  823MPD2    C412161   0.722   4.349  16.785  0.7527  0.2419 -0.4831
  823MPD2    C512162   0.779   4.468  16.744 -0.4108 -0.0805 -0.1023
  823MPD2     H12163   0.794   4.172  16.506 -2.2529 -0.2881  0.2035
  823MPD2    H112164   0.682   4.344  16.886  1.5610 -2.6860 -0.2954
  823MPD2    H212165   0.866   4.581  16.586 -0.4627  0.5480  1.8398
  823MPD2    H312166   0.767   4.556  16.806 -1.2894 -0.1592 -0.1644
  823MPD2     N12167   0.658   4.123  16.748 -0.0119 -0.1717  0.7395
  823MPD2    H512168   0.615   4.129  16.840  0.2372 -0.4865  0.8768
  823MPD2    N112169   0.877   4.403  16.398  0.2484 -0.1768  0.1745
  823MPD2    H712170   0.891   4.502  16.379  2.4022 -0.6209 -0.5198
  824MPD2     C12171   1.924   3.090  16.108  0.6112  0.8218  0.5117
  824MPD2    C112172   1.853   3.134  16.000 -0.1969 -0.3813 -0.2050
  824MPD2    C212173   1.896   3.097  15.875 -0.0163  0.0390  0.0053
  824MPD2    C312174   1.999   3.006  15.861 -0.3433 -0.1798 -0.1576
  824MPD2    C412175   2.075   2.961  15.971  0.4233  0.4850  0.0957
  824MPD2    C512176   2.037   3.014  16.089  0.0673 -0.2300 -0.5474
  824MPD2     H12177   1.840   3.139  15.792 -0.9668 -1.5260 -0.1628
  824MPD2    H112178   2.154   2.886  15.966 -1.1290 -1.1246 -0.3461
  824MPD2    H212179   1.897   3.114  16.210 -3.1408 -0.7176 -0.0919
  824MPD2    H312180   2.098   2.979  16.172  0.3292 -1.3314 -1.2055
  824MPD2     N12181   2.037   2.976  15.733 -0.0392 -0.0140 -0.3026
  824MPD2    H512182   1.992   3.026  15.657 -0.1686  1.2868  0.6133
  824MPD2    N112183   1.752   3.233  16.014 -0.0709 -0.8956  0.0624
  824MPD2    H712184   1.708   3.264  15.928  0.5137  2.3036  0.9058
  825MPD2     C12185   2.656   3.252  15.146  0.2884 -0.0984 -0.0513
  825MPD2    C112186   2.552   3.279  15.232  0.2671 -0.6085  0.4249
  825MPD2    C212187   2.526   3.411  15.264  0.3072 -0.4668 -0.5299
  825MPD2    C312188   2.604   3.512  15.216  0.8385 -0.5420  0.1537
  825MPD2    C412189   2.710   3.480  15.134 -0.6132  0.3772 -0.3414
  825MPD2    C512190   2.734   3.354  15.102  0.6104 -0.2669 -0.3978
  825MPD2     H12191   2.448   3.437  15.334  0.9330  0.8449 -0.3144
  825MPD2    H112192   2.771   3.557  15.088  2.7040 -1.4362  1.0183
  825MPD2    H212193   2.676   3.149  15.116 -0.5682 -0.7070  1.4698
  825MPD2    H312194   2.821   3.340  15.039 -2.6448 -2.8513 -4.3205
  825MPD2     N12195   2.585   3.648  15.238  0.0690 -0.7876  0.4136
  825MPD2    H512196   2.658   3.707  15.199 -0.1070 -0.9578 -0.1650
  825MPD2    N112197   2.492   3.166  15.300 -0.7501 -0.7347  0.6184
  825MPD2    H712198   2.529   3.073  15.283  0.0884 -0.2777 -0.0828
  826MPD2     C12199   2.408   3.686  14.230  0.8171 -0.7720  0.7940
  826MPD2    C112200   2.344   3.641  14.110 -0.5267  1.1774  0.3751
  826MPD2    C212201   2.209   3.648  14.106  0.2735  0.2746 -1.1102
  826MPD2    C312202   2.127   3.695  14.209  0.0355 -0.5782 -0.9579
  826MPD2    C412203   2.193   3.728  14.321 -0.4334 -0.6796 -0.3414
  826MPD2    C512204   2.329   3.716  14.334 -0.3702  0.3475 -0.3836
  826MPD2     H12205   2.157   3.624  14.014  1.2590 -1.7805 -1.1275
  826MPD2    H112206   2.140   3.757  14.412  1.8025  1.8533  0.1683
  826MPD2    H212207   2.515   3.673  14.247  1.1958  0.5355 -0.5563
  826MPD2    H312208   2.377   3.753  14.424  1.6817 -1.8946 -0.5367
  826MPD2     N12209   1.983   3.702  14.207  0.1899 -0.4367 -0.0767
  826MPD2    H512210   1.934   3.729  14.291 -1.4091 -0.7271 -0.9209
  826MPD2    N112211   2.424   3.594  14.008  0.1650  0.4760  0.3778
  826MPD2    H712212   2.524   3.588  14.025  0.0675 -0.3529  0.6569
  827MPD2     C12213   3.018   0.437  10.112 -0.1785  0.2156 -0.0846
  827MPD2    C112214   3.032   0.305  10.160  0.0431  0.1893  0.0944
  827MPD2    C212215   2.961   0.203  10.102 -0.1739 -0.4174  0.2701
  827MPD2    C312216   2.870   0.229  10.005  0.5860  0.5047 -0.7297
  827MPD2    C412217   2.853   0.362   9.965 -0.4983 -0.2963  0.3714
  827MPD2    C512218   2.919   0.468  10.020  0.3684  0.4835 -0.0558
  827MPD2     H12219   2.966   0.103  10.142 -0.2265 -1.1293 -1.4832
  827MPD2    H112220   2.795   0.377   9.875  0.0566 -1.6061 -0.2009
  827MPD2    H212221   3.069   0.525  10.149  3.3312 -0.6423 -2.8649
  827MPD2    H312222   2.898   0.570   9.990 -0.8930  0.8014  1.9183
  827MPD2     N12223   2.790   0.117   9.967  0.9371  0.3373  0.1774
  827MPD2    H512224   2.809   0.021   9.995  1.3568  0.4704  0.3496
  827MPD2    N112225   3.116   0.292  10.270  0.1758  0.0281  0.1183
  827MPD2    H712226   3.171   0.372  10.300  0.5782  0.2616 -1.2186
  828MPD2     C12227   0.844   3.998  12.705 -0.2002  0.3877  0.5473
  828MPD2    C112228   0.849   4.135  12.691  0.2513 -0.2934 -1.1733
  828MPD2    C212229   0.975   4.198  12.681  0.6090 -0.2106 -0.8505
  828MPD2    C312230   1.091   4.123  12.707  0.0982 -1.0848  0.0559
  828MPD2    C412231   1.084   3.990  12.717  0.3738 -0.2399 -0.1373
  828MPD2    C512232   0.963   3.929  12.723 -0.3384 -0.3155 -0.8271
  828MPD2     H12233   0.980   4.296  12.634  0.5313 -0.4248 -1.3040
  828MPD2    H112234   1.173   3.930  12.730  0.2435 -0.6959 -1.3258
  828MPD2    H212235   0.755   3.936  12.705 -0.7075  1.1282 -0.3555
  828MPD2    H312236   0.957   3.822  12.740  0.8061 -0.4949 -1.5732
  828MPD2     N12237   1.224   4.174  12.684  0.1063 -0.8657 -0.0254
  828MPD2    H512238   1.304   4.112  12.676 -0.4595 -1.6958  0.7294
  828MPD2    N112239   0.732   4.216  12.708 -0.0885 -0.0122 -0.1178
  828MPD2    H712240   0.758   4.314  12.698 -2.3756  0.4851 -1.2174
  829MPD2     C12241   0.653   0.241  12.391  0.9878  0.6035 -0.5287
  829MPD2    C112242   0.519   0.228  12.425  0.1122  0.5958  0.0134
  829MPD2    C212243   0.483   0.135  12.524 -0.1385 -0.4485 -0.2764
  829MPD2    C312244   0.586   0.046  12.564 -0.3187 -0.4439  0.4781
  829MPD2    C412245   0.716   0.053  12.517 -0.4390  0.5887  0.7500
  829MPD2    C512246   0.754   0.155  12.439  0.0036 -0.2694 -0.1959
  829MPD2     H12247   0.387   0.106  12.567 -1.7865  0.8617 -3.0793
  829MPD2    H112248   0.791   4.719  12.553 -0.5497  0.6756  1.1577
  829MPD2    H212249   0.680   0.315  12.317  2.5820 -0.2799 -0.8215
  829MPD2    H312250   0.853   0.160  12.395 -0.2318 -3.8970 -1.1138
  829MPD2     N12251   0.555   4.674  12.660  0.2085 -0.5864 -0.2225
  829MPD2    H512252   0.629   4.605  12.666 -1.3705 -1.9651  3.3968
  829MPD2    N112253   0.423   0.308  12.365  0.0450  0.1814  0.0481
  829MPD2    H712254   0.463   0.370  12.295  0.8632  0.8937  1.1376
  830MPD2     C12255   0.949   2.219  16.313 -0.3425 -0.3232 -0.2183
  830MPD2    C112256   0.890   2.308  16.231 -0.2139 -0.4586  0.4649
  830MPD2    C212257   0.951   2.317  16.105 -0.4247  0.1307  0.4296
  830MPD2    C312258   1.057   2.238  16.064  0.5138  0.2074  0.0135
  830MPD2    C412259   1.116   2.153  16.160  0.0795  0.1362 -1.2661
  830MPD2    C512260   1.057   2.145  16.281  0.1680  0.1131 -0.1120
  830MPD2     H12261   0.904   2.383  16.032  0.7044 -0.2865 -0.6735
  830MPD2    H112262   1.206   2.094  16.152  1.4770  1.5741  4.2304
  830MPD2    H212263   0.911   2.204  16.414  1.0694 -1.5820  0.1312
  830MPD2    H312264   1.104   2.078  16.351 -2.1434 -0.3487  0.9867
  830MPD2     N12265   1.112   2.248  15.928 -0.1668 -0.9784  0.0488
  830MPD2    H512266   1.195   2.190  15.922 -0.0332 -0.7199 -0.6181
  830MPD2    N112267   0.775   2.386  16.273 -0.8708  0.3966  0.1794
  830MPD2    H712268   0.720   2.347  16.349  0.6236  0.6608  1.3841
  831MPD2     C12269   1.344   4.065  16.482 -1.2264  0.1769  0.1346
  831MPD2    C112270   1.353   3.992  16.371  0.9235 -0.0072  0.1157
  831MPD2    C212271   1.233   3.946  16.309 -0.3590 -0.4030 -0.1836
  831MPD2    C312272   1.107   3.991  16.359  1.5259 -0.4775  0.4989
  831MPD2    C412273   1.106   4.064  16.473  0.7011  0.5446  0.1357
  831MPD2    C512274   1.225   4.108  16.523  0.1189 -0.0872  0.6451
  831MPD2     H12275   1.238   3.899  16.212 -0.0962  0.2901 -0.5053
  831MPD2    H112276   1.016   4.102  16.520  0.3788  0.0282 -0.0601
  831MPD2    H212277   1.436   4.088  16.534 -1.5209  1.1308  0.2355
  831MPD2    H312278   1.226   4.172  16.610  2.0824  0.3274  0.3034
  831MPD2     N12279   0.982   3.938  16.305  0.0444  0.1958  0.5123
  831MPD2    H512280   0.895   3.974  16.345  1.2582  1.1125  2.3482
  831MPD2    N112281   1.485   3.956  16.326 -0.0607  0.3441 -0.0599
  831MPD2    H712282   1.568   4.000  16.366 -0.0985 -1.8897  2.4601
  832MPD2     C12283   0.039   0.598  16.959  0.4857  0.1647 -0.1899
  832MPD2    C112284   4.735   0.733  16.942  0.7749  0.4450  0.3676
  832MPD2    C212285   4.626   0.762  16.858  0.1794  0.5836  0.5865
  832MPD2    C312286   4.540   0.668  16.807 -0.0162  0.0759 -0.0631
  832MPD2    C412287   4.579   0.539  16.831 -0.2894 -0.0411  0.1349
  832MPD2    C512288   4.690   0.502  16.907  0.2483  0.1329 -0.3559
  832MPD2     H12289   4.597   0.866  16.846  0.3861  0.4656 -0.9863
  832MPD2    H112290   4.507   0.461  16.806 -3.0843  2.0747  1.5040
  832MPD2    H212291   0.129   0.562  17.008  0.1046 -1.0528 -0.3845
  832MPD2    H312292   4.719   0.398  16.915 -1.3766 -0.3837 -1.2878
  832MPD2     N12293   4.422   0.688  16.737 -0.0036 -0.0560  0.2735
  832MPD2    H512294   4.364   0.612  16.705  1.1619  0.5452 -3.2473
  832MPD2    N112295   0.074   0.832  17.008 -0.8512 -0.4792  0.3680
  832MPD2    H712296   0.148   0.792  17.065 -0.6230 -0.4184  0.1184
  833MPD2     C12297   2.097   2.003  12.933  0.4720  0.3045  0.2334
  833MPD2    C112298   2.043   2.030  12.808  0.5369  0.0939 -0.0329
  833MPD2    C212299   2.075   1.940  12.704 -0.0637  0.6585 -0.1023
  833MPD2    C312300   2.153   1.827  12.724  0.1083 -0.2231 -0.0722
  833MPD2    C412301   2.201   1.801  12.855 -0.1351 -0.0848  0.3749
  833MPD2    C512302   2.170   1.891  12.956 -0.5962  0.4446  0.4384
  833MPD2     H12303   2.028   1.955  12.608  1.8845  0.9470 -0.9967
  833MPD2    H112304   2.263   1.714  12.870 -0.6457 -0.0588  2.6005
  833MPD2    H212305   2.078   2.067  13.019 -1.7740 -2.1597  1.5856
  833MPD2    H312306   2.214   1.882  13.055  0.4608  1.0191  0.0208
  833MPD2     N12307   2.191   1.739  12.622 -0.1483 -0.6940 -0.2316
  833MPD2    H512308   2.263   1.671  12.641 -0.0784 -0.7473 -0.7060
  833MPD2    N112309   1.972   2.145  12.784  0.2102  0.0179 -0.1210
  833MPD2    H712310   1.966   2.207  12.864  3.3873 -0.7093  0.7124
  834MPD2     C12311   2.207   0.962  11.930  0.2534  0.0756  0.1349
  834MPD2    C112312   2.162   1.060  11.842 -0.1010 -0.3293  0.1030
  834MPD2    C212313   2.151   1.189  11.887  0.3252  0.2012 -0.7807
  834MPD2    C312314   2.181   1.216  12.019 -0.0782 -0.2123 -0.3523
  834MPD2    C412315   2.223   1.115  12.101 -0.7939 -0.4638  0.5784
  834MPD2    C512316   2.233   0.988  12.057  0.4924  0.2821  0.1960
  834MPD2     H12317   2.136   1.276  11.824 -0.5940 -0.6448 -1.7189
  834MPD2    H112318   2.248   1.140  12.204 -2.5752  1.7370  0.4638
  834MPD2    H212319   2.207   0.857  11.904  1.9617 -0.4205  2.1137
  834MPD2    H312320   2.265   0.912  12.128  0.4065  0.6303  0.6034
  834MPD2     N12321   2.182   1.354  12.069  0.2455  0.8312  0.1986
  834MPD2    H512322   2.159   1.423  11.998 -0.8481  0.3752  0.1124
  834MPD2    N112323   2.125   1.013  11.710 -1.1153 -0.3833  0.0826
  834MPD2    H712324   2.141   0.915  11.690  0.5228  0.1993 -1.4619
  835MPD2     C12325   2.209   0.232  10.942 -0.1954  0.0234  0.9313
  835MPD2    C112326   2.190   0.334  11.031  0.2195  0.0129 -0.5559
  835MPD2    C212327   2.251   0.322  11.154 -0.0006 -0.0208  0.3657
  835MPD2    C312328   2.331   0.214  11.192 -0.8589  0.2050 -0.0135
  835MPD2    C412329   2.372   0.137  11.085 -0.6221  0.0536  0.1370
  835MPD2    C512330   2.304   0.138  10.969 -0.1424 -0.1137  0.6048
  835MPD2     H12331   2.228   0.400  11.226  1.8237  1.2563 -0.4387
  835MPD2    H112332   2.436   0.050  11.095 -1.4525 -0.5786 -0.0127
  835MPD2    H212333   2.158   0.226  10.846 -0.0347  0.5778  0.8102
  835MPD2    H312334   2.339   0.078  10.886 -0.8381 -0.0995  0.3011
  835MPD2     N12335   2.366   0.187  11.326  0.0704  0.0640  0.4198
  835MPD2    H512336   2.408   0.096  11.346 -1.4469 -0.3113  1.9210
  835MPD2    N112337   2.104   0.445  11.012  0.2636 -0.2701 -0.0474
  835MPD2    H712338   2.091   0.496  11.099  3.3813  3.7359 -1.9435
  836MPD2     C12339   1.738   0.388  11.684  0.2353  0.7330  0.4383
  836MPD2    C112340   1.809   0.305  11.764  0.4507 -0.1243 -0.4679
  836MPD2    C212341   1.762   0.282  11.894  0.1597 -0.2661 -0.9793
  836MPD2    C312342   1.647   0.343  11.940  0.2781 -0.2650 -0.2834
  836MPD2    C412343   1.577   0.416  11.852  0.1838 -0.2683 -0.2397
  836MPD2    C512344   1.621   0.445  11.719  0.5237  0.0892  0.4973
  836MPD2     H12345   1.824   0.222  11.961  2.3281  1.6713 -1.2775
  836MPD2    H112346   1.486   0.468  11.880  0.8121  1.2996 -1.0839
  836MPD2    H212347   1.773   0.402  11.582  0.5605 -2.3365  0.1236
  836MPD2    H312348   1.564   0.501  11.646  0.2867  1.8694  2.0317
  836MPD2     N12349   1.585   0.315  12.068  0.3219 -0.0359  0.2145
  836MPD2    H512350   1.496   0.360  12.087  0.4776 -0.2592  1.5323
  836MPD2    N112351   1.931   0.247  11.714  0.5206  0.1371  0.1275
  836MPD2    H712352   1.952   0.263  11.615  0.2128 -2.2125 -0.3053
  837MPD2     C12353   0.135   0.149  10.225  0.7143  0.1393  0.7868
  837MPD2    C112354   0.003   0.168  10.257 -0.0645  0.4533 -0.5651
  837MPD2    C212355   4.693   0.293  10.286 -0.1308  0.9876 -0.1503
  837MPD2    C312356   0.045   0.401  10.297 -0.1619 -0.3273 -0.7202
  837MPD2    C412357   0.179   0.379  10.266  0.1882 -0.1095 -0.9950
  837MPD2    C512358   0.223   0.253  10.230  0.7386  0.1611  0.0637
  837MPD2     H12359   4.585   0.293  10.300 -0.0331  1.6806  0.6061
  837MPD2    H112360   0.252   0.458  10.261  0.5200 -0.4097 -0.8869
  837MPD2    H212361   0.167   0.050  10.198 -0.4577 -0.6975  2.4462
  837MPD2    H312362   0.330   0.237  10.218  0.5371 -2.1459  1.2262
  837MPD2     N12363   4.722   0.528  10.299 -0.3094 -0.1225  0.1941
  837MPD2    H512364   4.621   0.526  10.304 -0.3946  2.1629 -0.6553
  837MPD2    N112365   4.637   0.069  10.255 -0.1427 -0.0541  0.1525
  837MPD2    H712366   4.546   0.095  10.293 -0.5241 -0.7058 -0.3222
  838MPD2     C12367   2.781   3.108  12.314 -0.6669  0.0872  0.5297
  838MPD2    C112368   2.826   2.976  12.299  0.0410 -0.5612  0.1533
  838MPD2    C212369   2.737   2.874  12.331 -0.2430 -0.4279  0.2846
  838MPD2    C312370   2.614   2.896  12.390 -0.0677  0.1783 -0.0200
  838MPD2    C412371   2.580   3.025  12.418 -0.2836  0.1502  0.1494
  838MPD2    C512372   2.659   3.129  12.374  0.4010  0.0314  0.6354
  838MPD2     H12373   2.764   2.773  12.302 -0.4061 -0.7296  1.1935
  838MPD2    H112374   2.482   3.050  12.457 -0.0743  2.5891 -0.9504
  838MPD2    H212375   2.840   3.195  12.287  0.5955 -1.2037 -0.9138
  838MPD2    H312376   2.623   3.224  12.412  2.2279  1.1516 -0.4310
  838MPD2     N12377   2.534   2.781  12.405  1.3745  0.4458 -0.2532
  838MPD2    H512378   2.582   2.699  12.369 -0.7010 -1.8421  2.1676
  838MPD2    N112379   2.952   2.931  12.256  0.0131  0.3811 -0.2313
  838MPD2    H712380   2.962   2.831  12.243 -4.0538 -0.4373  2.9732
  839MPD2     C12381   2.926   2.150  12.091  0.0008  0.5457  0.0599
  839MPD2    C112382   2.945   2.211  11.965  0.5008 -0.0811  0.6475
  839MPD2    C212383   3.015   2.325  11.960  0.0679 -0.7506  0.0365
  839MPD2    C312384   3.056   2.390  12.076  0.5936 -0.5467  0.3048
  839MPD2    C412385   3.030   2.328  12.198 -0.0524  0.4040  0.3045
  839MPD2    C512386   2.965   2.208  12.208  0.4092  0.4986 -0.2531
  839MPD2     H12387   3.030   2.378  11.866 -1.0540 -3.0430 -1.4273
  839MPD2    H112388   3.054   2.379  12.290  0.4341 -0.1291  0.4744
  839MPD2    H212389   2.870   2.057  12.100 -1.5942  1.7115  1.9965
  839MPD2    H312390   2.948   2.158  12.303  1.8680  1.5960  0.5833
  839MPD2     N12391   3.105   2.523  12.081  0.4673 -0.7761  0.3147
  839MPD2    H512392   3.141   2.555  12.170 -0.2325 -0.5413  0.5103
  839MPD2    N112393   2.897   2.163  11.842 -0.0418  0.2000 -0.4704
  839MPD2    H712394   2.933   2.216  11.762  0.8751 -3.6623 -2.5984
  840MPD2     C12395   3.581   0.698  10.333  0.9331  0.0453 -0.2202
  840MPD2    C112396   3.531   0.678  10.462  0.6461 -0.5168 -0.3192
  840MPD2    C212397   3.568   0.777  10.553 -1.2167 -0.2235 -0.0227
  840MPD2    C312398   3.644   0.884  10.521  0.2563 -0.1146  0.0593
  840MPD2    C412399   3.673   0.905  10.395 -0.4883  0.1403  1.3006
  840MPD2    C512400   3.649   0.813  10.300 -0.5290 -0.1156 -0.5298
  840MPD2     H12401   3.542   0.757  10.656  1.7151 -1.0770  0.5543
  840MPD2    H112402   3.723   0.994  10.358 -1.3851 -0.2775 -0.9425
  840MPD2    H212403   3.567   0.628  10.251 -1.5781 -0.1829  0.4001
  840MPD2    H312404   3.678   0.838  10.198  0.1391  0.1608 -0.2745
  840MPD2     N12405   3.699   0.976  10.606  0.4926  0.1335  0.2387
  840MPD2    H512406   3.757   1.048  10.563  0.9929 -0.5631 -0.2448
  840MPD2    N112407   3.459   0.558  10.486 -0.5111 -0.2059 -0.0296
  840MPD2    H712408   3.444   0.514  10.396 -1.0694 -3.0109  1.4129
  841MPD2     C12409   3.682   0.495  14.063  0.0695  0.0250 -0.4454
  841MPD2    C112410   3.624   0.427  14.167 -0.1320 -0.4456 -0.3284
  841MPD2    C212411   3.692   0.350  14.257 -0.4422 -0.3490  0.3766
  841MPD2    C312412   3.829   0.356  14.251 -0.3478 -0.6484 -0.1529
  841MPD2    C412413   3.893   0.427  14.160  0.0077  0.6659  0.4275
  841MPD2    C512414   3.817   0.485  14.064 -0.2797 -0.4048  0.0049
  841MPD2     H12415   3.646   0.295  14.338 -0.2555  1.0697  1.4655
  841MPD2    H112416   3.999   0.451  14.163 -0.0373  0.5898  2.6434
  841MPD2    H212417   3.617   0.550  13.995 -1.5342 -0.4569  0.6808
  841MPD2    H312418   3.879   0.537  13.992 -1.4533 -0.5423 -1.0953
  841MPD2     N12419   3.916   0.299  14.347  0.5813  0.4030  0.9488
  841MPD2    H512420   4.010   0.338  14.348  0.8486 -0.2152 -1.2842
  841MPD2    N112421   3.484   0.435  14.195 -0.2250  0.1891 -0.4203
  841MPD2    H712422   3.454   0.423  14.291  0.3954  4.7804  0.3504
  842MPD2     C12423   3.812   1.218  16.630 -0.8477  0.1324 -0.0927
  842MPD2    C112424   3.714   1.131  16.675  0.5747  0.0071  0.3332
  842MPD2    C212425   3.757   1.022  16.753  0.8554  0.9205  0.4958
  842MPD2    C312426   3.879   1.022  16.819 -0.1792 -0.5957 -0.1165
  842MPD2    C412427   3.968   1.113  16.776 -0.2799 -0.1299 -0.2595
  842MPD2    C512428   3.935   1.207  16.686 -0.1329 -0.1438 -1.0733
  842MPD2     H12429   3.679   0.960  16.796  0.8838  1.6420  1.5836
  842MPD2    H112430   4.068   1.113  16.818  0.1376  1.0108 -1.2759
  842MPD2    H212431   3.781   1.298  16.564 -0.8485  0.8932  0.8228
  842MPD2    H312432   4.007   1.275  16.642 -1.3954  1.1427 -1.1593
  842MPD2     N12433   3.918   0.945  16.929 -0.7679 -0.0705  0.2418
  842MPD2    H512434   4.004   0.973  16.975 -1.0682  1.3548 -0.0626
  842MPD2    N112435   3.578   1.148  16.629  0.3395  0.6161 -0.1808
  842MPD2    H712436   3.558   1.226  16.567  1.6423  1.8072  0.9083
  843MPD2     C12437   1.149   2.103  17.228 -0.5465  0.6059 -0.3020
  843MPD2    C112438   1.205   2.011  17.317 -0.0782  0.4375  0.0184
  843MPD2    C212439   1.263   2.057  17.432 -0.5706  0.1172 -0.0133
  843MPD2    C312440   1.290   2.189  17.451 -0.3399  0.4237 -0.0050
  843MPD2    C412441   1.240   2.279  17.358  0.7717 -0.0165  0.3379
  843MPD2    C512442   1.174   2.237  17.248 -0.3153 -1.3703 -0.1947
  843MPD2     H12443   1.284   1.993  17.516 -0.5436 -0.5556 -0.5319
  843MPD2    H112444   1.243   2.387  17.370 -0.0842 -0.0391  0.7425
  843MPD2    H212445   1.108   2.065  17.135 -1.0065 -1.0070  0.5494
  843MPD2    H312446   1.147   2.301  17.164 -1.6323 -0.4438  0.9439
  843MPD2     N12447   1.351   2.240  17.569 -0.0742  1.1199 -0.1065
  843MPD2    H512448   1.352   2.341  17.571 -0.4620  1.1779 -3.3266
  843MPD2    N112449   1.186   1.875  17.296 -0.3382 -0.3290  0.6332
  843MPD2    H712450   1.133   1.847  17.214  1.9230 -0.2735 -0.8748
  844MPD2     C12451   4.143   0.318  16.340  0.0691 -0.1455 -0.3341
  844MPD2    C112452   4.253   0.305  16.258  0.2181  0.3229  0.1313
  844MPD2    C212453   4.361   0.392  16.259 -0.9218  0.4400 -0.0860
  844MPD2    C312454   4.353   0.499  16.337  0.5073  0.0987  0.3349
  844MPD2    C412455   4.237   0.531  16.411  0.7728  0.1519 -0.9844
  844MPD2    C512456   4.133   0.440  16.405 -0.6742 -0.7394  0.9612
  844MPD2     H12457   4.446   0.380  16.193 -1.7165  0.9133 -1.2021
  844MPD2    H112458   4.229   0.611  16.485 -0.7265 -1.3089  0.4373
  844MPD2    H212459   4.055   0.257  16.332 -0.4829  0.8262 -1.6359
  844MPD2    H312460   4.045   0.473  16.459  0.1046  1.3090  0.9859
  844MPD2     N12461   4.463   0.589  16.329  0.2313 -0.2572 -0.3219
  844MPD2    H512462   4.550   0.556  16.287  0.2417 -1.4293  0.6378
  844MPD2    N112463   4.256   0.202  16.158  0.0149 -0.0661  0.1484
  844MPD2    H712464   4.322   0.225  16.085 -0.9663  0.0715 -0.6938
  845MPD2     C12465   4.498   1.603  16.577  0.9284 -0.2546  0.4914
  845MPD2    C112466   4.560   1.508  16.657 -0.0386 -0.3018  0.1637
  845MPD2    C212467   4.587   1.383  16.610  0.6170 -0.0202  0.9196
  845MPD2    C312468   4.557   1.340  16.484 -0.6062  0.8575 -0.0338
  845MPD2    C412469   4.497   1.429  16.401 -0.0190  0.1094  0.6773
  845MPD2    C512470   4.467   1.557  16.448 -0.1973  0.3354 -0.0802
  845MPD2     H12471   4.625   1.307  16.677 -0.3941 -0.5784  0.8643
  845MPD2    H112472   4.478   1.406  16.296 -1.8305  0.4723  0.9228
  845MPD2    H212473   4.473   1.703  16.611  0.0359  0.3200 -1.8760
  845MPD2    H312474   4.418   1.623  16.377  3.1463  2.2569 -0.6229
  845MPD2     N12475   4.585   1.211  16.431  0.4274  0.4339 -0.1254
  845MPD2    H512476   4.534   1.182  16.348  2.0264 -0.4520 -0.7918
  845MPD2    N112477   4.587   1.548  16.792  0.3235  0.3929  0.2947
  845MPD2    H712478   4.586   1.647  16.817 -1.5394  0.2414  0.8578
  846MPD2     C12479   1.019   1.654  13.671  0.4855  0.8699 -0.1950
  846MPD2    C112480   0.888   1.657  13.620 -0.3831 -0.0567 -0.4327
  846MPD2    C212481   0.782   1.635  13.703 -0.4354 -0.0135 -0.0800
  846MPD2    C312482   0.808   1.631  13.839 -0.0838  0.1712  0.2676
  846MPD2    C412483   0.934   1.642  13.888 -0.1665  0.8817 -0.6351
  846MPD2    C512484   1.042   1.657  13.805 -0.6347  0.5840  0.1453
  846MPD2     H12485   0.684   1.632  13.658  0.1880 -1.2531 -1.3827
  846MPD2    H112486   0.955   1.642  13.994  1.3111 -0.0285 -0.9150
  846MPD2    H212487   1.109   1.677  13.614  2.8792 -2.9261  2.1093
  846MPD2    H312488   1.144   1.682  13.834 -1.5526  0.1266  3.8284
  846MPD2     N12489   0.691   1.622  13.925  0.2694 -0.1806 -0.3801
  846MPD2    H512490   0.607   1.621  13.868 -0.5892 -1.4772  0.9200
  846MPD2    N112491   0.846   1.692  13.484 -0.6261 -0.1511 -0.5626
  846MPD2    H712492   0.751   1.727  13.475  0.3923  2.1286 -2.4783
  847MPD2     C12493   0.597   2.323  14.685 -0.7406 -0.4597  0.0523
  847MPD2    C112494   0.735   2.321  14.684 -0.0323 -0.1393  0.1969
  847MPD2    C212495   0.799   2.202  14.707 -0.1586 -0.7065  0.6211
  847MPD2    C312496   0.728   2.088  14.733 -0.4723 -0.7578 -0.1580
  847MPD2    C412497   0.594   2.090  14.729 -0.0923 -0.2903 -0.1258
  847MPD2    C512498   0.532   2.205  14.705 -0.2897 -0.0716 -0.1205
  847MPD2     H12499   0.907   2.192  14.716 -0.1520 -0.1656  1.1334
  847MPD2    H112500   0.529   2.006  14.749  0.9193 -0.8281  0.9253
  847MPD2    H212501   0.539   2.414  14.677 -0.8232 -0.2415  3.0340
  847MPD2    H312502   0.425   2.211  14.721 -0.4259 -0.5562 -0.8693
  847MPD2     N12503   0.797   1.975  14.775  0.0516 -0.3618  0.1323
  847MPD2    H512504   0.896   1.986  14.794  0.0130  1.0951 -0.5036
  847MPD2    N112505   0.817   2.435  14.689  0.2020 -0.0751 -0.2551
  847MPD2    H712506   0.915   2.422  14.715  0.1744 -0.8434 -0.5558
  848MPD2     C12507   3.951   1.006  16.171 -0.7911 -0.2152  0.2520
  848MPD2    C112508   4.005   1.060  16.284 -0.1100  0.4272 -0.2271
  848MPD2    C212509   4.040   1.193  16.272 -0.1776  0.6464  0.4123
  848MPD2    C312510   4.025   1.277  16.164 -0.3320  0.1234 -0.4610
  848MPD2    C412511   3.965   1.221  16.054 -0.5941 -0.3967 -0.0481
  848MPD2    C512512   3.934   1.084  16.058 -0.2840 -0.1428 -0.5821
  848MPD2     H12513   4.072   1.238  16.366  1.9835  1.8818 -0.9064
  848MPD2    H112514   3.959   1.280  15.963 -1.7375 -0.9837 -0.3501
  848MPD2    H212515   3.920   0.902  16.176 -1.2744 -0.0865 -0.0683
  848MPD2    H312516   3.897   1.034  15.969 -1.0818  0.2150 -0.4566
  848MPD2     N12517   4.058   1.418  16.160  0.5301 -0.2897 -0.0354
  848MPD2    H512518   4.017   1.461  16.078  0.9935 -2.1616 -1.2453
  848MPD2    N112519   4.019   1.004  16.413  0.1400 -0.5187  0.5573
  848MPD2    H712520   4.056   1.057  16.491  0.3246  0.8627 -0.4689
  849MPD2     C12521   3.231   0.800  14.310  0.0329 -0.0765 -0.6141
  849MPD2    C112522   3.351   0.811  14.241  0.3569  0.3294 -0.3905
  849MPD2    C212523   3.469   0.804  14.313 -0.6906  0.2592 -0.6549
  849MPD2    C312524   3.465   0.776  14.449 -0.1615 -0.3440 -0.8172
  849MPD2    C412525   3.342   0.785  14.516 -0.5484  0.3917  0.2837
  849MPD2    C512526   3.229   0.793  14.445  0.1622  0.2159  0.2817
  849MPD2     H12527   3.565   0.824  14.267 -0.1794 -0.1569  0.2318
  849MPD2    H112528   3.341   0.779  14.625 -2.5031  1.0571  0.2908
  849MPD2    H212529   3.132   0.818  14.270 -0.3384  0.4914  0.5759
  849MPD2    H312530   3.137   0.787  14.502 -0.5717 -0.4308 -0.9743
  849MPD2     N12531   3.585   0.760  14.525 -0.2554  1.0797 -0.2113
  849MPD2    H512532   3.577   0.757  14.626 -0.2036 -0.6190 -0.2667
  849MPD2    N112533   3.356   0.838  14.107 -0.7971 -0.1210 -0.4482
  849MPD2    H712534   3.453   0.848  14.079 -1.0794  0.4853 -1.2064
  850MPD2     C12535   1.733   3.041  14.811  0.3271 -0.1391  0.1951
  850MPD2    C112536   1.689   3.155  14.881  0.3287  1.1615 -0.0771
  850MPD2    C212537   1.782   3.236  14.946  0.2694  1.2132 -0.4134
  850MPD2    C312538   1.914   3.202  14.943  0.0133  0.2924  0.2187
  850MPD2    C412539   1.952   3.080  14.889  0.0591  0.2909 -0.4299
  850MPD2    C512540   1.865   3.007  14.808  0.3668 -0.1619 -0.4883
  850MPD2     H12541   1.757   3.325  15.002  2.6607  1.2753  0.5501
  850MPD2    H112542   2.054   3.042  14.891 -0.8630 -2.1143  0.3155
  850MPD2    H212543   1.664   2.992  14.743 -0.9643 -0.7339  1.9271
  850MPD2    H312544   1.901   2.923  14.749  1.6170  0.7485 -1.0280
  850MPD2     N12545   1.999   3.277  15.028  0.4267  0.2298  0.1852
  850MPD2    H512546   1.954   3.340  15.094  2.2159 -0.1751  1.7895
  850MPD2    N112547   1.542   3.191  14.893 -0.2321 -0.0907 -0.4484
  850MPD2    H712548   1.484   3.109  14.880 -0.3318 -0.2344  0.9511
  851MPD2     C12549   1.626   2.980  15.621 -0.0696  0.4374 -0.6118
  851MPD2    C112550   1.534   2.962  15.522  0.9606  0.8986  0.2792
  851MPD2    C212551   1.465   2.842  15.524  0.6124 -0.2540 -0.0342
  851MPD2    C312552   1.504   2.741  15.614 -0.2756  0.7652  0.2373
  851MPD2    C412553   1.590   2.764  15.717 -0.2115 -0.7978  0.2936
  851MPD2    C512554   1.650   2.887  15.719  0.1037 -0.2174 -0.3171
  851MPD2     H12555   1.382   2.820  15.457  0.1745  0.2935  0.3240
  851MPD2    H112556   1.605   2.685  15.789  3.0741 -0.5347 -0.0930
  851MPD2    H212557   1.675   3.076  15.634  3.7033 -1.5469 -0.3586
  851MPD2    H312558   1.723   2.915  15.794 -1.8295 -0.8956  1.8456
  851MPD2     N12559   1.432   2.614  15.599 -0.6208 -0.6119  0.3820
  851MPD2    H512560   1.386   2.604  15.509  2.9487 -1.7017 -1.3283
  851MPD2    N112561   1.494   3.070  15.436  0.3179  0.5809  0.4372
  851MPD2    H712562   1.529   3.164  15.452  1.5297  0.4271 -1.3747
  852MPD2     C12563   1.795   1.128  10.914 -0.1237 -0.4361  1.0765
  852MPD2    C112564   1.743   1.238  10.982  0.1589  0.0867 -0.1848
  852MPD2    C212565   1.774   1.365  10.936 -0.7926  0.1890 -0.3859
  852MPD2    C312566   1.838   1.387  10.817 -0.6461  0.1234  0.8853
  852MPD2    C412567   1.901   1.280  10.761  0.5475 -0.4193  0.0205
  852MPD2    C512568   1.880   1.154  10.811 -0.4252  0.3373  0.2329
  852MPD2     H12569   1.722   1.447  10.985  0.1537  1.0266 -0.8058
  852MPD2    H112570   1.959   1.283  10.669 -1.4070  1.7280 -1.1258
  852MPD2    H212571   1.791   1.023  10.939  0.2778 -0.5665  0.5921
  852MPD2    H312572   1.925   1.073  10.755 -1.2621  0.2658 -0.3453
  852MPD2     N12573   1.853   1.527  10.781 -0.0303  0.0300  0.0920
  852MPD2    H512574   1.799   1.590  10.840 -0.2437 -1.0355  1.0165
  852MPD2    N112575   1.658   1.231  11.093 -0.0524 -0.7001 -0.3935
  852MPD2    H712576   1.632   1.321  11.132  0.8056 -0.3365 -0.6745
  853MPD2     C12577   3.202   1.249  12.490 -0.4602  0.1795 -0.2948
  853MPD2    C112578   3.068   1.237  12.469  0.5826 -0.3875 -0.2559
  853MPD2    C212579   3.022   1.202  12.342  0.5028 -0.7597  0.7193
  853MPD2    C312580   3.115   1.191  12.234 -0.0860 -0.4977  0.4468
  853MPD2    C412581   3.249   1.194  12.262 -0.6942  0.2299  0.4188
  853MPD2    C512582   3.293   1.227  12.388 -0.2130  0.7562  0.7203
  853MPD2     H12583   2.915   1.204  12.325  0.8235 -1.0881 -1.3545
  853MPD2    H112584   3.322   1.177  12.184 -1.9349  2.2151 -1.1715
  853MPD2    H212585   3.242   1.267  12.590  1.5136 -0.9136 -0.8834
  853MPD2    H312586   3.399   1.214  12.404 -0.2714 -2.0752 -1.2248
  853MPD2     N12587   3.083   1.170  12.098  0.1641 -0.1047  0.7868
  853MPD2    H512588   3.155   1.175  12.027 -0.7655  1.8514 -0.0218
  853MPD2    N112589   2.989   1.262  12.582 -0.2258  0.1238 -0.2608
  853MPD2    H712590   3.043   1.277  12.667 -0.2820  0.0271 -0.2076
  854MPD2     C12591   4.386   1.496  13.166  0.1791  0.0298 -0.3079
  854MPD2    C112592   4.450   1.550  13.058  0.1659  0.1662 -0.8344
  854MPD2    C212593   4.581   1.520  13.032 -0.2361 -0.1926  0.5355
  854MPD2    C312594   4.650   1.449  13.129  0.3926 -0.2891 -0.6992
  854MPD2    C412595   4.582   1.403  13.250  0.2134  0.5166  0.0229
  854MPD2    C512596   4.449   1.425  13.265  0.3949  0.3015 -0.4666
  854MPD2     H12597   4.632   1.566  12.949 -1.9679  0.8683  0.0531
  854MPD2    H112598   4.635   1.341  13.321 -0.3995  0.2351  0.2318
  854MPD2    H212599   4.280   1.516  13.180 -0.1807 -2.5657  0.5770
  854MPD2    H312600   4.390   1.397  13.352  2.3196 -1.7164  0.1763
  854MPD2     N12601   0.053   1.422  13.109 -0.1667  0.4420  0.0941
  854MPD2    H512602   0.094   1.377  13.190 -1.4721  0.0095  0.5035
  854MPD2    N112603   4.370   1.621  12.970 -0.1888  0.1887  0.4404
  854MPD2    H712604   4.271   1.630  12.994 -0.2457  1.5306 -0.2964
  855MPD2     C12605   0.747   0.825  13.480  0.5858 -0.1556 -1.0730
  855MPD2    C112606   0.664   0.929  13.529  0.1024  0.3801 -0.3877
  855MPD2    C212607   0.601   1.020  13.440  0.5434  0.4288  0.2307
  855MPD2    C312608   0.628   1.007  13.302 -0.2168  0.2617  0.0066
  855MPD2    C412609   0.718   0.912  13.260  0.2503 -0.5188 -0.3663
  855MPD2    C512610   0.774   0.820  13.344  0.0528  0.0820  0.2354
  855MPD2     H12611   0.540   1.105  13.465 -0.2191  0.2587 -1.0162
  855MPD2    H112612   0.760   0.909  13.161  0.9759 -3.6837  0.0638
  855MPD2    H212613   0.792   0.747  13.542  0.8788 -0.5873 -1.8270
  855MPD2    H312614   0.839   0.742  13.305 -0.9199 -0.8678  0.5205
  855MPD2     N12615   0.570   1.088  13.204  0.4865  0.0199  0.4106
  855MPD2    H512616   0.592   1.070  13.106 -1.0344  0.1876  0.0379
  855MPD2    N112617   0.647   0.933  13.669  0.0425  0.2392  0.1721
  855MPD2    H712618   0.676   0.850  13.719 -0.6522  0.5757  1.1464
  856MPD2     C12619   1.753   2.149  13.685 -0.0154 -0.6974  0.2050
  856MPD2    C112620   1.766   2.225  13.798  0.7786  0.4383 -0.2401
  856MPD2    C212621   1.649   2.280  13.853 -0.1109  0.0842 -0.1122
  856MPD2    C312622   1.526   2.266  13.795 -0.2778 -0.0861  0.0391
  856MPD2    C412623   1.523   2.216  13.666 -0.8799 -0.0502  0.6377
  856MPD2    C512624   1.637   2.158  13.615 -0.1453  0.2319 -0.1454
  856MPD2     H12625   1.658   2.316  13.955 -1.4219  0.9635 -0.3054
  856MPD2    H112626   1.427   2.220  13.617  0.2204  0.3267 -1.4725
  856MPD2    H212627   1.836   2.084  13.660  0.8122  0.3433  0.2404
  856MPD2    H312628   1.631   2.118  13.515 -0.4697 -0.7695  0.2716
  856MPD2     N12629   1.396   2.286  13.864  0.5906 -0.1924  0.6785
  856MPD2    H512630   1.315   2.291  13.803  0.5822  1.3586  0.7929
  856MPD2    N112631   1.886   2.215  13.871  0.1610  0.3957  0.6751
  856MPD2    H712632   1.952   2.150  13.828  1.8838  1.8219  1.1859
  857MPD2     C12633   3.502   4.630  12.983  0.1478  0.2918 -0.1752
  857MPD2    C112634   3.607   4.609  12.895 -0.1199  0.7797 -0.5201
  857MPD2    C212635   3.722   4.693  12.892  0.2173  0.2445  0.3075
  857MPD2    C312636   3.728   0.059  12.988 -0.2491  0.5398 -0.2671
  857MPD2    C412637   3.623   0.077  13.077  0.3315 -0.8647 -0.1566
  857MPD2    C512638   3.519   4.727  13.078  0.4849  0.4685  0.7414
  857MPD2     H12639   3.798   4.683  12.816  1.2294 -0.8437  1.4685
  857MPD2    H112640   3.624   0.157  13.150  1.1655 -0.1087 -0.9970
  857MPD2    H212641   3.413   4.569  12.991 -0.1239  0.8791  1.2068
  857MPD2    H312642   3.434   0.011  13.143  1.9854  2.3496  2.0969
  857MPD2     N12643   3.852   0.134  12.983  1.0818 -0.0486  0.3640
  857MPD2    H512644   3.924   0.094  12.923  0.1869 -1.3726  0.1764
  857MPD2    N112645   3.596   4.501  12.798 -0.3525  0.1977 -0.3496
  857MPD2    H712646   3.515   4.441  12.811  0.3732 -0.8234 -0.6094
  858MPD2     C12647   3.754   3.262  16.834 -0.5499  0.2802  0.3141
  858MPD2    C112648   3.860   3.292  16.749  0.2641  0.0927 -0.5100
  858MPD2    C212649   3.883   3.419  16.719 -0.0140  0.1468 -0.7738
  858MPD2    C312650   3.819   3.520  16.783  0.0671  0.2107  0.0465
  858MPD2    C412651   3.715   3.496  16.874  0.7836  0.2659 -0.6649
  858MPD2    C512652   3.681   3.364  16.891 -0.6631  0.2023  0.0647
  858MPD2     H12653   3.956   3.449  16.645  0.7061  0.9269  0.2567
  858MPD2    H112654   3.667   3.583  16.916 -0.4986 -1.4338  1.3711
  858MPD2    H212655   3.724   3.162  16.863 -0.8813  0.6881  1.3532
  858MPD2    H312656   3.595   3.336  16.951 -0.7422 -0.4896 -0.3741
  858MPD2     N12657   3.835   3.655  16.755  0.2105  0.2029 -0.5080
  858MPD2    H512658   3.778   3.725  16.802  1.2485  0.4305  0.4004
  858MPD2    N112659   3.938   3.182  16.700 -0.1850 -0.1820  0.1779
  858MPD2    H712660   3.895   3.095  16.728  0.8137 -1.1699 -1.3565
  859MPD2     C12661   2.970   0.773  15.201  0.2040 -0.2846 -0.1565
  859MPD2    C112662   3.101   0.754  15.172 -0.6567  0.6258  0.2702
  859MPD2    C212663   3.151   0.633  15.210 -0.7012 -0.6019 -0.4231
  859MPD2    C312664   3.069   0.538  15.283  0.1453 -0.3110 -0.2208
  859MPD2    C412665   2.939   0.570  15.314 -0.0193  0.0919  1.1559
  859MPD2    C512666   2.892   0.685  15.267 -0.4404 -0.8980 -0.4765
  859MPD2     H12667   3.251   0.602  15.182  0.4268  0.2250  2.6865
  859MPD2    H112668   2.868   0.504  15.362  0.5658 -1.4699 -0.1040
  859MPD2    H212669   2.921   0.861  15.161  0.2863  0.4155  1.2580
  859MPD2    H312670   2.791   0.718  15.289  0.4712  0.7091  1.2423
  859MPD2     N12671   3.116   0.412  15.335  0.3689  0.5652  0.1760
  859MPD2    H512672   3.052   0.350  15.383 -2.8178  1.1855 -3.2996
  859MPD2    N112673   3.176   0.863  15.122 -0.4208 -0.0075  0.1633
  859MPD2    H712674   3.137   0.956  15.112 -1.6258 -0.8793 -3.1211
  860MPD2     C12675   1.038   1.144  11.599 -0.2625 -0.3037  0.9769
  860MPD2    C112676   1.003   1.106  11.727  0.1809 -0.4412  0.5924
  860MPD2    C212677   0.872   1.098  11.764 -0.2396 -0.0663  0.2720
  860MPD2    C312678   0.777   1.125  11.672 -0.6506 -0.2247  0.2634
  860MPD2    C412679   0.818   1.169  11.545  0.0969 -0.4712 -0.5771
  860MPD2    C512680   0.949   1.166  11.505 -0.9315 -0.0075  0.1283
  860MPD2     H12681   0.834   1.059  11.858  0.1838  0.5559  0.6984
  860MPD2    H112682   0.743   1.201  11.474  1.1045  0.7178 -1.0918
  860MPD2    H212683   1.142   1.147  11.570 -0.5164 -1.4209 -0.0547
  860MPD2    H312684   0.978   1.188  11.403  0.2563 -0.8414  0.2904
  860MPD2     N12685   0.644   1.116  11.709  0.1947  0.9862  0.2712
  860MPD2    H512686   0.620   1.078  11.800 -0.6737 -1.7180 -1.0693
  860MPD2    N112687   1.094   1.068  11.823  0.0639 -0.4744 -0.5364
  860MPD2    H712688   1.047   1.036  11.906  0.5791  0.1522 -0.0059
  861MPD2     C12689   4.464   4.274  10.978  0.5937  0.1007 -0.0808
  861MPD2    C112690   4.411   4.382  11.054  0.6523  0.1263  0.8084
  861MPD2    C212691   4.312   4.455  10.990  0.0041  0.5687  0.7050
  861MPD2    C312692   4.263   4.422  10.866 -0.8311 -0.0704 -0.2514
  861MPD2    C412693   4.298   4.299  10.813  0.4824 -0.4028  0.0592
  861MPD2    C512694   4.397   4.230  10.874  0.4325  0.1753 -0.4601
  861MPD2     H12695   4.278   4.542  11.045  0.2898  0.3105  1.2920
  861MPD2    H112696   4.266   4.261  10.717 -2.3146  1.0060  0.4043
  861MPD2    H212697   4.543   4.210  11.016  1.5104  0.5109 -1.2970
  861MPD2    H312698   4.440   4.142  10.828 -1.2213 -1.0348  0.3248
  861MPD2     N12699   4.170   4.494  10.789  0.1959 -0.3729  0.2628
  861MPD2    H512700   4.119   4.445  10.717 -3.2071  0.0952  2.3405
  861MPD2    N112701   4.465   4.430  11.181 -0.9763 -0.2820 -0.1272
  861MPD2    H712702   4.432   4.514  11.228 -0.4603  0.0657 -0.3854
  862MPD2     C12703   3.533   4.284  10.548 -0.8608  0.1463 -0.1593
  862MPD2    C112704   3.637   4.300  10.634  0.8534  0.0445 -0.5847
  862MPD2    C212705   3.654   4.210  10.739 -0.4486 -0.2070  0.3755
  862MPD2    C312706   3.563   4.112  10.771 -0.2349 -0.2257 -0.1238
  862MPD2    C412707   3.452   4.096  10.688  0.4979 -1.0143  0.0903
  862MPD2    C512708   3.444   4.175  10.577  0.4606 -0.4155 -0.5984
  862MPD2     H12709   3.736   4.229  10.807  1.1820  0.0510 -1.6734
  862MPD2    H112710   3.381   4.017  10.708 -1.8993  1.4068  1.1005
  862MPD2    H212711   3.518   4.339  10.455 -1.1948 -0.9873 -0.7729
  862MPD2    H312712   3.364   4.164  10.505  2.0492 -2.7067 -2.0053
  862MPD2     N12713   3.587   4.014  10.879  0.2526 -1.0129  0.1156
  862MPD2    H512714   3.515   3.944  10.894 -0.1938 -0.4804  0.4483
  862MPD2    N112715   3.731   4.411  10.632 -1.1403  0.4139  0.0683
  862MPD2    H712716   3.796   4.421  10.709 -4.0366 -0.7830  2.6619
  863MPD2     C12717   2.967   2.697  16.678 -0.0311  0.1164  0.3915
  863MPD2    C112718   2.908   2.591  16.746  0.3690 -0.0626 -1.0227
  863MPD2    C212719   2.967   2.540  16.856 -0.3999  0.4524 -0.4078
  863MPD2    C312720   3.092   2.574  16.897  0.4070  0.2226  0.9898
  863MPD2    C412721   3.141   2.690  16.840  0.4404  0.7310  0.6107
  863MPD2    C512722   3.086   2.744  16.727 -0.5009 -0.1765  0.6024
  863MPD2     H12723   2.920   2.451  16.897  0.2535 -0.1106 -0.8629
  863MPD2    H112724   3.237   2.728  16.874  0.3472 -0.1997  1.8903
  863MPD2    H212725   2.932   2.738  16.584 -2.9542 -2.0789  0.5326
  863MPD2    H312726   3.139   2.814  16.663 -1.6249  1.0238  0.9843
  863MPD2     N12727   3.164   2.502  16.997 -0.1282 -0.0695  0.6018
  863MPD2    H512728   3.253   2.535  17.034 -0.2984  1.0463  0.0124
  863MPD2    N112729   2.783   2.543  16.699 -0.0720 -0.2888  0.4826
  863MPD2    H712730   2.732   2.602  16.633 -0.1633 -1.4466 -0.4957
  864MPD2     C12731   3.339   4.087  17.183  0.2961  0.9696  0.8880
  864MPD2    C112732   3.271   3.997  17.100 -0.0155  0.2300 -0.3778
  864MPD2    C212733   3.249   4.041  16.971  0.0546 -0.1695  0.1697
  864MPD2    C312734   3.297   4.164  16.922 -0.0616  0.1366 -0.2181
  864MPD2    C412735   3.383   4.238  16.999  0.4574 -0.2838 -0.7003
  864MPD2    C512736   3.392   4.208  17.134  0.0701 -0.0207  0.4514
  864MPD2     H12737   3.184   3.984  16.906 -0.3994  0.0738  0.4157
  864MPD2    H112738   3.433   4.329  16.968 -0.7102  0.7748  0.5149
  864MPD2    H212739   3.349   4.059  17.287  1.3096  1.3826  0.8989
  864MPD2    H312740   3.436   4.271  17.211  0.3840  0.3472 -0.0323
  864MPD2     N12741   3.293   4.201  16.785 -0.0785  1.1609  0.3077
  864MPD2    H512742   3.356   4.279  16.767 -1.9085  1.8655 -2.9582
  864MPD2    N112743   3.231   3.871  17.136 -0.5196  0.4998 -0.2612
  864MPD2    H712744   3.271   3.841  17.225 -0.4279 -1.3319 -0.9090
  865MPD2     C12745   3.471   4.136  15.892 -0.3528 -0.7844 -0.0742
  865MPD2    C112746   3.417   4.065  15.997  0.0023  0.4719 -0.3189
  865MPD2    C212747   3.314   4.123  16.068  0.3986 -0.2861 -0.0510
  865MPD2    C312748   3.278   4.249  16.038 -0.3617  0.0231  0.2030
  865MPD2    C412749   3.335   4.321  15.933  0.4902 -0.3924  0.0705
  865MPD2    C512750   3.434   4.268  15.860  0.3021  0.2297 -0.4204
  865MPD2     H12751   3.259   4.060  16.137 -0.7058  0.5335 -0.1856
  865MPD2    H112752   3.295   4.420  15.912 -2.2961 -1.1259  1.9613
  865MPD2    H212753   3.549   4.099  15.826  0.8752  2.0570 -0.1913
  865MPD2    H312754   3.489   4.333  15.792 -1.2669 -0.5424 -2.4263
  865MPD2     N12755   3.173   4.307  16.106 -0.1964  0.0415  0.0883
  865MPD2    H512756   3.144   4.402  16.082 -0.1101  0.4093  1.4605
  865MPD2    N112757   3.468   3.933  16.027 -0.8391  0.5231 -0.1721
  865MPD2    H712758   3.535   3.898  15.960 -0.2986  3.6101 -1.2495
  866MPD2     C12759   0.423   0.539  11.051  0.4390 -0.3498  0.0984
  866MPD2    C112760   0.393   0.402  11.041  0.0924  0.1807 -0.5436
  866MPD2    C212761   0.267   0.355  11.052 -0.9358  0.2321 -0.3053
  866MPD2    C312762   0.164   0.450  11.061 -0.5631  0.9487  0.3688
  866MPD2    C412763   0.195   0.585  11.062 -0.7774 -0.5306 -0.6413
  866MPD2    C512764   0.321   0.629  11.046 -0.2711 -0.2627 -0.6862
  866MPD2     H12765   0.255   0.250  11.074 -1.7306  0.0966 -1.3830
  866MPD2    H112766   0.121   0.664  11.069  0.7916  0.6506  2.3976
  866MPD2    H212767   0.528   0.559  11.031  0.5664 -0.1694  0.9463
  866MPD2    H312768   0.347   0.734  11.039 -1.7114  0.0396 -1.5738
  866MPD2     N12769   0.026   0.414  11.063 -0.3079 -0.0490  0.6009
  866MPD2    H512770   4.692   0.487  11.066 -0.3663  0.0037 -2.0034
  866MPD2    N112771   0.504   0.318  11.033  0.0304 -0.2046 -0.0117
  866MPD2    H712772   0.596   0.359  11.045  0.4668 -0.0980 -4.0309
  867MPD2     C12773   2.292   3.979  16.632  0.0994  0.2638  0.1151
  867MPD2    C112774   2.354   3.890  16.709  0.4880  0.4307 -0.5437
  867MPD2    C212775   2.453   3.932  16.793  0.3064 -0.0374  0.3434
  867MPD2    C312776   2.490   4.059  16.796 -0.1282  0.3784  0.0389
  867MPD2    C412777   2.428   4.155  16.719 -0.2258 -0.2525  0.7005
  867MPD2    C512778   2.328   4.114  16.636  0.4418  0.2247  0.4154
  867MPD2     H12779   2.502   3.856  16.853 -0.3498  0.2493  1.2326
  867MPD2    H112780   2.469   4.256  16.716  2.1194 -1.2867 -2.5883
  867MPD2    H212781   2.210   3.951  16.567  1.7594  1.4303 -2.5066
  867MPD2    H312782   2.273   4.187  16.577  0.3839 -0.6224 -0.5906
  867MPD2     N12783   2.601   4.101  16.884 -0.2854  0.1567 -0.1365
  867MPD2    H512784   2.623   4.200  16.880 -1.5170  0.4097 -0.5167
  867MPD2    N112785   2.318   3.759  16.693  0.1211  0.7529  0.2781
  867MPD2    H712786   2.246   3.737  16.624 -0.7656 -2.1876  2.1291
  868MPD2     C12787   3.832   2.821  13.021  0.5016 -0.4029  0.6966
  868MPD2    C112788   3.865   2.687  13.048  0.1974 -0.1893  0.5605
  868MPD2    C212789   3.818   2.626  13.165 -0.4927 -0.5251  0.6300
  868MPD2    C312790   3.727   2.689  13.245  0.3541  0.1300  0.5009
  868MPD2    C412791   3.691   2.818  13.208  0.2028  0.2498  0.1797
  868MPD2    C512792   3.748   2.889  13.103  0.1865  0.4280  0.8591
  868MPD2     H12793   3.849   2.524  13.181 -1.9490 -0.9343  0.8442
  868MPD2    H112794   3.625   2.878  13.269 -0.0834 -0.8353  0.9229
  868MPD2    H212795   3.880   2.871  12.938 -1.3624 -2.9100 -1.9346
  868MPD2    H312796   3.725   2.995  13.091 -0.7107  0.0675 -0.5397
  868MPD2     N12797   3.681   2.618  13.357 -0.6275  0.1931 -0.0417
  868MPD2    H512798   3.735   2.534  13.374 -1.5556 -0.4827 -0.5000
  868MPD2    N112799   3.949   2.625  12.959 -0.2383  0.5034  0.4337
  868MPD2    H712800   3.999   2.685  12.893  0.7777  0.2279  0.9575
  869MPD2     C12801   0.228   0.716   0.610 -0.2001 -0.1401 -0.0752
  869MPD2    C112802   0.280   0.653   0.493 -0.3532  0.1826 -0.3077
  869MPD2    C212803   0.413   0.686   0.461  0.0640 -0.9637 -0.2337
  869MPD2    C312804   0.488   0.765   0.546 -0.0657 -0.3686  0.1442
  869MPD2    C412805   0.440   0.821   0.660  0.0571  0.0857 -0.2936
  869MPD2    C512806   0.307   0.797   0.693  0.1575 -0.4053 -0.1615
  869MPD2     H12807   0.454   0.613   0.392  0.8919 -1.7310  1.0768
  869MPD2    H112808   0.505   0.884   0.720 -0.1737  1.3812 -1.4004
  869MPD2    H212809   0.125   0.698   0.639 -0.5635  0.4275 -1.0530
  869MPD2    H312810   0.250   0.848   0.770  1.6676 -1.7055  1.8120
  869MPD2     N12811   0.618   0.792   0.524 -0.2450  0.5063 -0.7970
  869MPD2    H512812   0.663   0.848   0.596 -1.5017  0.4421  0.0275
  869MPD2    N112813   0.201   0.556   0.429 -0.8645 -0.1085  0.7094
  869MPD2    H712814   0.112   0.540   0.474 -0.4507  0.4541  1.7091
  870MPD2     C12815   0.090   4.721   0.896  0.0036 -0.1415  0.1116
  870MPD2    C112816   0.116   4.610   0.820 -0.4125 -0.5188 -0.1876
  870MPD2    C212817   0.010   4.535   0.775  0.4688 -1.0864 -0.3205
  870MPD2    C312818   4.617   4.554   0.816 -0.4587 -0.1489  0.2934
  870MPD2    C412819   4.599   4.661   0.902 -0.2876  0.1911  0.4161
  870MPD2    C512820   4.700   0.010   0.938 -0.5934  0.2713  0.2465
  870MPD2     H12821   0.030   4.450   0.711 -0.2475  1.0952 -3.4688
  870MPD2    H112822   4.502   4.688   0.942 -1.1971 -1.6436 -0.5754
  870MPD2    H212823   0.168   0.054   0.925  0.2844  0.2154 -1.5134
  870MPD2    H312824   4.693   0.089   1.013 -1.8979 -0.7008  1.1414
  870MPD2     N12825   4.508   4.468   0.773 -0.7648  0.3136 -0.0430
  870MPD2    H512826   4.519   4.408   0.693  0.3837  0.0506  0.3217
  870MPD2    N112827   0.246   4.585   0.784 -0.1214 -0.1413  0.2350
  870MPD2    H712828   0.317   4.632   0.839 -2.0022  1.6203  1.1614
  871MPD2     C12829   0.433   3.461  16.335 -0.0634 -0.3398  1.0430
  871MPD2    C112830   0.487   3.440  16.460 -0.1098  0.4003  0.3932
  871MPD2    C212831   0.579   3.339  16.477  0.1695  0.1271  0.7547
  871MPD2    C312832   0.629   3.266  16.376  0.0285  0.2509 -0.2366
  871MPD2    C412833   0.567   3.287  16.251 -0.2718 -0.5060  0.2089
  871MPD2    C512834   0.468   3.379  16.226 -0.4285 -0.1291 -0.1221
  871MPD2     H12835   0.635   3.322  16.568 -1.0836 -2.3067  1.0615
  871MPD2    H112836   0.585   3.223  16.166  0.6432 -1.4583  1.1169
  871MPD2    H212837   0.351   3.530  16.317 -0.4490 -0.9110  0.6417
  871MPD2    H312838   0.422   3.384  16.128  1.5388  0.4297 -1.0358
  871MPD2     N12839   0.727   3.164  16.393 -0.6009  0.5828 -0.1823
  871MPD2    H512840   0.753   3.148  16.490 -0.6658  1.4734 -0.0156
  871MPD2    N112841   0.463   3.542  16.559 -0.0040 -0.2798 -0.5163
  871MPD2    H712842   0.419   3.629  16.529 -0.8670 -1.1195 -1.7056
  872MPD2     C12843   2.154   1.223  14.162 -0.4125  1.5114  0.0497
  872MPD2    C112844   2.142   1.322  14.072  0.2958  0.0353 -0.1231
  872MPD2    C212845   2.013   1.378  14.044  0.0390 -0.3391  0.6700
  872MPD2    C312846   1.902   1.353  14.133 -0.3326  0.3731  0.3770
  872MPD2    C412847   1.925   1.271  14.245  0.0241 -0.0444 -0.3046
  872MPD2    C512848   2.050   1.201  14.253 -0.0511  0.4564  0.0748
  872MPD2     H12849   1.996   1.433  13.952  0.6518  0.6865  1.1812
  872MPD2    H112850   1.849   1.250  14.319 -1.0463  0.2410 -1.3166
  872MPD2    H212851   2.241   1.160  14.173  0.8098  4.0344  4.8525
  872MPD2    H312852   2.064   1.123  14.328  0.5225 -0.1466 -0.6516
  872MPD2     N12853   1.764   1.387  14.110  0.7192  0.2987  0.2173
  872MPD2    H512854   1.687   1.349  14.165  0.4140  0.7469  0.1017
  872MPD2    N112855   2.247   1.358  13.981 -0.0891 -0.0342 -0.4433
  872MPD2    H712856   2.230   1.428  13.909  0.5080 -2.9648 -3.4495
  873MPD2     C12857   3.987   1.419   0.842  0.4942 -0.4792 -0.1223
  873MPD2    C112858   3.993   1.367   0.970 -0.6535  0.2003  0.5550
  873MPD2    C212859   3.983   1.230   0.975  0.2606 -0.3453 -0.3846
  873MPD2    C312860   3.958   1.154   0.862 -0.1174 -1.2741  0.2960
  873MPD2    C412861   3.953   1.209   0.742  0.3338  0.3377  0.1117
  873MPD2    C512862   3.957   1.344   0.732 -0.3169  0.1557 -0.2550
  873MPD2     H12863   3.986   1.184   1.072 -1.9676  2.7477  1.1549
  873MPD2    H112864   3.929   1.156   0.651 -2.6021  1.6689  0.1166
  873MPD2    H212865   3.997   1.527   0.830 -1.1105 -0.3921 -0.6953
  873MPD2    H312866   3.935   1.398   0.641  1.3825  0.3845 -0.5356
  873MPD2     N12867   3.943   1.018   0.864 -0.0257  0.2070 -0.1001
  873MPD2    H512868   3.912   0.968   0.781 -0.9007 -0.0499  0.3812
  873MPD2    N112869   4.013   1.458   1.072 -0.3583 -0.3691  0.0704
  873MPD2    H712870   4.022   1.557   1.050  2.8322 -0.6500  0.1732
  874MPD2     C12871   3.407   1.509  16.010 -0.4657  0.6106  0.6583
  874MPD2    C112872   3.437   1.493  16.139  0.3149  0.1220 -0.8083
  874MPD2    C212873   3.547   1.566  16.187  0.3227  0.6581 -0.2146
  874MPD2    C312874   3.626   1.645  16.104 -0.7151 -0.1655 -0.2200
  874MPD2    C412875   3.587   1.649  15.977 -0.6546 -0.4884  0.3554
  874MPD2    C512876   3.486   1.579  15.929  0.1830  0.8185 -0.5591
  874MPD2     H12877   3.572   1.573  16.292 -0.1081 -1.8022  0.0553
  874MPD2    H112878   3.629   1.710  15.898  0.1940 -1.5923 -0.0579
  874MPD2    H212879   3.327   1.449  15.967  2.3342 -2.2944 -0.5084
  874MPD2    H312880   3.460   1.585  15.823 -0.7991  0.4978 -0.3395
  874MPD2     N12881   3.738   1.703  16.161  0.2937  0.4650  0.7500
  874MPD2    H512882   3.759   1.666  16.253  2.8029 -0.3840 -0.1730
  874MPD2    N112883   3.356   1.403  16.218 -0.4802  0.2399 -0.2811
  874MPD2    H712884   3.270   1.375  16.173  1.2166 -2.4682 -1.8199
  875MPD2     C12885   3.906   4.174  14.683  0.5255 -0.3786  0.0571
  875MPD2    C112886   3.985   4.264  14.608 -0.4852  0.8247  0.5365
  875MPD2    C212887   4.078   4.345  14.668 -0.8470  0.4508 -0.3128
  875MPD2    C312888   4.090   4.342  14.809 -0.0812 -0.0945 -0.0309
  875MPD2    C412889   4.007   4.253  14.877  0.1036  0.0171  0.3657
  875MPD2    C512890   3.913   4.173  14.820 -0.2454 -0.1734  0.5358
  875MPD2     H12891   4.122   4.428  14.614 -0.9643  1.0432  0.4894
  875MPD2    H112892   4.008   4.273  14.984  2.1421  2.2877 -0.0740
  875MPD2    H212893   3.841   4.102  14.635 -0.9812  1.5889 -0.8157
  875MPD2    H312894   3.858   4.093  14.869 -2.4879 -0.3496 -2.2682
  875MPD2     N12895   4.174   4.425  14.888 -0.3128  0.6318 -0.0564
  875MPD2    H512896   4.189   4.408  14.987  1.0491 -2.9715 -0.8866
  875MPD2    N112897   3.967   4.274  14.473  0.1643  0.4459  0.0732
  875MPD2    H712898   4.030   4.338  14.426 -1.0329  1.1505 -0.6023
  876MPD2     C12899   3.614   1.156  16.174  0.7255  0.7566 -0.0595
  876MPD2    C112900   3.537   1.116  16.064 -0.0517  0.0058  0.5199
  876MPD2    C212901   3.473   0.994  16.067  0.6476  0.6287  0.1091
  876MPD2    C312902   3.488   0.914  16.179 -0.0637 -0.2679 -0.6265
  876MPD2    C412903   3.555   0.955  16.293 -0.2709 -0.2864  0.5906
  876MPD2    C512904   3.605   1.082  16.291 -0.1252 -0.1228  0.1602
  876MPD2     H12905   3.400   0.960  15.995  2.2066 -0.9079 -0.7437
  876MPD2    H112906   3.565   0.883  16.373 -1.2170  0.6311  1.5394
  876MPD2    H212907   3.682   1.240  16.183  1.5199  0.0367  0.6626
  876MPD2    H312908   3.656   1.110  16.382  1.1029 -0.3836 -0.4529
  876MPD2     N12909   3.437   0.783  16.177  0.6978  0.5604 -0.6541
  876MPD2    H512910   3.385   0.761  16.092  0.8384 -1.0326 -0.3274
  876MPD2    N112911   3.555   1.201  15.948 -0.1410 -0.0710  0.1307
  876MPD2    H712912   3.610   1.286  15.958 -0.7309  0.2967  0.1882
  877MPD2     C12913   3.307   1.519  15.193  0.2252 -0.4454 -0.1814
  877MPD2    C112914   3.429   1.552  15.220  0.2031  0.0073  0.3045
  877MPD2    C212915   3.507   1.603  15.121  0.4960 -0.3354 -0.0394
  877MPD2    C312916   3.460   1.620  14.990  0.6292 -0.2558  0.7150
  877MPD2    C412917   3.340   1.573  14.959 -0.1241 -0.1389 -0.2284
  877MPD2    C512918   3.261   1.526  15.060  0.6391 -0.5951 -0.7344
  877MPD2     H12919   3.607   1.626  15.154  0.3939  0.6467 -0.4391
  877MPD2    H112920   3.294   1.582  14.862  1.4921  2.3855 -0.7711
  877MPD2    H212921   3.229   1.489  15.262 -0.3869 -2.1317 -1.6342
  877MPD2    H312922   3.160   1.499  15.033 -0.7210  1.7185  1.9550
  877MPD2     N12923   3.539   1.682  14.885 -0.0263 -0.4505  0.3498
  877MPD2    H512924   3.497   1.659  14.795 -1.7667  1.0081  0.7793
  877MPD2    N112925   3.487   1.526  15.345 -0.3963 -0.1608 -0.2570
  877MPD2    H712926   3.587   1.541  15.349 -0.2596 -1.2373  0.2426
  878MPD2     C12927   3.556   0.494  13.136  0.3401 -0.1432 -0.3593
  878MPD2    C112928   3.566   0.626  13.147  0.0090  0.0169  0.1041
  878MPD2    C212929   3.550   0.681  13.277  0.2652  0.5144 -0.2902
  878MPD2    C312930   3.521   0.604  13.390 -0.3118 -0.5897  0.2905
  878MPD2    C412931   3.496   0.469  13.372 -0.0467  0.0441 -0.7311
  878MPD2    C512932   3.520   0.417  13.243 -0.1522  0.4033 -0.0462
  878MPD2     H12933   3.556   0.787  13.297  2.1717  0.3603 -0.0594
  878MPD2    H112934   3.466   0.406  13.454  0.9951 -1.1517 -1.2716
  878MPD2    H212935   3.555   0.436  13.044  3.4657  1.2607 -1.2460
  878MPD2    H312936   3.527   0.309  13.231 -0.4770  0.2675  1.0114
  878MPD2     N12937   3.515   0.674  13.513 -0.3203  0.2333  0.0891
  878MPD2    H512938   3.548   0.770  13.510  2.2313 -0.6553 -0.5241
  878MPD2    N112939   3.575   0.699  13.030 -0.2123  0.0299 -0.2663
  878MPD2    H712940   3.589   0.647  12.945  2.9689 -0.5728  0.6410
  879MPD2     C12941   3.551   2.457  17.016  0.4100  0.4050 -0.0827
  879MPD2    C112942   3.593   2.354  17.094  0.1265  0.2913  0.0229
  879MPD2    C212943   3.582   2.220  17.049 -0.7103 -0.3727 -0.9550
  879MPD2    C312944   3.530   2.201  16.917  0.2736  0.8080  0.0877
  879MPD2    C412945   3.479   2.306  16.848 -0.5694  0.4541 -0.5988
  879MPD2    C512946   3.490   2.437  16.899 -0.3040  0.7794  0.6681
  879MPD2     H12947   3.625   2.133  17.097  0.2342 -0.8968 -2.7327
  879MPD2    H112948   3.437   2.295  16.749 -0.0002 -2.2812 -0.5156
  879MPD2    H212949   3.562   2.562  17.043  0.0580  0.1603  1.0286
  879MPD2    H312950   3.466   2.525  16.840  1.9962  1.5927  0.9621
  879MPD2     N12951   3.529   2.073  16.859 -0.0127  0.2461 -0.2803
  879MPD2    H512952   3.493   2.063  16.764 -1.0910 -0.6969  0.2276
  879MPD2    N112953   3.658   2.385  17.212 -0.0920 -0.2506 -0.2587
  879MPD2    H712954   3.669   2.486  17.222 -0.2275 -0.4406  1.7861
  880MPD2     C12955   4.691   3.406  17.559  0.1694 -0.3581  0.5773
  880MPD2    C112956   0.020   3.516  17.612 -0.1647 -0.8679 -0.0840
  880MPD2    C212957   0.123   3.495  17.700 -0.1047 -0.1677 -0.2035
  880MPD2    C312958   0.156   3.367  17.734  0.0465 -0.4491 -0.3270
  880MPD2    C412959   0.096   3.251  17.682  0.5669  0.1824 -0.2693
  880MPD2    C512960   4.725   3.277  17.597 -0.0221 -0.0682 -0.6452
  880MPD2     H12961   0.188   3.571  17.742 -1.1775  2.0494 -2.5432
  880MPD2    H112962   0.118   3.150  17.712  0.6496  0.0145 -0.8903
  880MPD2    H212963   4.606   3.425  17.495 -1.3257 -0.2163  2.6182
  880MPD2    H312964   4.668   3.194  17.555 -1.6062 -0.0462  1.4632
  880MPD2     N12965   0.275   3.361   0.077  0.2816  0.3926  0.2045
  880MPD2    H512966   0.310   3.453   0.102  0.3888 -0.0120  1.5593
  880MPD2    N112967   4.720   3.646  17.569  0.2363  0.3712 -0.6708
  880MPD2    H712968   4.638   3.656  17.511  0.9265  1.3820 -1.4808
  881MPD2     C12969   0.255   4.702  17.369 -0.2602  0.3144 -0.5780
  881MPD2    C112970   0.268   4.603  17.276  0.7565 -0.0672  0.1737
  881MPD2    C212971   0.222   4.474  17.315  0.0940 -0.1225 -0.6140
  881MPD2    C312972   0.142   4.463  17.425 -0.6130  0.1708 -0.3416
  881MPD2    C412973   0.099   4.572  17.492  1.2229  0.0953  0.5241
  881MPD2    C512974   0.156   4.695  17.467  0.7178 -0.0652  0.3889
  881MPD2     H12975   0.257   4.387  17.260  3.9831  0.6398  0.6344
  881MPD2    H112976   0.017   4.571  17.563  1.3147  0.6156  0.6356
  881MPD2    H212977   0.311   0.059  17.362  1.1204 -0.3086  1.9298
  881MPD2    H312978   0.150   0.043  17.535 -0.2220  1.0116 -1.0222
  881MPD2     N12979   0.093   4.346  17.484 -0.3839 -0.9588  0.6091
  881MPD2    H512980   0.017   4.353  17.551  0.0886 -0.2092  1.0608
  881MPD2    N112981   0.345   4.635  17.161 -0.6618  0.0199  0.1023
  881MPD2    H712982   0.388   4.726  17.149  2.8140 -1.6283  0.1399
  882MPD2     C12983   3.788   1.319  14.380  0.5697  0.3560 -0.3049
  882MPD2    C112984   3.696   1.414  14.390  0.1453  1.0276  0.3072
  882MPD2    C212985   3.568   1.378  14.397  0.3071 -0.1807 -1.0172
  882MPD2    C312986   3.520   1.252  14.389  0.0229  1.1577 -0.1375
  882MPD2    C412987   3.614   1.157  14.372  0.0561 -0.2431 -0.6306
  882MPD2    C512988   3.747   1.188  14.359 -0.3729 -0.3645 -0.2855
  882MPD2     H12989   3.495   1.457  14.409 -0.7728 -1.6417  1.8608
  882MPD2    H112990   3.587   1.052  14.371 -1.1848  0.0568  1.2468
  882MPD2    H212991   3.896   1.333  14.377  0.0071  4.3233 -0.9737
  882MPD2    H312992   3.801   1.096  14.339 -0.1504 -0.1949 -0.4660
  882MPD2     N12993   3.381   1.218  14.387 -0.6175  0.5114 -0.1731
  882MPD2    H512994   3.349   1.122  14.380  1.3233 -0.1259 -0.3308
  882MPD2    N112995   3.749   1.544  14.428  0.1497  0.2771 -0.0913
  882MPD2    H712996   3.845   1.553  14.458 -0.5212  2.6993  1.3620
  883MPD2     C12997   0.711   1.122  16.187 -0.2363 -0.1370  0.9829
  883MPD2    C112998   0.709   1.257  16.224 -0.4333  0.5381 -0.7800
  883MPD2    C212999   0.766   1.300  16.339 -0.5464 -0.1521 -0.3153
  883MPD2    C313000   0.840   1.208  16.414  0.4206  0.2395  0.6527
  883MPD2    C413001   0.845   1.074  16.374 -0.1861  0.2029 -0.3021
  883MPD2    C513002   0.776   1.030  16.267 -0.3469 -0.1782  0.6575
  883MPD2     H13003   0.774   1.405  16.365  0.7017  0.3701 -2.7402
  883MPD2    H113004   0.891   0.997  16.436 -0.3991  1.2002  1.0772
  883MPD2    H213005   0.669   1.072  16.100 -1.2135  2.6340 -0.1183
  883MPD2    H313006   0.786   0.928  16.232  0.3976  0.0253  0.2867
  883MPD2     N13007   0.922   1.263  16.522  0.1205 -0.0527 -1.0889
  883MPD2    H513008   0.921   1.364  16.531 -1.6843 -0.4172  2.7016
  883MPD2    N113009   0.640   1.355  16.152 -0.3128 -0.6972  0.5355
  883MPD2    H713010   0.661   1.451  16.174 -1.6280 -0.3591  0.3215
  884MPD2     C13011   2.757   2.067  15.224  0.4773  1.1441 -0.1794
  884MPD2    C113012   2.702   2.171  15.154  0.9440  0.1311  0.0270
  884MPD2    C213013   2.575   2.206  15.181  0.3550 -0.2250  0.9811
  884MPD2    C313014   2.487   2.124  15.244  0.8859  0.3159  0.1731
  884MPD2    C413015   2.535   2.007  15.297 -0.2717 -0.5575 -0.5023
  884MPD2    C513016   2.671   1.987  15.291 -0.0328 -0.1535 -0.0280
  884MPD2     H13017   2.539   2.305  15.155  0.8131 -0.5491 -0.8567
  884MPD2    H113018   2.478   1.940  15.362 -0.0892 -0.6705 -0.4579
  884MPD2    H213019   2.864   2.048  15.234  0.2016 -0.4928 -0.2638
  884MPD2    H313020   2.708   1.898  15.340  2.2048  0.7625 -0.0681
  884MPD2     N13021   2.347   2.148  15.246 -0.1631  0.0116  0.1446
  884MPD2    H513022   2.325   2.240  15.207 -1.3731 -0.1872  0.3684
  884MPD2    N113023   2.777   2.258  15.076  0.8307 -0.4880 -0.2209
  884MPD2    H713024   2.728   2.317  15.011  1.0534  1.6096  1.5269
  885MPD2     C13025   0.956   1.801  17.636 -0.0304 -0.1006  0.3639
  885MPD2    C113026   0.978   1.932  17.671  0.2227  0.6500 -0.0182
  885MPD2    C213027   0.931   2.031  17.589  0.0493  0.5419 -0.7152
  885MPD2    C313028   0.866   2.011  17.478  0.4675  1.0536  0.2527
  885MPD2    C413029   0.835   1.881  17.441 -0.2266  0.6561 -0.6488
  885MPD2    C513030   0.885   1.779  17.519 -0.7066 -0.5929 -0.1284
  885MPD2     H13031   0.961   2.132  17.617  1.2929 -0.4027  1.3126
  885MPD2    H113032   0.780   1.857  17.350 -0.5152 -1.7398  0.1674
  885MPD2    H213033   0.988   1.717  17.697  1.9536  0.8842  0.6768
  885MPD2    H313034   0.864   1.679  17.483 -0.3548  0.0993 -2.2484
  885MPD2     N13035   0.811   2.125  17.405 -0.5357  0.1111  0.2234
  885MPD2    H513036   0.830   2.212  17.454  0.5072 -0.7750  1.3870
  885MPD2    N113037   1.050   1.962   0.046 -0.2831 -0.2301  0.0509
  885MPD2    H713038   1.093   1.879   0.085 -2.4277 -1.5348 -0.3437
  886MPD2     C13039   1.899   0.605  15.019  0.0927  0.1723  0.7419
  886MPD2    C113040   2.009   0.657  15.084 -0.5792  0.1634 -0.5086
  886MPD2    C213041   2.075   0.765  15.034 -0.2020  0.4341 -0.0938
  886MPD2    C313042   2.045   0.819  14.907 -0.2515 -0.5604  0.1548
  886MPD2    C413043   1.945   0.755  14.837 -0.0730  0.4113  0.5826
  886MPD2    C513044   1.878   0.643  14.889  0.3077 -0.2150 -0.2551
  886MPD2     H13045   2.155   0.802  15.097  0.5933 -1.0322 -0.2375
  886MPD2    H113046   1.920   0.786  14.736 -0.0044 -1.2465  0.0605
  886MPD2    H213047   1.864   0.510  15.057  2.4472 -1.8212 -2.0812
  886MPD2    H313048   1.802   0.590  14.831 -0.0593  0.1038 -0.0593
  886MPD2     N13049   2.107   0.927  14.842 -0.0448 -0.3349  0.2599
  886MPD2    H513050   2.082   0.944  14.744  1.1284 -0.8808 -0.1312
  886MPD2    N113051   2.063   0.607  15.200  0.6229 -0.2848  0.4660
  886MPD2    H713052   2.152   0.646  15.230  1.1572 -0.2217 -1.2080
  887MPD2     C13053   2.644   0.759  15.565  0.4099  0.2497  0.4328
  887MPD2    C113054   2.544   0.744  15.657 -0.1525 -0.0043  0.7661
  887MPD2    C213055   2.549   0.816  15.766 -0.1450  0.0926  0.0502
  887MPD2    C313056   2.649   0.909  15.795 -0.1986 -0.2064 -0.7044
  887MPD2    C413057   2.745   0.924  15.703  0.0681  0.1650  0.1191
  887MPD2    C513058   2.756   0.839  15.593  0.4012  0.4304 -0.2755
  887MPD2     H13059   2.460   0.799  15.826 -0.3519  1.5330  0.1648
  887MPD2    H113060   2.828   0.989  15.724  0.6533 -1.3346  2.5519
  887MPD2    H213061   2.652   0.710  15.468 -0.9481  0.8928 -0.0065
  887MPD2    H313062   2.841   0.843  15.525 -1.3718 -3.5615 -2.7742
  887MPD2     N13063   2.636   0.978  15.923  0.0346 -0.3056  0.4634
  887MPD2    H513064   2.557   0.958  15.985 -1.4458 -1.1217 -1.6873
  887MPD2    N113065   2.426   0.665  15.648  0.3029  0.2594 -0.1453
  887MPD2    H713066   2.357   0.673  15.723  1.4502 -0.2504  0.9540
  888MPD2     C13067   4.580   0.670  15.273  0.8615  0.0251 -0.1559
  888MPD2    C113068   4.467   0.719  15.228  0.2402 -0.4935 -0.1185
  888MPD2    C213069   4.453   0.858  15.203  0.1199 -0.6651 -0.9792
  888MPD2    C313070   4.566   0.942  15.211 -0.4914  0.2625 -0.5580
  888MPD2    C413071   4.686   0.894  15.259  0.4504  0.5889  0.2027
  888MPD2    C513072   4.689   0.756  15.291  0.6337 -0.6887  0.4390
  888MPD2     H13073   4.359   0.907  15.179 -0.7357 -2.3549 -1.0638
  888MPD2    H113074   0.036   0.955  15.284  2.0876 -2.0026  0.8756
  888MPD2    H213075   4.584   0.567  15.308 -2.1598 -0.2441 -0.6404
  888MPD2    H313076   0.044   0.710  15.329 -0.1188 -0.5999  2.3419
  888MPD2     N13077   4.556   1.076  15.174  0.7671 -0.6102  0.1395
  888MPD2    H513078   4.464   1.119  15.171  0.4980 -1.1546  0.5886
  888MPD2    N113079   4.361   0.628  15.224 -0.0854 -0.0643  0.6280
  888MPD2    H713080   4.387   0.539  15.264 -0.9337 -1.2129 -1.3659
  889MPD2     C13081   4.026   0.917  12.801  0.6254 -0.4286  1.0636
  889MPD2    C113082   3.959   0.855  12.906 -1.0386  0.1757  0.0070
  889MPD2    C213083   3.884   0.942  12.987  0.6693  1.1862  0.3728
  889MPD2    C313084   3.849   1.074  12.948  0.4700  0.3489 -0.2338
  889MPD2    C413085   3.901   1.123  12.830  0.7562 -0.4932 -0.8766
  889MPD2    C513086   3.983   1.042  12.755 -0.7889  0.0134  0.3028
  889MPD2     H13087   3.830   0.892  13.067  0.1802  1.4082  0.1784
  889MPD2    H113088   3.885   1.227  12.803  0.7497 -0.0959  0.6642
  889MPD2    H213089   4.088   0.869  12.726 -1.7134 -1.7649 -0.0151
  889MPD2    H313090   4.017   1.073  12.657  3.3586  0.8022  1.9700
  889MPD2     N13091   3.768   1.152  13.035  0.0982 -0.3779  0.5731
  889MPD2    H513092   3.744   1.106  13.122  3.5225  0.4239  1.9331
  889MPD2    N113093   4.001   0.733  12.957 -0.2283  0.1092 -0.5192
  889MPD2    H713094   3.945   0.700  13.035  0.1624  1.7944  0.4679
  890MPD2     C13095   3.193   1.929  14.672 -0.7167 -0.1583  0.1086
  890MPD2    C113096   3.305   1.977  14.742  0.1967  0.8061  0.1023
  890MPD2    C213097   3.316   1.962  14.878 -0.0630 -0.6264  0.1765
  890MPD2    C313098   3.216   1.888  14.948  0.5426 -0.0872  1.0188
  890MPD2    C413099   3.110   1.841  14.877 -0.4308  0.1174 -0.5408
  890MPD2    C513100   3.096   1.861  14.745 -0.5419 -0.0500  0.1172
  890MPD2     H13101   3.391   2.010  14.939 -0.1476  0.4829 -0.5808
  890MPD2    H113102   3.031   1.797  14.937  1.7511 -1.8749  0.8374
  890MPD2    H213103   3.173   1.956  14.570 -0.4809 -0.3067  0.0228
  890MPD2    H313104   3.006   1.827  14.694 -0.1639  0.5225 -0.9171
  890MPD2     N13105   3.215   1.890  15.091  0.3904 -0.1491 -0.3541
  890MPD2    H513106   3.298   1.927  15.137  1.7048 -1.0526 -1.9833
  890MPD2    N113107   3.395   2.059  14.663  0.0494 -1.0077  0.1509
  890MPD2    H713108   3.365   2.083  14.569 -0.7972 -0.8586  0.4631
  891MPD2     C13109   1.193   0.059  17.032  0.6602  0.1422 -0.3227
  891MPD2    C113110   1.291   0.140  16.982 -0.1427 -0.3971  0.1739
  891MPD2    C213111   1.387   0.183  17.065 -0.1428 -0.4324  0.2831
  891MPD2    C313112   1.398   0.136  17.193 -0.2153 -0.1508 -0.2076
  891MPD2    C413113   1.291   0.064  17.244 -0.4069  0.4816  0.6539
  891MPD2    C513114   1.186   0.025  17.165  0.0571  0.1285  0.4907
  891MPD2     H13115   1.462   0.250  17.024 -0.1719 -0.4778  0.1560
  891MPD2    H113116   1.295   0.030  17.347  1.5320 -2.1123 -0.2968
  891MPD2    H213117   1.120   0.025  16.960 -0.2592  0.6130  0.3879
  891MPD2    H313118   1.112   4.703  17.218 -0.1803 -1.5818 -1.7158
  891MPD2     N13119   1.508   0.177  17.274 -0.2379  0.4988  0.4843
  891MPD2    H513120   1.501   0.162  17.374  1.0707 -0.4989  0.4337
  891MPD2    N113121   1.274   0.192  16.853  0.0005  0.1182 -0.1971
  891MPD2    H713122   1.188   0.171  16.804 -0.1112  1.5739 -0.6115
  892MPD2     C13123   2.609   1.793  14.277  0.1488  0.1181 -0.8147
  892MPD2    C113124   2.597   1.707  14.384 -0.6018  0.5691  0.1698
  892MPD2    C213125   2.664   1.589  14.374  0.5057  0.0512  0.3518
  892MPD2    C313126   2.747   1.559  14.267  0.4606 -0.4553 -0.2370
  892MPD2    C413127   2.753   1.644  14.159 -0.2078  0.4361  0.2533
  892MPD2    C513128   2.686   1.763  14.167 -0.1930 -0.2452 -0.2795
  892MPD2     H13129   2.656   1.525  14.462  1.6122 -1.5266 -0.6912
  892MPD2    H113130   2.838   1.647  14.092 -0.7716  1.2427 -0.4117
  892MPD2    H213131   2.553   1.886  14.276 -0.1862 -0.0625  1.1452
  892MPD2    H313132   2.692   1.838  14.089  1.0360 -1.6676 -1.5482
  892MPD2     N13133   2.832   1.446  14.277  0.7364 -0.6715  0.0922
  892MPD2    H513134   2.916   1.437  14.221  1.2213  2.3955  0.2877
  892MPD2    N113135   2.502   1.740  14.485 -0.5420  0.4081  0.1480
  892MPD2    H713136   2.450   1.827  14.479 -1.1254  0.0155 -0.4357
  893MPD2     C13137   4.163   0.009   1.512  0.4489  0.2690  0.2392
  893MPD2    C113138   4.156   0.144   1.497  0.5022 -0.5669 -0.5255
  893MPD2    C213139   4.034   0.202   1.531 -0.5586 -0.2509  0.5739
  893MPD2    C313140   3.923   0.130   1.573  0.1784 -0.8078 -0.8236
  893MPD2    C413141   3.932   4.729   1.590 -0.5751  0.1865  0.2277
  893MPD2    C513142   4.052   4.672   1.558  0.0830  0.3007  0.5624
  893MPD2     H13143   4.022   0.310   1.528 -1.4803 -0.4343 -1.9750
  893MPD2    H113144   3.853   4.663   1.624 -0.2051 -1.2359 -1.6634
  893MPD2    H213145   4.253   4.690   1.488 -1.6331 -2.4194 -1.4836
  893MPD2    H313146   4.049   4.564   1.566 -0.2043  0.1654 -1.3031
  893MPD2     N13147   3.797   0.194   1.598  0.3495  0.2048 -1.0014
  893MPD2    H513148   3.720   0.131   1.619  0.0374  0.9370  0.0264
  893MPD2    N113149   4.258   0.216   1.437  0.4305  0.4349 -0.2112
  893MPD2    H713150   4.325   0.160   1.387  1.3799  0.4855  1.0126
  894MPD2     C13151   2.014   2.305   1.355 -0.7155  0.3341 -0.5201
  894MPD2    C113152   1.985   2.440   1.393  0.1600 -0.4023 -0.2308
  894MPD2    C213153   2.051   2.546   1.333  0.0610 -0.0287  0.3739
  894MPD2    C313154   2.150   2.520   1.248  0.3155 -0.7312 -0.1474
  894MPD2    C413155   2.186   2.393   1.218  0.1434  0.2596 -0.3170
  894MPD2    C513156   2.119   2.288   1.274 -0.2696 -0.4309 -1.1261
  894MPD2     H13157   2.027   2.650   1.352 -0.9139 -0.4919  1.7309
  894MPD2    H113158   2.262   2.369   1.144 -1.0162  0.2770 -1.5236
  894MPD2    H213159   1.956   2.223   1.395 -0.1468  0.8749  1.4184
  894MPD2    H313160   2.142   2.189   1.238  0.2543  0.4416 -3.1530
  894MPD2     N13161   2.225   2.629   1.188 -0.0986 -0.1333 -0.5890
  894MPD2    H513162   2.189   2.724   1.187  1.5930  0.4893 -2.7241
  894MPD2    N113163   1.874   2.467   1.482 -0.0325  0.0542 -0.1478
  894MPD2    H713164   1.851   2.565   1.499 -1.7897 -0.2992 -0.4910
  895MPD2     C13165   1.994   0.992  13.913  0.2158  0.2962 -0.2356
  895MPD2    C113166   1.889   0.934  13.849 -0.5172 -0.3057  0.2100
  895MPD2    C213167   1.903   0.803  13.814 -0.1814 -0.6531 -0.3728
  895MPD2    C313168   2.016   0.730  13.830 -0.3233  0.6939  0.7350
  895MPD2    C413169   2.124   0.795  13.897 -0.1251 -0.3740 -0.3915
  895MPD2    C513170   2.107   0.925  13.939  0.0513 -0.2517  0.5274
  895MPD2     H13171   1.818   0.756  13.765  0.6287 -2.3920 -0.1007
  895MPD2    H113172   2.215   0.745  13.930 -1.1436 -0.6068  2.0374
  895MPD2    H213173   1.990   1.088  13.965  1.9289  1.6643 -2.6170
  895MPD2    H313174   2.186   0.970  13.997 -0.4648 -1.8687  2.4737
  895MPD2     N13175   2.029   0.598  13.781 -0.0470 -0.7513  0.0649
  895MPD2    H513176   1.951   0.575  13.720 -0.6504  2.4373 -0.3474
  895MPD2    N113177   1.771   0.995  13.827 -0.0172  0.0931 -0.3588
  895MPD2    H713178   1.694   0.945  13.783  0.7390 -1.4026  0.0105
  896MPD2     C13179   4.359   3.721   1.081  0.0335  0.4266  0.6335
  896MPD2    C113180   4.358   3.620   0.990 -0.9827 -0.0759 -0.1928
  896MPD2    C213181   4.242   3.544   0.974 -0.7547  0.5721 -0.1487
  896MPD2    C313182   4.130   3.573   1.040 -0.1073  0.2389 -0.7674
  896MPD2    C413183   4.134   3.685   1.125  0.0735 -0.4465  0.0672
  896MPD2    C513184   4.246   3.753   1.151  0.4356  0.1286 -0.9646
  896MPD2     H13185   4.241   3.463   0.902 -3.9271  1.0528 -0.6422
  896MPD2    H113186   4.054   3.709   1.194  0.5259 -0.6339  0.6580
  896MPD2    H213187   4.445   3.779   1.113  0.9512 -1.1724  1.0805
  896MPD2    H313188   4.246   3.831   1.227  0.1758  0.0126 -0.8452
  896MPD2     N13189   4.007   3.497   1.023  0.8080 -0.5521  0.2101
  896MPD2    H513190   4.017   3.413   0.967 -0.8165 -0.8771  0.3862
  896MPD2    N113191   4.477   3.612   0.908  0.2198 -0.0165 -0.1470
  896MPD2    H713192   4.560   3.658   0.944  0.4191 -0.8396  0.4386
  897MPD2     C13193   0.678   1.023  10.773 -0.4620 -0.6798 -0.6500
  897MPD2    C113194   0.552   1.058  10.726  0.5376 -0.5444 -0.1758
  897MPD2    C213195   0.444   1.041  10.807 -0.6101 -0.3411  0.9067
  897MPD2    C313196   0.451   1.011  10.940  0.2931  0.7790 -0.7424
  897MPD2    C413197   0.581   0.994  10.989 -0.0052 -0.4904 -0.7540
  897MPD2    C513198   0.688   0.990  10.904 -0.0667  0.5961 -0.3869
  897MPD2     H13199   0.343   1.071  10.780  0.7794  4.1807  0.6777
  897MPD2    H113200   0.599   0.977  11.094  0.2107  0.2417 -0.6707
  897MPD2    H213201   0.766   1.022  10.710 -0.7556 -0.5634 -1.0621
  897MPD2    H313202   0.788   0.979  10.944  0.6075  0.6554 -2.0675
  897MPD2     N13203   0.332   1.007  11.019  0.2294 -0.0477  0.4999
  897MPD2    H513204   0.240   1.004  10.976  0.5010  0.8454 -0.1283
  897MPD2    N113205   0.543   1.122  10.600  0.3567  0.2548 -0.3561
  897MPD2    H713206   0.621   1.172  10.557  1.4453  0.0283  1.3746
  898MPD2     C13207   2.949   1.207   0.066  0.4631  0.0345  0.2938
  898MPD2    C113208   2.968   1.228  17.676 -0.0933 -0.5092 -0.3184
  898MPD2    C213209   2.902   1.333  17.607 -0.1258  0.4238  0.3934
  898MPD2    C313210   2.819   1.419  17.673  0.4062 -0.0365  0.7584
  898MPD2    C413211   2.788   1.388   0.064  0.0478 -0.6897 -0.0507
  898MPD2    C513212   2.852   1.287   0.132  0.4155  0.1006 -0.0277
  898MPD2     H13213   2.911   1.351  17.501  0.9212 -0.5596  0.3150
  898MPD2    H113214   2.714   1.438   0.125  1.9956  1.0502  0.8764
  898MPD2    H213215   3.007   1.131   0.117  0.7427 -1.4125 -2.2068
  898MPD2    H313216   2.822   1.268   0.235 -0.4051  1.6060  0.0124
  898MPD2     N13217   2.736   1.515  17.607 -0.3633 -0.2708 -0.3411
  898MPD2    H513218   2.731   1.503  17.507 -0.2213 -2.9239 -0.0209
  898MPD2    N113219   3.071   1.148  17.613 -0.0669  0.5544 -0.5121
  898MPD2    H713220   3.120   1.079  17.670 -1.6684 -0.2484 -0.1017
  899MPD2     C13221   3.239   1.730  17.107  0.0308  0.5176 -0.0457
  899MPD2    C113222   3.243   1.797  17.219 -0.3940  0.0501 -0.4758
  899MPD2    C213223   3.250   1.727  17.340  0.1243 -0.1464 -0.4291
  899MPD2    C313224   3.196   1.597  17.340 -0.2315 -0.6059 -0.2232
  899MPD2    C413225   3.189   1.529  17.217  0.6230  0.2665  0.4726
  899MPD2    C513226   3.219   1.592  17.104 -0.1964  0.6622  0.4602
  899MPD2     H13227   3.256   1.778  17.435 -0.5806  0.9410 -0.9577
  899MPD2    H113228   3.173   1.422  17.214  2.1152  0.0296  1.1271
  899MPD2    H213229   3.253   1.783  17.013  2.3393  1.3219  0.7560
  899MPD2    H313230   3.233   1.541  17.010 -1.1324  1.6545 -0.2240
  899MPD2     N13231   3.178   1.527  17.460 -0.3575  0.1658 -0.2271
  899MPD2    H513232   3.172   1.426  17.453 -2.2612  0.3117 -0.5407
  899MPD2    N113233   3.274   1.939  17.204 -0.2474  0.0587 -0.3553
  899MPD2    H713234   3.287   1.975  17.110  0.4572  0.5522 -0.0628
  900MPD2     C13235   2.339   3.412  12.994 -0.6137  0.6941 -0.3843
  900MPD2    C113236   2.259   3.305  13.014  0.0610 -0.6808 -0.0839
  900MPD2    C213237   2.122   3.323  13.032  0.9581 -0.0687  1.0225
  900MPD2    C313238   2.065   3.453  13.016 -0.0073 -0.2826 -0.5132
  900MPD2    C413239   2.146   3.563  13.004 -0.1643 -0.2101  0.0072
  900MPD2    C513240   2.281   3.540  12.989  0.2016  0.4555  0.1306
  900MPD2     H13241   2.056   3.243  13.063  0.0963  0.0266 -0.5353
  900MPD2    H113242   2.108   3.665  12.999  0.1649 -0.1485 -1.1474
  900MPD2    H213243   2.445   3.396  12.977 -0.6879  0.7815 -0.9255
  900MPD2    H313244   2.336   3.630  12.964 -0.9424  0.8442 -0.9931
  900MPD2     N13245   1.923   3.469  13.022 -1.0820  0.4785  0.1584
  900MPD2    H513246   1.871   3.382  13.033  4.1925 -2.5324  1.0315
  900MPD2    N113247   2.324   3.179  13.010 -0.3644 -0.3624 -0.2477
  900MPD2    H713248   2.424   3.189  13.018 -0.0287 -1.2881 -3.7678
  901MPD2     C13249   2.512   2.140  13.203  0.8970 -0.3557 -0.3588
  901MPD2    C113250   2.600   2.201  13.119  0.3366  0.5659 -0.3428
  901MPD2    C213251   2.563   2.330  13.067  0.2834 -0.5566  0.6049
  901MPD2    C313252   2.440   2.377  13.089  0.2934 -0.0291  0.1994
  901MPD2    C413253   2.348   2.304  13.167 -0.7555  0.2416 -0.1884
  901MPD2    C513254   2.386   2.187  13.227  0.0517 -0.0307 -0.5560
  901MPD2     H13255   2.620   2.386  12.994  1.9999 -1.4469  1.2392
  901MPD2    H113256   2.253   2.343  13.204 -0.4602 -0.7105  1.5897
  901MPD2    H213257   2.536   2.040  13.235 -3.8931 -1.3876  0.1402
  901MPD2    H313258   2.320   2.134  13.295  0.1179 -0.2216 -0.6420
  901MPD2     N13259   2.420   2.509  13.029  0.3838 -0.2321  0.4592
  901MPD2    H513260   2.499   2.537  12.972 -0.0015  0.2154  0.1495
  901MPD2    N113261   2.705   2.118  13.067  0.3647 -0.5658 -0.1365
  901MPD2    H713262   2.717   2.025  13.107  1.9951 -0.1416  0.3399
  902MPD2     C13263   2.248   1.509  13.049  0.6704 -0.2310 -0.1684
  902MPD2    C113264   2.149   1.496  12.950 -0.3520 -0.4677 -0.3841
  902MPD2    C213265   2.163   1.394  12.851 -0.2821  0.0038  0.7568
  902MPD2    C313266   2.282   1.324  12.850  0.1097 -0.3417  0.3636
  902MPD2    C413267   2.384   1.352  12.935 -0.0900  0.3231  0.4054
  902MPD2    C513268   2.361   1.436  13.041 -0.3350  0.5135 -0.2586
  902MPD2     H13269   2.088   1.374  12.775  0.4816 -0.1661  0.0461
  902MPD2    H113270   2.476   1.295  12.932 -1.9383 -2.4390 -3.1864
  902MPD2    H213271   2.237   1.579  13.131 -2.9352  0.0045 -0.8785
  902MPD2    H313272   2.434   1.449  13.120  1.7751 -0.3616 -2.0646
  902MPD2     N13273   2.294   1.226  12.741  0.5343 -0.3657 -0.5707
  902MPD2    H513274   2.215   1.217  12.677  0.7178 -2.4615 -0.4967
  902MPD2    N113275   2.035   1.579  12.955  0.2634  0.4254 -0.3700
  902MPD2    H713276   2.049   1.649  13.027 -2.3378  1.1128 -0.5035
  903MPD2     C13277   2.031   0.607  12.189 -0.0062  0.8759 -0.1839
  903MPD2    C113278   2.020   0.725  12.260 -0.0591 -1.0294 -0.0124
  903MPD2    C213279   1.913   0.806  12.236  1.1629 -1.2578  0.2779
  903MPD2    C313280   1.803   0.761  12.162 -0.4976  0.4599 -0.7459
  903MPD2    C413281   1.816   0.639  12.095 -0.1181  0.1662  0.7953
  903MPD2    C513282   1.928   0.564  12.117  0.0088  0.1618  0.1849
  903MPD2     H13283   1.898   0.902  12.283 -0.1574 -0.7988 -1.0842
  903MPD2    H113284   1.734   0.607  12.033  0.9824 -0.4719 -0.3384
  903MPD2    H213285   2.121   0.547  12.199 -2.2132 -2.5016 -0.7967
  903MPD2    H313286   1.941   0.468  12.068 -1.4651  1.1926 -2.1978
  903MPD2     N13287   1.698   0.852  12.145 -0.1496  0.1211  0.1028
  903MPD2    H513288   1.695   0.937  12.201 -0.4766 -1.6366  2.7435
  903MPD2    N113289   2.126   0.774  12.340 -0.1111  0.2389  0.0007
  903MPD2    H713290   2.210   0.719  12.325 -0.4243  0.1851 -1.6307
  904MPD2     C13291   1.652   0.328  13.960  0.1371  0.9439 -0.1365
  904MPD2    C113292   1.633   0.243  14.062  0.6318  0.1245 -0.0401
  904MPD2    C213293   1.744   0.218  14.145 -0.0589  0.0418 -0.3085
  904MPD2    C313294   1.863   0.287  14.133 -0.0850  0.1489 -0.0538
  904MPD2    C413295   1.869   0.381  14.030  0.1789  0.0657  0.1098
  904MPD2    C513296   1.770   0.401  13.943  0.2017  0.3637  0.4221
  904MPD2     H13297   1.733   0.139  14.219  1.9603 -1.8045 -1.9921
  904MPD2    H113298   1.963   0.430  14.009 -1.5646  3.0026 -0.7195
  904MPD2    H213299   1.580   0.338  13.879  0.7016 -1.9959 -1.0134
  904MPD2    H313300   1.784   0.459  13.853 -1.1901 -0.3520 -0.2483
  904MPD2     N13301   1.966   0.262  14.226 -0.0939  0.1516  0.3635
  904MPD2    H513302   1.943   0.193  14.298  0.1703  0.6496  0.9208
  904MPD2    N113303   1.508   0.179  14.088 -0.4894 -0.4019  0.2736
  904MPD2    H713304   1.514   0.089  14.135  0.1433 -0.1530  0.6744
  905MPD2     C13305   1.351   0.290  13.426 -0.0289  0.6422 -0.7705
  905MPD2    C113306   1.400   0.378  13.513  0.9361  0.8283  0.1474
  905MPD2    C213307   1.538   0.410  13.504  0.1751 -0.0438 -0.2022
  905MPD2    C313308   1.619   0.347  13.409  0.3637 -0.1688 -0.1993
  905MPD2    C413309   1.566   0.266  13.316  0.0110 -0.2775 -0.8940
  905MPD2    C513310   1.431   0.248  13.324  0.5741  0.3307 -0.5022
  905MPD2     H13311   1.585   0.472  13.579 -2.1451 -0.0737  1.2612
  905MPD2    H113312   1.634   0.222  13.244  2.6521  1.0917  0.7633
  905MPD2    H213313   1.245   0.267  13.428  0.1102  0.0124 -0.6954
  905MPD2    H313314   1.386   0.192  13.242  1.2047  0.4636 -0.9448
  905MPD2     N13315   1.759   0.342  13.420  0.7288 -0.1520  0.0448
  905MPD2    H513316   1.804   0.268  13.368  1.0236 -0.2750  0.4732
  905MPD2    N113317   1.324   0.413  13.626 -0.1783 -0.6140  0.7269
  905MPD2    H713318   1.235   0.368  13.643 -1.4006 -0.0096 -4.3147
  906MPD2     C13319   3.679   1.059  11.429  0.1121 -0.9176  0.1097
  906MPD2    C113320   3.689   0.985  11.319  0.4536 -1.0424  0.2360
  906MPD2    C213321   3.690   0.855  11.335 -0.5930  0.3541 -0.4981
  906MPD2    C313322   3.666   0.785  11.445  0.3989  0.6639 -0.0603
  906MPD2    C413323   3.646   0.867  11.559 -0.4926  0.2426  0.4120
  906MPD2    C513324   3.654   1.001  11.548  0.0421 -0.1317 -0.3162
  906MPD2     H13325   3.716   0.807  11.241  0.0942 -0.1775 -0.0391
  906MPD2    H113326   3.637   0.816  11.654 -3.4225 -0.2576 -0.1258
  906MPD2    H213327   3.681   1.167  11.419  0.7586 -0.7698  1.7892
  906MPD2    H313328   3.647   1.057  11.641 -1.9385  0.4558 -0.8198
  906MPD2     N13329   3.685   0.645  11.472  0.0218 -0.0382 -0.2548
  906MPD2    H513330   3.671   0.613  11.568 -3.1586 -0.5367 -0.8919
  906MPD2    N113331   3.725   1.035  11.192 -0.0928  0.0209  0.2750
  906MPD2    H713332   3.721   0.969  11.115 -1.8236  0.4537 -0.0021
  907MPD2     C13333   2.261   4.245  15.774 -0.3444  0.0005  0.8003
  907MPD2    C113334   2.344   4.135  15.769 -0.3596  0.3185  0.7238
  907MPD2    C213335   2.409   4.084  15.881 -0.5087 -0.1824 -0.1645
  907MPD2    C313336   2.406   4.159  15.998  0.9928  0.3844  0.5682
  907MPD2    C413337   2.334   4.278  16.003 -0.4080 -0.1556  0.4908
  907MPD2    C513338   2.264   4.318  15.895 -0.4915 -0.2715 -0.4501
  907MPD2     H13339   2.468   3.994  15.871 -2.1072 -1.0611 -1.6305
  907MPD2    H113340   2.322   4.343  16.089  2.0320  0.2701  0.4997
  907MPD2    H213341   2.201   4.272  15.688 -1.2692 -0.3385  1.3364
  907MPD2    H313342   2.211   4.412  15.906 -1.1402 -0.9911  2.4427
  907MPD2     N13343   2.487   4.111  16.107 -0.1084  0.1927  0.6423
  907MPD2    H513344   2.546   4.030  16.092  0.6414  0.7477  0.5748
  907MPD2    N113345   2.348   4.063  15.641 -0.6744 -0.1857  0.1289
  907MPD2    H713346   2.396   3.973  15.637  0.9457  0.6986 -0.3792
  908MPD2     C13347   4.547   1.297   9.956 -0.1940 -0.3162 -0.1111
  908MPD2    C113348   4.633   1.193   9.956  0.2389  0.5787  0.1467
  908MPD2    C213349   0.027   1.203  10.001 -0.3221  0.1038 -0.1594
  908MPD2    C313350   0.071   1.314  10.058  0.0605 -0.3474  0.2023
  908MPD2    C413351   4.713   1.419  10.063 -0.7903  0.2159 -0.5827
  908MPD2    C513352   4.587   1.413  10.023 -0.2923  0.0334 -0.4708
  908MPD2     H13353   0.092   1.117  10.004  0.4673  0.8139  3.4396
  908MPD2    H113354   0.006   1.516  10.102 -0.4631  1.3110 -3.5670
  908MPD2    H213355   4.440   1.288   9.944 -0.1263 -0.8015 -0.3406
  908MPD2    H313356   4.523   1.500  10.022 -0.5359 -0.1694 -2.7584
  908MPD2     N13357   0.196   1.317  10.117 -0.0573 -0.0450  0.3326
  908MPD2    H513358   0.252   1.233  10.116  0.7069  0.4617  1.2183
  908MPD2    N113359   4.593   1.073   9.897  0.7711  0.1533 -0.4668
  908MPD2    H713360   4.504   1.075   9.847 -0.4466  2.5873  1.7958
  909MPD2     C13361   0.451   3.283  11.341  0.5537  0.1022 -0.1405
  909MPD2    C113362   0.500   3.403  11.383 -0.0798  0.5206  0.1085
  909MPD2    C213363   0.448   3.454  11.499 -0.0640  0.7960  0.1650
  909MPD2    C313364   0.371   3.379  11.588 -0.8649  0.6209 -0.7226
  909MPD2    C413365   0.327   3.258  11.547 -0.4935  0.8429 -0.2419
  909MPD2    C513366   0.369   3.206  11.428 -0.1218 -0.8530  0.6321
  909MPD2     H13367   0.482   3.549  11.538  0.0600 -0.9850  4.3914
  909MPD2    H113368   0.262   3.197  11.609  0.3604  0.3127  0.1237
  909MPD2    H213369   0.481   3.233  11.249  0.6126  1.4813 -0.8730
  909MPD2    H313370   0.333   3.108  11.400 -0.7630 -0.5248  0.3076
  909MPD2     N13371   0.336   3.443  11.709 -0.0675  0.2610  0.1268
  909MPD2    H513372   0.372   3.536  11.729  0.6464 -0.1177  0.5822
  909MPD2    N113373   0.602   3.470  11.317  0.0791 -0.1634 -0.7840
  909MPD2    H713374   0.639   3.554  11.362 -0.8982 -1.1175  1.8053
  910MPD2     C13375   1.902   4.375  16.166  0.1017  0.4288 -0.1522
  910MPD2    C113376   1.952   4.303  16.058  0.3254  0.1388  0.0042
  910MPD2    C213377   1.929   4.348  15.927  0.2939 -0.2065  0.0725
  910MPD2    C313378   1.849   4.455  15.906  0.4560 -1.2630  0.1616
  910MPD2    C413379   1.800   4.523  16.019 -0.7746 -0.4507 -0.0868
  910MPD2    C513380   1.833   4.492  16.146  0.2359  0.4065 -0.4523
  910MPD2     H13381   1.963   4.290  15.843  2.1715  2.6283 -1.0973
  910MPD2    H113382   1.740   4.611  15.996 -0.3761 -1.5073 -5.1807
  910MPD2    H213383   1.930   4.358  16.269  3.3374  2.2017 -0.7379
  910MPD2    H313384   1.788   4.545  16.230 -0.7287 -0.7110 -0.2604
  910MPD2     N13385   1.812   4.514  15.781  0.2257  0.9331 -0.0020
  910MPD2    H513386   1.746   4.590  15.776 -2.3394 -1.2655  0.1573
  910MPD2    N113387   2.013   4.178  16.067 -0.4281 -0.3548  0.1568
  910MPD2    H713388   2.067   4.130  15.996  0.3200 -1.1000  1.2254
  911MPD2     C13389   0.179   0.582  15.703  0.1440  0.3028  0.1318
  911MPD2    C113390   0.156   0.634  15.830  0.1121 -0.2021  0.4209
  911MPD2    C213391   0.032   0.682  15.868 -0.3680  0.6418  0.3884
  911MPD2    C313392   4.669   0.690  15.767  0.1215  0.1876 -0.2407
  911MPD2    C413393   4.693   0.637  15.648 -0.3565 -0.1888  0.4690
  911MPD2    C513394   0.079   0.592  15.610  1.1401  0.1518 -0.1663
  911MPD2     H13395   0.009   0.711  15.970 -2.5066  1.8330 -0.4128
  911MPD2    H113396   4.612   0.654  15.578  1.5002  2.5128 -1.0205
  911MPD2    H213397   0.267   0.536  15.660 -1.4221 -3.1112  0.5763
  911MPD2    H313398   0.092   0.541  15.516 -2.0981 -0.9598 -0.0174
  911MPD2     N13399   4.541   0.750  15.781  0.3474  0.2919  0.6253
  911MPD2    H513400   4.478   0.749  15.701  2.2016  3.6080 -0.9004
  911MPD2    N113401   0.255   0.607  15.929  0.3530 -0.0631  0.1807
  911MPD2    H713402   0.347   0.581  15.895 -0.5099 -2.4190 -0.2863
  912MPD2     C13403   3.967   0.575  15.491 -0.5648 -0.1275  0.4508
  912MPD2    C113404   4.094   0.592  15.537  0.2044 -0.6928  0.7153
  912MPD2    C213405   4.157   0.487  15.599  0.2270  0.5655  0.3452
  912MPD2    C313406   4.100   0.362  15.598 -0.5500 -0.0413 -0.2881
  912MPD2    C413407   3.978   0.346  15.544  0.3066  0.0836  0.5074
  912MPD2    C513408   3.912   0.452  15.496  0.9056  0.4003 -0.2653
  912MPD2     H13409   4.254   0.507  15.643  1.6210 -3.6505 -0.7959
  912MPD2    H113410   3.930   0.250  15.533  1.8587 -0.5767 -0.4451
  912MPD2    H213411   3.900   0.654  15.459  0.5169  0.1931 -1.0048
  912MPD2    H313412   3.809   0.434  15.470 -0.2572  1.8155  3.3679
  912MPD2     N13413   4.161   0.252  15.670  0.8863  0.0082  0.4108
  912MPD2    H513414   4.250   0.269  15.716 -0.4426  2.1208  2.1922
  912MPD2    N113415   4.137   0.723  15.540  0.8582  0.0915 -0.3425
  912MPD2    H713416   4.071   0.800  15.531 -0.5190 -1.0062  0.3431
  913MPD2     C13417   0.255   1.762  10.679  0.0656  0.4920  0.3985
  913MPD2    C113418   0.133   1.780  10.727  0.4964 -0.7609  0.6547
  913MPD2    C213419   0.047   1.864  10.655  0.2848  0.0141 -0.5064
  913MPD2    C313420   0.084   1.920  10.535  0.5062 -0.2940  0.6064
  913MPD2    C413421   0.205   1.885  10.480  0.0810 -0.2234  0.2707
  913MPD2    C513422   0.287   1.802  10.551  0.0450  0.1481 -0.2972
  913MPD2     H13423   4.681   1.856  10.693  0.4645 -0.9181 -0.2192
  913MPD2    H113424   0.237   1.909  10.379 -3.7432  2.2178 -0.3688
  913MPD2    H213425   0.329   1.717  10.744  1.0838  0.5568 -0.7151
  913MPD2    H313426   0.376   1.768  10.500 -0.4361 -2.8562  0.8581
  913MPD2     N13427   4.733   2.000  10.454  0.0908  0.2635  0.0844
  913MPD2    H513428   0.026   2.031  10.362  1.5323 -0.7210  0.2117
  913MPD2    N113429   0.108   1.735  10.860 -0.0810  0.5277  0.5629
  913MPD2    H713430   0.193   1.707  10.908 -0.1669 -0.3643  0.1880
  914MPD2     C13431   2.593   1.989  12.214  0.5956 -0.2668 -0.7502
  914MPD2    C113432   2.628   2.099  12.291  0.8411  0.0056  0.4139
  914MPD2    C213433   2.729   2.082  12.391  0.2522  0.3371  0.0554
  914MPD2    C313434   2.784   1.954  12.413 -0.6754  0.3687 -0.0883
  914MPD2    C413435   2.752   1.850  12.331 -0.0726  0.0332  0.6070
  914MPD2    C513436   2.654   1.868  12.235  0.2922  0.3190  0.2074
  914MPD2     H13437   2.749   2.175  12.443 -0.9288 -0.2860  1.6168
  914MPD2    H113438   2.781   1.747  12.348  2.0423  0.6465  0.6886
  914MPD2    H213439   2.515   2.000  12.139 -1.4390  1.3079  1.5730
  914MPD2    H313440   2.625   1.792  12.163  1.0841 -0.5607  0.8206
  914MPD2     N13441   2.862   1.943  12.530 -0.4248  0.0023  0.3371
  914MPD2    H513442   2.882   2.033  12.574 -0.8106  0.7152 -0.9197
  914MPD2    N113443   2.557   2.219  12.269 -0.0609  0.5003 -0.4263
  914MPD2    H713444   2.518   2.231  12.176  0.9130 -1.6096 -1.1272
  915MPD2     C13445   0.130   1.747  15.795 -0.2618 -0.0937  0.0026
  915MPD2    C113446   0.144   1.868  15.729  0.0255 -0.0162 -0.3072
  915MPD2    C213447   0.211   1.970  15.789 -0.2948  0.6320 -0.4865
  915MPD2    C313448   0.266   1.957  15.914  0.9223  0.0111 -0.4342
  915MPD2    C413449   0.253   1.833  15.981  0.2410  0.0729 -0.5191
  915MPD2    C513450   0.189   1.730  15.918 -0.0998 -0.5598  0.1253
  915MPD2     H13451   0.224   2.067  15.743  0.8927 -0.3372 -2.2041
  915MPD2    H113452   0.281   1.813  16.083  2.2401 -3.6968 -1.7929
  915MPD2    H213453   0.059   1.675  15.758 -1.1582  0.5925  0.3883
  915MPD2    H313454   0.178   1.636  15.972  2.1561 -1.1803 -0.5043
  915MPD2     N13455   0.318   2.079  15.974 -0.5951 -0.1009 -0.0881
  915MPD2    H513456   0.293   2.168  15.932  0.4760 -0.2138 -0.9674
  915MPD2    N113457   0.066   1.876  15.608  0.0645  0.5173 -0.5900
  915MPD2    H713458   0.013   1.794  15.583  1.2138 -0.0733 -1.1187
  916MPD2     C13459   3.457   0.473  15.651  0.3820  0.4598 -0.5105
  916MPD2    C113460   3.484   0.372  15.743  0.1382  0.3484  0.6224
  916MPD2    C213461   3.554   0.260  15.701  0.8704  0.6759  0.3078
  916MPD2    C313462   3.598   0.244  15.573 -0.0502 -0.0152  0.0025
  916MPD2    C413463   3.564   0.337  15.480  0.1371 -0.4374  0.0790
  916MPD2    C513464   3.499   0.451  15.526 -0.1935  0.6386 -0.5998
  916MPD2     H13465   3.587   0.187  15.774 -3.1089 -1.4680 -0.0547
  916MPD2    H113466   3.576   0.311  15.375  1.4788  0.3063  0.0501
  916MPD2    H213467   3.391   0.558  15.669 -1.8322 -1.4996  0.6058
  916MPD2    H313468   3.468   0.535  15.464 -2.1859  0.0778 -0.3657
  916MPD2     N13469   3.667   0.122  15.557  0.0143 -0.1222  1.0901
  916MPD2    H513470   3.676   0.059  15.636 -0.7560 -2.5847 -0.8013
  916MPD2    N113471   3.452   0.390  15.881  0.1303 -0.6058 -0.4500
  916MPD2    H713472   3.418   0.483  15.903 -0.6138 -1.1408  0.6704
  917MPD2     C13473   3.954   2.792  11.701  0.2741  0.1405  0.4843
  917MPD2    C113474   4.002   2.803  11.822  0.4052 -0.1714 -0.0711
  917MPD2    C213475   4.111   2.887  11.844  0.5102 -0.0993  0.3775
  917MPD2    C313476   4.153   2.971  11.749 -0.7080 -0.1325  0.4200
  917MPD2    C413477   4.101   2.961  11.625 -0.5719 -0.6603 -0.2146
  917MPD2    C513478   4.001   2.872  11.601  0.6311  0.5809  0.8351
  917MPD2     H13479   4.148   2.899  11.945  2.1476  0.5775 -0.3094
  917MPD2    H113480   4.140   3.028  11.550 -1.3742  0.5161  0.4309
  917MPD2    H213481   3.869   2.731  11.673 -0.0615  2.1830 -3.0132
  917MPD2    H313482   3.963   2.859  11.501 -0.6892  0.2668  1.3829
  917MPD2     N13483   4.234   3.089  11.767 -0.3499  0.0320 -0.1610
  917MPD2    H513484   4.255   3.144  11.684  1.0345  0.6199  0.5891
  917MPD2    N113485   3.940   2.736  11.929  0.7078 -0.2526 -0.2289
  917MPD2    H713486   3.843   2.712  11.913  0.8940  0.0689 -1.8043
  918MPD2     C13487   3.991   3.346  12.559 -0.4978 -0.1029  0.2168
  918MPD2    C113488   4.085   3.261  12.504 -0.8651 -0.3419 -0.1121
  918MPD2    C213489   4.038   3.142  12.448 -0.2967  0.3899 -0.4327
  918MPD2    C313490   3.905   3.107  12.439  0.3517  0.8003  1.2728
  918MPD2    C413491   3.815   3.196  12.489  0.5639  0.1204 -0.1936
  918MPD2    C513492   3.859   3.312  12.548  0.7202 -0.0911  0.4944
  918MPD2     H13493   4.106   3.072  12.400 -0.6727 -0.7464  0.6987
  918MPD2    H113494   3.712   3.178  12.458 -0.1222  0.8843  1.6309
  918MPD2    H213495   4.019   3.446  12.590 -1.2832  0.0841  0.3450
  918MPD2    H313496   3.785   3.388  12.569  0.2322 -0.6070  0.6356
  918MPD2     N13497   3.871   2.984  12.378 -0.8113  0.7579  0.3997
  918MPD2    H513498   3.945   2.946  12.319 -1.3325 -1.1511  0.9741
  918MPD2    N113499   4.222   3.282  12.499 -0.0872 -0.0245  0.2514
  918MPD2    H713500   4.265   3.197  12.462  1.4476  1.0739 -0.5088
  919MPD2     C13501   4.504   2.079  11.989 -0.3707  0.2133  0.0277
  919MPD2    C113502   4.431   1.995  11.906 -0.0661 -0.5485 -0.5163
  919MPD2    C213503   4.402   2.039  11.773  0.0936  0.1777  0.3975
  919MPD2    C313504   4.429   2.173  11.737  0.1238 -0.2720  0.3256
  919MPD2    C413505   4.513   2.249  11.819  0.2732  0.4491  0.0976
  919MPD2    C513506   4.547   2.201  11.936 -0.3725 -0.1378  0.5327
  919MPD2     H13507   4.369   1.961  11.705  1.5955 -1.2045  1.2672
  919MPD2    H113508   4.532   2.355  11.805 -0.6281  0.5798 -0.1027
  919MPD2    H213509   4.546   2.045  12.082  0.7513 -0.3296 -0.6789
  919MPD2    H313510   4.607   2.259  12.005 -1.5174 -0.9919  2.2688
  919MPD2     N13511   4.378   2.221  11.613 -0.2791  0.1950  0.1412
  919MPD2    H513512   4.421   2.305  11.576 -0.2805 -0.4117 -1.2172
  919MPD2    N113513   4.403   1.867  11.953 -0.5311 -0.5741  0.5823
  919MPD2    H713514   4.368   1.801  11.884  0.4065 -0.3389 -0.1043
  920MPD2     C13515   4.407   2.725  10.750  0.2773 -0.1050  0.0511
  920MPD2    C113516   4.279   2.675  10.755 -0.0535  0.3671 -0.1722
  920MPD2    C213517   4.248   2.598  10.861  0.3697 -0.3832 -0.3277
  920MPD2    C313518   4.339   2.557  10.955 -0.7240 -0.0947 -0.1879
  920MPD2    C413519   4.466   2.617  10.959 -0.2475 -0.5338 -0.2011
  920MPD2    C513520   4.494   2.705  10.852 -0.0445  0.6036  0.1402
  920MPD2     H13521   4.154   2.543  10.863 -0.0131  0.2698 -0.3311
  920MPD2    H113522   4.544   2.592  11.031 -0.4259  2.5839  1.0927
  920MPD2    H213523   4.447   2.768  10.659  1.5087 -0.4288  0.4351
  920MPD2    H313524   4.593   2.745  10.833  0.9683 -0.7465  2.6135
  920MPD2     N13525   4.289   2.466  11.044 -0.0608  0.0573  0.1158
  920MPD2    H513526   4.187   2.459  11.038 -0.0982  1.3748 -0.7642
  920MPD2    N113527   4.190   2.665  10.651 -0.1178  0.0385  0.4768
  920MPD2    H713528   4.106   2.610  10.665 -0.4029  0.9886  2.6100
  921MPD2     C13529   0.851   0.705  16.629 -0.0590  0.5013 -0.1369
  921MPD2    C113530   0.836   0.571  16.587  0.2479  0.1238 -0.4904
  921MPD2    C213531   0.717   0.523  16.543 -0.1722 -0.5143  0.1857
  921MPD2    C313532   0.605   0.604  16.529 -0.3717 -0.3097 -0.0339
  921MPD2    C413533   0.621   0.734  16.573  0.0411  0.0432  1.1465
  921MPD2    C513534   0.738   0.780  16.621  0.1260 -0.9948  0.2340
  921MPD2     H13535   0.711   0.417  16.522  1.1672 -0.5880  0.1300
  921MPD2    H113536   0.535   0.799  16.581 -1.0761 -1.3920  0.8347
  921MPD2    H213537   0.945   0.739  16.671 -1.0553  1.4504  1.3249
  921MPD2    H313538   0.737   0.884  16.653 -4.4601 -1.2452  0.9668
  921MPD2     N13539   0.485   0.566  16.480  0.0828  0.1220 -0.4630
  921MPD2    H513540   0.415   0.638  16.462  1.1950  1.6365  1.2881
  921MPD2    N113541   0.949   0.486  16.606 -0.0653 -0.0157 -0.1706
  921MPD2    H713542   1.025   0.523  16.661 -0.4213 -0.1151  0.3818
  922MPD2     C13543   1.588   3.476  16.942  0.3232  0.5413  0.0146
  922MPD2    C113544   1.517   3.544  17.042  0.1151 -0.1523  0.0820
  922MPD2    C213545   1.410   3.478  17.100 -0.5017  0.8317 -0.2433
  922MPD2    C313546   1.370   3.355  17.069  0.3078 -0.5136 -0.2285
  922MPD2    C413547   1.439   3.293  16.963 -0.3155  0.0291 -0.0926
  922MPD2    C513548   1.539   3.358  16.893 -1.1116 -0.8624  0.1291
  922MPD2     H13549   1.364   3.523  17.188  0.0725 -0.8841  0.9399
  922MPD2    H113550   1.395   3.207  16.914  0.4200  0.0275 -0.7319
  922MPD2    H213551   1.665   3.526  16.884 -0.6757  0.8987 -0.9972
  922MPD2    H313552   1.584   3.302  16.812 -0.8154 -0.3593 -0.0496
  922MPD2     N13553   1.264   3.303  17.142  0.1957  0.1512 -0.5147
  922MPD2    H513554   1.224   3.360  17.215  1.0442  0.3272 -0.1844
  922MPD2    N113555   1.558   3.660  17.107  0.1060  0.6610 -0.4829
  922MPD2    H713556   1.496   3.701  17.175 -0.9848 -1.7907 -0.0284
  923MPD2     C13557   2.223   1.548   9.165  0.3103  0.3577 -0.8056
  923MPD2    C113558   2.316   1.598   9.253  1.1118  0.4067  0.2556
  923MPD2    C213559   2.443   1.548   9.262 -1.1457 -0.4047  0.8693
  923MPD2    C313560   2.473   1.437   9.187  0.2553  0.1977 -0.1423
  923MPD2    C413561   2.381   1.380   9.105 -0.2427  0.2187  0.1363
  923MPD2    C513562   2.254   1.432   9.099  0.3341 -0.5742 -0.8612
  923MPD2     H13563   2.520   1.580   9.331  0.7841 -1.5364 -0.7511
  923MPD2    H113564   2.392   1.280   9.064 -3.8120 -0.3499  0.6043
  923MPD2    H213565   2.121   1.584   9.165 -0.0161 -0.5667  0.3791
  923MPD2    H313566   2.176   1.390   9.037  1.1645 -2.1925 -0.8328
  923MPD2     N13567   2.603   1.375   9.195 -0.2095 -0.3854  1.0303
  923MPD2    H513568   2.606   1.296   9.132 -1.7707  0.3389  0.0631
  923MPD2    N113569   2.272   1.710   9.332 -0.2423 -0.4268 -0.3844
  923MPD2    H713570   2.174   1.738   9.340 -0.2582 -0.9146  1.1069
  924MPD2     C13571   3.126   3.807  15.841  0.1863 -0.5503  0.7659
  924MPD2    C113572   3.107   3.762  15.969  0.3384  0.5205  0.3918
  924MPD2    C213573   3.051   3.842  16.063 -0.7205 -1.3809 -1.1150
  924MPD2    C313574   3.017   3.972  16.036  0.5277  0.1849  0.3701
  924MPD2    C413575   3.038   4.018  15.905 -0.6546  0.3799  0.6051
  924MPD2    C513576   3.087   3.934  15.807 -0.7981 -0.5201 -0.1288
  924MPD2     H13577   3.047   3.814  16.168 -0.8476 -0.1936 -0.8000
  924MPD2    H113578   3.008   4.121  15.889 -0.4902  0.4879  0.9957
  924MPD2    H213579   3.174   3.745  15.767 -1.1000 -0.8033  0.1327
  924MPD2    H313580   3.101   3.980  15.710  1.4138  0.6840  0.7552
  924MPD2     N13581   2.944   4.044  16.128  0.1404  0.4557 -0.5595
  924MPD2    H513582   2.896   4.123  16.086 -1.7525 -0.8736 -0.8872
  924MPD2    N113583   3.124   3.625  15.994 -0.3526 -1.0443 -0.0764
  924MPD2    H713584   3.149   3.569  15.913  2.2744 -1.1778  0.8426
  925MPD2     C13585   1.397   1.681  14.634 -0.3084  0.0959  0.6055
  925MPD2    C113586   1.325   1.588  14.560 -0.8668 -1.2848 -0.2053
  925MPD2    C213587   1.230   1.518  14.636  0.0116  1.3553  0.1432
  925MPD2    C313588   1.208   1.543  14.769  0.4453 -0.0208  0.2814
  925MPD2    C413589   1.274   1.653  14.830 -0.2891 -0.0316 -0.3485
  925MPD2    C513590   1.371   1.719  14.765  0.4811  0.5939  0.7182
  925MPD2     H13591   1.185   1.427  14.596 -1.0863  2.8447 -2.0382
  925MPD2    H113592   1.260   1.662  14.938 -0.0287 -0.0023 -0.3169
  925MPD2    H213593   1.485   1.726  14.588 -0.3237 -0.6562 -0.1751
  925MPD2    H313594   1.433   1.791  14.817 -0.8009  0.0150  3.0722
  925MPD2     N13595   1.131   1.456  14.853  0.1507 -0.0692 -0.3278
  925MPD2    H513596   1.122   1.478  14.951 -0.9691 -0.3765 -0.3609
  925MPD2    N113597   1.350   1.557  14.429 -0.0517  0.2495  0.0118
  925MPD2    H713598   1.289   1.487  14.389  2.6167 -1.4204 -1.1073
  926MPD2     C13599   0.427   4.515  13.406  0.6442  0.1683  0.3588
  926MPD2    C113600   0.379   4.647  13.396 -0.0692  0.5430 -0.3087
  926MPD2    C213601   0.426   4.718  13.291  0.0725  0.3663 -0.2094
  926MPD2    C313602   0.525   4.667  13.204 -0.2252 -0.2099  1.4327
  926MPD2    C413603   0.579   4.541  13.227  0.4873  0.4401  0.4839
  926MPD2    C513604   0.524   4.471  13.332  0.3999 -0.1673  0.2856
  926MPD2     H13605   0.397   0.086  13.283 -0.4243  0.2965  0.7678
  926MPD2    H113606   0.654   4.495  13.164  1.6263  1.4869  1.0913
  926MPD2    H213607   0.393   4.452  13.488 -0.9910 -2.4589 -2.3358
  926MPD2    H313608   0.557   4.370  13.354 -0.7295 -0.7604 -0.7672
  926MPD2     N13609   0.587   0.008  13.106 -0.4434  0.1786 -0.5101
  926MPD2    H513610   0.661   4.703  13.050  0.0026 -1.4373  1.2819
  926MPD2    N113611   0.275   4.708  13.471  0.1087 -0.4395 -0.2433
  926MPD2    H713612   0.235   0.062  13.449 -0.3670 -0.5377  0.2348
  927MPD2     C13613   0.184   1.494   0.107 -0.1172  0.5003 -0.2996
  927MPD2    C113614   0.099   1.604   0.117 -0.5954  0.9670 -0.8866
  927MPD2    C213615   0.123   1.720   0.041 -0.5928 -0.0997 -0.0202
  927MPD2    C313616   0.238   1.734  17.706 -0.7316  0.8345  0.1603
  927MPD2    C413617   0.325   1.625  17.716  0.3185  0.2072  0.5939
  927MPD2    C513618   0.296   1.504   0.034  0.5368 -0.3490  0.6238
  927MPD2     H13619   0.046   1.796   0.040  0.6357  1.1395  0.4082
  927MPD2    H113620   0.421   1.626  17.664  0.9278 -0.1202  1.7236
  927MPD2    H213621   0.166   1.394   0.145 -0.8537  0.4449 -0.7923
  927MPD2    H313622   0.366   1.421   0.034  2.7596  1.5182  0.6493
  927MPD2     N13623   0.248   1.850  17.620  0.5231 -0.1500 -0.4609
  927MPD2    H513624   0.179   1.921  17.639  1.1424  0.5041 -0.6561
  927MPD2    N113625   4.728   1.583   0.203 -0.1079  0.1579  0.1365
  927MPD2    H713626   0.010   1.515   0.277  1.7789 -0.5611 -0.9879
  928MPD2     C13627   2.791   0.150   0.922  0.3558 -0.2482 -0.2772
  928MPD2    C113628   2.774   0.273   0.867 -0.6445  0.7411 -0.2238
  928MPD2    C213629   2.854   0.315   0.765  0.6020  1.0056 -0.2455
  928MPD2    C313630   2.959   0.235   0.723 -0.4328  0.0329  0.8365
  928MPD2    C413631   2.984   0.111   0.775 -0.1116  0.8888  0.8123
  928MPD2    C513632   2.900   0.070   0.876 -0.6688 -0.3087 -0.2813
  928MPD2     H13633   2.849   0.417   0.728  0.7600  0.6684 -1.1794
  928MPD2    H113634   3.079   0.062   0.758 -0.4337  0.6781 -0.3457
  928MPD2    H213635   2.735   0.112   1.007  2.1592 -0.7417  0.6924
  928MPD2    H313636   2.920   4.713   0.929  2.1652  1.4029  1.6226
  928MPD2     N13637   3.057   0.281   0.628 -0.3636  0.2670 -0.1166
  928MPD2    H513638   3.122   0.210   0.597  1.4616  1.3600  1.2139
  928MPD2    N113639   2.670   0.354   0.924  0.3629  0.0862  0.4978
  928MPD2    H713640   2.633   0.329   1.015  2.8163 -2.0588  0.9173
  929MPD2     C13641   2.827   1.318  10.249  0.4347  0.1255 -1.1552
  929MPD2    C113642   2.805   1.210  10.163  0.2756  0.1364 -0.9193
  929MPD2    C213643   2.759   1.228  10.030  0.4564 -0.8151  0.2960
  929MPD2    C313644   2.734   1.357   9.988 -0.3940  0.4833 -0.3804
  929MPD2    C413645   2.758   1.467  10.071  0.1197  0.2455 -0.0999
  929MPD2    C513646   2.801   1.442  10.202  0.9279  0.0358  0.0890
  929MPD2     H13647   2.745   1.144   9.963  0.5164  0.5494 -1.3955
  929MPD2    H113648   2.730   1.567  10.042  1.8626  0.6440 -0.3716
  929MPD2    H213649   2.869   1.321  10.350  0.4857  0.4403 -1.1840
  929MPD2    H313650   2.838   1.522  10.265 -2.4529  0.0094  2.1071
  929MPD2     N13651   2.669   1.382   9.867 -0.1626 -0.2251 -0.3735
  929MPD2    H513652   2.627   1.475   9.861 -0.0837 -0.2207 -0.8294
  929MPD2    N113653   2.822   1.081  10.224  0.2889 -0.0578 -0.3603
  929MPD2    H713654   2.840   1.074  10.324 -0.7729 -0.1508 -0.1815
  930MPD2     C13655   4.473   2.801  13.638 -0.0865 -0.2686  0.2146
  930MPD2    C113656   4.580   2.731  13.592 -0.3640  0.0897  0.5848
  930MPD2    C213657   4.551   2.633  13.500  0.3738 -0.0992  0.5495
  930MPD2    C313658   4.422   2.596  13.458 -0.4433  0.5371  0.0501
  930MPD2    C413659   4.313   2.675  13.496  0.3660 -0.4315  0.3663
  930MPD2    C513660   4.351   2.772  13.583 -0.1428  0.9287 -1.0562
  930MPD2     H13661   4.632   2.571  13.465 -0.5827 -0.2954 -1.3147
  930MPD2    H113662   4.214   2.651  13.458 -1.0588  2.2329  2.3923
  930MPD2    H213663   4.491   2.885  13.704 -0.0689 -0.2339  0.1657
  930MPD2    H313664   4.274   2.841  13.615  0.9703  0.0113  3.5643
  930MPD2     N13665   4.401   2.493  13.365  0.3421  0.2086 -0.2815
  930MPD2    H513666   4.311   2.490  13.319 -0.5249 -0.6354  1.4454
  930MPD2    N113667   4.715   2.758  13.628 -0.8682 -0.4538 -0.4219
  930MPD2    H713668   4.724   2.821  13.707  0.6664 -2.8080  1.2760
  931MPD2     C13669   4.300   1.104   0.720 -0.0597  0.5931 -0.0020
  931MPD2    C113670   4.414   1.172   0.668 -1.0470 -0.0809  0.2082
  931MPD2    C213671   4.540   1.149   0.720 -0.5621 -0.2065  0.6459
  931MPD2    C313672   4.547   1.073   0.830 -0.5150 -0.2474 -0.5317
  931MPD2    C413673   4.440   1.003   0.877  1.0942 -0.2932 -0.2294
  931MPD2    C513674   4.323   1.006   0.816  0.4123 -0.0689 -0.0679
  931MPD2     H13675   4.627   1.211   0.703 -0.8444 -0.3348 -1.2305
  931MPD2    H113676   4.445   0.947   0.969 -0.6174 -0.1665 -0.0603
  931MPD2    H213677   4.200   1.122   0.684  1.0975  1.7378 -2.6563
  931MPD2    H313678   4.237   0.953   0.857 -0.4959  1.6001  0.1780
  931MPD2     N13679   4.666   1.070   0.910  0.2075 -0.2265  0.7485
  931MPD2    H513680   4.643   1.026   0.999 -0.7118 -2.5574 -0.6502
  931MPD2    N113681   4.379   1.263   0.567 -0.1132 -0.5123  1.1233
  931MPD2    H713682   4.281   1.288   0.554  0.2957 -0.3268 -1.5555
  932MPD2     C13683   2.490   0.573  11.277  0.2974  0.3407  0.0409
  932MPD2    C113684   2.499   0.694  11.345 -0.0403 -0.1577  0.4402
  932MPD2    C213685   2.601   0.716  11.428  0.6232  0.0600  0.2833
  932MPD2    C313686   2.714   0.635  11.432  0.6237 -0.4836  0.2563
  932MPD2    C413687   2.709   0.512  11.368  0.6978 -0.5721  0.1740
  932MPD2    C513688   2.598   0.484  11.291  0.1301  0.4017 -0.1076
  932MPD2     H13689   2.594   0.802  11.492  0.5662 -0.5225  1.0607
  932MPD2    H113690   2.788   0.437  11.368  1.9511  0.7302 -1.2381
  932MPD2    H213691   2.402   0.546  11.220  0.3214  0.6971 -0.1647
  932MPD2    H313692   2.591   0.385  11.248  0.7342  1.6688 -3.1751
  932MPD2     N13693   2.818   0.673  11.525  0.1635  0.4993 -0.1343
  932MPD2    H513694   2.803   0.756  11.582  0.1179 -0.6880  1.5672
  932MPD2    N113695   2.384   0.786  11.352 -0.1576  0.3234  0.3414
  932MPD2    H713696   2.400   0.879  11.388  2.2903  0.4421 -1.0428
  933MPD2     C13697   1.991   1.005   1.031 -0.2400 -0.5813 -0.4641
  933MPD2    C113698   2.110   0.981   0.964  0.4712  0.1223  0.4463
  933MPD2    C213699   2.152   1.083   0.881 -0.5058  0.1939 -0.4011
  933MPD2    C313700   2.089   1.205   0.865  0.4359 -0.4693  0.6841
  933MPD2    C413701   1.963   1.223   0.927  0.0400  0.8022 -0.6347
  933MPD2    C513702   1.920   1.119   1.007  0.0990 -1.0892  0.0116
  933MPD2     H13703   2.239   1.067   0.818  0.2044  1.4739  0.2515
  933MPD2    H113704   1.904   1.314   0.934 -1.0224  0.2109 -1.9943
  933MPD2    H213705   1.935   0.926   1.080 -0.4951 -0.2328 -0.1885
  933MPD2    H313706   1.825   1.131   1.058 -1.1322 -1.7274 -2.1074
  933MPD2     N13707   2.154   1.296   0.776 -0.2766 -0.5818 -0.6229
  933MPD2    H513708   2.250   1.276   0.752 -0.4807  0.6303 -2.4882
  933MPD2    N113709   2.182   0.859   0.989 -0.4179 -0.5672  0.0634
  933MPD2    H713710   2.151   0.791   1.058  1.5775  1.5508  3.0289
  934MPD2     C13711   3.865   3.255   1.463 -0.3796 -0.1890 -0.6558
  934MPD2    C113712   3.943   3.201   1.367 -0.3640 -0.4013 -0.7783
  934MPD2    C213713   3.892   3.097   1.288 -0.5463 -0.3544 -0.4360
  934MPD2    C313714   3.765   3.048   1.312 -0.2676  0.7291  0.1383
  934MPD2    C413715   3.694   3.105   1.412 -0.2912 -0.9493 -0.4524
  934MPD2    C513716   3.749   3.195   1.494 -0.0015 -0.7772 -0.9076
  934MPD2     H13717   3.961   3.050   1.219 -1.6940 -0.3177 -1.5941
  934MPD2    H113718   3.595   3.071   1.442 -0.1382  1.5413  2.8954
  934MPD2    H213719   3.892   3.341   1.524  1.1484 -0.9231 -0.2779
  934MPD2    H313720   3.692   3.239   1.575  2.7585  1.3346 -0.1220
  934MPD2     N13721   3.710   2.942   1.240 -0.0371 -0.0880 -0.3440
  934MPD2    H513722   3.626   2.901   1.280 -0.6355  2.1165  0.6310
  934MPD2    N113723   4.071   3.254   1.337 -0.4042 -0.4467  0.5631
  934MPD2    H713724   4.127   3.190   1.281 -0.1195 -2.0685  2.6773
  935MPD2     C13725   3.989   2.030   0.957  0.2761  0.3763 -0.8213
  935MPD2    C113726   3.847   2.036   0.956 -0.4620 -0.0104 -0.5470
  935MPD2    C213727   3.783   2.150   0.986  0.7954  0.6163 -0.0051
  935MPD2    C313728   3.854   2.267   0.998  0.3837 -0.1111 -0.6454
  935MPD2    C413729   3.989   2.261   0.993  0.0786 -0.0319 -0.3476
  935MPD2    C513730   4.058   2.150   0.978 -0.8780  0.2516 -0.4122
  935MPD2     H13731   3.675   2.160   0.977  0.6578 -1.2060 -0.2463
  935MPD2    H113732   4.047   2.353   0.995  0.0342  0.0032 -0.6688
  935MPD2    H213733   4.053   1.946   0.931 -1.3446 -0.5129 -1.9557
  935MPD2    H313734   4.165   2.169   0.980 -0.7142 -0.3806 -2.7318
  935MPD2     N13735   3.797   2.395   1.011  0.7234  0.2379  0.0156
  935MPD2    H513736   3.862   2.472   1.002  0.3930  0.3694 -1.1853
  935MPD2    N113737   3.775   1.918   0.927  0.0044  0.2752 -0.2883
  935MPD2    H713738   3.673   1.921   0.928 -0.0563 -2.4202  0.4491
  936MPD2     C13739   2.541   4.078  12.751  0.4750 -0.9638  0.4259
  936MPD2    C113740   2.578   4.139  12.871 -0.2401 -0.2674  0.4950
  936MPD2    C213741   2.607   4.275  12.876  0.4614  0.1772 -0.3673
  936MPD2    C313742   2.598   4.354  12.773 -0.0611 -0.0417 -0.7362
  936MPD2    C413743   2.568   4.295  12.651  0.2257 -0.3151  0.0802
  936MPD2    C513744   2.545   4.161  12.638  0.5337 -0.1069  0.4175
  936MPD2     H13745   2.648   4.321  12.965  0.0893 -2.4859  1.1687
  936MPD2    H113746   2.555   4.360  12.565  1.4835 -0.7772 -0.4503
  936MPD2    H213747   2.521   3.972  12.742  0.9100 -1.0533  0.4966
  936MPD2    H313748   2.547   4.121  12.537  0.5628  1.3995 -0.1860
  936MPD2     N13749   2.609   4.491  12.794 -0.8510 -0.1020  0.3479
  936MPD2    H513750   2.616   4.517  12.892  0.0901 -2.8443  1.0096
  936MPD2    N113751   2.581   4.074  12.991 -0.1743  0.3077 -0.2324
  936MPD2    H713752   2.609   4.131  13.070 -1.6822 -0.4770  0.8890
  937MPD2     C13753   4.624   1.302  11.563  0.5356 -0.1307  0.3728
  937MPD2    C113754   4.671   1.403  11.645  0.9239  0.0985  0.1871
  937MPD2    C213755   0.045   1.477  11.593  0.0692 -0.5442 -0.2273
  937MPD2    C313756   0.120   1.436  11.487  0.1276  0.1301  0.0995
  937MPD2    C413757   0.065   1.335  11.408  0.2039  0.0410 -0.8338
  937MPD2    C513758   4.684   1.275  11.445 -0.1116  0.3819  0.0252
  937MPD2     H13759   0.075   1.559  11.657  0.7550 -1.7068  0.9137
  937MPD2    H113760   0.123   1.291  11.327  2.4481  1.1600  0.1642
  937MPD2    H213761   4.537   1.247  11.596 -1.4189  1.7992 -1.6286
  937MPD2    H313762   4.635   1.198  11.386 -0.0633  0.3287  0.0542
  937MPD2     N13763   0.247   1.492  11.461  0.1664  0.3768  0.4258
  937MPD2    H513764   0.278   1.574  11.512  0.6754  3.5860 -5.0398
  937MPD2    N113765   4.596   1.463  11.746 -0.0569 -0.0849 -0.6044
  937MPD2    H713766   4.612   1.561  11.768  1.3163 -0.8657  1.8554
  938MPD2     C13767   3.053   1.996   0.869 -0.4749  0.1154 -0.2130
  938MPD2    C113768   2.938   2.075   0.860  0.4623 -0.3317  0.0298
  938MPD2    C213769   2.815   2.025   0.891  0.3930 -0.0354 -0.8321
  938MPD2    C313770   2.803   1.885   0.926  0.2920 -0.3396 -1.2842
  938MPD2    C413771   2.916   1.808   0.928  0.4448 -0.0106 -0.1482
  938MPD2    C513772   3.041   1.865   0.903 -0.5881  0.4966 -0.0461
  938MPD2     H13773   2.731   2.093   0.881 -0.3217 -0.4747  2.3139
  938MPD2    H113774   2.914   1.704   0.959  1.9512 -0.4545 -1.5745
  938MPD2    H213775   3.154   2.027   0.846 -0.1435 -0.9503 -0.1853
  938MPD2    H313776   3.133   1.810   0.917 -0.0565  1.1930 -0.7886
  938MPD2     N13777   2.685   1.820   0.968 -0.5402  0.2376 -0.0575
  938MPD2    H513778   2.695   1.723   0.998  0.9557 -0.3159 -2.4086
  938MPD2    N113779   2.946   2.213   0.821 -0.1203 -0.5696  1.2633
  938MPD2    H713780   2.855   2.257   0.811  0.5311  0.8091  1.4065
  939MPD2     C13781   4.076   3.578   0.495 -0.4638  0.3758 -0.3543
  939MPD2    C113782   4.198   3.626   0.457  0.6773  0.2300 -0.8198
  939MPD2    C213783   4.252   3.578   0.345 -0.3453  0.5380  0.3990
  939MPD2    C313784   4.186   3.491   0.256 -0.0330  0.1263  0.5090
  939MPD2    C413785   4.070   3.437   0.303  0.0558 -0.6271 -0.6380
  939MPD2    C513786   4.018   3.478   0.421 -0.1352 -0.0895  0.3903
  939MPD2     H13787   4.351   3.606   0.310 -0.2890  0.7844  0.7592
  939MPD2    H113788   4.024   3.356   0.249 -0.6605 -1.2529  0.9220
  939MPD2    H213789   4.036   3.595   0.595 -2.1279  0.0335 -0.9575
  939MPD2    H313790   3.928   3.428   0.456 -1.6629  3.2737  1.1999
  939MPD2     N13791   4.246   3.455   0.129 -0.4953  0.5632  0.0615
  939MPD2    H513792   4.331   3.502   0.098  0.6345 -0.8202  1.1330
  939MPD2    N113793   4.253   3.721   0.543 -0.1524  0.1593 -0.3423
  939MPD2    H713794   4.193   3.763   0.613 -0.0867  0.0283 -0.2082
  940MPD2     C13795   3.005   4.510  13.250 -0.7413  0.3644 -0.4066
  940MPD2    C113796   2.991   4.375  13.245  0.0273 -0.5882 -0.5125
  940MPD2    C213797   2.995   4.314  13.121 -0.0216  0.0312 -1.1278
  940MPD2    C313798   3.003   4.389  13.003  0.1817  0.3175 -0.5018
  940MPD2    C413799   3.025   4.521  13.011  0.5896  0.4587  1.2654
  940MPD2    C513800   3.021   4.580  13.133 -0.6420 -0.2040  0.5113
  940MPD2     H13801   2.992   4.206  13.117 -2.3676  0.0618  0.0730
  940MPD2    H113802   3.027   4.577  12.918  0.8651 -0.9273  0.4270
  940MPD2    H213803   3.000   4.569  13.340 -1.3488  0.8636 -0.7659
  940MPD2    H313804   3.031   4.687  13.128  0.4366 -0.3637 -0.8265
  940MPD2     N13805   2.995   4.325  12.878 -0.0840 -0.3176  0.0437
  940MPD2    H513806   3.002   4.392  12.801 -0.1593 -0.1113  0.2172
  940MPD2    N113807   2.968   4.294  13.357 -0.4406 -0.0109 -0.2175
  940MPD2    H713808   2.980   4.193  13.349  1.0466  0.4113 -3.0600
  941MPD2     C13809   2.310   3.704   9.470 -0.0950 -0.2829 -0.2121
  941MPD2    C113810   2.364   3.655   9.591 -0.0429  0.2087 -0.2015
  941MPD2    C213811   2.314   3.545   9.644 -0.3343 -0.4041  0.7761
  941MPD2    C313812   2.203   3.477   9.597  0.3836  0.2560  0.3288
  941MPD2    C413813   2.153   3.524   9.475  0.3981  0.7599  0.5716
  941MPD2    C513814   2.202   3.636   9.417  0.7986 -0.2691 -0.2814
  941MPD2     H13815   2.353   3.515   9.741 -1.6667 -1.4462  0.9953
  941MPD2    H113816   2.070   3.471   9.430  1.5455  0.4446 -1.1500
  941MPD2    H213817   2.353   3.789   9.419  2.4446 -0.9382  0.8118
  941MPD2    H313818   2.163   3.662   9.319  0.9425  1.4839  0.1258
  941MPD2     N13819   2.146   3.359   9.655 -0.5100 -0.1194 -0.5266
  941MPD2    H513820   2.077   3.306   9.603 -1.8348  1.0250  0.0410
  941MPD2    N113821   2.470   3.714   9.655 -0.0813 -0.3051  0.7566
  941MPD2    H713822   2.482   3.695   9.754  0.5381  0.2633  0.7892
  942MPD2     C13823   2.232   0.200   9.731 -0.4361 -0.2490 -0.5253
  942MPD2    C113824   2.135   0.218   9.637  0.1491  0.2991  0.0854
  942MPD2    C213825   2.124   0.343   9.581  0.3381  0.0795 -0.2885
  942MPD2    C313826   2.213   0.437   9.618 -0.5432 -0.2662  0.3207
  942MPD2    C413827   2.303   0.419   9.718  0.2228  0.6028 -0.2713
  942MPD2    C513828   2.313   0.294   9.774 -0.4322  0.6809  0.0480
  942MPD2     H13829   2.048   0.358   9.506  0.4386  0.9858 -0.2028
  942MPD2    H113830   2.380   0.494   9.725 -0.3285  1.0798  0.6767
  942MPD2    H213831   2.256   0.105   9.778 -1.3092 -0.1915  0.0455
  942MPD2    H313832   2.385   0.269   9.851 -0.5137  0.0293 -0.0871
  942MPD2     N13833   2.230   0.559   9.545  0.2826 -0.0097  0.0051
  942MPD2    H513834   2.285   0.628   9.596  1.0719 -0.4620 -0.2266
  942MPD2    N113835   2.031   0.124   9.598 -0.1194  0.0349 -0.1579
  942MPD2    H713836   1.959   0.155   9.534  0.2457  1.2215  0.0099
  943MPD2     C13837   0.154   3.678   9.933 -0.3735 -0.0105 -0.0047
  943MPD2    C113838   0.160   3.557   9.998  0.5742  0.4087 -0.2553
  943MPD2    C213839   0.250   3.543  10.108  0.3785  1.3631  1.2384
  943MPD2    C313840   0.332   3.645  10.152  0.5246 -0.3398  0.2762
  943MPD2    C413841   0.330   3.766  10.083  0.0111 -0.0145  0.4874
  943MPD2    C513842   0.244   3.783   9.977 -0.0717  0.0626  0.6218
  943MPD2     H13843   0.274   3.445  10.149 -0.0557  0.0940 -1.5779
  943MPD2    H113844   0.384   3.855  10.113 -1.7162  1.5974 -1.1489
  943MPD2    H213845   0.079   3.690   9.855  1.6156 -1.1367 -2.0581
  943MPD2    H313846   0.234   3.878   9.927  2.5605  0.1115  0.1805
  943MPD2     N13847   0.429   3.633  10.265 -0.2768  0.7069 -0.6043
  943MPD2    H513848   0.477   3.718  10.293  2.2288 -0.6649 -0.7929
  943MPD2    N113849   0.084   3.450   9.960  0.0407 -0.1037 -0.0672
  943MPD2    H713850   0.021   3.480   9.887  0.1615 -2.0492 -0.9745
  944MPD2     C13851   0.045   2.493  11.170  1.2468 -0.0200 -0.1507
  944MPD2    C113852   0.140   2.584  11.127  0.4148 -0.5247  0.1159
  944MPD2    C213853   0.123   2.722  11.149  0.0567 -0.0697 -0.1308
  944MPD2    C313854   0.019   2.767  11.232  0.1746  0.8626  0.1634
  944MPD2    C413855   4.682   2.670  11.297  0.1199  0.5857  0.1089
  944MPD2    C513856   4.687   2.538  11.259 -0.2732 -0.0025  0.1619
  944MPD2     H13857   0.191   2.792  11.103  1.8396 -0.9169  1.2316
  944MPD2    H113858   4.592   2.692  11.353  0.5821  2.3318  0.1737
  944MPD2    H213859   0.036   2.387  11.150  0.3390  0.4020 -1.9535
  944MPD2    H313860   4.605   2.474  11.290 -0.0851 -0.0423  0.5640
  944MPD2     N13861   0.013   2.915  11.244  0.2811  0.5540  0.4265
  944MPD2    H513862   0.073   2.976  11.190 -0.7983  1.2292 -0.0189
  944MPD2    N113863   0.244   2.541  11.039  0.0053 -0.2908  0.6765
  944MPD2    H713864   0.253   2.440  11.028  0.1815 -0.1449 -0.4363
    1TMC1    C113865   3.633   3.841  15.337  0.8150  0.1320 -0.2348
    1TMC1    C213866   3.578   3.969  15.339 -0.5008 -0.5638  0.1668
    1TMC1    C313867   3.529   4.015  15.456 -0.5013  1.0613 -0.1617
    1TMC1    C413868   3.661   3.770  15.456  0.2254  0.3175  0.1414
    1TMC1    C513869   3.601   3.825  15.568  0.2740 -0.7960 -0.6444
    1TMC1    C613870   3.536   3.944  15.572  0.1695  0.4673  0.2403
    1TMC1     C13871   3.692   3.791  15.212  0.1174  0.1416 -0.5937
    1TMC1     O13872   3.792   3.720  15.231 -0.4130  0.3123  0.4701
    1TMC1     H13873   3.534   4.002  15.245 -1.9255 -2.8862  0.0229
    1TMC1    H113874   3.704   3.670  15.459 -0.1401  0.1172 -1.2547
    1TMC1    H213875   3.499   3.979  15.668 -0.4951 -0.1442  0.2042
    1TMC1    C713876   3.598   3.732  15.682 -0.3856  0.3283 -0.7957
    1TMC1    C813877   3.469   4.149  15.465 -0.4069  0.0818 -0.3000
    1TMC1    O113878   3.611   3.786  15.790  0.3504 -0.2259  0.0826
    1TMC1    O213879   3.384   4.180  15.546  0.7745  0.1636 -0.0118
    1TMC1    O313880   3.489   3.652  15.662 -0.2396  0.6411  0.4275
    1TMC1    H313881   3.483   3.634  15.566  1.6633  1.4536  0.1673
    1TMC1    O513882   3.562   4.227  15.394  0.1608  0.4789  0.3738
    1TMC1    H513883   3.642   4.187  15.354 -0.3124  1.2094 -1.2954
    2MPD2     C13884   3.741   3.802  14.703  0.1353 -0.2975  0.8460
    2MPD2    C113885   3.647   3.891  14.737  0.2227 -0.3103 -0.2880
    2MPD2    C213886   3.599   3.894  14.865  0.3569  0.1001  0.0572
    2MPD2    C313887   3.669   3.824  14.966 -0.5790 -0.0502  0.0026
    2MPD2    C413888   3.766   3.729  14.930  0.0616 -0.3516 -0.7737
    2MPD2    C513889   3.795   3.714  14.796  0.3435 -0.2474 -0.0337
    2MPD2     H13890   3.520   3.960  14.899 -0.9898 -0.4240 -2.0213
    2MPD2    H113891   3.814   3.661  15.000  1.4086  0.9572 -0.4212
    2MPD2    H213892   3.766   3.798  14.597 -2.7706  3.2703  0.0222
    2MPD2    H313893   3.864   3.644  14.751 -0.8745 -2.7980  2.0658
    2MPD2     N13894   3.633   3.836  15.099 -0.9694  0.3543  0.4451
    2MPD2    H513895   3.551   3.896  15.110  0.3315  1.9643  1.4176
    2MPD2    N113896   3.603   3.985  14.639  0.6072 -0.3225  0.4131
    2MPD2    H713897   3.646   3.993  14.547  0.6090 -0.7399  0.3792
    3TMC2    C113898   3.514   4.184  14.561  0.0815 -0.1848  0.2091
    3TMC2    C213899   3.460   4.304  14.595  0.6994 -0.2118  0.1634
    3TMC2    C313900   3.423   4.395  14.496  0.2713 -0.8824 -0.8604
    3TMC2    C413901   3.521   4.141  14.428 -0.6441  0.1689 -0.3078
    3TMC2    C513902   3.492   4.235  14.332  0.0940 -0.0756 -0.2808
    3TMC2    C613903   3.454   4.362  14.367 -0.4667  0.0937 -0.6298
    3TMC2     C13904   3.521   4.090  14.675  0.1254 -0.1471 -0.3920
    3TMC2     O13905   3.467   4.121  14.778 -0.1671  0.5816 -0.0855
    3TMC2     H13906   3.454   4.332  14.699 -1.2522 -0.0063  0.0079
    3TMC2    H113907   3.548   4.042  14.391 -0.6162  0.0732 -0.0297
    3TMC2    H213908   3.442   4.447  14.301 -0.0586  2.2474  2.1140
    3TMC2    C713909   3.494   4.193  14.200 -0.0597 -0.1295 -0.0573
    3TMC2    C813910   3.444   4.536  14.529 -0.4064  0.1587 -0.2751
    3TMC2    O113911   3.551   4.086  14.181  0.2647 -0.4094  0.2884
    3TMC2    O213912   3.499   4.609  14.447  0.4265  0.2629  0.7174
    3TMC2    O513913   3.424   4.561  14.660 -0.3986  0.0873  0.2716
    3TMC2    H513914   3.352   4.504  14.695  0.8040 -0.5201  1.7112
    4TMC2    C113915   2.979   0.049  13.611 -0.7314  0.5158 -0.1413
    4TMC2    C213916   3.024   0.094  13.491 -0.5152  0.2073 -0.3914
    4TMC2    C313917   3.158   0.060  13.464  0.4541 -0.2894 -0.3208
    4TMC2    C413918   3.047   4.697  13.688 -0.8504 -0.1924  0.2344
    4TMC2    C513919   3.166   4.650  13.641 -0.7259  0.0721 -0.1178
    4TMC2    C613920   3.228   4.698  13.533  0.6338 -0.3021 -0.1804
    4TMC2     C13921   2.857   0.097  13.668 -0.0796 -0.4164  0.1080
    4TMC2     O13922   2.793   0.023  13.744  0.1097  0.0356 -0.5928
    4TMC2     H13923   2.965   0.151  13.420 -1.2539 -0.1085 -0.0297
    4TMC2    H113924   3.010   4.674  13.787 -3.5514 -1.1777 -1.0142
    4TMC2    H213925   3.330   4.668  13.509  0.5753 -0.5489 -0.1279
    4TMC2    C713926   3.236   4.575  13.731 -0.0482  0.1397  0.9406
    4TMC2    C813927   3.218   0.132  13.348 -0.0221 -0.6195 -0.2228
    4TMC2    O113928   3.229   4.611  13.848  0.1772 -0.1576 -0.3987
    4TMC2    O213929   3.171   0.124  13.235 -0.1139 -0.3678 -0.1129
    4TMC2    O513930   3.348   0.125  13.383  0.4805  0.4857  0.1776
    4TMC2    H513931   3.375   0.125  13.477  1.0753 -1.4262  0.0038
    5MPD2     C13932   2.489   0.472  13.665  0.2882  0.0175 -0.5967
    5MPD2    C113933   2.585   0.492  13.573  0.8061 -0.0031  0.6863
    5MPD2    C213934   2.701   0.416  13.566  0.1254  0.5003 -0.3934
    5MPD2    C313935   2.708   0.299  13.636  0.1260 -1.0680  0.0799
    5MPD2    C413936   2.611   0.271  13.731 -0.6039 -0.0381 -0.0405
    5MPD2    C513937   2.496   0.351  13.739 -1.1234 -0.5648  1.3252
    5MPD2     H13938   2.771   0.428  13.485  0.9913  0.3796  0.3365
    5MPD2    H113939   2.616   0.200  13.813  1.6735  0.1830  0.0085
    5MPD2    H213940   2.408   0.544  13.676 -0.5612 -1.1680  0.8987
    5MPD2    H313941   2.410   0.324  13.800 -1.4058 -0.6026  0.9134
    5MPD2     N13942   2.822   0.218  13.612  0.4454 -0.1301 -0.2607
    5MPD2    H513943   2.897   0.255  13.554  1.0819  0.1719  0.7620
    5MPD2    N113944   2.566   0.604  13.482 -0.0873 -0.7436  0.7204
    5MPD2    H713945   2.483   0.662  13.493 -0.0342 -0.2552 -1.3701
    6MPD1     C13946   0.998   1.086  13.021 -0.1883  0.1577 -0.3423
    6MPD1    C113947   1.083   1.086  13.130  0.6901 -0.1884 -0.2098
    6MPD1    C213948   1.218   1.101  13.109  0.4009 -0.4973 -0.0792
    6MPD1    C313949   1.268   1.101  12.978  0.4719  0.5403  0.4580
    6MPD1    C413950   1.184   1.088  12.870 -0.0470  0.3020  0.7214
    6MPD1    C513951   1.048   1.081  12.893  0.1027 -0.5349  0.2067
    6MPD1     H13952   1.284   1.096  13.195  1.1156 -1.3509 -0.6717
    6MPD1    H113953   1.226   1.098  12.771 -0.7350  2.2659  0.6336
    6MPD1    H213954   0.890   1.098  13.026  0.0426  1.1273  2.9677
    6MPD1    H313955   0.985   1.066  12.806  0.1604  1.6241 -0.2239
    6MPD1     N13956   1.402   1.139  12.950 -0.0636 -0.7328 -0.1915
    6MPD1    H513957   1.444   1.135  12.857  2.2115 -1.3419  0.8469
    6MPD1    N113958   1.021   1.104  13.251  0.7348  0.4258  0.1704
    6MPD1    H613959   1.074   1.085  13.336  0.1605 -0.1552  0.4066
    6MPD1    H713960   0.939   1.044  13.259 -1.2573  2.9726 -0.9173
    7MPD2     C13961   2.070   0.782  12.780 -0.7040 -0.1795 -0.1586
    7MPD2    C113962   2.094   0.887  12.863  0.4936  1.3403 -0.1742
    7MPD2    C213963   2.223   0.901  12.908  0.7501 -0.2033  0.4873
    7MPD2    C313964   2.319   0.807  12.882 -0.4755 -0.7123 -0.3689
    7MPD2    C413965   2.293   0.696  12.801 -0.0083 -0.1757 -0.8749
    7MPD2    C513966   2.165   0.688  12.750 -0.5623 -0.4830  0.6545
    7MPD2     H13967   2.246   0.989  12.967  0.0330  0.5803 -0.4040
    7MPD2    H113968   2.358   0.614  12.772 -0.8101 -1.1551  0.1250
    7MPD2    H213969   1.982   0.777  12.717 -1.8323  0.3640  1.3812
    7MPD2    H313970   2.142   0.606  12.683  0.5579 -1.0241  0.9288
    7MPD2     N13971   2.446   0.824  12.958 -0.0653 -0.2659  0.2565
    7MPD2    H513972   2.513   0.747  12.953 -0.5462 -0.4549 -3.1796
    7MPD2    N113973   1.995   0.981  12.904  0.0121  0.0396  0.3702
    7MPD2    H713974   2.026   1.063  12.955  0.3869  1.5421 -2.3118
    8TMC3    C113975   2.597   0.895  13.117 -0.3384  0.7683 -0.2939
    8TMC3    C213976   2.600   0.770  13.170 -0.2677  0.3931 -0.3168
    8TMC3    C313977   2.592   0.754  13.304 -0.4402 -0.1675  0.4737
    8TMC3    C413978   2.611   1.002  13.200 -0.7055  0.2559 -0.2995
    8TMC3    C513979   2.618   0.990  13.334 -0.0120 -0.1784  0.6812
    8TMC3    C613980   2.604   0.862  13.385 -0.4081  0.2230 -0.7557
    8TMC3     C13981   2.482   0.927  13.037 -0.3014  0.0748  0.4298
    8TMC3     O13982   2.429   1.030  13.066  0.3769  0.0698 -0.4110
    8TMC3     H13983   2.589   0.680  13.110  0.3028 -0.5727  1.0134
    8TMC3    H113984   2.641   1.101  13.165  0.5345  0.0899  0.3011
    8TMC3    H213985   2.596   0.840  13.491 -1.8065 -1.9584 -1.3078
    8TMC3    C713986   2.544   1.091  13.404  0.3807  0.3412 -0.1586
    8TMC3    C813987   2.629   0.632  13.362  1.0161 -0.1228  0.2802
    8TMC3    O113988   2.552   1.110  13.523  0.2184  0.2401  0.6003
    8TMC3    O213989   2.710   0.563  13.306 -0.2100 -0.7863 -0.1383
    9TMC3    C113990   1.615   1.218  12.992  0.3567  0.1873  0.4201
    9TMC3    C213991   1.690   1.311  13.066  0.6942 -0.2641  0.6477
    9TMC3    C313992   1.826   1.295  13.063  0.1632  0.3026 -0.1104
    9TMC3    C413993   1.674   1.117  12.920 -0.3201 -0.7491 -0.2259
    9TMC3    C513994   1.806   1.114  12.908  0.6300  0.8930  0.2031
    9TMC3    C613995   1.889   1.207  12.969  0.1229 -0.5626  0.0367
    9TMC3     C13996   1.482   1.199  13.038 -0.4596 -0.4071  0.0337
    9TMC3     O13997   1.450   1.257  13.137  0.0870  0.0874  0.1165
    9TMC3     H13998   1.650   1.381  13.138 -0.2611  1.6467 -1.7527
    9TMC3    H113999   1.619   1.027  12.894  0.0526 -0.9132 -0.4522
    9TMC3    H214000   1.992   1.220  12.938  0.4324  0.0462  1.3467
    9TMC3    C714001   1.863   0.984  12.863 -0.4389  0.9025 -0.1699
    9TMC3    C814002   1.905   1.350  13.171  0.4107  0.0311 -0.0624
    9TMC3    O114003   1.791   0.899  12.814  0.4389 -0.3200  0.0750
    9TMC3    O214004   1.838   1.433  13.240  0.1753  0.0001 -0.2966
   10MPD2     C14005   2.333   1.302  13.459 -0.4638  0.8644  0.2799
   10MPD2    C114006   2.342   1.224  13.348 -0.0249 -0.2004  0.4342
   10MPD2    C214007   2.236   1.227  13.253  0.0230 -0.5633 -0.7432
   10MPD2    C314008   2.129   1.305  13.274 -0.7751  0.3001 -0.4599
   10MPD2    C414009   2.112   1.374  13.391  0.2357 -0.1971  0.0833
   10MPD2    C514010   2.216   1.367  13.485 -0.0195 -0.6586  0.4009
   10MPD2     H14011   2.246   1.168  13.163 -0.0892  1.7958 -2.3095
   10MPD2    H114012   2.025   1.436  13.410  0.1400 -0.8313  1.6378
   10MPD2    H214013   2.410   1.309  13.535 -1.1450  0.0691  1.0253
   10MPD2    H314014   2.208   1.423  13.577  0.8165 -3.5419  2.2097
   10MPD2     N14015   2.026   1.285  13.181 -0.1028  0.1063 -0.3377
   10MPD2    H514016   2.047   1.212  13.114 -0.8957 -2.6045  2.3525
   10MPD2    N114017   2.453   1.146  13.314  0.0214  0.4948  0.1281
   10MPD2    H714018   2.445   1.104  13.222  3.9389  1.2789 -0.5755
   11MPD2     C14019   3.532   4.205  13.913 -0.5923 -0.0417 -0.6140
   11MPD2    C114020   3.432   4.276  13.968  0.1446  0.7830  0.2582
   11MPD2    C214021   3.354   4.353  13.885 -0.8592 -0.7508 -0.4072
   11MPD2    C314022   3.379   4.375  13.758  0.7248  0.9877 -0.2070
   11MPD2    C414023   3.481   4.301  13.696  0.9113  0.2065  0.5249
   11MPD2    C514024   3.551   4.214  13.778  1.0737 -0.1940 -0.2300
   11MPD2     H14025   3.266   4.401  13.927 -0.4196  0.1003 -0.4635
   11MPD2    H114026   3.507   4.305  13.590  0.1522  0.4097  0.3423
   11MPD2    H214027   3.589   4.132  13.970 -0.6340 -0.3134 -0.9133
   11MPD2    H314028   3.633   4.158  13.735  2.0642  0.9002  0.2342
   11MPD2     N14029   3.323   4.480  13.679  0.2470 -0.0436 -0.1384
   11MPD2    H514030   3.336   4.475  13.578  0.1224  0.7906 -0.1908
   11MPD2    N114031   3.416   4.272  14.113  0.0296  0.0141  0.5539
   11MPD2    H714032   3.354   4.347  14.140  1.0446  1.4578 -1.1354
    1MPD1     C14033   0.975   0.207  17.491  0.7169  0.4387  0.1470
    1MPD1    C114034   1.071   0.286  17.531 -1.1735 -1.0033 -0.9092
    1MPD1    C214035   1.145   0.358  17.439  0.1118  0.2240 -0.1982
    1MPD1    C314036   1.115   0.353  17.302 -0.7687  0.5618  0.0462
    1MPD1    C414037   1.019   0.265  17.267  0.2077 -0.6626  0.5241
    1MPD1    C514038   0.956   0.183  17.360  0.8174 -0.8623 -0.4833
    1MPD1     H14039   1.233   0.405  17.481  1.4742 -2.0625 -0.5586
    1MPD1    H114040   0.987   0.251  17.164 -1.4111  0.8897  0.8122
    1MPD1    H214041   0.923   0.138  17.557 -1.2552  2.2043  0.4112
    1MPD1    H314042   0.882   0.108  17.336  0.4878 -1.3609  2.1492
    1MPD1     N14043   1.190   0.423  17.197  0.0739  0.0495 -0.3460
    1MPD1    H514044   1.178   0.402  17.098 -1.4387 -0.7890  0.0123
    1MPD1    N114045   1.117   0.286  17.664 -0.4251 -0.0715  0.4384
    1MPD1    H614046   1.065   0.242  17.740  0.6792 -0.6150  0.8782
    1MPD1    H714047   1.155   0.374  17.697  0.8607  0.0450 -1.3715
    2MPD1     C14048   2.159   0.662  17.246  0.6751 -0.0622  0.1904
    2MPD1    C114049   2.047   0.685  17.326  0.2014  0.9372 -0.1872
    2MPD1    C214050   1.921   0.696  17.278  0.4783 -0.7106 -0.1081
    2MPD1    C314051   1.896   0.664  17.150 -0.0629 -0.2898  0.7163
    2MPD1    C414052   2.001   0.650  17.062 -0.4560  0.8246  0.1218
    2MPD1    C514053   2.135   0.651  17.111  0.8803  0.2673  0.2362
    2MPD1     H14054   1.832   0.726  17.333  2.1923  3.1766  0.5645
    2MPD1    H114055   1.986   0.640  16.955  0.1870 -1.0235  0.1989
    2MPD1    H214056   2.255   0.651  17.294  1.3305 -1.1636 -1.3860
    2MPD1    H314057   2.226   0.637  17.056  0.6597 -0.3070  0.0272
    2MPD1     N14058   1.758   0.662  17.119  0.2667  0.1874 -0.6144
    2MPD1    H514059   1.688   0.697  17.183  0.1569  1.1570 -1.2564
    2MPD1    N114060   2.063   0.714  17.465  0.1432  0.1629 -0.5216
    2MPD1    H614061   2.126   0.651  17.514  0.5041  2.3572  1.8763
    2MPD1    H714062   1.976   0.707  17.518 -0.4034 -1.3421 -1.6211
    3TMC3    C114063   1.553   0.626  17.009  0.1450  0.1665 -1.0675
    3TMC3    C214064   1.485   0.646  16.894 -0.4373  0.4569  0.1095
    3TMC3    C314065   1.348   0.621  16.888  0.2100 -0.1235 -0.1745
    3TMC3    C414066   1.493   0.568  17.118  0.0054 -0.9738 -0.5180
    3TMC3    C514067   1.360   0.548  17.107 -0.8001  0.0731  0.1917
    3TMC3    C614068   1.283   0.566  16.993 -0.0438 -0.0182  0.2052
    3TMC3     C14069   1.701   0.617  17.001 -0.4246 -0.6190  0.5644
    3TMC3     O14070   1.759   0.564  16.909 -0.1609  0.5113  0.3611
    3TMC3     H14071   1.540   0.671  16.804  2.3995 -1.3929  1.3514
    3TMC3    H114072   1.535   0.540  17.214 -0.5491  0.5669  0.1634
    3TMC3    H214073   1.176   0.551  16.980 -0.4394  1.1636  1.9866
    3TMC3    C714074   1.294   0.501  17.225  0.0223  0.4521  0.0053
    3TMC3    C814075   1.268   0.653  16.776  0.2290  0.1690 -0.3762
    3TMC3    O114076   1.346   0.531  17.329  0.7907  0.8757  0.2694
    3TMC3    O214077   1.155   0.607  16.766  0.6908  0.0691  0.5721
    4MPD1     C14078   1.177   0.964  16.372  0.7918 -0.1071 -0.2353
    4MPD1    C114079   1.271   1.023  16.452  0.6101 -0.6098  0.4078
    4MPD1    C214080   1.321   0.950  16.561 -0.7004  0.0168 -0.4643
    4MPD1    C314081   1.274   0.819  16.595 -0.1742 -0.3659 -0.3747
    4MPD1    C414082   1.166   0.772  16.524 -0.1540 -0.3941 -0.0608
    4MPD1    C514083   1.113   0.852  16.420 -0.5174 -0.1301 -0.0390
    4MPD1     H14084   1.412   0.969  16.616  0.3246 -2.4888 -1.2718
    4MPD1    H114085   1.122   0.674  16.542  0.1394 -0.4666  0.2623
    4MPD1    H214086   1.150   1.008  16.277  0.2046 -0.8028 -0.3964
    4MPD1    H314087   1.044   0.806  16.350 -0.2010 -1.5098  0.5735
    4MPD1     N14088   1.327   0.753  16.709 -0.0229  0.2300  0.0210
    4MPD1    H514089   1.411   0.797  16.744 -0.7250  1.1001  0.6108
    4MPD1    N114090   1.346   1.125  16.396 -0.2667  0.1221  0.5223
    4MPD1    H614091   1.285   1.186  16.343  2.0725  1.3998 -0.6799
    4MPD1    H714092   1.403   1.186  16.454  2.0453  0.5907 -2.2450
    1TCq1    O114093   2.647   0.648  12.859 -0.2722  0.0091  0.8183
    1TCq1    C114094   2.709   0.689  12.752 -0.2033  0.3322  0.2996
    1TCq1    O214095   2.783   0.786  12.751 -0.5062 -0.0390 -0.0727
    1TCq1    C214096   2.735   0.573  12.680 -0.0200 -0.6963  0.5498
    1TCq1    C314097   2.623   0.496  12.653 -0.0735  0.4318  0.3092
    1TCq1    C414098   2.636   0.396  12.570  0.0673  0.0344 -0.2133
    1TCq1    C514099   2.757   0.368  12.504 -0.3501 -0.2377  0.7239
    1TCq1    C614100   2.865   0.438  12.534 -0.1154 -0.0742  0.3926
    1TCq1    C714101   2.855   0.550  12.617  0.8047  0.5922  0.0032
    1TCq1    C814102   2.977   0.422  12.439  0.3892 -0.4537  0.4386
    1TCq1    O414103   2.948   0.363  12.337 -0.0946 -0.2024  0.5867
    1TCq1    C914104   2.516   0.339  12.505  0.2408  0.0353 -0.1059
    1TCq1    O514105   2.526   0.291  12.388  0.6409 -0.7609  0.4720
    1TCq1    O614106   2.408   0.373  12.559  0.1840  0.2268 -0.4486
    1TCq1    H114107   2.648   0.551  12.872  3.0269  0.3102  2.8594
    1TCq1    H214108   2.523   0.526  12.684 -0.1867  1.1780 -0.7643
    1TCq1    H314109   2.756   0.291  12.428 -0.5879  0.2802  0.1968
    1TCq1    H414110   2.941   0.612  12.638  1.1470  0.3478 -0.6921
    2MPD1     C14111   3.422   0.551  12.240  1.2482  0.1047  0.4182
    2MPD1    C114112   3.432   0.567  12.368 -0.6974 -0.2601 -0.7867
    2MPD1    C214113   3.321   0.543  12.446  0.1950  0.4123  0.8194
    2MPD1    C314114   3.202   0.500  12.395  0.5494  0.0401 -0.9118
    2MPD1    C414115   3.194   0.476  12.259  0.9606 -0.1857 -0.1943
    2MPD1    C514116   3.302   0.511  12.187  0.4234  0.2957  0.4351
    2MPD1     H14117   3.321   0.564  12.553 -0.2386  1.0711  0.6901
    2MPD1    H114118   3.100   0.448  12.213  0.7245  0.1056  0.1169
    2MPD1    H214119   3.501   0.580  12.171 -1.8485  0.4098 -2.9697
    2MPD1    H314120   3.307   0.477  12.084  0.0603  1.7926 -0.0827
    2MPD1     N14121   3.095   0.476  12.479  0.1289 -0.0888  0.3638
    2MPD1    H514122   3.118   0.512  12.571  0.1810  3.5559 -1.0727
    2MPD1    N114123   3.548   0.622  12.414 -0.7247 -0.0369  0.8871
    2MPD1    H614124   3.560   0.604  12.514  0.4280  0.7586  0.8934
    2MPD1    H714125   3.631   0.605  12.359 -1.2707  0.4097 -0.0680
    1TMC1    C114126   1.530   2.553   0.898  0.2092 -0.1680 -0.2464
    1TMC1    C214127   1.567   2.641   0.802  0.4480 -0.2106  0.1559
    1TMC1    C314128   1.621   2.584   0.687 -0.3455 -0.5079 -0.1355
    1TMC1    C414129   1.527   2.420   0.889  0.3689  0.6030  0.0586
    1TMC1    C514130   1.585   2.374   0.775 -0.5651  0.0253  0.1668
    1TMC1    C614131   1.630   2.447   0.675  0.0066 -0.1426  0.3260
    1TMC1     C14132   1.464   2.615   1.012  0.1064  0.1242 -0.1818
    1TMC1     O14133   1.394   2.714   0.984  0.6256  0.6940  0.1626
    1TMC1     H14134   1.562   2.748   0.820  1.0221  0.2237 -2.1936
    1TMC1    H114135   1.495   2.359   0.973  0.9945  2.2890  1.5267
    1TMC1    H214136   1.661   2.395   0.586  0.5731 -0.9919  1.0186
    1TMC1    C714137   1.605   2.230   0.770  0.1310  0.1616 -0.5662
    1TMC1    C814138   1.649   2.669   0.572  0.3981  0.6126  0.1165
    1TMC1    O114139   1.697   2.181   0.703 -0.0717 -0.1274  0.2432
    1TMC1    O214140   1.693   2.621   0.472  0.3951 -0.1780 -0.0232
    1TMC1    O314141   1.485   2.178   0.796  0.2951 -0.1362 -0.0026
    1TMC1    H314142   1.424   2.254   0.807  0.6763  0.4689 -2.0129
    1TMC1    O514143   1.614   2.797   0.583 -0.6539 -0.4690  0.2917
    1TMC1    H514144   1.539   2.819   0.642  0.4276  0.8236  1.1806
    2MPD1     C14145   1.263   2.592   1.482  0.0130 -0.6594  0.6899
    2MPD1    C114146   1.329   2.473   1.460 -0.0917 -0.5223 -0.5287
    2MPD1    C214147   1.396   2.458   1.340 -0.0311  0.1668 -0.4255
    2MPD1    C314148   1.401   2.559   1.249 -0.5453 -0.1147 -0.8258
    2MPD1    C414149   1.347   2.688   1.280  0.3673 -0.6143 -0.2004
    2MPD1    C514150   1.276   2.696   1.394  0.0206 -0.2404  0.5311
    2MPD1     H14151   1.445   2.365   1.317 -1.4568 -0.5191 -0.6808
    2MPD1    H114152   1.351   2.774   1.215 -3.8392  0.0804  0.4981
    2MPD1    H214153   1.204   2.608   1.571  2.3414 -0.5427  2.2260
    2MPD1    H314154   1.225   2.790   1.408 -0.0881 -0.0888 -0.9085
    2MPD1     N14155   1.466   2.534   1.126 -0.5529 -0.7990  0.2822
    2MPD1    H514156   1.506   2.442   1.110 -0.8319 -0.8302 -0.2469
    2MPD1    N114157   1.302   2.358   1.540  0.2197 -0.1054 -0.1324
    2MPD1    H614158   1.288   2.375   1.639 -0.1551  2.3666 -0.6026
    2MPD1    H714159   1.373   2.288   1.524  1.6325  1.2619  0.1807
    1MPD1     C14160   4.476   0.514  11.813 -0.5544  0.5621 -0.2512
    1MPD1    C114161   4.544   0.627  11.776 -0.1430 -0.0863 -0.3081
    1MPD1    C214162   4.492   0.753  11.792 -0.4892  0.3013 -0.6011
    1MPD1    C314163   4.360   0.779  11.827  0.0876  0.0644  0.0404
    1MPD1    C414164   4.291   0.663  11.857 -0.4660 -0.1156  0.2675
    1MPD1    C514165   4.344   0.534  11.853 -0.4594 -1.0094  0.8799
    1MPD1     H14166   4.556   0.841  11.786 -2.4728  1.7484 -0.3485
    1MPD1    H114167   4.185   0.664  11.879 -0.6144  2.1889 -0.5241
    1MPD1    H214168   4.523   0.417  11.805  1.4048  1.5316 -0.7137
    1MPD1    H314169   4.278   0.453  11.884  1.5809 -1.6986  3.4291
    1MPD1     N14170   4.302   0.910  11.833 -0.1303  0.1465  0.1276
    1MPD1    H514171   4.361   0.989  11.811  0.8910 -1.0601 -1.4846
    1MPD1    N114172   4.681   0.607  11.746  0.3103  0.2531 -0.0368
    1MPD1    H614173   4.721   0.684  11.693 -0.0118  0.7739  0.4757
    1MPD1    H714174   4.698   0.516  11.703 -0.9430 -0.7540  1.5668
    2MPD1     C14175   2.979   0.461  10.693 -1.2818 -0.4937  0.4141
    2MPD1    C114176   2.969   0.473  10.552 -0.9737  0.0008  0.1422
    2MPD1    C214177   3.021   0.582  10.488  0.8847  0.5926  0.3118
    2MPD1    C314178   3.101   0.675  10.557  0.3232  0.3159 -0.3992
    2MPD1    C414179   3.100   0.662  10.696 -0.7472  0.2448 -0.3064
    2MPD1    C514180   3.051   0.554  10.760  0.0527  0.2057 -0.7921
    2MPD1     H14181   3.016   0.581  10.380  2.3628  1.5961  0.2293
    2MPD1    H114182   3.154   0.734  10.756  1.8092 -0.6069 -1.5772
    2MPD1    H214183   2.929   0.382  10.749 -0.5795 -0.4017  1.1597
    2MPD1    H314184   3.082   0.533  10.862 -1.0508 -0.4676 -0.5999
    2MPD1     N14185   3.176   0.781  10.496  0.5446  0.3846 -0.3615
    2MPD1    H514186   3.248   0.824  10.553  2.0630 -2.4694 -0.1434
    2MPD1    N114187   2.886   0.378  10.488 -0.1589  0.1790 -0.1908
    2MPD1    H614188   2.864   0.299  10.548  0.8067 -1.2810 -1.7500
    2MPD1    H714189   2.928   0.333  10.407 -0.1254 -0.7629  0.3555
    3MPD1     C14190   3.500   0.917   9.541  0.1941  0.5419  0.4111
    3MPD1    C114191   3.371   0.902   9.577 -0.0439  0.4189 -0.2099
    3MPD1    C214192   3.342   0.907   9.716  0.2247  0.7107  0.5396
    3MPD1    C314193   3.433   0.964   9.805  0.1441 -0.0416 -0.5214
    3MPD1    C414194   3.558   0.981   9.761 -0.4008 -0.4950 -0.0099
    3MPD1    C514195   3.592   0.955   9.637  0.6651  0.2203  0.5537
    3MPD1     H14196   3.246   0.871   9.749 -0.1704  1.3117  0.0462
    3MPD1    H114197   3.637   1.008   9.829  0.2828 -0.9807 -0.6099
    3MPD1    H214198   3.530   0.914   9.437 -2.8538 -1.1192 -0.4008
    3MPD1    H314199   3.691   0.994   9.617  0.8030  0.0861  0.9775
    3MPD1     N14200   3.390   0.991   9.935  0.4114 -0.4246 -0.4449
    3MPD1    H514201   3.292   0.981   9.958 -0.0410  2.7810 -1.0129
    3MPD1    N114202   3.290   0.856   9.472  0.2388  0.0625  0.1934
    3MPD1    H614203   3.323   0.884   9.379  0.4740  1.0268  0.5640
    3MPD1    H714204   3.199   0.901   9.479 -0.2976 -0.9781 -0.2075
    4MPD2     C14205   3.594   1.218  11.846 -0.6916 -0.0115  0.1238
    4MPD2    C114206   3.704   1.289  11.806 -0.1999 -0.5037 -0.3451
    4MPD2    C214207   3.699   1.353  11.684  0.3128  0.0081 -0.2550
    4MPD2    C314208   3.583   1.362  11.608  0.2917 -0.1777 -0.8585
    4MPD2    C414209   3.471   1.297  11.654 -0.0287  0.1781 -0.2726
    4MPD2    C514210   3.484   1.215  11.767 -0.4697  0.7559 -0.7467
    4MPD2     H14211   3.785   1.403  11.641  0.3007 -0.8661 -1.3162
    4MPD2    H114212   3.380   1.294  11.596 -1.9244 -1.1381  2.8026
    4MPD2    H214213   3.587   1.166  11.941 -1.4862  1.6364  0.9696
    4MPD2    H314214   3.396   1.169  11.810 -0.6236  1.1811 -0.6121
    4MPD2     N14215   3.584   1.443  11.494  0.1876 -0.4142  0.5108
    4MPD2    H514216   3.669   1.492  11.468 -0.6753 -0.3098 -2.0998
    4MPD2    N114217   3.830   1.301  11.867 -0.2803  0.0385  0.1157
    4MPD2    H714218   3.901   1.360  11.825 -0.7634  1.0527  0.7336
    5TMC3    C114219   4.011   1.248  12.000 -0.5744  0.2618 -0.3314
    5TMC3    C214220   4.051   1.120  12.000 -0.5973 -0.2648  0.1830
    5TMC3    C314221   4.146   1.077  11.916 -0.0816  0.7887 -0.6876
    5TMC3    C414222   4.064   1.340  11.914 -0.3581 -0.2806 -0.1645
    5TMC3    C514223   4.154   1.302  11.821 -0.2144 -0.7340 -0.4002
    5TMC3    C614224   4.189   1.167  11.817  0.1794 -0.1111  0.3602
    5TMC3     C14225   3.869   1.248  11.985  0.6552  0.6430  1.4851
    5TMC3     O14226   3.807   1.185  12.068 -0.3034  0.5332  0.0599
    5TMC3     H14227   4.003   1.057  12.074  0.7871 -2.7109 -1.0097
    5TMC3    H114228   4.039   1.444  11.932 -1.5079 -0.8121  1.2974
    5TMC3    H214229   4.255   1.131  11.740  2.2208 -0.6898  2.3588
    5TMC3    C714230   4.126   1.366  11.694 -0.0916 -0.4790  0.1810
    5TMC3    C814231   4.180   0.933  11.900  0.3275  0.3492  0.3402
    5TMC3    O114232   4.031   1.441  11.694 -0.1935 -0.0595  0.2586
    5TMC3    O214233   4.110   0.859  11.964 -0.4820  0.3660 -0.2128
    6TMC3    C114234   3.263   0.923  10.332 -0.1721 -0.2541 -0.0839
    6TMC3    C214235   3.296   0.939  10.201  0.1754 -0.9975  0.4836
    6TMC3    C314236   3.396   1.026  10.173  0.3229  0.5633 -0.4862
    6TMC3    C414237   3.326   0.996  10.424 -0.2041 -0.1104  0.6470
    6TMC3    C514238   3.405   1.102  10.387  0.8449  0.2995  0.2504
    6TMC3    C614239   3.450   1.118  10.254  0.0827 -0.4756 -0.6853
    6TMC3     C14240   3.170   0.818  10.363  0.5165 -0.6825  0.1249
    6TMC3     O14241   3.113   0.759  10.274 -0.3258  0.2477 -0.3623
    6TMC3     H14242   3.242   0.878  10.129 -1.9243  0.7596  0.5706
    6TMC3    H114243   3.284   1.001  10.523  0.9342 -0.7529  1.1630
    6TMC3    H214244   3.523   1.194  10.230  0.4259 -0.5067  0.2709
    6TMC3    C714245   3.449   1.195  10.495  0.7602  0.3354 -0.7501
    6TMC3    C814246   3.462   1.027  10.043 -0.4060  0.2596  0.5108
    6TMC3    O114247   3.404   1.174  10.605  0.1882  0.4629 -0.1047
    6TMC3    O214248   3.580   1.056  10.053  0.1572 -0.0743 -0.5180
    7MPD2     C14249   4.218   1.468  11.198  0.3650 -0.1833  0.1851
    7MPD2    C114250   4.106   1.495  11.280 -1.1050 -0.0692 -0.0845
    7MPD2    C214251   4.107   1.458  11.411 -0.2977 -0.0259  0.2348
    7MPD2    C314252   4.220   1.402  11.473 -0.4610  0.6023 -0.3048
    7MPD2    C414253   4.327   1.377  11.387  0.0502 -0.5490 -0.5493
    7MPD2    C514254   4.324   1.412  11.259  0.1288  0.1107 -0.8552
    7MPD2     H14255   4.018   1.454  11.474  0.4195  0.8039  1.3163
    7MPD2    H114256   4.408   1.316  11.425 -0.5314 -0.8811  0.1386
    7MPD2    H214257   4.224   1.492  11.092  0.8819 -0.4895  0.1458
    7MPD2    H314258   4.407   1.375  11.199  1.0730  2.0787 -0.7647
    7MPD2     N14259   4.218   1.339  11.599 -0.6509  0.3868  0.3064
    7MPD2    H514260   4.311   1.309  11.627 -0.3221  1.5678  0.4723
    7MPD2    N114261   3.984   1.544  11.231  0.3015  0.6126  0.0733
    7MPD2    H714262   3.969   1.555  11.132  2.7851  0.9311 -0.2692
    8TMC3    C114263   3.760   1.607  11.246  0.1622  0.1264  0.0264
    8TMC3    C214264   3.731   1.561  11.118  0.5083 -0.4527  0.2802
    8TMC3    C314265   3.598   1.525  11.089 -0.0145 -0.4028  0.2927
    8TMC3    C414266   3.648   1.622  11.333  0.4498  0.0488 -0.0359
    8TMC3    C514267   3.530   1.564  11.306  0.2473 -0.1194  0.1944
    8TMC3    C614268   3.501   1.516  11.181  1.0787  0.8201 -0.5431
    8TMC3     C14269   3.885   1.590  11.310  0.2570  0.7516  0.1155
    8TMC3     O14270   3.869   1.597  11.434  0.0290  0.1553 -0.5525
    8TMC3     H14271   3.808   1.565  11.042  2.3349 -0.0148  2.1733
    8TMC3    H114272   3.673   1.660  11.431 -1.5630 -0.5388  0.6998
    8TMC3    H214273   3.413   1.458  11.157  1.5060  0.3193 -0.9034
    8TMC3    C714274   3.479   1.475  11.411  0.0791  0.5701 -0.1311
    8TMC3    C814275   3.558   1.491  10.956  0.3246 -0.7979  0.4935
    8TMC3    O114276   3.362   1.432  11.401  0.3798  0.2058 -0.2465
    8TMC3    O214277   3.455   1.428  10.932 -0.7739  0.1202  0.5872
    9MPD2     C14278   3.741   1.586  10.649  0.5788  0.0653 -0.9391
    9MPD2    C114279   3.651   1.510  10.722 -0.2575  0.5364  0.7577
    9MPD2    C214280   3.567   1.418  10.659  0.1833  0.2609 -0.0605
    9MPD2    C314281   3.588   1.392  10.523  0.5975  0.0159  0.1720
    9MPD2    C414282   3.664   1.475  10.446 -0.6310  0.8487  0.0161
    9MPD2    C514283   3.740   1.570  10.515  0.3411 -0.8343 -0.0337
    9MPD2     H14284   3.499   1.354  10.715  0.9206  0.1788  0.7452
    9MPD2    H114285   3.698   1.445  10.348 -1.3549 -0.2064  0.0908
    9MPD2    H214286   3.798   1.665  10.696 -0.8085  0.2576  0.4047
    9MPD2    H314287   3.821   1.618  10.460  0.7306 -0.7330  0.6330
    9MPD2     N14288   3.532   1.285  10.452  0.3684  0.6768 -0.2140
    9MPD2    H514289   3.572   1.282  10.359 -0.0185  0.5087 -0.3721
    9MPD2    N114290   3.642   1.539  10.861 -0.1476  0.0471 -0.3056
    9MPD2    H714291   3.717   1.598  10.897 -0.1700 -0.1253  0.0194
    1MPD1     C14292   3.850   0.270  15.861  0.5484 -0.5805 -0.7630
    1MPD1    C114293   3.859   0.388  15.934 -0.2724 -0.2678 -0.2039
    1MPD1    C214294   3.827   0.380  16.070 -0.0928 -0.8096 -0.4077
    1MPD1    C314295   3.798   0.261  16.137  0.7008  0.4808 -0.2384
    1MPD1    C414296   3.798   0.150  16.054 -0.2962 -0.0983 -0.0550
    1MPD1    C514297   3.823   0.157  15.926 -0.5449  0.3448 -0.4537
    1MPD1     H14298   3.845   0.467  16.131  1.9039 -2.0645  0.7841
    1MPD1    H114299   3.761   0.056  16.092 -1.7544  0.1089 -0.9520
    1MPD1    H214300   3.867   0.275  15.754  1.6454  1.2380 -0.5003
    1MPD1    H314301   3.832   0.061  15.875  1.7758  0.7737 -0.8298
    1MPD1     N14302   3.758   0.250  16.271  0.4071  0.0439  0.6905
    1MPD1    H514303   3.741   0.156  16.304 -0.7373  0.6457  1.8391
    1MPD1    N114304   3.874   0.506  15.864 -0.0961 -0.0339  0.7149
    1MPD1    H614305   3.896   0.585  15.925  1.0559  1.3761 -1.5385
    1MPD1    H714306   3.945   0.497  15.792 -1.2395 -2.7956 -0.0597
    2TMC2    C114307   3.501   0.287  16.622  0.1119  0.0607  0.3002
    2TMC2    C214308   3.542   0.161  16.666 -0.6471 -0.4913 -1.6553
    2TMC2    C314309   3.664   0.125  16.625 -0.3557  0.0986  0.3906
    2TMC2    C414310   3.579   0.371  16.536 -0.5836  0.8728 -0.1477
    2TMC2    C514311   3.694   0.322  16.490  0.0133  0.0199  0.2545
    2TMC2    C614312   3.738   0.201  16.538  0.1863 -0.1790  0.0001
    2TMC2     C14313   3.388   0.344  16.689  0.5560  0.3291 -0.3808
    2TMC2     O14314   3.341   0.272  16.775 -0.4858 -0.2883 -0.5641
    2TMC2     H14315   3.491   0.095  16.735 -2.5588  4.2483  1.4265
    2TMC2    H114316   3.553   0.465  16.488  1.4139  1.5766  0.1330
    2TMC2    H214317   3.834   0.164  16.503  0.7229  0.6762  0.5757
    2TMC2    C714318   3.717   0.355  16.354  0.7354  0.3077  0.1184
    2TMC2    C814319   3.692   4.715  16.638 -0.3336  0.1222  0.1092
    2TMC2    O114320   3.695   0.477  16.327 -0.7971  0.4351  0.1668
    2TMC2    O214321   3.601   4.639  16.668  0.5652  0.0487 -1.1022
    2TMC2    O514322   3.818   4.702  16.676  0.1665 -0.1872 -0.0831
    2TMC2    H514323   3.867   0.051  16.674  1.2040 -0.7708  0.4115
    3MPD1     C14324   3.051   0.707  16.822 -0.0711 -0.4888 -0.5122
    3MPD1    C114325   3.158   0.764  16.757 -0.9388 -0.2510 -0.4403
    3MPD1    C214326   3.261   0.691  16.697 -0.9157 -0.0753  0.0452
    3MPD1    C314327   3.252   0.553  16.712  0.3798 -0.2706  0.2599
    3MPD1    C414328   3.140   0.501  16.769  0.1363 -0.4953 -0.7608
    3MPD1    C514329   3.045   0.573  16.831  0.3943  0.5075 -0.0158
    3MPD1     H14330   3.348   0.735  16.650 -1.5060 -2.5658 -3.4575
    3MPD1    H114331   3.129   0.393  16.770 -3.2984 -0.1492  1.5792
    3MPD1    H214332   2.976   0.761  16.880  1.4527 -1.3913  2.3069
    3MPD1    H314333   2.968   0.529  16.892  1.8501 -2.1236 -0.1020
    3MPD1     N14334   3.358   0.474  16.656  0.3291  0.5603  0.1533
    3MPD1    H514335   3.424   0.517  16.593 -0.8717 -0.9641 -2.1387
    3MPD1    N114336   3.151   0.906  16.740  0.3515  0.0922 -0.0709
    3MPD1    H614337   3.101   0.950  16.817 -1.5511 -2.8387  0.3684
    3MPD1    H714338   3.244   0.948  16.746  0.2647  0.2457  0.1836
    1TMC1    C114339   1.809   3.721  13.657  0.6959 -0.1193  0.6184
    1TMC1    C214340   1.875   3.603  13.663  0.1086  0.3307 -0.1981
    1TMC1    C314341   1.789   3.500  13.643 -0.5788 -0.6902  0.2198
    1TMC1    C414342   1.674   3.733  13.621 -0.2389  0.0582  0.5068
    1TMC1    C514343   1.594   3.625  13.613 -0.0236  0.2893  0.3636
    1TMC1    C614344   1.645   3.497  13.626 -0.4793  0.3806  0.3940
    1TMC1     C14345   1.883   3.848  13.681 -0.1499  0.6145  0.2615
    1TMC1     O14346   1.829   3.948  13.639 -0.2477 -0.1293  0.8454
    1TMC1     H14347   1.982   3.586  13.672  0.0839 -1.0005 -2.4670
    1TMC1    H114348   1.626   3.830  13.623  0.7280  0.5734 -1.4440
    1TMC1    H214349   1.585   3.407  13.620 -0.5908  0.4870 -0.0589
    1TMC1    C714350   1.473   3.650  13.530  0.3498  0.1760 -0.2501
    1TMC1    C814351   1.834   3.372  13.708 -0.4073  0.4731 -0.5364
    1TMC1    O114352   1.419   3.760  13.513 -0.4196  0.4074 -0.3043
    1TMC1    O214353   1.777   3.272  13.660 -0.7549  0.1520 -0.3759
    1TMC1    O314354   1.444   3.541  13.454  0.7713 -0.2589  0.2233
    1TMC1    H314355   1.518   3.476  13.456  2.0352  1.1748  0.4192
    1TMC1    O514356   1.862   3.399  13.839  0.6502 -0.3221  0.0740
    1TMC1    H514357   1.889   3.493  13.851  1.3646 -0.6060  0.6900
    2MPD2     C14358   2.101   4.046  13.704 -0.1797  0.6187 -0.2813
    2MPD2    C114359   2.083   3.938  13.794  0.8976 -0.6818  0.0162
    2MPD2    C214360   2.175   3.926  13.899  0.1532 -0.1434  0.4687
    2MPD2    C314361   2.289   4.004  13.903 -0.7898 -0.3533  0.9367
    2MPD2    C414362   2.298   4.115  13.814  0.1593  0.4293 -0.0177
    2MPD2    C514363   2.200   4.137  13.722 -0.3447  0.0120 -0.3136
    2MPD2     H14364   2.169   3.840  13.965 -0.2040  1.4037  2.4328
    2MPD2    H114365   2.373   4.194  13.820 -0.2870  0.7892  0.8202
    2MPD2    H214366   2.036   4.058  13.619 -1.2515 -1.6488  0.2143
    2MPD2    H314367   2.208   4.221  13.654  1.5324 -1.8778 -2.3983
    2MPD2     N14368   2.386   3.983  14.001 -0.0751  0.2258  0.3063
    2MPD2    H514369   2.379   3.903  14.062  1.5695  0.8784  1.3715
    2MPD2    N114370   1.988   3.836  13.771 -0.3949  0.4575  0.2343
    2MPD2    H714371   1.992   3.755  13.833 -0.2080 -1.3155 -2.0709
    3TCq1    O114372   2.694   4.176  14.432 -0.9198  0.3442  0.0287
    3TCq1    C114373   2.801   4.103  14.385 -0.4344 -0.4851 -0.2397
    3TCq1    O214374   2.914   4.139  14.413 -0.5726  0.3759  0.0150
    3TCq1    C214375   2.768   4.035  14.265  0.0931 -0.6885  0.5987
    3TCq1    C314376   2.816   3.916  14.244  0.1550  0.2604 -0.3268
    3TCq1    C414377   2.745   3.835  14.156  0.1799 -0.0093  0.6260
    3TCq1    C514378   2.633   3.879  14.086  0.0250 -0.7407  0.4485
    3TCq1    C614379   2.598   4.012  14.114  0.1587  0.1536 -0.8621
    3TCq1    C714380   2.663   4.089  14.197  0.3308 -0.6510 -0.1740
    3TCq1    C814381   2.490   4.072  14.031 -0.0943  0.2280 -0.4478
    3TCq1    O414382   2.523   4.175  13.976  0.3067  0.3007  0.3813
    3TCq1    C914383   2.776   3.694  14.141  0.0802  0.9835  0.5177
    3TCq1    O514384   2.696   3.625  14.072  0.9911 -0.1670 -0.0780
    3TCq1    O614385   2.868   3.648  14.207  0.0591  0.1269 -0.0196
    3TCq1    H114386   2.615   4.132  14.394 -0.3729 -0.7980  0.2319
    3TCq1    H214387   2.901   3.871  14.295 -0.1652 -0.9829 -0.8756
    3TCq1    H314388   2.569   3.812  14.030 -0.0297 -0.6733  0.4300
    3TCq1    H414389   2.636   4.193  14.212  2.8825  0.0716 -0.5111
    1MPD2     C14390   1.616   4.619  15.024  1.1241 -0.4404  0.5375
    1MPD2    C114391   1.532   4.544  14.938  0.2572 -0.2715  0.7490
    1MPD2    C214392   1.565   4.409  14.913  0.3016 -0.5593 -0.3807
    1MPD2    C314393   1.671   4.340  14.973 -0.6265 -0.2346  0.3974
    1MPD2    C414394   1.761   4.424  15.048 -0.9739 -0.0736  0.1819
    1MPD2    C514395   1.734   4.552  15.068 -0.2582 -0.1213  0.4675
    1MPD2     H14396   1.498   4.356  14.846 -0.4641  1.0372 -0.8768
    1MPD2    H114397   1.849   4.372  15.083  0.2258  0.3885 -2.1659
    1MPD2    H214398   1.600   4.718  15.065  0.1882 -0.6695  0.7301
    1MPD2    H314399   1.807   4.596  15.135  3.5294  0.4366 -4.0785
    1MPD2     N14400   1.697   4.201  14.951  0.0075 -0.3536 -0.1720
    1MPD2    H514401   1.790   4.164  14.969 -0.5400 -0.4791  2.4906
    1MPD2    N114402   1.418   4.610  14.885  0.4226 -0.0847  0.0538
    1MPD2    H714403   1.378   4.689  14.935 -0.8952 -0.3307 -0.6140
    2TMC3    C114404   1.204   4.623  14.779 -0.3687  0.5487  0.7328
    2TMC3    C214405   1.110   4.529  14.815 -0.2889  0.5656 -0.8646
    2TMC3    C314406   0.990   4.533  14.752  0.0659 -0.2830 -0.3196
    2TMC3    C414407   1.177   4.720  14.686  0.8165 -0.0560 -0.1424
    2TMC3    C514408   1.048   4.725  14.633  0.1619  0.1594 -0.5853
    2TMC3    C614409   0.956   4.624  14.657 -1.1757 -0.4138 -0.5559
    2TMC3     C14410   1.338   4.564  14.780  0.6944 -0.2804 -0.4416
    2TMC3     O14411   1.359   4.479  14.693  0.4055  0.3555 -1.3151
    2TMC3     H14412   1.129   4.450  14.886  1.7587  0.4978 -1.4839
    2TMC3    H114413   1.261   0.050  14.666  0.5588  0.1933 -0.4190
    2TMC3    H214414   0.861   4.619  14.605 -2.4490  0.7092  1.6349
    2TMC3    C714415   0.998   0.098  14.553  0.7055 -0.2939  0.1042
    2TMC3    C814416   0.936   4.401  14.716  0.5016 -0.3787 -0.1151
    2TMC3    O114417   0.881   0.105  14.553 -0.1167  0.4895  0.0540
    2TMC3    O214418   0.822   4.396  14.676  0.4622 -0.6110  0.2158
    3TCq1    O114419   1.486   1.154  14.120  0.2169  0.6143  0.0693
    3TCq1    C114420   1.490   1.162  14.253  0.0394 -0.0265 -0.0843
    3TCq1    O214421   1.539   1.261  14.306  0.1452 -0.3061 -0.0010
    3TCq1    C214422   1.479   1.034  14.314 -0.5354 -0.6617 -0.1031
    3TCq1    C314423   1.553   1.022  14.429  0.9827  0.1130 -0.6237
    3TCq1    C414424   1.526   0.918  14.515  0.4952 -0.2543 -0.1720
    3TCq1    C514425   1.426   0.829  14.486  0.1970 -0.7812 -0.6913
    3TCq1    C614426   1.349   0.850  14.378  0.1966 -0.2449  0.3153
    3TCq1    C714427   1.373   0.950  14.287 -0.3096  0.6981  0.8439
    3TCq1    C814428   1.244   0.761  14.335  0.3502  0.5456 -0.3123
    3TCq1    O414429   1.169   0.802  14.246  0.2107 -0.3209  0.1235
    3TCq1    C914430   1.612   0.902  14.629 -0.1218  0.3268 -0.0591
    3TCq1    O514431   1.672   1.006  14.673 -0.6505  0.5920  0.7851
    3TCq1    O614432   1.595   0.796  14.695 -0.6004  0.0495  0.0856
    3TCq1    H114433   1.463   1.059  14.109  0.0366  0.5095  1.3417
    3TCq1    H214434   1.631   1.092  14.457 -0.2180  0.5545  1.6908
    3TCq1    H314435   1.412   0.746  14.554 -1.0218  0.0831  0.1020
    3TCq1    H414436   1.312   0.966  14.199  0.9025 -1.5551 -0.4131
    4MPD2     C14437   1.034   0.562  14.314 -0.1534  0.4995  0.1811
    4MPD2    C114438   1.148   0.543  14.386  0.0373  0.3114 -0.1612
    4MPD2    C214439   1.168   0.418  14.451  0.3833  0.0297 -0.7694
    4MPD2    C314440   1.067   0.322  14.459  0.2097 -1.1103 -0.2276
    4MPD2    C414441   0.949   0.347  14.400  0.2984 -0.3261  0.7324
    4MPD2    C514442   0.943   0.458  14.320  0.2834 -0.7644  0.0632
    4MPD2     H14443   1.270   0.399  14.480 -0.0814  1.6794  1.8807
    4MPD2    H114444   0.864   0.280  14.407  0.2781 -0.4500 -0.8846
    4MPD2    H214445   1.012   0.658  14.270  2.3755  0.9991  0.0354
    4MPD2    H314446   0.851   0.481  14.268  0.9001  0.5853 -0.4266
    4MPD2     N14447   1.091   0.195  14.523  0.2592 -0.0946 -0.0534
    4MPD2    H514448   1.185   0.174  14.555  0.0139 -0.8666  0.1751
    4MPD2    N114449   1.248   0.638  14.394 -0.0512 -0.9017  0.0336
    4MPD2    H714450   1.319   0.615  14.463  0.1910 -0.4292 -0.0536
    5TMC2    C114451   1.501   3.800  14.812  0.0557  0.1891  0.0472
    5TMC2    C214452   1.544   3.731  14.921 -0.2627 -0.8934  0.8365
    5TMC2    C314453   1.644   3.780  15.003  0.2371  0.5875 -0.4157
    5TMC2    C414454   1.561   3.923  14.785  1.2210  0.7749  0.7223
    5TMC2    C514455   1.640   3.975  14.887  0.3725  0.4320  1.0822
    5TMC2    C614456   1.691   3.905  14.990 -0.1910 -0.9183  0.3243
    5TMC2     C14457   1.360   3.800  14.781  0.4065 -0.3894 -0.3986
    5TMC2     O14458   1.298   3.696  14.792 -0.9422  0.6102  0.3851
    5TMC2     H14459   1.493   3.638  14.942  0.0219 -1.9115 -2.9794
    5TMC2    H114460   1.536   3.989  14.703  0.1946  0.9710  1.2025
    5TMC2    H214461   1.756   3.946  15.067 -1.2185  0.5017  0.4339
    5TMC2    C714462   1.601   4.116  14.896  0.1989  0.1712  0.1797
    5TMC2    C814463   1.685   3.713  15.127  0.1473 -0.5345 -0.5454
    5TMC2    O114464   1.493   4.139  14.841  0.2713  0.1534  0.5928
    5TMC2    O214465   1.724   3.769  15.230 -0.3204 -0.6780  0.2227
    5TMC2    O514466   1.640   3.591  15.123 -0.2083 -0.3493  0.1616
    5TMC2    H514467   1.616   3.554  15.035 -1.2134  1.1848 -0.2054
    6MPD2     C14468   0.938   4.099  14.675  0.2208  0.1662  0.3536
    6MPD2    C114469   1.044   4.174  14.712 -0.4372  0.4876 -0.6451
    6MPD2    C214470   1.161   4.113  14.744 -0.5034 -0.3461 -0.0373
    6MPD2    C314471   1.179   3.977  14.737 -0.7257 -0.1028  0.0632
    6MPD2    C414472   1.070   3.897  14.699 -0.4466 -0.2605  0.0195
    6MPD2    C514473   0.949   3.961  14.672  0.4320 -0.1753 -0.3663
    6MPD2     H14474   1.245   4.179  14.763  0.5324 -1.4359 -0.8107
    6MPD2    H114475   1.073   3.788  14.699 -1.1298 -0.2827 -0.8513
    6MPD2    H214476   0.846   4.149  14.648  0.7322  0.8892 -0.0713
    6MPD2    H314477   0.869   3.895  14.641 -2.1202  3.0528 -0.5034
    6MPD2     N14478   1.314   3.935  14.765 -0.1325  0.0848 -0.0782
    6MPD2    H514479   1.386   4.005  14.779  0.3176 -0.0652 -1.7293
    6MPD2    N114480   1.042   4.311  14.717  0.7247  0.2554 -0.1558
    6MPD2    H714481   1.134   4.353  14.731  0.2718  1.3019 -0.3091
  945NH3     N114482   3.405   3.336   9.949 -0.4878  0.0285 -0.0605
  945NH3     H214483   3.419   3.437   9.950  2.2608 -0.3531 -1.9705
  945NH3     H314484   3.318   3.331   9.897 -0.2558  2.4899 -0.6874
  945NH3     H414485   3.392   3.310  10.046  0.7693  1.6108  0.5421
  946SOD     NA14486   3.409   0.315  13.775 -0.3990 -0.8118  0.1929
  947SOD     NA14487   1.925   1.603  13.733  0.4173 -0.0556 -0.3569
  948SOD     NA14488   2.819   1.041   3.065  0.0801  0.3643 -0.3419
  949SOD     NA14489   2.540   0.107  12.289  0.0546 -0.0120  0.5848
  950SOD     NA14490   2.196   0.065  12.266  0.5117 -0.2840 -0.1556
  951SOD     NA14491   3.140   3.417   5.648  0.6814  0.3351 -0.0150
  952SOD     NA14492   2.325   1.307  15.225 -0.4457  0.2783 -0.3411
  953SOD     NA14493   2.991   2.216  16.776  0.5990  0.4430 -0.3202
  954SOL     OW14494   1.221   2.203  16.581  0.6414  0.1465  0.2855
  954SOL    HW114495   1.190   2.290  16.555  0.8777  0.6913  1.7750
  954SOL    HW214496   1.151   2.169  16.637 -0.0025  0.4979 -0.3014
  955SOL     OW14497   2.626   3.402  14.171 -0.5846 -0.3738  0.1468
  955SOL    HW114498   2.579   3.442  14.244 -0.5097  1.2249 -0.6764
  955SOL    HW214499   2.660   3.481  14.129 -0.5675 -0.0961  0.6717
  956SOL     OW14500   2.977   1.670  10.065  0.2205  0.4043 -0.1902
  956SOL    HW114501   2.930   1.749  10.038  0.5488  0.9343  0.7702
  956SOL    HW214502   2.976   1.659  10.160 -3.0664  0.3599 -0.2488
  957SOL     OW14503   1.430   1.673   8.550  1.3034  0.1171 -0.4180
  957SOL    HW114504   1.450   1.757   8.590  2.6697  0.1256 -1.1317
  957SOL    HW214505   1.352   1.693   8.497  1.7237 -0.8954 -1.4303
  958SOL     OW14506   0.823   2.334  10.253 -0.0785 -0.3328  0.0431
  958SOL    HW114507   0.781   2.371  10.331  0.3757 -1.0114  0.6024
  958SOL    HW214508   0.813   2.406  10.190  1.3657  1.1592  1.5285
  959SOL     OW14509   2.429   3.872   5.407  0.5122 -0.1169 -0.0627
  959SOL    HW114510   2.355   3.812   5.399  0.0755  0.5439 -0.8818
  959SOL    HW214511   2.498   3.813   5.375  1.3901 -0.0707  1.7265
  960SOL     OW14512   2.718   3.059   2.818 -0.6002 -0.3637  0.2649
  960SOL    HW114513   2.738   2.967   2.804 -2.3778 -0.6119 -0.6794
  960SOL    HW214514   2.788   3.086   2.876 -0.4213 -1.0979  0.3902
  961SOL     OW14515   3.249   1.356   8.128  0.1211  0.7109  0.1461
  961SOL    HW114516   3.202   1.410   8.191 -0.9439 -0.3496  0.2542
  961SOL    HW214517   3.182   1.288   8.121  1.2712 -0.5877  1.4456
  962SOL     OW14518   4.702   3.092   3.830  0.6713 -0.2071  0.1830
  962SOL    HW114519   4.675   3.083   3.921 -0.4528 -1.0759 -0.2398
  962SOL    HW214520   4.633   3.154   3.806 -0.0941 -0.5521  1.4559
  963SOL     OW14521   4.196   2.037   2.296  0.3029  0.3080 -0.1763
  963SOL    HW114522   4.226   1.952   2.266 -0.0874  0.6256 -1.4657
  963SOL    HW214523   4.148   2.067   2.219 -0.6267 -0.2402  0.1787
  964SOL     OW14524   4.343   4.318   2.897 -0.4067  0.4478 -0.2968
  964SOL    HW114525   4.422   4.340   2.947 -0.0145 -1.7389  0.0785
  964SOL    HW214526   4.289   4.286   2.969  0.0007  0.7420  0.1406
  965SOL     OW14527   3.044   2.968   7.342 -0.1205 -0.5152  0.0097
  965SOL    HW114528   2.973   2.921   7.297  0.1666 -0.6243 -0.3278
  965SOL    HW214529   3.122   2.927   7.304  0.0873  0.0566 -0.1806
  966SOL     OW14530   4.342   4.659  16.881 -0.2889  0.2548  0.2550
  966SOL    HW114531   4.277   4.652  16.951  0.7846  0.7690  1.3030
  966SOL    HW214532   4.404   4.720  16.920 -1.3563  0.0394  2.2613
  967SOL     OW14533   2.614   3.591  12.046  0.2712  0.5009  0.1608
  967SOL    HW114534   2.699   3.575  12.005 -0.4210  1.5635 -1.7223
  967SOL    HW214535   2.626   3.554  12.133 -1.7874 -0.8177 -0.1218
  968SOL     OW14536   1.940   2.576   4.212  0.3483  0.5620  0.6845
  968SOL    HW114537   1.914   2.519   4.139  1.3287 -2.1862  2.4906
  968SOL    HW214538   1.856   2.609   4.245  0.2053 -0.1951  1.0746
  969SOL     OW14539   0.459   1.681   1.721  0.0315 -0.0167  0.2730
  969SOL    HW114540   0.417   1.628   1.652 -2.6480  0.2196  1.6990
  969SOL    HW214541   0.439   1.770   1.690  0.8587 -0.2015 -0.7698
  970SOL     OW14542   2.962   1.470   3.219  0.4397  0.3927 -0.0241
  970SOL    HW114543   3.033   1.526   3.187 -0.6638  0.1280 -2.9147
  970SOL    HW214544   2.998   1.451   3.306  0.3101  1.0964  0.1881
  971SOL     OW14545   4.657   0.120   7.498 -0.2718  0.0789 -0.0150
  971SOL    HW114546   4.584   0.172   7.464 -0.9719 -2.2550 -2.0337
  971SOL    HW214547   4.615   0.047   7.544  0.5142 -0.4597 -0.1464
  972SOL     OW14548   1.300   1.594   4.373 -0.0874  0.2243 -0.8790
  972SOL    HW114549   1.250   1.518   4.346  1.2863 -1.9797  2.6977
  972SOL    HW214550   1.233   1.662   4.365  0.0712  0.1855 -2.3969
  973SOL     OW14551   0.943   2.835   9.296  0.1918 -0.5497 -0.5550
  973SOL    HW114552   0.881   2.763   9.308  0.7255 -0.9514 -0.2094
  973SOL    HW214553   1.025   2.787   9.281  0.9054  0.6601 -0.5356
  974SOL     OW14554   1.173   1.728   3.548 -0.3079  0.4313 -0.1132
  974SOL    HW114555   1.124   1.761   3.472  2.2510  0.4529 -1.7574
  974SOL    HW214556   1.242   1.679   3.505 -0.5302 -0.4130  0.5017
  975SOL     OW14557   1.464   3.252   9.184 -0.0095 -0.2940 -0.2457
  975SOL    HW114558   1.549   3.289   9.162  1.1649 -1.7108  1.9549
  975SOL    HW214559   1.419   3.325   9.227 -2.5759 -1.1128 -1.5073
  976SOL     OW14560   1.701   2.113   7.766  0.1832  0.3811 -0.1631
  976SOL    HW114561   1.670   2.045   7.706  0.5353 -1.9188  2.2680
  976SOL    HW214562   1.685   2.193   7.717 -2.4396  1.8454  3.1339
  977SOL     OW14563   4.263   4.458  16.739  0.2043  0.4026  0.3596
  977SOL    HW114564   4.285   4.538  16.785  1.5943  0.8038 -1.0297
  977SOL    HW214565   4.217   4.413  16.810  0.1555 -0.6973 -0.3597
  978SOL     OW14566   0.874   1.008  16.932 -0.2848 -0.1190  0.3698
  978SOL    HW114567   0.897   1.015  16.839 -0.4451  1.0608  0.4203
  978SOL    HW214568   0.945   0.957  16.971 -0.8733 -1.6232 -0.5273
  979SOL     OW14569   1.529   2.733   5.446  0.5055 -0.3922  0.0483
  979SOL    HW114570   1.587   2.698   5.514 -0.6442  0.4173  1.4522
  979SOL    HW214571   1.548   2.827   5.452 -1.2143 -0.2839  3.8851
  980SOL     OW14572   1.588   3.935  11.695  0.3543  0.4078  0.2131
  980SOL    HW114573   1.620   4.009  11.644 -1.8893  0.8811 -0.5230
  980SOL    HW214574   1.638   3.862  11.660  1.1964  1.0695  0.0266
  981SOL     OW14575   2.324   3.841   3.975  0.9224  0.2814 -0.0509
  981SOL    HW114576   2.229   3.843   3.959  0.9310 -0.3620 -0.2044
  981SOL    HW214577   2.350   3.933   3.973  2.0414  0.0424  3.2644
  982SOL     OW14578   4.153   2.877   5.431  0.4436  0.0830 -0.0467
  982SOL    HW114579   4.156   2.833   5.516 -0.1875  1.5348  0.7310
  982SOL    HW214580   4.081   2.941   5.438 -0.3298 -0.6611 -1.2790
  983SOL     OW14581   1.867   1.217  10.034 -0.2684 -0.5694  0.2206
  983SOL    HW114582   1.865   1.259   9.947 -1.2764 -2.5478 -0.7197
  983SOL    HW214583   1.873   1.124  10.013  0.3282 -0.1187 -1.5929
  984SOL     OW14584   3.164   1.680   3.143 -0.1706 -0.4594  0.0779
  984SOL    HW114585   3.163   1.686   3.239 -0.2098  2.3934 -0.1056
  984SOL    HW214586   3.079   1.717   3.124  1.5320  2.9346 -0.8375
  985SOL     OW14587   2.654   2.386   5.262  0.3416  0.0747 -0.0333
  985SOL    HW114588   2.559   2.386   5.253  0.2905 -2.1213  0.5774
  985SOL    HW214589   2.673   2.397   5.355 -2.0306  1.1208  0.3107
  986SOL     OW14590   3.369   2.412  13.391 -0.2243 -0.2726 -0.2440
  986SOL    HW114591   3.294   2.393  13.334 -0.6973  1.0464 -0.0765
  986SOL    HW214592   3.429   2.371  13.330 -2.1878  0.6579 -2.7751
  987SOL     OW14593   2.681   1.043   0.340 -0.6066  0.1174 -0.3529
  987SOL    HW114594   2.590   1.020   0.362 -0.8873 -0.3055 -1.9053
  987SOL    HW214595   2.692   1.111   0.407  1.5616 -1.5557  0.9666
  988SOL     OW14596   0.763   1.062   7.637  0.0906 -0.1080 -0.2486
  988SOL    HW114597   0.737   1.111   7.559  0.4701 -0.1647 -0.4094
  988SOL    HW214598   0.742   0.974   7.607 -1.8810  0.4557 -0.5423
  989SOL     OW14599   2.559   2.906  15.128  0.1545  0.1698  0.4467
  989SOL    HW114600   2.491   2.864  15.075  1.4519 -2.7898  1.1278
  989SOL    HW214601   2.609   2.836  15.170 -3.7165 -2.6138  0.4782
  990SOL     OW14602   2.558   4.081   5.691 -0.3589 -0.4740 -0.0693
  990SOL    HW114603   2.608   4.053   5.767 -1.4520  0.3688  0.9774
  990SOL    HW214604   2.492   4.136   5.735 -1.0107  0.1147 -1.7687
  991SOL     OW14605   4.167   4.156   4.346 -0.5140 -0.0188  0.1644
  991SOL    HW114606   4.148   4.069   4.381 -0.1422 -0.1630 -0.0016
  991SOL    HW214607   4.095   4.208   4.382 -0.8449 -1.8218  2.0786
  992SOL     OW14608   3.920   0.685  13.211  0.5318 -0.0814  0.6968
  992SOL    HW114609   3.892   0.743  13.282 -1.8224  0.0657 -0.3848
  992SOL    HW214610   3.920   0.597  13.250 -3.4661 -0.3258  0.0631
  993SOL     OW14611   0.695   0.676  12.951  0.1413  0.2724 -0.2749
  993SOL    HW114612   0.786   0.668  12.924 -0.5850 -0.6468 -2.4951
  993SOL    HW214613   0.695   0.634  13.037 -1.8236  0.9995  0.0881
  994SOL     OW14614   3.305   0.572  10.217  0.7083 -0.3195  0.4438
  994SOL    HW114615   3.316   0.623  10.137  0.8344  1.5321  1.6376
  994SOL    HW214616   3.232   0.619  10.257  0.4390 -0.9112  0.6469
  995SOL     OW14617   2.458   0.107   0.399  0.2440 -0.5310  0.6928
  995SOL    HW114618   2.486   0.117   0.489  1.7531 -0.6548  0.2351
  995SOL    HW214619   2.392   0.177   0.392  2.2235  0.9420 -3.4620
  996SOL     OW14620   1.101   1.852   2.133 -0.2505 -0.0696 -0.3604
  996SOL    HW114621   1.188   1.831   2.099 -0.7546 -2.6486 -0.0444
  996SOL    HW214622   1.049   1.779   2.099 -0.5795  0.2875 -0.6319
  997SOL     OW14623   2.923   0.147   5.928 -0.2102  0.5744  0.4002
  997SOL    HW114624   2.854   0.214   5.922  0.8473  1.5558 -0.8213
  997SOL    HW214625   2.877   0.072   5.890  2.2466 -1.4639  1.5219
  998SOL     OW14626   1.813   1.317   7.854 -0.0078  0.4295  0.2463
  998SOL    HW114627   1.737   1.349   7.903  0.8748  2.3662  0.3900
  998SOL    HW214628   1.832   1.398   7.806  2.6005 -0.3420 -0.0029
  999SOL     OW14629   2.825   4.357  17.535 -0.5661 -0.6783 -0.3703
  999SOL    HW114630   2.786   4.309  17.462 -0.2572  1.2526 -1.8082
  999SOL    HW214631   2.740   4.400  17.548  0.2431 -0.0884  2.8807
 1000SOL     OW14632   0.273   1.481   9.884 -0.1818  0.1318 -0.2941
 1000SOL    HW114633   0.257   1.566   9.844 -1.4078  0.0838  0.0950
 1000SOL    HW214634   0.202   1.463   9.945 -1.2106 -3.2928 -2.5220
 1001SOL     OW14635   1.370   2.730  12.773  0.0130 -0.1700  0.3643
 1001SOL    HW114636   1.318   2.777  12.838  0.3325  0.3627  0.2259
 1001SOL    HW214637   1.379   2.641  12.809  0.0701 -1.7847 -3.6817
 1002SOL     OW14638   3.911   2.913   9.158  0.2234  0.0743  0.4268
 1002SOL    HW114639   3.975   2.919   9.228  0.3956  0.3503  0.2456
 1002SOL    HW214640   3.863   2.996   9.158 -1.3719 -0.8353 -0.3077
 1003SOL     OW14641   0.625   3.444   7.848  0.0126  0.0673  0.6459
 1003SOL    HW114642   0.647   3.370   7.791  0.4315 -0.5508  1.6212
 1003SOL    HW214643   0.690   3.439   7.917 -1.4934  2.3512  2.2202
 1004SOL     OW14644   0.964   1.451   6.486 -0.0398 -0.1954  0.4584
 1004SOL    HW114645   0.933   1.378   6.540  0.3058 -1.1676 -0.6605
 1004SOL    HW214646   0.891   1.511   6.473  0.2314  0.0618  0.1112
 1005SOL     OW14647   4.180   4.069   2.496 -0.3027 -0.2745 -0.0440
 1005SOL    HW114648   4.214   4.119   2.423 -1.7281  2.0621  0.9001
 1005SOL    HW214649   4.088   4.089   2.510 -0.2997 -0.0797 -0.3117
 1006SOL     OW14650   1.680   1.179   6.930  0.3373  0.3513 -0.4389
 1006SOL    HW114651   1.663   1.222   6.846  0.8426  0.5224 -0.4560
 1006SOL    HW214652   1.732   1.244   6.978  2.2452 -1.1523 -0.4786
 1007SOL     OW14653   3.597   2.437   8.412 -0.0097 -0.3059 -0.5504
 1007SOL    HW114654   3.635   2.367   8.465 -2.4984 -1.1492  0.1285
 1007SOL    HW214655   3.526   2.390   8.368 -1.4733  1.8442 -0.4426
 1008SOL     OW14656   1.640   4.482   8.195  0.4174  0.2220 -0.4020
 1008SOL    HW114657   1.573   4.523   8.141 -0.4711 -0.5422  0.1032
 1008SOL    HW214658   1.612   4.508   8.283 -0.8434 -1.2100 -0.3705
 1009SOL     OW14659   0.609   3.173  15.243 -0.0741 -0.0750 -0.2086
 1009SOL    HW114660   0.624   3.211  15.330 -0.4207  0.7400 -0.5024
 1009SOL    HW214661   0.572   3.249  15.197 -0.9551 -1.5176 -1.9125
 1010SOL     OW14662   1.767   4.399   3.242  0.4969  0.0988 -0.4850
 1010SOL    HW114663   1.783   4.494   3.239  1.4527  0.0389  2.9226
 1010SOL    HW214664   1.679   4.403   3.279  1.1867  0.9891  1.0465
 1011SOL     OW14665   1.271   0.640   1.336 -0.4868 -0.3829  0.6584
 1011SOL    HW114666   1.250   0.547   1.335 -1.3671 -0.1721 -2.1457
 1011SOL    HW214667   1.341   0.639   1.401  0.4249 -1.2769 -0.3403
 1012SOL     OW14668   0.125   3.260   4.215  0.2824 -0.0596 -0.3635
 1012SOL    HW114669   0.165   3.256   4.302  1.2695  0.5499 -0.7884
 1012SOL    HW214670   0.175   3.197   4.164  0.9558 -0.4902  0.8476
 1013SOL     OW14671   1.190   0.201   2.286 -0.5721  0.3080  0.3575
 1013SOL    HW114672   1.216   0.180   2.376 -0.6878  0.1992  0.3663
 1013SOL    HW214673   1.167   0.293   2.297  0.1039  0.8930 -3.0926
 1014SOL     OW14674   3.494   0.707   3.959  0.0266 -0.3889 -0.2583
 1014SOL    HW114675   3.440   0.715   4.038  0.9302 -0.7829  0.3956
 1014SOL    HW214676   3.507   0.613   3.959  1.8222 -0.1498 -2.2918
 1015SOL     OW14677   3.841   4.531   5.628  0.5229 -0.1608 -0.3918
 1015SOL    HW114678   3.904   4.549   5.559  1.3320  0.6600  0.5564
 1015SOL    HW214679   3.890   4.542   5.710 -1.3829  0.9177  0.6021
 1016SOL     OW14680   0.596   2.420  13.049  0.0281 -0.2822  0.2565
 1016SOL    HW114681   0.527   2.356  13.062 -1.2896  0.9692 -0.6067
 1016SOL    HW214682   0.569   2.504  13.086  1.5165  0.3502 -0.0787
 1017SOL     OW14683   4.370   2.247   7.550  0.5568 -0.4383  0.3184
 1017SOL    HW114684   4.394   2.175   7.608 -1.0983 -2.4495 -1.5049
 1017SOL    HW214685   4.407   2.317   7.603  0.9414 -0.9552  0.7385
 1018SOL     OW14686   4.092   4.401   6.000  0.3816  0.1133  0.1970
 1018SOL    HW114687   4.033   4.473   5.975 -0.6007 -0.7024  0.1757
 1018SOL    HW214688   4.139   4.388   5.918 -3.3384  2.1245 -2.2577
 1019SOL     OW14689   2.072   4.289  13.439 -0.3549  0.1851 -0.2600
 1019SOL    HW114690   2.129   4.219  13.407  0.4913  0.4631  0.6730
 1019SOL    HW214691   1.990   4.251  13.407 -1.6818  0.8248  2.3755
 1020SOL     OW14692   1.005   0.556   6.745  0.5853  0.1045 -0.0603
 1020SOL    HW114693   0.984   0.586   6.833  1.1223 -1.1159  0.4859
 1020SOL    HW214694   1.023   0.637   6.698 -2.3690 -0.7227 -2.5501
 1021SOL     OW14695   3.646   2.682  11.813  0.7624  0.0400 -0.1969
 1021SOL    HW114696   3.647   2.746  11.742  1.7235 -1.0377 -1.1516
 1021SOL    HW214697   3.651   2.600  11.764  1.3240  0.7850 -1.3863
 1022SOL     OW14698   3.751   3.851  12.720 -0.1166 -0.3697  0.2606
 1022SOL    HW114699   3.689   3.871  12.790 -0.4219 -0.9641  0.1623
 1022SOL    HW214700   3.837   3.856  12.762  1.6294  1.6020 -3.5499
 1023SOL     OW14701   3.475   2.784   2.365  0.0136 -0.4364 -0.6118
 1023SOL    HW114702   3.564   2.748   2.365 -0.1639 -0.9082  1.7901
 1023SOL    HW214703   3.433   2.721   2.307  2.1230 -1.0550 -1.4869
 1024SOL     OW14704   3.305   2.852  13.487  0.0303 -0.5327 -0.1392
 1024SOL    HW114705   3.399   2.845  13.470  0.2162  0.7700  0.3570
 1024SOL    HW214706   3.290   2.768  13.530 -3.3261 -0.1069 -0.4838
 1025SOL     OW14707   0.832   0.609  10.324 -0.1630 -0.4768  0.3541
 1025SOL    HW114708   0.842   0.694  10.367 -1.3584 -0.7904  1.2689
 1025SOL    HW214709   0.739   0.595  10.346  0.0605 -0.5178  1.3046
 1026SOL     OW14710   1.531   3.332   3.518 -0.1962  0.2150 -0.5287
 1026SOL    HW114711   1.588   3.406   3.498  0.0828  0.3535  0.8139
 1026SOL    HW214712   1.509   3.342   3.610 -0.9100  1.3163 -0.8222
 1027SOL     OW14713   1.693   4.716   6.528 -0.0582  0.5601  0.7075
 1027SOL    HW114714   1.639   0.042   6.576 -1.1142  0.5108 -0.4141
 1027SOL    HW214715   1.653   4.638   6.568  0.0816 -1.6081 -3.3600
 1028SOL     OW14716   3.749   0.941   3.938  0.0853 -0.3267  0.3774
 1028SOL    HW114717   3.829   0.956   3.887  0.6384  0.8191  1.5876
 1028SOL    HW214718   3.747   0.847   3.920 -0.2395 -0.5579  1.6031
 1029SOL     OW14719   1.789   4.077   5.611  0.2586 -0.1363 -0.4714
 1029SOL    HW114720   1.766   4.065   5.704 -0.2373 -0.7125 -0.6618
 1029SOL    HW214721   1.865   4.020   5.599 -1.3539 -2.2713 -0.5694
 1030SOL     OW14722   1.027   4.122   5.990 -0.5408  0.2349 -0.2912
 1030SOL    HW114723   0.972   4.149   6.064  0.6423 -0.9608  1.0132
 1030SOL    HW214724   1.082   4.200   5.980  0.1246  0.1405  2.5570
 1031SOL     OW14725   0.344   0.384  11.539 -0.5400 -0.0130 -0.2644
 1031SOL    HW114726   0.381   0.317  11.480  1.8245  1.7610 -0.7853
 1031SOL    HW214727   0.298   0.323  11.597 -0.9607 -0.7887 -1.4076
 1032SOL     OW14728   4.437   1.590   7.416  0.1629 -0.0972 -0.5846
 1032SOL    HW114729   4.360   1.541   7.387 -0.3979 -0.2158  1.0538
 1032SOL    HW214730   4.411   1.598   7.508  0.3006 -1.9963 -0.3885
 1033SOL     OW14731   2.173   3.756   1.536  0.4418 -0.2842 -0.3091
 1033SOL    HW114732   2.106   3.724   1.475 -1.5070 -0.6306  2.0296
 1033SOL    HW214733   2.249   3.719   1.491  0.3145 -0.6201 -0.2438
 1034SOL     OW14734   1.797   3.493   7.370 -0.1815 -0.9151  0.1121
 1034SOL    HW114735   1.869   3.453   7.418 -0.2462  0.1332  1.0725
 1034SOL    HW214736   1.752   3.538   7.441  1.8533  1.8230 -0.3647
 1035SOL     OW14737   0.566   1.684   1.367  0.5768  0.5883  0.2745
 1035SOL    HW114738   0.525   1.621   1.427  2.4364 -3.4187 -2.6636
 1035SOL    HW214739   0.657   1.656   1.366  0.0764 -0.9117 -3.4462
 1036SOL     OW14740   0.512   0.442   9.144  0.2477 -0.4669  0.3256
 1036SOL    HW114741   0.457   0.470   9.218 -1.8440 -1.0903 -0.9770
 1036SOL    HW214742   0.600   0.473   9.162  0.5273 -1.3030  0.3815
 1037SOL     OW14743   2.292   2.398  15.103  0.1677  0.4241 -0.0420
 1037SOL    HW114744   2.210   2.445  15.088 -0.1534 -0.5760 -1.4494
 1037SOL    HW214745   2.322   2.391  15.012 -2.2880 -0.1410 -0.8081
 1038SOL     OW14746   2.399   2.087   1.777 -0.3969 -0.5164  0.3277
 1038SOL    HW114747   2.403   1.993   1.795  1.4369 -1.1671 -3.4357
 1038SOL    HW214748   2.304   2.099   1.767 -0.4591  1.3018  3.2153
 1039SOL     OW14749   2.628   0.354  15.470  0.3680  0.3019  0.2277
 1039SOL    HW114750   2.578   0.409  15.410  0.5538 -1.8476 -1.9228
 1039SOL    HW214751   2.558   0.331  15.531 -0.7673 -2.9170 -2.2836
 1040SOL     OW14752   2.221   2.634   3.485 -0.0555  0.3331  0.5669
 1040SOL    HW114753   2.251   2.622   3.575 -0.0510  3.1364  0.9309
 1040SOL    HW214754   2.208   2.544   3.456 -1.1808  0.9221 -0.7698
 1041SOL     OW14755   0.779   0.166   8.828 -0.7305 -0.2229 -0.0581
 1041SOL    HW114756   0.804   0.105   8.897  0.1311 -2.5285 -2.3997
 1041SOL    HW214757   0.702   0.206   8.869  0.4961  0.5571  1.4403
 1042SOL     OW14758   2.371   4.484   7.717 -0.3441 -0.0444  0.4564
 1042SOL    HW114759   2.291   4.436   7.698 -0.0433 -1.3545  2.4498
 1042SOL    HW214760   2.359   4.537   7.796  1.0757 -0.5199  0.9950
 1043SOL     OW14761   1.152   1.856   8.576 -0.0100 -0.8767  0.2601
 1043SOL    HW114762   1.148   1.901   8.491  0.8079  0.1111  0.7496
 1043SOL    HW214763   1.174   1.923   8.640  0.9266  0.5243 -1.5068
 1044SOL     OW14764   3.493   0.234   2.204  0.2782  0.2256  0.1935
 1044SOL    HW114765   3.430   0.306   2.214 -0.0584 -0.0983  0.4004
 1044SOL    HW214766   3.444   0.188   2.136  1.5182  0.6963 -1.0257
 1045SOL     OW14767   3.099   4.373  17.391  0.6180  0.0058  0.5184
 1045SOL    HW114768   3.151   4.436  17.443 -0.1213  1.4450 -0.4988
 1045SOL    HW214769   3.022   4.355  17.445  1.8197 -2.4208  1.4493
 1046SOL     OW14770   3.276   3.030  13.673 -0.3374  0.2059 -0.3313
 1046SOL    HW114771   3.271   2.969  13.600  2.8169 -1.0783  0.5472
 1046SOL    HW214772   3.184   3.032  13.699 -0.8102  1.7328 -2.0967
 1047SOL     OW14773   3.648   3.416   9.250 -0.3201  0.4733  0.7876
 1047SOL    HW114774   3.589   3.484   9.216 -0.2582 -1.4382 -3.2200
 1047SOL    HW214775   3.689   3.461   9.324  0.1346  2.5566 -0.7282
 1048SOL     OW14776   0.084   0.866   8.744 -0.5552 -0.3789  0.0383
 1048SOL    HW114777   0.056   0.849   8.834 -1.3263  0.8355  0.0413
 1048SOL    HW214778   0.165   0.914   8.756 -0.4824 -0.9939  1.9848
 1049SOL     OW14779   1.795   0.578   9.318  0.2901 -0.5412 -0.0194
 1049SOL    HW114780   1.781   0.630   9.240 -0.3148 -0.4268  0.1693
 1049SOL    HW214781   1.886   0.592   9.344 -0.3636  1.1449  1.3452
 1050SOL     OW14782   4.073   4.058   8.456 -0.0771 -0.0699  0.1251
 1050SOL    HW114783   4.159   4.065   8.417 -0.4264  1.7838 -0.3233
 1050SOL    HW214784   4.112   4.048   8.543 -2.0020 -2.3108  0.7378
 1051SOL     OW14785   4.171   0.974  17.057 -0.4607 -0.0761  0.4383
 1051SOL    HW114786   4.263   0.994  17.042 -0.0078 -2.4678  0.0660
 1051SOL    HW214787   4.149   1.029  17.132  1.7268  1.9179 -0.3926
 1052SOL     OW14788   4.307   2.857   6.621  0.3707  0.1400 -0.0222
 1052SOL    HW114789   4.325   2.879   6.712 -2.1297  1.0687  0.2551
 1052SOL    HW214790   4.304   2.939   6.572 -1.1166 -0.7803 -1.5032
 1053SOL     OW14791   1.381   4.400   2.927  0.4854 -0.1308  0.6972
 1053SOL    HW114792   1.358   4.490   2.904  0.8183 -0.6874 -1.8027
 1053SOL    HW214793   1.477   4.405   2.930  0.4770  1.6621 -1.9181
 1054SOL     OW14794   3.675   4.429   7.068  0.2332  0.2744  0.1804
 1054SOL    HW114795   3.634   4.438   7.155  0.2793  0.0249  0.2275
 1054SOL    HW214796   3.724   4.511   7.073  0.2590  0.3848 -1.8948
 1055SOL     OW14797   1.210   3.989  17.331  0.4072 -0.3634  0.7905
 1055SOL    HW114798   1.268   4.025  17.264 -0.6192 -0.4152 -0.1213
 1055SOL    HW214799   1.164   3.922  17.280  3.4691 -2.0595  0.2643
 1056SOL     OW14800   3.592   0.176   2.746 -0.2927 -0.1367 -0.3800
 1056SOL    HW114801   3.651   0.106   2.777  1.7527  2.4733  1.5902
 1056SOL    HW214802   3.634   0.248   2.792 -0.0314 -1.0553  0.8260
 1057SOL     OW14803   4.149   3.741   7.933 -0.3382  0.1729 -0.7473
 1057SOL    HW114804   4.109   3.709   8.014 -0.5921 -0.7188 -1.2285
 1057SOL    HW214805   4.236   3.700   7.930 -0.2243  0.4245 -0.8860
 1058SOL     OW14806   4.558   3.994   1.566 -0.2501 -0.0272  0.0092
 1058SOL    HW114807   4.648   4.026   1.579 -0.3505  1.3106 -2.4759
 1058SOL    HW214808   4.566   3.924   1.501  0.3505 -1.0879  1.2151
 1059SOL     OW14809   1.472   4.537   2.319  0.1242  0.0289  0.2187
 1059SOL    HW114810   1.404   4.589   2.275  2.2370  0.8491 -2.0374
 1059SOL    HW214811   1.534   4.513   2.251  0.6335 -3.2876  1.8733
 1060SOL     OW14812   3.595   3.104  16.144 -0.4276 -0.0278 -0.0153
 1060SOL    HW114813   3.590   3.086  16.050 -3.0037 -1.0286  0.3215
 1060SOL    HW214814   3.520   3.161  16.161 -0.2367  0.1541  0.2308
 1061SOL     OW14815   2.339   2.512   8.717 -0.4469  0.0218 -0.5294
 1061SOL    HW114816   2.259   2.530   8.768  1.2981  0.0919  2.1910
 1061SOL    HW214817   2.328   2.420   8.694  1.6009 -0.7910  1.7685
 1062SOL     OW14818   1.626   0.922   5.252 -0.2753  0.5146  0.3449
 1062SOL    HW114819   1.680   0.956   5.181  1.9403  0.4901  2.0123
 1062SOL    HW214820   1.633   1.000   5.306  0.2909  1.6898 -1.4342
 1063SOL     OW14821   2.544   4.122   5.405  0.6118  0.8296 -0.2803
 1063SOL    HW114822   2.525   4.033   5.376 -0.3278  0.6993  0.7355
 1063SOL    HW214823   2.545   4.106   5.499  2.7655  0.0927 -0.4289
 1064SOL     OW14824   2.505   2.073   5.744 -0.2310  0.1951 -0.0254
 1064SOL    HW114825   2.496   2.142   5.679 -2.3430  0.4867  0.5561
 1064SOL    HW214826   2.587   2.096   5.787 -0.1542  1.0734 -0.6443
 1065SOL     OW14827   1.678   2.661   6.002 -0.5135  0.0636  0.1651
 1065SOL    HW114828   1.743   2.591   6.006 -0.1569  0.2961 -1.3333
 1065SOL    HW214829   1.604   2.602   5.987  0.0284 -0.2894 -1.0878
 1066SOL     OW14830   3.227   0.430  17.185  0.1186 -0.0509  0.6549
 1066SOL    HW114831   3.302   0.483  17.158 -2.5991  2.3566 -2.1852
 1066SOL    HW214832   3.192   0.487  17.253  0.1635  0.2872  0.3943
 1067SOL     OW14833   4.725   1.411  15.472  0.4607  0.6661  0.5436
 1067SOL    HW114834   4.653   1.348  15.470  3.0763 -2.4293  2.2736
 1067SOL    HW214835   0.036   1.407  15.556 -0.2868  0.1672  0.9364
 1068SOL     OW14836   0.824   2.747   5.087 -0.4307 -0.4202  0.1842
 1068SOL    HW114837   0.905   2.795   5.070 -1.5965  1.3632 -0.2689
 1068SOL    HW214838   0.802   2.726   4.996 -0.0423  1.4478 -0.3272
 1069SOL     OW14839   3.271   2.692   7.733 -0.6182 -0.6856  0.3767
 1069SOL    HW114840   3.335   2.763   7.739  0.5475 -1.6180 -1.0767
 1069SOL    HW214841   3.330   2.623   7.705  0.9693  0.8105  0.0638
 1070SOL     OW14842   2.783   3.025   7.488  0.5677 -0.1325 -0.0178
 1070SOL    HW114843   2.712   2.974   7.451  2.0725 -1.1158 -1.5474
 1070SOL    HW214844   2.823   3.066   7.411  1.7458 -1.0445  0.0963
 1071SOL     OW14845   4.658   3.883   9.455  0.1022 -0.1076 -0.1577
 1071SOL    HW114846   4.610   3.888   9.538  1.0131  0.9000  0.3203
 1071SOL    HW214847   4.659   3.977   9.436  0.0965 -0.1970 -0.6022
 1072SOL     OW14848   1.259   1.442  10.176  0.1167  0.2084  0.7046
 1072SOL    HW114849   1.350   1.470  10.164 -0.5847  2.2564  0.0878
 1072SOL    HW214850   1.217   1.527  10.160 -2.9201 -1.6402 -1.0127
 1073SOL     OW14851   2.628   2.632  17.031 -0.0793 -0.2318  0.4710
 1073SOL    HW114852   2.566   2.666  17.096  0.5140  0.1524  0.8322
 1073SOL    HW214853   2.708   2.622  17.083 -1.2678 -0.1204  2.3334
 1074SOL     OW14854   4.304   4.607   8.546  0.5186 -0.2406  0.2218
 1074SOL    HW114855   4.358   4.686   8.551  1.9845 -1.2449  0.3800
 1074SOL    HW214856   4.299   4.600   8.450  1.7734 -1.3957  0.2404
 1075SOL     OW14857   0.320   1.314  14.743  0.3180 -0.0331  0.2523
 1075SOL    HW114858   0.258   1.366  14.793  0.1377  0.4292 -0.4460
 1075SOL    HW214859   0.301   1.228  14.781  0.7496 -0.0593  0.4061
 1076SOL     OW14860   1.789   0.297  15.024  0.0685 -0.5812 -0.0855
 1076SOL    HW114861   1.835   0.271  15.105  1.6996  2.0843 -0.1837
 1076SOL    HW214862   1.861   0.290  14.961  1.9245  0.0672  1.9668
 1077SOL     OW14863   1.187   0.574   7.597  0.2075 -0.3825 -0.0387
 1077SOL    HW114864   1.133   0.654   7.594 -0.4681 -0.8344 -0.0604
 1077SOL    HW214865   1.273   0.611   7.581 -1.0119  1.7426 -1.7221
 1078SOL     OW14866   2.847   4.007   2.716  0.3751  0.5101 -0.1152
 1078SOL    HW114867   2.784   3.987   2.647  1.3893  3.0646 -1.7979
 1078SOL    HW214868   2.804   4.061   2.782 -1.7793  0.4552 -1.5077
 1079SOL     OW14869   4.009   3.444   7.292  0.2472  0.2781  0.1104
 1079SOL    HW114870   4.004   3.376   7.359  1.8927  0.7995  0.7733
 1079SOL    HW214871   3.970   3.513   7.346 -1.6159  0.0239 -0.8985
 1080SOL     OW14872   1.437   0.304  17.576 -0.1358 -0.2800 -0.6065
 1080SOL    HW114873   1.468   0.215  17.590 -2.3917 -0.6764  1.7607
 1080SOL    HW214874   1.343   0.292  17.590  0.1421 -0.9406  0.6660
 1081SOL     OW14875   3.001   2.216   4.902 -0.1632  0.0952 -0.1786
 1081SOL    HW114876   3.044   2.184   4.823  0.0479 -0.9843  0.3733
 1081SOL    HW214877   3.000   2.138   4.956  1.8711  0.3806  0.2479
 1082SOL     OW14878   1.989   0.947   8.407 -0.3553  0.4673  0.2397
 1082SOL    HW114879   2.068   0.917   8.362 -0.2872  2.6526 -1.1090
 1082SOL    HW214880   1.958   1.010   8.342 -0.7856  1.0056  0.9613
 1083SOL     OW14881   4.124   2.878  14.150  0.2576 -0.2824 -0.0400
 1083SOL    HW114882   4.174   2.911  14.225 -2.0251  0.3746  1.1933
 1083SOL    HW214883   4.056   2.944  14.140  3.3587  2.9385  0.0615
 1084SOL     OW14884   3.014   1.118  16.586 -0.5064  0.1993 -0.5284
 1084SOL    HW114885   2.969   1.068  16.518 -2.3539 -0.8131  1.4103
 1084SOL    HW214886   3.060   1.051  16.636  0.1092  0.3778 -0.8685
 1085SOL     OW14887   2.391   0.823   5.505  0.1257  0.2358 -0.3108
 1085SOL    HW114888   2.480   0.790   5.518 -0.4848 -1.3999 -0.3579
 1085SOL    HW214889   2.382   0.798   5.413  1.0038  0.3646 -0.4318
 1086SOL     OW14890   2.118   2.487  15.620  0.5232 -0.8692  0.3471
 1086SOL    HW114891   2.090   2.396  15.630  0.0399 -0.8647 -0.9508
 1086SOL    HW214892   2.069   2.506  15.540  1.2608 -1.6983 -0.3172
 1087SOL     OW14893   3.293   1.833   2.491  0.6246 -0.1824 -0.3927
 1087SOL    HW114894   3.264   1.873   2.409 -0.8474 -1.0486 -0.2908
 1087SOL    HW214895   3.218   1.776   2.503  0.3810  0.1764 -0.2114
 1088SOL     OW14896   2.045   1.145   6.544 -1.0165  0.7463  0.3856
 1088SOL    HW114897   1.996   1.177   6.468  0.1939 -0.4751 -0.9468
 1088SOL    HW214898   2.095   1.086   6.486 -0.9855 -0.0205  1.2021
 1089SOL     OW14899   3.960   2.965   2.005  0.2528 -0.1113 -0.3115
 1089SOL    HW114900   3.877   2.964   1.956  1.8219 -1.4936 -2.9845
 1089SOL    HW214901   3.956   3.052   2.044 -0.3350 -0.1515 -0.2788
 1090SOL     OW14902   0.905   3.128  16.946 -1.1157  0.0215  0.1925
 1090SOL    HW114903   0.923   3.214  16.982  1.3295 -0.6739  0.6807
 1090SOL    HW214904   0.837   3.149  16.883 -2.0250  1.4451  1.6557
 1091SOL     OW14905   3.651   2.017   5.342 -0.4027 -0.0912 -0.2217
 1091SOL    HW114906   3.671   1.986   5.431  3.4730 -0.3484 -1.1908
 1091SOL    HW214907   3.652   1.938   5.287  1.1066  1.0395 -1.8089
 1092SOL     OW14908   4.445   1.490   6.308  0.0976 -0.1363  0.2976
 1092SOL    HW114909   4.536   1.475   6.334  0.2134  0.6710  0.3833
 1092SOL    HW214910   4.423   1.536   6.389  0.5380  0.4174  0.1050
 1093SOL     OW14911   3.836   1.125   3.027  0.1709  0.4891 -0.2064
 1093SOL    HW114912   3.796   1.059   2.970 -0.9306 -0.2727  1.4587
 1093SOL    HW214913   3.773   1.150   3.094  1.1142  1.4434  0.3246
 1094SOL     OW14914   1.725   2.399  12.977  0.8121 -0.1996  0.0063
 1094SOL    HW114915   1.766   2.479  13.009 -1.2316  0.1718  1.6777
 1094SOL    HW214916   1.771   2.330  13.024 -2.0352 -0.9199  1.7573
 1095SOL     OW14917   1.379   2.010   1.725 -0.1869  0.3687  0.4230
 1095SOL    HW114918   1.409   2.069   1.656 -2.5069  0.6696 -0.3511
 1095SOL    HW214919   1.364   2.074   1.795  0.2818 -0.9418  1.7277
 1096SOL     OW14920   0.341   4.694   4.215  0.0775  0.2330  0.5811
 1096SOL    HW114921   0.261   4.642   4.222 -0.4464  1.0777  0.8949
 1096SOL    HW214922   0.301   0.045   4.204  0.8674  0.4653 -0.4782
 1097SOL     OW14923   3.148   1.831   2.267  0.3065  0.0729 -0.2176
 1097SOL    HW114924   3.213   1.783   2.216  0.2412 -0.8926  0.5908
 1097SOL    HW214925   3.073   1.800   2.216 -1.2162  0.9180  1.5033
 1098SOL     OW14926   1.529   1.525   9.071 -0.0204 -0.1220 -0.6717
 1098SOL    HW114927   1.455   1.584   9.085  0.1426 -0.2598  0.8488
 1098SOL    HW214928   1.504   1.495   8.984  0.2409  1.4093 -1.2678
 1099SOL     OW14929   3.242   0.254   2.852  0.0029  0.8510 -0.0841
 1099SOL    HW114930   3.270   0.311   2.781  1.5139 -0.5088 -0.5564
 1099SOL    HW214931   3.258   0.313   2.926 -1.2117 -1.6952  2.1900
 1100SOL     OW14932   0.049   2.608  17.191 -0.2910 -0.1108 -0.6190
 1100SOL    HW114933   0.070   2.524  17.231  0.2714 -0.0684 -0.8367
 1100SOL    HW214934   4.719   2.647  17.249 -0.3005  0.3069 -0.9076
 1101SOL     OW14935   4.267   3.710   5.632  0.0055  0.1729  0.2321
 1101SOL    HW114936   4.250   3.645   5.701  1.4786  1.0726  1.4547
 1101SOL    HW214937   4.303   3.648   5.569  1.0321  0.5298  0.4697
 1102SOL     OW14938   1.838   0.005   5.351  0.0736  0.1862 -0.1274
 1102SOL    HW114939   1.830   4.659   5.303 -0.4184  0.3377 -0.3075
 1102SOL    HW214940   1.758   0.050   5.323  1.2709  1.0615 -2.1577
 1103SOL     OW14941   4.316   0.281   7.727 -0.0089  0.2253 -0.1911
 1103SOL    HW114942   4.308   0.232   7.810  0.3270 -1.7671 -1.3302
 1103SOL    HW214943   4.404   0.318   7.723 -0.7597  2.0149 -0.2736
 1104SOL     OW14944   2.538   3.008  12.070 -0.4231  0.2955  0.1553
 1104SOL    HW114945   2.562   2.935  12.126 -0.9377  1.4114  1.8048
 1104SOL    HW214946   2.523   2.960  11.988 -0.3360  2.1775 -0.9629
 1105SOL     OW14947   3.447   1.212   8.026 -1.3911 -0.3895  0.4808
 1105SOL    HW114948   3.424   1.196   7.935  1.0510 -1.6047  0.0645
 1105SOL    HW214949   3.366   1.259   8.046 -0.0746  1.6207  1.0688
 1106SOL     OW14950   4.358   3.176   4.648 -1.0984  0.6696  0.0348
 1106SOL    HW114951   4.306   3.241   4.600 -1.6180  0.7645  0.7186
 1106SOL    HW214952   4.316   3.095   4.620  3.4143 -1.2639 -1.1020
 1107SOL     OW14953   0.189   2.501   5.141 -0.2265  0.8191  0.0582
 1107SOL    HW114954   0.281   2.526   5.153 -0.0757 -0.3717  1.3909
 1107SOL    HW214955   0.147   2.579   5.178  2.3547  1.8151  0.9059
 1108SOL     OW14956   1.626   1.937   2.492  0.1464 -0.2443 -1.1126
 1108SOL    HW114957   1.714   1.975   2.489  0.4844 -0.8086  1.3825
 1108SOL    HW214958   1.572   2.009   2.524  0.8915 -0.9914  1.8667
 1109SOL     OW14959   3.534   4.561   5.188  0.2627  0.1983  0.6664
 1109SOL    HW114960   3.481   4.507   5.246 -0.2344  0.6400  0.6171
 1109SOL    HW214961   3.581   4.617   5.250  0.4325 -0.8110  1.4541
 1110SOL     OW14962   2.372   1.322   1.456  0.3989  0.3236  0.5753
 1110SOL    HW114963   2.414   1.259   1.399  0.9768  1.7628 -0.5974
 1110SOL    HW214964   2.279   1.309   1.437  0.4466 -0.5659  0.9787
 1111SOL     OW14965   4.108   2.290  13.235  0.0933  0.1525 -0.6380
 1111SOL    HW114966   4.090   2.354  13.304  1.2256  1.2126 -1.3239
 1111SOL    HW214967   4.125   2.346  13.160  3.0025  0.8901  0.5653
 1112SOL     OW14968   3.796   3.331   8.788  0.1279  0.2125  0.7615
 1112SOL    HW114969   3.857   3.336   8.862 -0.9099 -0.0713  1.6351
 1112SOL    HW214970   3.826   3.249   8.748 -2.0029 -0.0322 -0.3149
 1113SOL     OW14971   2.165   2.224   9.373 -0.2999 -0.1844 -0.2730
 1113SOL    HW114972   2.083   2.213   9.422  0.5678 -1.3229  0.9413
 1113SOL    HW214973   2.135   2.187   9.290 -0.6503 -0.9293  0.1816
 1114SOL     OW14974   0.230   1.242   5.005  0.1200 -0.2811 -0.4424
 1114SOL    HW114975   0.165   1.283   5.062 -1.4245  1.1769 -3.2454
 1114SOL    HW214976   0.262   1.172   5.062  0.3642  0.1883  0.0026
 1115SOL     OW14977   1.259   2.133  11.513 -0.0478 -0.0970 -0.1035
 1115SOL    HW114978   1.301   2.090  11.439  2.3693  0.8844  0.6918
 1115SOL    HW214979   1.278   2.227  11.509 -0.8356  0.1802  2.6225
 1116SOL     OW14980   1.444   1.270   2.791  0.0601 -0.0497 -0.4404
 1116SOL    HW114981   1.364   1.238   2.833  0.5552  3.1689  2.9573
 1116SOL    HW214982   1.422   1.362   2.774 -1.1427 -0.1430  0.6523
 1117SOL     OW14983   3.438   1.377   4.428  0.1785 -0.5752  0.0763
 1117SOL    HW114984   3.484   1.309   4.477 -0.4436 -1.4403 -0.5488
 1117SOL    HW214985   3.359   1.327   4.409 -0.4160  0.0097  0.9803
 1118SOL     OW14986   3.886   2.932   1.624  0.1947  0.3543 -0.3172
 1118SOL    HW114987   3.847   2.970   1.545  0.0135 -2.7398 -1.7384
 1118SOL    HW214988   3.968   2.980   1.633 -0.3857  1.0906  0.9558
 1119SOL     OW14989   4.004   2.366   6.183  0.2355 -0.0468 -0.1369
 1119SOL    HW114990   4.027   2.400   6.269  0.3450  2.0248 -0.9758
 1119SOL    HW214991   4.081   2.314   6.164 -0.5528 -1.3193  0.1695
 1120SOL     OW14992   4.234   4.412   2.167 -0.1646 -0.8075 -0.0713
 1120SOL    HW114993   4.229   4.316   2.170  0.5774 -0.8783 -1.1628
 1120SOL    HW214994   4.314   4.438   2.213 -0.6129 -0.9155  0.7751
 1121SOL     OW14995   1.211   3.252   5.596  0.4064  0.2141  0.6942
 1121SOL    HW114996   1.202   3.158   5.578  2.0561 -0.2082  1.9428
 1121SOL    HW214997   1.210   3.263   5.692 -1.9455  1.9229  0.4532
 1122SOL     OW14998   4.031   3.071   4.573  0.0677  0.2306  0.2018
 1122SOL    HW114999   3.971   3.102   4.505  2.5480  0.5800 -1.8314
 1122SOL    HW215000   4.102   3.053   4.511  1.5759 -0.0809  2.0039
 1123SOL     OW15001   3.684   2.544   6.790 -0.1552 -0.0460  0.0019
 1123SOL    HW115002   3.712   2.635   6.783  0.2462 -0.0999  0.9798
 1123SOL    HW215003   3.742   2.508   6.722 -0.9169  1.2305 -1.3136
 1124SOL     OW15004   2.083   2.570   2.961 -0.0038 -0.2647 -0.1036
 1124SOL    HW115005   2.116   2.632   3.025  0.1347 -0.3239 -0.1172
 1124SOL    HW215006   1.999   2.605   2.931 -0.6868 -1.2479  0.6671
 1125SOL     OW15007   4.421   0.132   8.556  0.1160 -0.7081  0.3331
 1125SOL    HW115008   4.345   0.133   8.615  0.5188  2.1385  0.7667
 1125SOL    HW215009   4.410   0.215   8.512 -3.7785 -0.9926  0.7462
 1126SOL     OW15010   1.765   0.762   9.117  0.2880  0.2861  0.5483
 1126SOL    HW115011   1.746   0.856   9.118  1.2342  0.5081 -1.2708
 1126SOL    HW215012   1.798   0.746   9.028 -0.9604  1.1969 -0.0747
 1127SOL     OW15013   2.246   4.087   5.340  0.1242 -0.5118 -0.0503
 1127SOL    HW115014   2.302   4.034   5.398  1.1160  1.3934  0.7483
 1127SOL    HW215015   2.285   4.074   5.253  0.7575 -0.0992  0.1701
 1128SOL     OW15016   1.302   1.582  13.381 -0.6188 -0.5620  0.2077
 1128SOL    HW115017   1.272   1.500  13.341 -0.3036 -1.1811  1.2474
 1128SOL    HW215018   1.215   1.620  13.396 -0.1450  1.0249 -1.1419
 1129SOL     OW15019   1.122   0.575   0.848 -0.4584 -0.4631  0.3794
 1129SOL    HW115020   1.079   0.614   0.924 -1.7629 -0.2908 -0.4468
 1129SOL    HW215021   1.040   0.543   0.810 -0.6109 -1.2352  1.3668
 1130SOL     OW15022   0.754   2.633  11.407  0.4147  0.6975 -0.4919
 1130SOL    HW115023   0.796   2.666  11.327 -0.3330 -0.9532 -1.5649
 1130SOL    HW215024   0.697   2.708  11.424 -0.8108 -0.2727 -0.3359
 1131SOL     OW15025   1.765   0.104   2.251 -0.4301  0.0053 -0.1381
 1131SOL    HW115026   1.748   0.055   2.331 -0.3893  0.8658  0.3929
 1131SOL    HW215027   1.856   0.083   2.228 -1.2170 -1.7970 -1.6249
 1132SOL     OW15028   4.091   4.032   9.208 -0.2690 -0.1952 -0.0702
 1132SOL    HW115029   4.052   4.047   9.122  0.4872 -0.9642 -0.5515
 1132SOL    HW215030   4.152   4.104   9.222  1.1025 -1.5028  0.6656
 1133SOL     OW15031   3.117   4.274   6.758  0.4865  0.0353 -0.0583
 1133SOL    HW115032   3.097   4.240   6.670  0.8941 -0.1496 -0.0814
 1133SOL    HW215033   3.165   4.200   6.796 -0.9852 -1.2893 -0.7490
 1134SOL     OW15034   4.326   0.999  13.067 -0.2117  0.2879  0.2070
 1134SOL    HW115035   4.363   1.087  13.059 -1.0470  0.6208  0.0115
 1134SOL    HW215036   4.339   0.968  12.977  0.4262 -2.1424  1.1131
 1135SOL     OW15037   0.216   4.343   2.450 -0.6798  0.2321  0.9943
 1135SOL    HW115038   0.167   4.293   2.516 -0.8383 -1.9502 -0.7649
 1135SOL    HW215039   0.247   4.416   2.503  1.3898 -0.9123  1.3638
 1136SOL     OW15040   2.399   3.802   4.326  0.3808  0.1960  0.1246
 1136SOL    HW115041   2.341   3.736   4.365  0.5791 -0.1262 -0.1260
 1136SOL    HW215042   2.386   3.883   4.376  1.3495 -0.0323  0.7407
 1137SOL     OW15043   0.939   3.665   0.142  0.1296  0.0403 -0.6421
 1137SOL    HW115044   0.863   3.651   0.199  0.2657  0.8634 -0.2551
 1137SOL    HW215045   0.994   3.712   0.205  1.3027 -1.3295 -0.6605
 1138SOL     OW15046   2.091   3.070   1.889 -0.0331  0.2584 -0.3510
 1138SOL    HW115047   2.158   3.137   1.879 -1.4605  1.5910 -0.7946
 1138SOL    HW215048   2.139   2.988   1.877 -0.9317 -0.2873 -0.2088
 1139SOL     OW15049   0.982   1.529   0.205 -0.0279 -0.1940  0.2612
 1139SOL    HW115050   1.042   1.513   0.278 -1.3434 -2.2439  0.8841
 1139SOL    HW215051   0.916   1.460   0.204 -1.4512  1.1624  0.6297
 1140SOL     OW15052   2.864   4.605   3.698  0.0086  0.5700  0.2556
 1140SOL    HW115053   2.938   4.575   3.752 -2.0320 -2.1298  1.5401
 1140SOL    HW215054   2.812   4.525   3.702  0.3642  0.2771 -1.0400
 1141SOL     OW15055   4.662   1.555   3.891 -0.0500  0.3459 -0.2332
 1141SOL    HW115056   4.679   1.635   3.942  0.1678  0.1622 -0.0155
 1141SOL    HW215057   4.734   1.494   3.908  0.0796  0.2156 -1.2789
 1142SOL     OW15058   2.179   4.309   2.005 -0.0816  0.0435  0.1756
 1142SOL    HW115059   2.208   4.318   1.914 -2.5812 -1.6114 -0.8070
 1142SOL    HW215060   2.085   4.322   1.994  0.1498  0.4211 -1.3893
 1143SOL     OW15061   3.839   0.652   5.153  0.5053  0.3911 -0.0827
 1143SOL    HW115062   3.927   0.687   5.144  2.5919 -4.0741  2.8291
 1143SOL    HW215063   3.782   0.718   5.114  0.5323  1.3624  1.5080
 1144SOL     OW15064   3.642   1.228   3.233  0.9209 -0.1833 -0.1812
 1144SOL    HW115065   3.559   1.275   3.220 -0.6768 -2.4713  1.7610
 1144SOL    HW215066   3.626   1.140   3.267  0.4958 -0.0140  0.0613
 1145SOL     OW15067   2.765   0.632  17.015  0.5598 -0.3473  0.1539
 1145SOL    HW115068   2.748   0.714  17.061  1.6347 -0.9675  1.6750
 1145SOL    HW215069   2.751   0.655  16.923 -1.9280  1.1580  0.9355
 1146SOL     OW15070   2.023   2.968   4.850 -0.0513  0.0556 -0.6064
 1146SOL    HW115071   2.047   3.041   4.908 -0.0564 -1.5893  1.4895
 1146SOL    HW215072   1.930   2.954   4.868  0.5566  1.5520  3.6802
 1147SOL     OW15073   0.737   3.103   6.365 -0.3100 -0.0081 -1.1342
 1147SOL    HW115074   0.662   3.155   6.337 -1.1516  0.5652  2.1597
 1147SOL    HW215075   0.768   3.140   6.448 -0.0698  0.0827 -1.2663
 1148SOL     OW15076   3.103   4.158   4.849 -0.2018 -0.2878 -0.2930
 1148SOL    HW115077   3.171   4.125   4.908  0.4944  0.3228 -0.7680
 1148SOL    HW215078   3.101   4.247   4.884  0.2549  0.5455 -2.4532
 1149SOL     OW15079   2.912   3.104  11.924  0.1502  0.0793 -0.2544
 1149SOL    HW115080   2.899   3.059  12.008 -0.0394  2.1089  0.8091
 1149SOL    HW215081   2.840   3.072  11.871 -1.4046 -0.5052  2.2034
 1150SOL     OW15082   2.519   3.930   7.086  0.0966  1.2085 -0.0963
 1150SOL    HW115083   2.517   3.985   7.164  2.1959  0.7722  0.2811
 1150SOL    HW215084   2.427   3.921   7.063  0.4034 -0.5960 -0.6572
 1151SOL     OW15085   4.027   1.555   7.019 -0.5787  0.2832  0.0865
 1151SOL    HW115086   4.006   1.474   7.066  1.9965 -0.2401  0.3378
 1151SOL    HW215087   4.023   1.607   7.099 -1.9971 -0.6989  0.6545
 1152SOL     OW15088   2.609   2.168   6.766  0.9494 -0.3901 -0.2770
 1152SOL    HW115089   2.594   2.163   6.860 -1.4485 -0.4816 -0.6706
 1152SOL    HW215090   2.537   2.117   6.727  1.2698 -1.4947  0.5760
 1153SOL     OW15091   3.393   2.630   5.450  0.3466  0.4168 -0.7335
 1153SOL    HW115092   3.397   2.655   5.358 -0.8848  0.1369 -0.8554
 1153SOL    HW215093   3.483   2.641   5.482  0.8093 -0.4804 -1.7427
 1154SOL     OW15094   4.692   4.559   9.137 -0.1300 -0.2751 -0.4985
 1154SOL    HW115095   4.722   4.602   9.057  1.9161  2.3870  1.7105
 1154SOL    HW215096   4.720   4.470   9.118  1.3258  0.4279 -1.7158
 1155SOL     OW15097   0.585   2.690   2.731  0.0093  0.5977 -0.2267
 1155SOL    HW115098   0.567   2.655   2.818 -0.0118 -3.8631 -1.9942
 1155SOL    HW215099   0.603   2.781   2.751 -2.0069  0.8283  0.4686
 1156SOL     OW15100   1.478   4.576   0.128  0.0594 -0.0482 -0.1855
 1156SOL    HW115101   1.488   4.655   0.075  0.8639 -0.7344 -1.0625
 1156SOL    HW215102   1.502   4.610   0.214 -2.9892  0.8521  0.3127
 1157SOL     OW15103   3.252   2.844   3.201  0.4720  0.0450  0.3942
 1157SOL    HW115104   3.348   2.847   3.202  0.4783 -0.6275  1.7292
 1157SOL    HW215105   3.229   2.767   3.254  1.4795 -2.0168 -2.1235
 1158SOL     OW15106   3.910   2.475   1.769 -0.2508  0.0467 -0.3676
 1158SOL    HW115107   3.816   2.489   1.768 -0.3966 -0.9648 -1.2706
 1158SOL    HW215108   3.921   2.464   1.863 -4.0425 -2.7325 -0.2539
 1159SOL     OW15109   1.848   0.667   3.113  0.5438  0.1225 -1.1990
 1159SOL    HW115110   1.901   0.605   3.161 -0.6347  0.5773  0.6810
 1159SOL    HW215111   1.915   0.735   3.108  0.7655 -0.2559 -3.2992
 1160SOL     OW15112   0.005   2.307  12.724  0.9748  0.4758  0.5210
 1160SOL    HW115113   4.712   2.386  12.769  0.3791  0.7024 -0.2693
 1160SOL    HW215114   0.017   2.251  12.802 -2.9522  0.5810  1.1904
 1161SOL     OW15115   0.163   3.240   5.811  0.0671  0.0032 -0.5474
 1161SOL    HW115116   0.151   3.325   5.853  1.4995 -0.3097  0.4879
 1161SOL    HW215117   0.089   3.234   5.751 -0.8950 -0.5020  0.6829
 1162SOL     OW15118   1.615   0.976   9.264 -0.5853  0.4488 -0.0754
 1162SOL    HW115119   1.626   1.071   9.266  2.7713  0.1323 -3.2688
 1162SOL    HW215120   1.603   0.963   9.358 -1.9978 -2.0564 -0.6045
 1163SOL     OW15121   1.306   3.264   2.455 -0.4706  0.0870  0.2294
 1163SOL    HW115122   1.300   3.185   2.402  1.8476  2.1079 -2.9836
 1163SOL    HW215123   1.395   3.291   2.434 -0.5868  2.2836  2.5813
 1164SOL     OW15124   1.566   1.819   1.815  0.4957 -0.1692  0.4030
 1164SOL    HW115125   1.488   1.871   1.798  1.3983  0.9066 -0.4136
 1164SOL    HW215126   1.539   1.749   1.755 -0.4228  0.2391  0.3385
 1165SOL     OW15127   2.500   0.100   4.658 -0.0959 -0.1082  0.4064
 1165SOL    HW115128   2.413   0.061   4.662  1.4218 -3.1211  3.1153
 1165SOL    HW215129   2.551   0.036   4.705  0.5450 -0.9570 -1.4450
 1166SOL     OW15130   4.018   3.803   0.729 -0.2476  0.4355  0.2406
 1166SOL    HW115131   3.967   3.884   0.732 -1.1064 -0.0701 -0.5886
 1166SOL    HW215132   3.947   3.740   0.716  1.6177 -1.6931  0.2307
 1167SOL     OW15133   3.707   0.129   5.999  0.2153  0.5826  0.1502
 1167SOL    HW115134   3.649   0.201   6.024  2.5159  1.4406  3.0082
 1167SOL    HW215135   3.774   0.142   6.067  0.4044 -0.6605  0.1919
 1168SOL     OW15136   0.714   0.248   9.379  0.6954  0.0925  0.3192
 1168SOL    HW115137   0.751   0.319   9.431 -0.0951  2.4325 -2.3162
 1168SOL    HW215138   0.786   0.196   9.341  1.7119  1.4893  0.3146
 1169SOL     OW15139   1.891   4.672  10.296  0.0450  0.5150 -0.7497
 1169SOL    HW115140   1.925   4.603  10.239 -0.7344 -0.9007  0.4802
 1169SOL    HW215141   1.974   4.717  10.310 -0.7704  1.8260 -0.1185
 1170SOL     OW15142   2.368   3.534   1.386  0.0388 -0.1296  0.3320
 1170SOL    HW115143   2.347   3.522   1.479 -0.1587 -1.1120  0.1548
 1170SOL    HW215144   2.416   3.452   1.376  1.5124  0.7291  0.3040
 1171SOL     OW15145   0.633   2.401   7.838  0.7916  0.8744  0.1934
 1171SOL    HW115146   0.621   2.491   7.870  1.6219  1.0583 -0.0123
 1171SOL    HW215147   0.550   2.376   7.797  1.4876 -1.4324  0.1879
 1172SOL     OW15148   0.153   2.344  15.591 -0.3707 -0.1792 -0.3442
 1172SOL    HW115149   0.123   2.397  15.517 -0.8667  3.0655  2.1333
 1172SOL    HW215150   0.120   2.259  15.565 -3.1885  1.0185 -0.6960
 1173SOL     OW15151   1.495   0.225   2.408 -0.2188 -0.4010  0.5045
 1173SOL    HW115152   1.487   0.150   2.350  0.6900 -0.2547  0.1979
 1173SOL    HW215153   1.432   0.198   2.476 -2.2730  1.4606 -0.6501
 1174SOL     OW15154   0.977   1.832   4.910  0.3782  0.2360  0.3718
 1174SOL    HW115155   0.997   1.868   4.823  0.9688 -1.5268 -0.2148
 1174SOL    HW215156   0.900   1.887   4.924 -0.4635 -1.0569  0.7524
 1175SOL     OW15157   0.671   1.446  15.051 -0.2970 -0.9760  0.9773
 1175SOL    HW115158   0.676   1.410  14.962 -1.8761  0.8206  0.1446
 1175SOL    HW215159   0.590   1.406  15.082 -0.0145 -0.5222  2.2870
 1176SOL     OW15160   4.133   2.601   0.517 -0.0344  0.4533  0.0317
 1176SOL    HW115161   4.186   2.551   0.579  0.5241  0.8730 -0.1069
 1176SOL    HW215162   4.053   2.550   0.509  0.1798  0.1585 -0.2658
 1177SOL     OW15163   3.591   0.765   0.137  0.1796 -0.1000  0.1069
 1177SOL    HW115164   3.664   0.713   0.171  0.8929 -0.9896 -2.7529
 1177SOL    HW215165   3.533   0.778   0.212 -0.3577 -1.0349 -0.1445
 1178SOL     OW15166   0.682   2.365   1.355 -0.1720 -0.2445 -0.0077
 1178SOL    HW115167   0.733   2.294   1.394  0.5649 -0.4917 -1.4088
 1178SOL    HW215168   0.672   2.426   1.428 -0.3678  0.3165 -0.5078
 1179SOL     OW15169   4.686   0.282  15.363  0.7226  0.5128  0.0721
 1179SOL    HW115170   4.715   0.194  15.385  0.7888  1.1476  2.4560
 1179SOL    HW215171   0.026   0.301  15.308  2.4885 -0.6612  2.1209
 1180SOL     OW15172   1.672   0.783   4.231 -0.2914  0.2604 -0.2684
 1180SOL    HW115173   1.605   0.833   4.276  1.0191 -2.0401  4.1958
 1180SOL    HW215174   1.737   0.852   4.216 -0.1792  0.1575 -0.2567
 1181SOL     OW15175   3.552   2.065   3.044 -0.4809  0.1408 -0.2681
 1181SOL    HW115176   3.523   2.032   3.129 -2.3623 -1.0907 -1.3753
 1181SOL    HW215177   3.635   2.109   3.062  0.0091 -0.6576 -0.5995
 1182SOL     OW15178   3.241   3.800  10.727  0.4683 -0.2138 -0.3537
 1182SOL    HW115179   3.299   3.816  10.801  0.4252  1.0404 -0.5777
 1182SOL    HW215180   3.299   3.795  10.651  0.8036 -1.4273 -0.0073
 1183SOL     OW15181   2.265   3.928   6.980 -0.3173 -0.0001 -0.1611
 1183SOL    HW115182   2.200   3.997   6.997  0.5917  0.4325  1.5800
 1183SOL    HW215183   2.242   3.861   7.045  0.8580 -0.3294 -0.0984
 1184SOL     OW15184   0.306   2.854   2.855 -0.1182 -0.0790 -0.3036
 1184SOL    HW115185   0.327   2.891   2.769  2.0451 -1.0839 -0.2166
 1184SOL    HW215186   0.298   2.765   2.821  0.9457  0.1010 -1.0128
 1185SOL     OW15187   3.129   2.614   1.896 -0.3288 -0.7316  0.3185
 1185SOL    HW115188   3.181   2.536   1.881  0.8187 -0.3408  2.2862
 1185SOL    HW215189   3.198   2.674   1.924  0.5312 -1.9754  0.8020
 1186SOL     OW15190   1.196   1.657   1.526  0.6410  0.2294 -0.3842
 1186SOL    HW115191   1.286   1.675   1.553  1.1150  0.6604 -2.2296
 1186SOL    HW215192   1.154   1.742   1.543  3.7533  2.2676 -2.8203
 1187SOL     OW15193   4.156   4.008  17.458 -0.0059 -0.0371  0.0720
 1187SOL    HW115194   4.155   4.065  17.535  0.7400 -1.0844  0.8503
 1187SOL    HW215195   4.204   4.059  17.393 -0.3451  0.6137  0.3234
 1188SOL     OW15196   0.733   0.577  15.352 -0.4539 -0.1203 -0.1099
 1188SOL    HW115197   0.757   0.488  15.324 -0.8286 -0.6956  1.4159
 1188SOL    HW215198   0.638   0.564  15.352 -0.8799  3.1917  0.3076
 1189SOL     OW15199   1.614   0.852   1.223 -0.1570  0.6121 -0.9981
 1189SOL    HW115200   1.660   0.771   1.205 -0.6960 -0.2112  1.2622
 1189SOL    HW215201   1.581   0.881   1.138  0.5639  1.5397 -0.9609
 1190SOL     OW15202   0.031   1.569   2.675  0.0325  0.0299 -0.1059
 1190SOL    HW115203   0.124   1.568   2.695 -0.3648 -0.9763  1.6409
 1190SOL    HW215204   0.001   1.658   2.696  1.0710  0.0558  1.2414
 1191SOL     OW15205   3.675   4.198   5.385 -0.3957  0.1304 -0.3446
 1191SOL    HW115206   3.634   4.243   5.458 -0.9390  0.1115 -0.6399
 1191SOL    HW215207   3.758   4.175   5.427 -1.9604 -1.6625  1.7418
 1192SOL     OW15208   1.476   2.659  11.948  0.6938 -0.1120  0.5304
 1192SOL    HW115209   1.416   2.651  12.022 -1.7975  0.3500 -1.4415
 1192SOL    HW215210   1.557   2.621  11.983  0.3285 -1.6949 -0.3791
 1193SOL     OW15211   1.708   2.326   5.641  0.4319 -0.4921  0.0190
 1193SOL    HW115212   1.663   2.256   5.689 -0.9897 -0.6773 -1.6172
 1193SOL    HW215213   1.692   2.283   5.557 -0.9649 -0.3185  0.1963
 1194SOL     OW15214   0.942   4.612   6.463 -0.6260  0.3895 -0.0897
 1194SOL    HW115215   1.037   4.611   6.477 -0.2356 -0.4639 -2.8154
 1194SOL    HW215216   0.920   4.524   6.493 -0.6953  0.5263  0.2561
 1195SOL     OW15217   2.745   0.396   9.330 -0.1428  0.6212  0.0690
 1195SOL    HW115218   2.712   0.307   9.338 -0.8840  0.9411  0.5835
 1195SOL    HW215219   2.839   0.382   9.344  0.1821  1.9645 -0.7133
 1196SOL     OW15220   3.750   1.464   3.563  0.3629  0.2604  0.2570
 1196SOL    HW115221   3.807   1.393   3.531 -0.7532 -0.6370  0.2409
 1196SOL    HW215222   3.776   1.530   3.498  2.4079 -1.3806 -0.6093
 1197SOL     OW15223   1.254   2.449   6.145  0.5458  0.2999 -0.7364
 1197SOL    HW115224   1.262   2.482   6.234  1.1624  0.1077 -0.7197
 1197SOL    HW215225   1.214   2.366   6.172  0.6053  0.0460 -1.4276
 1198SOL     OW15226   1.934   3.693  10.565  0.1797  0.0173  0.1945
 1198SOL    HW115227   2.005   3.628  10.570  0.4010  0.3191  0.9811
 1198SOL    HW215228   1.863   3.664  10.508  1.7355 -0.3588 -1.5443
 1199SOL     OW15229   1.969   2.663   3.530  0.2946  0.2927  0.5545
 1199SOL    HW115230   2.065   2.659   3.520  0.2261 -1.9732  0.7265
 1199SOL    HW215231   1.942   2.583   3.575  0.6138 -0.4273 -0.5482
 1200SOL     OW15232   1.762   2.303   5.002  0.2593 -0.3192 -0.1323
 1200SOL    HW115233   1.683   2.297   4.949  0.3920 -0.6465 -0.2909
 1200SOL    HW215234   1.752   2.387   5.047  0.6060 -0.3104 -0.0709
 1201SOL     OW15235   1.740   0.681   1.888  0.2682  0.0959 -0.3541
 1201SOL    HW115236   1.762   0.611   1.950 -1.2996  0.2179  0.3316
 1201SOL    HW215237   1.684   0.635   1.826 -0.5461  0.6185 -0.0036
 1202SOL     OW15238   1.316   3.926   8.780 -0.2415 -0.1312 -0.1155
 1202SOL    HW115239   1.314   3.961   8.869  1.2823  1.8438 -0.8522
 1202SOL    HW215240   1.258   3.851   8.794 -0.0458 -0.3507 -0.4756
 1203SOL     OW15241   2.511   4.713   9.079 -0.1792  0.4047 -0.6623
 1203SOL    HW115242   2.470   4.706   8.992 -1.9880  2.2129  0.0509
 1203SOL    HW215243   2.465   4.645   9.126  1.4251  1.2227  2.0638
 1204SOL     OW15244   4.588   1.503   5.898 -0.6621  0.3524  0.2314
 1204SOL    HW115245   4.557   1.413   5.910  1.2791 -0.3923 -0.4126
 1204SOL    HW215246   4.561   1.536   5.984 -3.4168  1.4251 -1.0325
 1205SOL     OW15247   3.500   2.172   7.106  0.3505 -0.4428 -0.0177
 1205SOL    HW115248   3.461   2.092   7.070  0.6309 -0.5211 -0.1541
 1205SOL    HW215249   3.441   2.242   7.081  0.0881 -0.9890 -0.8953
 1206SOL     OW15250   0.991   4.496   3.038  0.0102 -0.0758 -0.0736
 1206SOL    HW115251   0.921   4.528   2.980 -0.4318  0.2191  0.6226
 1206SOL    HW215252   1.040   4.578   3.039 -2.7722  1.5889 -0.2439
 1207SOL     OW15253   1.174   0.255   6.780  0.2580 -0.0305 -0.1664
 1207SOL    HW115254   1.152   0.168   6.746 -0.3796 -0.2299  0.7605
 1207SOL    HW215255   1.091   0.300   6.795 -0.4458 -1.9081  1.6007
 1208SOL     OW15256   1.925   3.163  15.454  0.0810  0.6913 -0.4460
 1208SOL    HW115257   1.898   3.252  15.477  2.3451  1.5912 -1.2193
 1208SOL    HW215258   1.859   3.128  15.395  0.3401  1.7188 -1.3467
 1209SOL     OW15259   2.744   0.050   2.790 -0.1556 -0.4496  0.4998
 1209SOL    HW115260   2.824   0.089   2.825  0.1031  0.3018 -0.9393
 1209SOL    HW215261   2.717   0.121   2.733  1.0111  1.8092  2.7747
 1210SOL     OW15262   4.615   0.172   4.115 -0.1422 -0.2500  0.3937
 1210SOL    HW115263   4.686   0.237   4.113 -1.7254  1.4122 -1.7579
 1210SOL    HW215264   4.645   0.092   4.071  1.5887  0.1575  0.8107
 1211SOL     OW15265   1.563   3.254   3.257 -0.0210  0.2848 -0.1872
 1211SOL    HW115266   1.513   3.264   3.338 -0.0683 -0.3635 -0.1370
 1211SOL    HW215267   1.612   3.336   3.261 -0.9086  0.7520  1.2050
 1212SOL     OW15268   1.278   4.512   8.330 -0.3072 -0.8704 -0.0907
 1212SOL    HW115269   1.283   4.418   8.310  2.5148 -0.7188 -0.2097
 1212SOL    HW215270   1.184   4.522   8.319 -0.5187 -0.7667  1.7237
 1213SOL     OW15271   1.889   4.376   0.058  0.3221 -0.3211 -0.3913
 1213SOL    HW115272   1.859   4.344  17.716  3.2701  2.2173 -2.4257
 1213SOL    HW215273   1.985   4.380   0.055  0.2575  2.4176  0.8723
 1214SOL     OW15274   0.900   0.720   7.728 -0.0813  0.0749  0.1219
 1214SOL    HW115275   0.900   0.632   7.690  2.4027  0.3090 -0.4272
 1214SOL    HW215276   0.898   0.700   7.822  0.7915 -0.8678 -0.0540
 1215SOL     OW15277   1.428   1.929   0.691 -0.0797 -0.4964 -0.1581
 1215SOL    HW115278   1.522   1.911   0.690 -0.0101 -0.2104  1.7745
 1215SOL    HW215279   1.433   2.023   0.708  1.5408 -0.3874 -1.2558
 1216SOL     OW15280   4.232   4.372   3.687 -0.1712 -0.0657 -0.2203
 1216SOL    HW115281   4.233   4.281   3.656 -1.2569  0.0973 -0.7401
 1216SOL    HW215282   4.140   4.399   3.692 -0.1515 -0.1997  0.8090
 1217SOL     OW15283   1.366   0.672   3.285 -0.1445 -0.0306  0.0411
 1217SOL    HW115284   1.416   0.624   3.219 -1.7341  0.4101 -1.5009
 1217SOL    HW215285   1.426   0.677   3.358 -2.1644  0.1031  1.6962
 1218SOL     OW15286   2.861   3.602   5.368 -0.1356 -0.3044  0.3362
 1218SOL    HW115287   2.870   3.652   5.449  1.8864  0.0248 -0.1011
 1218SOL    HW215288   2.863   3.676   5.308  1.8292 -1.3339 -0.8776
 1219SOL     OW15289   4.517   1.926  15.879 -0.5070 -0.4459  0.2046
 1219SOL    HW115290   4.546   2.017  15.882  0.3530 -0.7102  0.1010
 1219SOL    HW215291   4.586   1.890  15.823 -1.6896 -1.9297 -0.2951
 1220SOL     OW15292   4.620   0.560   7.442  0.1232  0.8139 -0.0777
 1220SOL    HW115293   4.671   0.522   7.513  1.7895  2.5623 -0.3515
 1220SOL    HW215294   4.685   0.617   7.401 -2.4351  0.9938 -3.8993
 1221SOL     OW15295   0.368   1.536   5.430 -0.1627 -0.0853  0.1448
 1221SOL    HW115296   0.307   1.512   5.360  0.0352 -0.1298 -0.0123
 1221SOL    HW215297   0.323   1.616   5.458  0.5326 -0.9820  3.7759
 1222SOL     OW15298   2.630   3.106   0.388  0.7540  0.2881  0.1108
 1222SOL    HW115299   2.598   3.192   0.416 -0.1941 -0.1102  0.2217
 1222SOL    HW215300   2.567   3.087   0.319 -0.0111 -0.6672  1.0649
 1223SOL     OW15301   0.988   0.463   4.457 -0.1244  0.2847  0.1633
 1223SOL    HW115302   1.047   0.538   4.470 -0.2942  0.2093  1.2756
 1223SOL    HW215303   1.053   0.393   4.463  0.9663  1.2306 -0.4653
 1224SOL     OW15304   1.382   4.141   0.330  0.1533  0.1041  0.6952
 1224SOL    HW115305   1.427   4.201   0.389  1.4187  0.6859 -0.8575
 1224SOL    HW215306   1.400   4.055   0.369  0.7911 -1.1316 -2.3292
 1225SOL     OW15307   3.897   1.806   3.673 -0.2423  0.4600  0.2677
 1225SOL    HW115308   3.926   1.757   3.750  0.7102 -2.2453 -1.7806
 1225SOL    HW215309   3.973   1.863   3.680  1.0163 -1.3487  1.5571
 1226SOL     OW15310   0.348   0.573   6.393  0.2527 -0.2531 -0.4893
 1226SOL    HW115311   0.430   0.529   6.370  0.3542 -0.4164  0.1985
 1226SOL    HW215312   0.363   0.634   6.465  0.2350 -0.0198 -0.6821
 1227SOL     OW15313   4.265   2.232  15.025 -0.2256 -0.5222  0.0819
 1227SOL    HW115314   4.346   2.182  15.014  1.0396  1.6700 -0.4597
 1227SOL    HW215315   4.216   2.166  15.074  0.6593 -1.3557 -0.1409
 1228SOL     OW15316   4.560   2.201   2.492  0.6809  0.3777 -0.6395
 1228SOL    HW115317   4.627   2.266   2.510  2.1770 -1.3553  0.0886
 1228SOL    HW215318   4.498   2.251   2.439 -0.8630 -0.7818  0.0501
 1229SOL     OW15319   0.649   4.336  10.063  0.3014  0.1245  0.4399
 1229SOL    HW115320   0.646   4.422  10.020 -1.8650 -0.4586 -0.5860
 1229SOL    HW215321   0.738   4.309  10.038  0.2374  0.3449 -0.0363
 1230SOL     OW15322   1.687   0.462   6.925 -0.5387 -0.0157  0.1655
 1230SOL    HW115323   1.605   0.497   6.959  0.4165  0.4637  2.0161
 1230SOL    HW215324   1.717   0.521   6.856 -1.7221  0.4082  0.0256
 1231SOL     OW15325   1.387   2.219   9.892 -0.2795 -0.0702 -0.2047
 1231SOL    HW115326   1.434   2.138   9.907  0.2786  0.7351  2.5163
 1231SOL    HW215327   1.413   2.247   9.805  1.5106  0.3072  0.4539
 1232SOL     OW15328   1.133   4.700   6.951 -0.5558  0.6561  0.2114
 1232SOL    HW115329   1.179   4.676   6.870  0.0323 -1.3911  1.1430
 1232SOL    HW215330   1.044   4.720   6.924 -0.1744 -0.7794 -2.0600
 1233SOL     OW15331   3.529   4.295   9.775  0.4607  0.1597 -0.4652
 1233SOL    HW115332   3.589   4.290   9.849 -0.8703 -2.8761  0.3853
 1233SOL    HW215333   3.516   4.390   9.774 -1.0195 -0.0400  0.0272
 1234SOL     OW15334   3.101   1.129   8.472  0.1114 -0.1185 -0.1149
 1234SOL    HW115335   3.180   1.077   8.456  0.9784  0.7956  1.2839
 1234SOL    HW215336   3.125   1.174   8.553 -0.4888  1.6291 -0.8953
 1235SOL     OW15337   3.619   1.664   9.980  0.1555  0.1611 -0.0837
 1235SOL    HW115338   3.696   1.711  10.010  0.9037 -0.9132 -0.3547
 1235SOL    HW215339   3.635   1.582  10.026  1.6453  1.0904  1.0361
 1236SOL     OW15340   2.046   0.420  12.594 -0.5663 -0.0654  0.2630
 1236SOL    HW115341   2.108   0.416  12.667 -0.1753 -1.2754 -0.1343
 1236SOL    HW215342   2.088   0.477  12.530 -0.9126  0.2982  0.3582
 1237SOL     OW15343   2.404   2.852   3.674  0.0409 -0.0512  0.2925
 1237SOL    HW115344   2.320   2.841   3.630 -0.8838  1.9876  1.5568
 1237SOL    HW215345   2.445   2.773   3.638  0.8145  1.0237 -1.1625
 1238SOL     OW15346   2.457   4.071   6.224 -0.0394 -0.2974  0.1008
 1238SOL    HW115347   2.413   4.006   6.170  0.0541  0.1874 -0.5707
 1238SOL    HW215348   2.395   4.078   6.296 -1.5624  0.0071 -1.2368
 1239SOL     OW15349   4.406   3.543  16.522  0.2201  0.2120  0.1602
 1239SOL    HW115350   4.412   3.450  16.547  0.9146 -0.3096 -1.9604
 1239SOL    HW215351   4.496   3.571  16.504 -0.3373  1.5608 -0.4759
 1240SOL     OW15352   3.402   1.113   5.975 -0.6165 -0.1672  0.2622
 1240SOL    HW115353   3.396   1.078   6.065 -2.0657  1.5185  0.8186
 1240SOL    HW215354   3.387   1.206   5.986 -0.2034  0.3352 -3.4729
 1241SOL     OW15355   1.866   2.394   9.317  0.1968  0.3588 -0.4728
 1241SOL    HW115356   1.865   2.319   9.377 -1.8225  1.1345  0.4897
 1241SOL    HW215357   1.938   2.439   9.361  1.6211  0.1188 -2.6214
 1242SOL     OW15358   4.460   2.199   8.041 -0.2615 -0.2900 -0.3165
 1242SOL    HW115359   4.402   2.123   8.044 -0.8133  0.1774  0.7338
 1242SOL    HW215360   4.505   2.186   8.125 -0.9212 -3.5592 -0.4836
 1243SOL     OW15361   2.671   2.022  13.902 -0.6566 -0.5488  0.0523
 1243SOL    HW115362   2.579   2.007  13.924 -0.2492 -1.2967  1.2865
 1243SOL    HW215363   2.668   2.113  13.874 -1.8169 -0.9575 -1.1192
 1244SOL     OW15364   2.233   3.494   2.832 -0.3644 -0.5758 -0.0974
 1244SOL    HW115365   2.173   3.432   2.792  2.5377 -2.3490 -1.7109
 1244SOL    HW215366   2.179   3.571   2.847  1.3329  0.6471 -0.1826
 1245SOL     OW15367   0.154   1.185   9.400 -0.3589  0.2284  0.3335
 1245SOL    HW115368   0.145   1.240   9.477 -1.1392 -1.2841  1.3229
 1245SOL    HW215369   0.223   1.123   9.426 -0.4320  0.4175  0.9622
 1246SOL     OW15370   3.676   2.933  14.668 -0.0709  0.2506  0.5969
 1246SOL    HW115371   3.594   2.955  14.624  0.9163  0.3229 -1.2043
 1246SOL    HW215372   3.703   2.849  14.631 -0.6833 -0.3479  1.5085
 1247SOL     OW15373   2.144   0.433   1.021  0.2305 -0.2866  0.1786
 1247SOL    HW115374   2.219   0.386   0.984  0.6895 -0.3478  1.1972
 1247SOL    HW215375   2.155   0.426   1.116 -0.5765  0.6377  0.3407
 1248SOL     OW15376   1.287   1.592   7.414  0.0578  0.0711 -0.2488
 1248SOL    HW115377   1.315   1.501   7.414  0.7730  0.3007  2.1137
 1248SOL    HW215378   1.212   1.595   7.474 -1.6109 -0.0919 -2.2979
 1249SOL     OW15379   4.292   0.209  11.742  0.0825  0.2708 -0.2996
 1249SOL    HW115380   4.343   0.136  11.706  0.7004  0.3526  0.4149
 1249SOL    HW215381   4.335   0.228  11.825 -0.3905  0.0184  0.0019
 1250SOL     OW15382   3.915   4.016   6.049 -0.3249 -0.2360  0.1424
 1250SOL    HW115383   3.974   4.083   6.085 -0.4515  0.9113 -1.8015
 1250SOL    HW215384   3.890   3.970   6.129  1.0462 -0.6908  0.3140
 1251SOL     OW15385   1.805   2.559   4.564  0.1375  0.3203 -0.3031
 1251SOL    HW115386   1.798   2.466   4.542 -0.4097  0.7457 -1.8809
 1251SOL    HW215387   1.763   2.591   4.484  1.9078  0.8320 -1.0301
 1252SOL     OW15388   2.394   3.318   5.394  0.1494 -0.8790  0.0045
 1252SOL    HW115389   2.470   3.313   5.336  1.4460  2.0076  1.4652
 1252SOL    HW215390   2.408   3.241   5.449 -1.4367 -0.7860  0.5451
 1253SOL     OW15391   0.055   3.957  17.063 -0.0542 -0.5286  0.2087
 1253SOL    HW115392   0.055   4.019  16.990 -2.9555 -1.0688 -0.2322
 1253SOL    HW215393   0.135   3.968  17.114 -0.5607 -1.7539  1.2599
 1254SOL     OW15394   1.728   1.044   7.747  0.0942  0.3572  0.0113
 1254SOL    HW115395   1.796   1.046   7.680 -0.4387  1.7042 -0.4897
 1254SOL    HW215396   1.733   1.119   7.806  0.6955  1.2291 -1.1400
 1255SOL     OW15397   4.714   3.112   8.075 -0.0079 -0.0990 -0.3841
 1255SOL    HW115398   4.630   3.144   8.040 -0.1809 -1.7850 -1.5003
 1255SOL    HW215399   4.718   3.038   8.015  0.5779 -0.7409  0.4435
 1256SOL     OW15400   1.430   1.809   8.230  0.9042 -0.5243  0.2831
 1256SOL    HW115401   1.343   1.771   8.238  0.6173  0.2648  0.9272
 1256SOL    HW215402   1.449   1.791   8.138 -0.3119 -1.2927  0.1803
 1257SOL     OW15403   3.342   3.565   9.442  0.5037 -0.4135  0.0328
 1257SOL    HW115404   3.303   3.487   9.482 -0.9652 -0.6103 -1.7618
 1257SOL    HW215405   3.413   3.584   9.503  0.0824  0.3820  0.2769
 1258SOL     OW15406   0.831   3.747   9.983 -0.1174  0.1377  0.9822
 1258SOL    HW115407   0.891   3.673   9.975 -3.5744 -2.4405 -1.3612
 1258SOL    HW215408   0.742   3.712   9.989 -0.8580  2.0502  1.0793
 1259SOL     OW15409   4.570   4.538   5.808 -0.5339 -0.1485  0.1228
 1259SOL    HW115410   4.651   4.488   5.800 -0.5872  0.0256 -1.5974
 1259SOL    HW215411   4.508   4.466   5.800  0.2617 -0.8579  0.2594
 1260SOL     OW15412   4.217   3.053   4.340 -0.4759  0.0142 -0.0792
 1260SOL    HW115413   4.258   3.132   4.304 -0.5132 -0.1924 -0.5829
 1260SOL    HW215414   4.245   2.993   4.271 -0.6812 -0.8799  0.6250
 1261SOL     OW15415   1.683   0.250   5.697 -0.2286  0.6261 -0.0047
 1261SOL    HW115416   1.733   0.285   5.623 -1.0769  3.1048  0.5883
 1261SOL    HW215417   1.677   0.330   5.749 -1.5308  0.6170 -0.1351
 1262SOL     OW15418   1.671   2.625   5.677 -0.1772  0.3620  0.3002
 1262SOL    HW115419   1.578   2.629   5.702 -0.7158  1.0686 -1.7903
 1262SOL    HW215420   1.688   2.531   5.677 -1.4465  0.1288 -2.3567
 1263SOL     OW15421   0.454   0.601   8.138  0.0455 -0.1119  0.2491
 1263SOL    HW115422   0.525   0.569   8.194 -0.7929  0.8187  1.8301
 1263SOL    HW215423   0.431   0.519   8.095 -1.3955 -0.2838  1.3728
 1264SOL     OW15424   2.930   2.685   3.815  0.1780  0.6658 -0.3757
 1264SOL    HW115425   2.869   2.745   3.771 -0.7230 -2.2966 -3.1440
 1264SOL    HW215426   3.009   2.739   3.805  2.0092 -2.0608 -0.5205
 1265SOL     OW15427   0.562   1.579   6.305 -0.0744 -0.2410 -0.9426
 1265SOL    HW115428   0.467   1.591   6.307 -0.4721 -3.3389 -1.0022
 1265SOL    HW215429   0.589   1.655   6.253 -1.4930  0.3785 -0.7656
 1266SOL     OW15430   3.981   4.424   2.922  0.2606 -0.2423 -0.1244
 1266SOL    HW115431   4.055   4.368   2.945  0.8943  1.1811  1.3147
 1266SOL    HW215432   3.977   4.427   2.827 -1.4405  1.8991  0.0017
 1267SOL     OW15433   2.567   3.716   6.762 -0.1850 -0.1962 -0.1721
 1267SOL    HW115434   2.495   3.704   6.700  1.5375 -1.9791 -1.8246
 1267SOL    HW215435   2.544   3.645   6.821  1.3074  0.8149  1.6248
 1268SOL     OW15436   4.020   2.376   3.887 -0.4904 -0.1243  0.0610
 1268SOL    HW115437   3.999   2.461   3.850  1.0556  0.6993  1.0826
 1268SOL    HW215438   3.935   2.369   3.931 -0.2069 -1.9081  0.3239
 1269SOL     OW15439   4.687   0.507   7.093  0.2313  0.3621 -0.1860
 1269SOL    HW115440   4.734   0.480   7.173 -1.9992  0.5437  1.1704
 1269SOL    HW215441   4.637   0.427   7.076  0.0352  0.1804  1.2368
 1270SOL     OW15442   3.468   3.675   1.461 -0.4824  0.0718  0.5119
 1270SOL    HW115443   3.470   3.698   1.368 -1.1383  1.0976  0.7428
 1270SOL    HW215444   3.375   3.682   1.483 -0.1352 -0.3342  2.1219
 1271SOL     OW15445   2.518   2.728   9.228 -0.2543  0.0250  0.8592
 1271SOL    HW115446   2.548   2.693   9.144 -1.0218  3.0855 -0.7132
 1271SOL    HW215447   2.500   2.817   9.197  2.1610 -0.6149 -2.4709
 1272SOL     OW15448   1.694   3.796   2.066  0.0954 -0.2140  0.0531
 1272SOL    HW115449   1.762   3.752   2.015  1.1445  1.4167  0.0490
 1272SOL    HW215450   1.744   3.840   2.135 -0.2815  1.9433 -1.0716
 1273SOL     OW15451   0.295   1.158   3.922  0.1350 -0.3197 -0.4182
 1273SOL    HW115452   0.262   1.119   3.840 -0.5455 -0.5879 -0.0167
 1273SOL    HW215453   0.235   1.130   3.992 -0.2928 -1.8000 -1.3618
 1274SOL     OW15454   1.155   4.670  11.439 -0.0177  0.5516  0.4214
 1274SOL    HW115455   1.064   4.693  11.416 -0.0112  0.2415  0.0859
 1274SOL    HW215456   1.150   4.577  11.462  2.0818  0.8147  1.8404
 1275SOL     OW15457   0.084   3.710   3.732  0.2146 -0.1406  0.5161
 1275SOL    HW115458   0.157   3.758   3.772  1.3826  0.8165 -2.7714
 1275SOL    HW215459   0.112   3.683   3.645  0.6247  0.1522  0.5525
 1276SOL     OW15460   0.685   4.120  17.401  0.0112 -0.4949 -0.1944
 1276SOL    HW115461   0.642   4.070  17.470 -2.4388 -1.1041 -2.1498
 1276SOL    HW215462   0.617   4.155  17.343 -0.4879  1.8927  1.8143
 1277SOL     OW15463   0.546   0.860   3.864 -0.1099 -0.5129 -0.5110
 1277SOL    HW115464   0.628   0.827   3.827  0.7480  0.7448  0.3239
 1277SOL    HW215465   0.564   0.906   3.946 -3.1840 -2.3294  1.2287
 1278SOL     OW15466   4.318   3.037   5.782 -0.9030 -0.2491 -0.2188
 1278SOL    HW115467   4.313   3.036   5.877 -0.1258  0.9760 -0.1654
 1278SOL    HW215468   4.392   2.978   5.769 -1.1723 -0.9414  1.4628
 1279SOL     OW15469   2.330   0.167   3.335 -0.7150 -0.1651  0.1729
 1279SOL    HW115470   2.412   0.128   3.303 -0.1180 -0.5937  2.2059
 1279SOL    HW215471   2.330   0.140   3.427 -3.2340  1.4141  0.6377
 1280SOL     OW15472   0.474   3.923  15.024 -0.0058 -0.4124 -0.5683
 1280SOL    HW115473   0.393   3.967  15.049 -0.5596 -0.8347 -1.6313
 1280SOL    HW215474   0.504   3.985  14.957 -0.7321  1.1423  0.5507
 1281SOL     OW15475   1.403   2.394   5.473 -0.2294  0.1569  0.4825
 1281SOL    HW115476   1.397   2.465   5.409 -0.7521 -0.5580 -0.2622
 1281SOL    HW215477   1.478   2.345   5.438  0.8653  1.6048  0.7816
 1282SOL     OW15478   3.661   3.317   6.037  0.4011 -0.2997 -0.1423
 1282SOL    HW115479   3.717   3.331   6.114  1.1970 -2.2361 -0.3629
 1282SOL    HW215480   3.656   3.222   6.046  0.5343 -0.1774  1.2644
 1283SOL     OW15481   2.382   2.259   6.076 -0.8100 -0.0323 -0.3729
 1283SOL    HW115482   2.368   2.345   6.115 -1.8669 -1.2062  1.7698
 1283SOL    HW215483   2.402   2.289   5.987 -1.5367 -2.0542 -1.2059
 1284SOL     OW15484   2.852   0.715   0.651 -0.4249 -0.2671  0.5653
 1284SOL    HW115485   2.920   0.649   0.639 -1.5683 -1.4791  0.7214
 1284SOL    HW215486   2.779   0.656   0.670 -0.0468 -0.5242  1.1975
 1285SOL     OW15487   1.606   0.132   5.265 -0.1370 -0.4241  0.0336
 1285SOL    HW115488   1.568   0.215   5.297 -0.8613 -0.0129 -1.9044
 1285SOL    HW215489   1.552   0.074   5.319  1.1124  0.3150  2.0588
 1286SOL     OW15490   2.709   4.256   4.601  0.0484  0.3673 -0.5381
 1286SOL    HW115491   2.775   4.310   4.557 -1.9606  1.9117 -1.6421
 1286SOL    HW215492   2.769   4.185   4.627  0.1868  0.8702  0.5367
 1287SOL     OW15493   0.187   4.557   4.798 -0.0055  0.2213 -0.6148
 1287SOL    HW115494   0.237   4.509   4.865 -0.3650  1.7853  0.7697
 1287SOL    HW215495   0.249   4.627   4.778  1.4196 -1.0926 -0.8172
 1288SOL     OW15496   2.542   4.462   5.591 -0.7787  0.3828  0.6604
 1288SOL    HW115497   2.591   4.393   5.546 -1.1708 -0.4893  1.5751
 1288SOL    HW215498   2.603   4.535   5.581 -1.6776  0.5863 -3.0766
 1289SOL     OW15499   2.160   0.452  16.580 -0.5771  0.2709  0.1183
 1289SOL    HW115500   2.226   0.501  16.531 -1.1394  1.6127  0.7021
 1289SOL    HW215501   2.176   0.489  16.666  0.7730  1.0766 -0.4879
 1290SOL     OW15502   3.701   1.453   0.213  0.2481  0.2722 -0.6399
 1290SOL    HW115503   3.666   1.364   0.201  1.5120 -0.0106 -2.1858
 1290SOL    HW215504   3.796   1.446   0.215  0.0739 -1.8954  0.7541
 1291SOL     OW15505   1.568   3.487   8.625 -0.4116 -0.0907  0.2784
 1291SOL    HW115506   1.576   3.440   8.542 -3.2399 -1.9062  1.0133
 1291SOL    HW215507   1.613   3.567   8.599  0.0181 -0.7984 -1.1508
 1292SOL     OW15508   0.042   2.009   9.954 -1.0168 -0.1258 -0.6635
 1292SOL    HW115509   0.077   2.067  10.022  1.3165 -2.3103 -0.0290
 1292SOL    HW215510   0.127   1.992   9.913 -0.3329  1.1016  0.2395
 1293SOL     OW15511   3.694   2.663  16.797 -0.0411  0.5258  0.7386
 1293SOL    HW115512   3.682   2.612  16.718 -0.7723 -0.3509  1.4232
 1293SOL    HW215513   3.789   2.660  16.814 -0.0880 -0.1489  0.8799
 1294SOL     OW15514   1.537   4.459   8.651  0.4341  0.1291  0.4494
 1294SOL    HW115515   1.548   4.489   8.560  5.1591  1.1512  1.3391
 1294SOL    HW215516   1.459   4.404   8.644  1.9465 -1.8896 -0.4365
 1295SOL     OW15517   0.307   4.654   8.222  0.4947 -0.7055 -0.4681
 1295SOL    HW115518   0.293   4.631   8.314  1.2304  1.6452  0.2388
 1295SOL    HW215519   0.359   4.733   8.237 -1.4599  0.2975  0.9936
 1296SOL     OW15520   3.851   2.519  16.034  0.0807  1.2370  0.2457
 1296SOL    HW115521   3.944   2.531  16.017  0.5594 -2.1123  0.5968
 1296SOL    HW215522   3.821   2.606  16.006  1.1266  1.2747 -0.7618
 1297SOL     OW15523   0.909   0.399   8.992 -0.9904  0.0321  0.5918
 1297SOL    HW115524   0.936   0.415   8.901  1.0701  0.5582  1.2836
 1297SOL    HW215525   0.991   0.403   9.042  0.1105 -0.9299 -1.1066
 1298SOL     OW15526   1.240   3.253   6.926  0.0227 -0.5249  0.0094
 1298SOL    HW115527   1.290   3.197   6.986 -1.0859 -0.8291  0.6489
 1298SOL    HW215528   1.317   3.279   6.876  1.5983  0.4614  2.9198
 1299SOL     OW15529   1.387   2.368  12.280 -0.1589 -0.3921 -0.0283
 1299SOL    HW115530   1.473   2.339  12.248  0.4936  2.6224 -1.0079
 1299SOL    HW215531   1.419   2.411  12.359  0.3130  0.8116 -0.8658
 1300SOL     OW15532   0.317   0.863  10.490 -0.1973  0.7695  0.4843
 1300SOL    HW115533   0.305   0.956  10.510  2.9794  0.8016  2.0940
 1300SOL    HW215534   0.302   0.862  10.395  1.2131  0.6474  0.2665
 1301SOL     OW15535   1.199   0.057   0.962  0.0384 -0.1023 -0.4140
 1301SOL    HW115536   1.174   0.124   0.898 -0.2806  1.6696  1.5758
 1301SOL    HW215537   1.251   0.108   1.023  0.1750 -0.8056  0.0526
 1302SOL     OW15538   4.189   1.903   0.166  0.4560 -1.0737  0.4164
 1302SOL    HW115539   4.153   1.830   0.116  2.3058 -0.2184 -2.1980
 1302SOL    HW215540   4.276   1.913   0.127 -0.3302 -1.6910 -1.4929
 1303SOL     OW15541   2.344   2.433   7.844 -0.4908 -0.8168 -0.2475
 1303SOL    HW115542   2.328   2.508   7.903  0.8219 -1.5311  1.0293
 1303SOL    HW215543   2.431   2.451   7.809 -1.8622  1.3769 -2.5675
 1304SOL     OW15544   3.446   2.203   1.204  0.5688  0.4558 -0.2327
 1304SOL    HW115545   3.401   2.168   1.126  3.2217 -0.2874 -1.4217
 1304SOL    HW215546   3.470   2.131   1.262 -4.6071 -2.4539 -1.7011
 1305SOL     OW15547   0.475   1.847   2.757 -0.0237  0.2107 -0.2854
 1305SOL    HW115548   0.524   1.861   2.838 -2.0761  0.4569  0.9035
 1305SOL    HW215549   0.534   1.874   2.687 -2.5153  0.0778 -2.4059
 1306SOL     OW15550   1.217   3.860  11.180  0.0609  0.5924 -0.0640
 1306SOL    HW115551   1.258   3.849  11.266  0.8598  2.2200 -0.2415
 1306SOL    HW215552   1.269   3.800  11.126 -3.2733 -3.8027  1.6096
 1307SOL     OW15553   3.100   2.376   8.263 -0.0752 -0.8159 -0.5187
 1307SOL    HW115554   3.102   2.280   8.266  1.2765 -0.8040 -1.2319
 1307SOL    HW215555   3.016   2.386   8.217 -1.0714 -1.4560  1.1294
 1308SOL     OW15556   0.033   4.447  14.917  0.4827  0.2982 -0.0825
 1308SOL    HW115557   0.010   4.540  14.922 -2.6145 -0.4177 -0.7712
 1308SOL    HW215558   0.109   4.438  14.975  1.3137  0.0746 -1.2203
 1309SOL     OW15559   1.511   4.058   3.135 -0.0320 -0.3633  0.2262
 1309SOL    HW115560   1.470   4.012   3.061 -0.9046  0.7230  0.0267
 1309SOL    HW215561   1.553   4.132   3.093 -0.6289  0.1826  0.5926
 1310SOL     OW15562   0.802   2.274   8.383 -0.2474  0.3490  0.4828
 1310SOL    HW115563   0.725   2.290   8.438 -1.8406  0.1783 -1.7089
 1310SOL    HW215564   0.839   2.362   8.372  0.3907  0.0675  0.3539
 1311SOL     OW15565   3.576   2.930   7.201  0.5361  0.4867  0.0651
 1311SOL    HW115566   3.500   2.873   7.209  0.7948  0.0775 -0.4022
 1311SOL    HW215567   3.531   3.012   7.180 -0.2089  0.5103  1.7174
 1312SOL     OW15568   0.617   4.685   7.003 -0.3178 -0.2400  0.4714
 1312SOL    HW115569   0.665   4.659   7.081  2.1693  0.3436 -0.8719
 1312SOL    HW215570   0.611   0.044   7.012 -2.0838 -0.3082  0.0310
 1313SOL     OW15571   3.062   3.185   5.248 -0.0986 -0.1150  0.1751
 1313SOL    HW115572   2.983   3.239   5.259 -0.7840 -0.9157 -0.7397
 1313SOL    HW215573   3.125   3.210   5.315  0.8875 -0.2867 -0.6813
 1314SOL     OW15574   0.507   0.611   3.609 -0.0505 -0.0760  0.3793
 1314SOL    HW115575   0.555   0.663   3.545 -0.6971  0.3108  0.2179
 1314SOL    HW215576   0.468   0.683   3.658 -1.9918 -1.0586  0.2622
 1315SOL     OW15577   3.723   0.947   9.120  0.2659  0.1772  0.4227
 1315SOL    HW115578   3.688   1.016   9.176 -1.6741 -2.0327  1.9177
 1315SOL    HW215579   3.648   0.935   9.062  0.0715  0.1889  0.6712
 1316SOL     OW15580   2.569   2.122   2.580 -0.1140 -0.3688  0.0081
 1316SOL    HW115581   2.550   2.197   2.637 -0.5499  0.0106 -0.6342
 1316SOL    HW215582   2.501   2.059   2.605 -1.1277 -0.1871 -2.3449
 1317SOL     OW15583   4.164   0.425  12.232  0.6812 -0.0707  0.6284
 1317SOL    HW115584   4.113   0.387  12.161 -0.8065  0.5824  1.3393
 1317SOL    HW215585   4.166   0.517  12.203 -2.9378 -0.7147 -1.7153
 1318SOL     OW15586   2.392   3.636   7.358 -0.4860 -0.3327  0.2060
 1318SOL    HW115587   2.404   3.723   7.396  1.7804 -1.1253  1.2618
 1318SOL    HW215588   2.467   3.578   7.372 -0.1791 -0.5384 -2.4292
 1319SOL     OW15589   0.095   0.220  16.362  0.1958 -0.5374 -0.2160
 1319SOL    HW115590   0.138   0.139  16.388 -1.0431 -1.2609 -0.4325
 1319SOL    HW215591   0.090   0.255  16.451  0.6750 -3.1923  0.8677
 1320SOL     OW15592   2.632   1.944   9.267  0.3853 -0.0896  0.1369
 1320SOL    HW115593   2.715   1.896   9.263  0.3509 -0.0762 -0.8684
 1320SOL    HW215594   2.575   1.876   9.303  1.0045 -0.6376  0.0833
 1321SOL     OW15595   4.307   0.952  14.302 -0.3379  0.2841  0.4321
 1321SOL    HW115596   4.224   0.981  14.265 -0.5100 -0.5310  0.1775
 1321SOL    HW215597   4.297   0.857  14.292 -4.6692  0.4667  3.1652
 1322SOL     OW15598   0.973   1.499   4.301 -0.3300  0.0315  0.5716
 1322SOL    HW115599   0.962   1.595   4.302 -1.4790 -0.1083  1.5424
 1322SOL    HW215600   0.884   1.468   4.286 -0.6858  2.1068 -1.7204
 1323SOL     OW15601   1.583   4.147   9.117 -0.2560 -0.3291  0.2747
 1323SOL    HW115602   1.632   4.183   9.044 -3.5894  3.3806 -0.1505
 1323SOL    HW215603   1.613   4.056   9.113  0.5807  0.1525 -3.8644
 1324SOL     OW15604   2.300   4.089   0.480  0.5137  0.7108 -0.1603
 1324SOL    HW115605   2.263   4.115   0.564  1.3909 -0.5026  0.5966
 1324SOL    HW215606   2.392   4.090   0.506  0.1704  1.4165  0.9990
 1325SOL     OW15607   1.766   2.585   3.386 -0.2617  0.1332  0.2514
 1325SOL    HW115608   1.842   2.625   3.429 -1.0284 -0.7792  2.4290
 1325SOL    HW215609   1.752   2.659   3.327  3.2632  0.1305 -0.6091
 1326SOL     OW15610   1.925   3.321   2.537 -0.5466  0.5261  0.7741
 1326SOL    HW115611   1.856   3.256   2.549 -0.8383  0.6670 -0.1621
 1326SOL    HW215612   1.906   3.346   2.447 -3.1430 -0.2703  1.1030
 1327SOL     OW15613   2.712   3.387   0.652 -0.2338 -0.1556  0.5530
 1327SOL    HW115614   2.712   3.380   0.748 -1.9890  1.2079  0.6375
 1327SOL    HW215615   2.627   3.354   0.624  0.7984 -3.0853  0.8856
 1328SOL     OW15616   4.151   4.508  12.852  0.1843  0.2365  0.2065
 1328SOL    HW115617   4.131   4.484  12.762 -0.6589 -1.2961  0.8001
 1328SOL    HW215618   4.245   4.490  12.857  0.1627  0.4874  1.5941
 1329SOL     OW15619   2.858   0.757  17.609 -0.5824  0.3234 -0.2460
 1329SOL    HW115620   2.948   0.725  17.599 -0.4226 -0.0237  2.3040
 1329SOL    HW215621   2.853   0.773  17.703  0.7405  2.5080 -0.5444
 1330SOL     OW15622   0.946   4.433  13.486  0.3295 -0.0189 -0.0072
 1330SOL    HW115623   0.933   4.369  13.416  0.5699  1.2832 -1.2393
 1330SOL    HW215624   0.859   4.445  13.524  0.2298 -1.3072  0.1785
 1331SOL     OW15625   4.634   2.172   8.267  0.4388 -0.6065 -0.1239
 1331SOL    HW115626   4.656   2.179   8.360 -3.4421 -1.8525  0.8689
 1331SOL    HW215627   4.706   2.225   8.232  0.3017  1.1229  2.1741
 1332SOL     OW15628   3.710   2.196   2.386 -0.2967  0.4232 -0.5669
 1332SOL    HW115629   3.615   2.199   2.392 -0.4053  0.0203 -1.9382
 1332SOL    HW215630   3.731   2.110   2.423 -2.1378 -0.9414 -2.7163
 1333SOL     OW15631   2.227   1.555   6.337  0.2224 -0.1537  0.5125
 1333SOL    HW115632   2.228   1.517   6.425 -1.3743  0.8770  0.9761
 1333SOL    HW215633   2.159   1.621   6.352  1.4093  1.0466  0.6269
 1334SOL     OW15634   1.982   3.367  17.146  0.1624 -0.6886 -0.0203
 1334SOL    HW115635   2.029   3.445  17.117  0.7198 -0.8793  0.3812
 1334SOL    HW215636   2.022   3.366  17.233 -1.4043 -0.8068  0.7007
 1335SOL     OW15637   4.030   1.707  11.638 -0.0416 -0.0599  0.0590
 1335SOL    HW115638   3.994   1.670  11.557 -1.5674  0.5938  0.4353
 1335SOL    HW215639   4.028   1.629  11.694 -0.7976 -1.1555 -1.5019
 1336SOL     OW15640   1.219   4.369  16.852 -0.4079  0.1301 -0.0037
 1336SOL    HW115641   1.282   4.301  16.830  0.8594  0.9995  0.9149
 1336SOL    HW215642   1.271   4.424  16.910 -0.9945  1.3834 -0.6479
 1337SOL     OW15643   4.115   1.412   7.586  0.6215  0.0515  0.1974
 1337SOL    HW115644   4.021   1.431   7.584  0.4637 -0.5371  1.7862
 1337SOL    HW215645   4.117   1.338   7.647  0.5890 -1.4372 -1.6196
 1338SOL     OW15646   2.242   1.351   8.535  0.3007  0.0219  0.0382
 1338SOL    HW115647   2.238   1.279   8.471  2.6516 -0.3859  0.3573
 1338SOL    HW215648   2.186   1.412   8.486  0.0101 -0.1806  0.1207
 1339SOL     OW15649   2.478   2.873  11.841  0.0659  0.3119  0.3640
 1339SOL    HW115650   2.501   2.784  11.868 -1.2377 -0.1562 -0.1055
 1339SOL    HW215651   2.471   2.862  11.746 -2.4624  0.5677  0.5204
 1340SOL     OW15652   0.191   3.685   3.451 -0.3783  0.1541  0.5150
 1340SOL    HW115653   0.211   3.601   3.409 -2.2946 -0.6941  1.3141
 1340SOL    HW215654   0.283   3.710   3.455 -0.1437 -0.7927  1.0680
 1341SOL     OW15655   0.081   1.372   3.626 -0.4646 -0.3959 -0.1377
 1341SOL    HW115656   0.151   1.410   3.680  0.0295 -0.4099 -0.7688
 1341SOL    HW215657   0.068   1.436   3.556  4.0746 -0.0726 -0.7110
 1342SOL     OW15658   1.713   2.918   9.279  0.0241 -0.1009 -0.0957
 1342SOL    HW115659   1.807   2.913   9.263  0.1424 -0.1577  0.6192
 1342SOL    HW215660   1.700   2.827   9.306 -0.0584  0.0113  0.2467
 1343SOL     OW15661   1.760   1.584   2.508  0.4939  1.0324 -1.1175
 1343SOL    HW115662   1.720   1.614   2.589 -1.3533 -1.9757 -0.9030
 1343SOL    HW215663   1.692   1.622   2.452 -0.3171  0.7908 -0.2952
 1344SOL     OW15664   2.750   1.585   1.724 -0.0010 -0.3280 -0.1893
 1344SOL    HW115665   2.707   1.580   1.810  0.8170 -0.5671  0.1995
 1344SOL    HW215666   2.704   1.521   1.669 -1.0163 -1.5831  2.1064
 1345SOL     OW15667   3.191   4.394   6.388 -0.4425  0.8173  0.4430
 1345SOL    HW115668   3.170   4.303   6.369  0.3472  0.5544  0.8423
 1345SOL    HW215669   3.100   4.425   6.389  0.2263  2.9027 -1.1385
 1346SOL     OW15670   0.536   3.770   8.125  0.0517  0.0681  0.4329
 1346SOL    HW115671   0.539   3.853   8.078 -0.6475  0.0233  0.3138
 1346SOL    HW215672   0.448   3.742   8.101  0.3770 -0.4114 -0.1772
 1347SOL     OW15673   2.800   4.631   5.842 -0.0012 -0.1726 -0.3322
 1347SOL    HW115674   2.707   4.617   5.854 -0.3775  0.7201 -2.1279
 1347SOL    HW215675   2.817   4.571   5.769 -0.3435 -1.9757  1.0691
 1348SOL     OW15676   3.237   1.659   7.461  0.5238  0.5717  0.4655
 1348SOL    HW115677   3.213   1.746   7.428 -0.1540 -0.0154 -0.5620
 1348SOL    HW215678   3.332   1.658   7.447  0.3945 -0.3282 -0.2771
 1349SOL     OW15679   3.989   0.151   4.759 -0.1703 -0.1217 -0.0429
 1349SOL    HW115680   3.963   0.102   4.681  1.7516 -0.6535 -0.3605
 1349SOL    HW215681   4.072   0.105   4.772 -0.1296 -0.8150 -2.8142
 1350SOL     OW15682   3.989   1.128   1.952 -0.1696  0.2966 -0.0395
 1350SOL    HW115683   3.904   1.139   1.994  1.2132  1.2119  2.5780
 1350SOL    HW215684   4.007   1.035   1.963  0.1788  0.2185 -1.3997
 1351SOL     OW15685   4.463   1.117   2.437  0.0308  0.2110 -0.2504
 1351SOL    HW115686   4.522   1.163   2.377  1.5984 -0.0100  1.1374
 1351SOL    HW215687   4.459   1.168   2.518 -0.6048  0.4794 -0.4494
 1352SOL     OW15688   2.200   4.400   8.682 -0.2521  0.4464  0.2498
 1352SOL    HW115689   2.194   4.476   8.623 -0.4414 -0.7150 -1.2226
 1352SOL    HW215690   2.115   4.360   8.668 -0.2670  0.7824 -0.6369
 1353SOL     OW15691   0.770   2.506   8.779  0.0604 -0.7736  0.0687
 1353SOL    HW115692   0.759   2.582   8.836  0.4581 -2.0031  1.7804
 1353SOL    HW215693   0.796   2.547   8.696 -0.0646  0.7617  0.7916
 1354SOL     OW15694   4.646   3.262   5.689  0.1695  0.0230 -0.3892
 1354SOL    HW115695   4.563   3.220   5.666 -0.4765  0.7393  0.5970
 1354SOL    HW215696   4.609   3.350   5.702  1.8997  0.7015 -0.0728
 1355SOL     OW15697   2.454   0.971   0.585 -0.1916 -0.0689 -0.3254
 1355SOL    HW115698   2.547   0.971   0.608 -0.0026  3.2132 -1.0954
 1355SOL    HW215699   2.430   0.963   0.677  1.1146 -0.4760 -0.0214
 1356SOL     OW15700   0.213   3.183   3.812  0.4263 -0.0152  0.8080
 1356SOL    HW115701   0.228   3.250   3.745 -0.4687 -0.9097 -0.2934
 1356SOL    HW215702   0.119   3.163   3.818  0.6894 -1.5321 -0.2208
 1357SOL     OW15703   0.443   3.181   4.279 -0.0300  0.5674  0.8055
 1357SOL    HW115704   0.465   3.122   4.352 -0.3893  0.5487  0.8997
 1357SOL    HW215705   0.362   3.141   4.248 -0.4064 -0.6950  3.3789
 1358SOL     OW15706   2.093   1.918   4.099  0.0517 -0.6153  0.2117
 1358SOL    HW115707   2.173   1.888   4.142 -0.2924 -0.2659  1.0933
 1358SOL    HW215708   2.126   1.935   4.010  1.2744  0.3778  0.8513
 1359SOL     OW15709   1.908   3.833   4.371  0.1258  0.6512  0.2645
 1359SOL    HW115710   1.832   3.790   4.412  0.3207 -0.1231 -0.1859
 1359SOL    HW215711   1.872   3.854   4.285 -0.6693 -4.7569 -0.7595
 1360SOL     OW15712   1.837   1.815  12.389  0.0317  0.1128 -0.3216
 1360SOL    HW115713   1.818   1.723  12.410 -1.4406  0.0597 -1.8941
 1360SOL    HW215714   1.930   1.815  12.412 -0.3629  0.2292  1.2873
 1361SOL     OW15715   3.682   3.910   3.201  0.1853  0.2268  0.4344
 1361SOL    HW115716   3.588   3.924   3.191  0.1351  0.2416  0.9148
 1361SOL    HW215717   3.694   3.913   3.296  2.3043 -0.6003  0.2018
 1362SOL     OW15718   4.328   4.057   8.307 -0.2182 -0.1963 -0.3877
 1362SOL    HW115719   4.305   4.110   8.231 -0.0119 -1.3330 -1.2514
 1362SOL    HW215720   4.393   4.107   8.356  0.4669 -1.2634 -0.2073
 1363SOL     OW15721   2.734   4.388   7.645 -0.2823 -0.5380 -0.3685
 1363SOL    HW115722   2.715   4.481   7.631  0.8172 -0.1299  0.8173
 1363SOL    HW215723   2.787   4.385   7.565  1.6026  0.8493  0.8125
 1364SOL     OW15724   0.121   3.541   1.968  0.2239 -0.1386 -0.0095
 1364SOL    HW115725   0.094   3.575   2.054 -1.7727 -0.4306 -0.5119
 1364SOL    HW215726   0.146   3.453   1.994  0.9630 -0.4701 -1.8790
 1365SOL     OW15727   0.643   4.199   4.131  0.1465  0.1605 -0.3434
 1365SOL    HW115728   0.580   4.141   4.087  1.5644 -1.0835 -0.7488
 1365SOL    HW215729   0.600   4.284   4.141 -0.4739  0.0150 -1.6587
 1366SOL     OW15730   2.839   4.552  15.356  0.2334  0.3233 -0.4583
 1366SOL    HW115731   2.921   4.503  15.345 -0.1085 -0.6701  1.4587
 1366SOL    HW215732   2.820   4.536  15.448 -2.3438 -1.2859 -1.2812
 1367SOL     OW15733   0.107   4.050   5.048  0.2014 -0.2367  0.3890
 1367SOL    HW115734   0.051   4.057   4.970 -1.1897  0.2034  1.4296
 1367SOL    HW215735   0.062   3.989   5.106 -0.3148  1.2016  1.4971
 1368SOL     OW15736   3.953   0.706   3.685 -0.0521 -0.8570  0.3825
 1368SOL    HW115737   3.968   0.797   3.712  0.2743 -0.5075 -0.9701
 1368SOL    HW215738   3.882   0.677   3.743 -0.5117  2.5965  1.5259
 1369SOL     OW15739   2.349   4.722   8.849  0.1149 -0.0462  0.4462
 1369SOL    HW115740   2.373   0.056   8.789 -3.0518 -0.5674 -1.4306
 1369SOL    HW215741   2.254   4.720   8.833 -0.1878  1.0186  2.1060
 1370SOL     OW15742   2.371   3.930   3.009 -0.0682 -0.5664  0.6026
 1370SOL    HW115743   2.400   3.979   2.932 -0.2434  0.2725  1.0696
 1370SOL    HW215744   2.361   3.843   2.971  1.6088 -0.3472 -0.3482
 1371SOL     OW15745   0.165   4.480   2.085  0.4760  0.3642 -0.2939
 1371SOL    HW115746   0.201   4.398   2.119 -1.1291 -0.0644  0.3765
 1371SOL    HW215747   0.114   4.503   2.163  0.5642  0.4957 -0.2754
 1372SOL     OW15748   0.422   2.847   1.698 -0.1297  0.3640  0.1706
 1372SOL    HW115749   0.403   2.762   1.659  1.6525  1.1012 -2.3429
 1372SOL    HW215750   0.510   2.830   1.732 -0.6055 -1.9219  0.2434
 1373SOL     OW15751   4.167   4.451  13.374 -0.1205  0.5163  0.8648
 1373SOL    HW115752   4.154   4.509  13.299  1.1557 -0.5645 -0.2123
 1373SOL    HW215753   4.255   4.473  13.405  0.2967  1.7207 -1.1494
 1374SOL     OW15754   3.110   1.612   6.991  0.1170  0.3727  0.0857
 1374SOL    HW115755   3.178   1.616   6.924  0.0753  0.3372  0.0411
 1374SOL    HW215756   3.043   1.583   6.929  0.4786  0.1069 -0.1765
 1375SOL     OW15757   3.652   0.713  16.579  0.2069 -0.3457  0.6581
 1375SOL    HW115758   3.589   0.715  16.507  1.3323  1.4011 -0.2813
 1375SOL    HW215759   3.627   0.795  16.620 -0.8359  0.3451 -1.3695
 1376SOL     OW15760   2.863   4.678   8.308 -0.2994 -0.1690 -0.4549
 1376SOL    HW115761   2.857   4.618   8.383 -1.2888 -0.3880 -0.7161
 1376SOL    HW215762   2.903   4.618   8.245 -0.0873  0.2733 -0.7353
 1377SOL     OW15763   3.945   4.277   6.630  0.3540  0.6767  0.4841
 1377SOL    HW115764   3.933   4.302   6.722 -0.2526 -1.0910  0.9067
 1377SOL    HW215765   3.852   4.262   6.612  0.3649 -0.3916  1.2808
 1378SOL     OW15766   1.730   4.114  16.406  0.7029  0.1190 -0.6271
 1378SOL    HW115767   1.770   4.099  16.492  0.9255  0.5794 -0.6484
 1378SOL    HW215768   1.805   4.125  16.347 -0.0902  1.1030 -1.4534
 1379SOL     OW15769   1.282   0.168   9.536  0.6259  0.6439 -0.0514
 1379SOL    HW115770   1.256   0.250   9.494  0.7126 -0.7905 -2.9368
 1379SOL    HW215771   1.205   0.142   9.586  0.5775 -0.7954 -0.8860
 1380SOL     OW15772   3.253   0.004   2.472  0.0165  0.3335 -0.0100
 1380SOL    HW115773   3.330   0.060   2.470  0.6000 -0.4936 -0.6602
 1380SOL    HW215774   3.286   4.679   2.538 -3.2039  0.0651  1.3575
 1381SOL     OW15775   2.209   0.546   2.881  0.3397  0.3865  0.2613
 1381SOL    HW115776   2.251   0.576   2.961  0.8979  0.6086 -0.1095
 1381SOL    HW215777   2.224   0.623   2.826 -0.5594 -0.8435 -1.7031
 1382SOL     OW15778   1.124   3.736   8.058 -0.4168  0.5528  0.2031
 1382SOL    HW115779   1.125   3.652   8.011 -2.6116 -0.0739  1.2372
 1382SOL    HW215780   1.041   3.720   8.104  0.4293 -1.8231  0.8975
 1383SOL     OW15781   3.707   0.588  12.828  0.1364  0.1894  0.5645
 1383SOL    HW115782   3.743   0.650  12.765  1.9001 -0.6490  0.7395
 1383SOL    HW215783   3.735   0.505  12.788  1.2793 -0.6315  3.0607
 1384SOL     OW15784   2.633   3.250  17.339  0.0732  0.0525 -0.3760
 1384SOL    HW115785   2.676   3.295  17.266 -0.9208  0.5341 -0.6547
 1384SOL    HW215786   2.678   3.295  17.411 -0.5839 -0.5190  0.3814
 1385SOL     OW15787   0.207   1.269   8.311  0.2258  0.3604 -0.4410
 1385SOL    HW115788   0.246   1.183   8.297  2.0135  0.9399  0.9613
 1385SOL    HW215789   0.134   1.264   8.250 -1.9703  2.1959  2.0008
 1386SOL     OW15790   0.971   1.262   0.429 -0.4084  0.8894 -0.4310
 1386SOL    HW115791   0.912   1.263   0.353  0.1117 -0.9562 -0.8613
 1386SOL    HW215792   1.045   1.315   0.399 -0.3267  0.0693 -1.6839
 1387SOL     OW15793   0.227   1.049   7.989  0.5758 -0.0199 -0.2427
 1387SOL    HW115794   0.160   0.998   8.034 -1.1080  1.3862 -1.1532
 1387SOL    HW215795   0.175   1.102   7.928  0.8533  0.7465  0.1782
 1388SOL     OW15796   3.713   3.899   3.478  0.1844 -0.2510  0.0803
 1388SOL    HW115797   3.806   3.924   3.483  0.1020  0.7738 -3.0887
 1388SOL    HW215798   3.710   3.810   3.513  0.6137 -0.7765 -1.1950
 1389SOL     OW15799   1.258   3.829  11.918  0.3007 -0.4491  0.3311
 1389SOL    HW115800   1.313   3.756  11.889 -0.6988 -0.3055 -1.9160
 1389SOL    HW215801   1.191   3.778  11.962 -1.3215  0.5686 -0.9672
 1390SOL     OW15802   1.507   2.446   6.055  0.6309 -0.2864  0.2369
 1390SOL    HW115803   1.417   2.443   6.089  0.2998  0.9140 -0.5596
 1390SOL    HW215804   1.551   2.446   6.140 -0.7578 -0.2399  0.9562
 1391SOL     OW15805   1.684   0.877   8.067 -0.5765  0.2235  0.2714
 1391SOL    HW115806   1.591   0.895   8.055 -0.5928  0.3460  0.5767
 1391SOL    HW215807   1.682   0.787   8.100 -1.5428  0.7545  1.6768
 1392SOL     OW15808   2.991   4.479   8.146  0.3629 -0.0454 -0.2228
 1392SOL    HW115809   3.084   4.487   8.169  0.6529  0.6129 -1.6920
 1392SOL    HW215810   2.994   4.485   8.051 -0.1274 -2.5565 -0.4044
 1393SOL     OW15811   1.531   4.324  16.549  0.0367 -0.1365  0.0764
 1393SOL    HW115812   1.574   4.353  16.630 -0.3104 -0.5101  0.3941
 1393SOL    HW215813   1.599   4.310  16.483  0.5166  0.7822  0.3628
 1394SOL     OW15814   0.873   1.329   5.455  0.0783 -0.0178  0.1138
 1394SOL    HW115815   0.956   1.374   5.440  0.5149 -1.7654 -2.6695
 1394SOL    HW215816   0.874   1.331   5.551 -0.7777  3.7907  0.0409
 1395SOL     OW15817   0.331   1.743   8.750  0.0889 -0.2346 -0.4399
 1395SOL    HW115818   0.270   1.776   8.816  1.3687 -1.1858  1.2107
 1395SOL    HW215819   0.332   1.651   8.775 -1.7196  0.4183  2.0352
 1396SOL     OW15820   4.646   2.067   0.384 -0.1148  0.2660 -0.5048
 1396SOL    HW115821   4.706   2.028   0.320 -0.1904 -0.1631 -0.3107
 1396SOL    HW215822   4.626   2.149   0.340 -1.8245  0.6751  1.0372
 1397SOL     OW15823   0.312   0.333   9.896  0.9948  1.0147 -0.2516
 1397SOL    HW115824   0.275   0.294   9.817 -0.0149 -0.5965  1.0042
 1397SOL    HW215825   0.321   0.253   9.947  0.2495  0.2502 -1.3155
 1398SOL     OW15826   0.643   2.111  15.435  0.1657 -0.0817 -0.0382
 1398SOL    HW115827   0.732   2.085  15.411  0.4333  0.0928  0.7536
 1398SOL    HW215828   0.591   2.115  15.356  2.0328 -2.9258 -1.4483
 1399SOL     OW15829   1.833   4.295  17.045  0.2590  0.3728 -0.3648
 1399SOL    HW115830   1.836   4.384  17.009  2.0716  0.2474 -0.5176
 1399SOL    HW215831   1.738   4.283  17.040  0.3301 -0.2474 -0.1472
 1400SOL     OW15832   1.165   0.400   4.996  0.1564  0.1258  0.1240
 1400SOL    HW115833   1.212   0.479   5.022 -0.2586  1.3157 -2.7979
 1400SOL    HW215834   1.214   0.323   5.027  2.9876  1.8165 -0.2442
 1401SOL     OW15835   0.245   1.553   1.131  0.4288  0.1239 -0.6524
 1401SOL    HW115836   0.223   1.528   1.041 -2.1407  0.3968 -0.0771
 1401SOL    HW215837   0.174   1.613   1.151  1.0643  0.6784 -0.0840
 1402SOL     OW15838   2.703   4.073   6.548 -0.0734 -0.3791 -0.2923
 1402SOL    HW115839   2.701   4.157   6.593  0.0543 -0.0689 -0.8543
 1402SOL    HW215840   2.680   4.013   6.619  0.1930 -2.8093 -2.2525
 1403SOL     OW15841   0.992   1.405   4.818  0.5356  0.7797 -0.4778
 1403SOL    HW115842   0.989   1.316   4.851 -0.1269  0.9389 -0.0957
 1403SOL    HW215843   0.928   1.455   4.869 -0.7904 -1.6578  0.2534
 1404SOL     OW15844   0.440   2.622  12.663  0.5084  0.0250  0.3427
 1404SOL    HW115845   0.373   2.562  12.629  0.3131  1.4209 -1.7058
 1404SOL    HW215846   0.409   2.697  12.613 -1.4014 -1.5514 -0.8453
 1405SOL     OW15847   3.749   3.505   6.551  0.1762 -0.0745  0.3745
 1405SOL    HW115848   3.729   3.496   6.644 -0.2976  1.4513  0.4239
 1405SOL    HW215849   3.827   3.559   6.543 -0.0483  0.1133 -0.5332
 1406SOL     OW15850   2.018   0.052   1.464 -0.2742  0.9770  0.2033
 1406SOL    HW115851   2.053   0.061   1.376 -1.1247  0.3447 -0.1954
 1406SOL    HW215852   1.937   0.001   1.454 -0.6916  2.3315 -3.1429
 1407SOL     OW15853   0.179   0.769   9.528  0.2879  0.2878  0.1744
 1407SOL    HW115854   0.207   0.715   9.602 -1.1912 -0.8084 -0.0801
 1407SOL    HW215855   0.083   0.767   9.530  0.2517  1.4615 -0.0928
 1408SOL     OW15856   2.770   1.945   7.392 -0.4072 -0.0947 -0.2298
 1408SOL    HW115857   2.813   1.972   7.311 -0.3589  2.8371  0.7620
 1408SOL    HW215858   2.843   1.948   7.455 -0.1238  0.1111 -0.5683
 1409SOL     OW15859   0.287   1.846   5.612  0.2565  0.2889  0.2561
 1409SOL    HW115860   0.200   1.826   5.579  1.4566 -1.6123 -1.8136
 1409SOL    HW215861   0.299   1.941   5.608 -0.0499  0.2208 -2.4872
 1410SOL     OW15862   1.434   1.706   7.221 -0.7380 -0.1413  0.0317
 1410SOL    HW115863   1.515   1.733   7.264  0.4117 -1.2684 -1.4297
 1410SOL    HW215864   1.373   1.683   7.291 -1.4831 -0.6593 -0.7813
 1411SOL     OW15865   3.450   2.401   6.135 -1.5249 -0.0032 -0.2613
 1411SOL    HW115866   3.356   2.385   6.140 -1.4059  0.4078  2.9518
 1411SOL    HW215867   3.477   2.399   6.227  1.2236 -1.5151 -1.0802
 1412SOL     OW15868   0.543   3.038  16.620  0.1747  0.1784  0.4810
 1412SOL    HW115869   0.451   3.027  16.646 -0.0212 -0.1808 -0.3596
 1412SOL    HW215870   0.553   2.955  16.574 -2.2655 -0.6789  1.5100
 1413SOL     OW15871   3.201   3.511   3.869 -0.3671  0.5603  0.1378
 1413SOL    HW115872   3.123   3.478   3.825 -0.2269 -1.7095  1.6528
 1413SOL    HW215873   3.166   3.534   3.955 -1.4967 -2.2707  0.4097
 1414SOL     OW15874   3.880   1.927   2.982  0.1941 -0.3333 -0.2430
 1414SOL    HW115875   3.805   1.895   2.932  0.0444 -4.1042  2.4558
 1414SOL    HW215876   3.923   1.974   2.910 -4.3276  3.1327 -0.6641
 1415SOL     OW15877   1.213   0.768   8.945 -0.2911 -0.4586 -0.0291
 1415SOL    HW115878   1.301   0.736   8.968 -0.4351 -2.6606 -2.6089
 1415SOL    HW215879   1.240   0.826   8.874 -2.5713  0.1715 -0.3838
 1416SOL     OW15880   2.723   1.814   9.600  0.1524  0.1590  0.0426
 1416SOL    HW115881   2.818   1.816   9.590  0.0126 -0.4130 -1.3986
 1416SOL    HW215882   2.706   1.908   9.602 -1.7225 -0.1423 -1.3986
 1417SOL     OW15883   4.682   3.215   7.259 -0.2395  0.5539  0.0113
 1417SOL    HW115884   4.598   3.253   7.282 -0.2024 -0.5574  1.9941
 1417SOL    HW215885   0.008   3.284   7.283 -1.7224  1.8306  0.1539
 1418SOL     OW15886   3.883   0.867   2.230  0.0662 -0.1517 -0.3939
 1418SOL    HW115887   3.920   0.857   2.143  2.1707  0.1990  0.4579
 1418SOL    HW215888   3.794   0.899   2.215  0.6763  2.2087  0.9099
 1419SOL     OW15889   3.679   1.293   8.887 -0.2954 -0.3019 -0.6048
 1419SOL    HW115890   3.605   1.338   8.846  0.1346 -0.2258 -1.2918
 1419SOL    HW215891   3.723   1.261   8.808  1.4942  0.0306  0.2546
 1420SOL     OW15892   1.358   4.332   7.933 -0.7553 -0.1370 -0.0474
 1420SOL    HW115893   1.374   4.334   7.839  1.3856  0.1834  0.3191
 1420SOL    HW215894   1.439   4.294   7.968 -0.2681  0.4179 -0.5887
 1421SOL     OW15895   4.075   3.341   3.998 -0.0074  0.4682  0.0450
 1421SOL    HW115896   4.148   3.402   3.980  0.8391 -0.5333  0.0919
 1421SOL    HW215897   4.053   3.357   4.090 -0.7123 -1.9572  0.2918
 1422SOL     OW15898   4.036   2.758  16.232 -0.2257  0.1770  0.7975
 1422SOL    HW115899   4.011   2.850  16.231 -1.1584 -0.0821 -0.2588
 1422SOL    HW215900   4.122   2.762  16.190 -0.0949  0.1054  1.0591
 1423SOL     OW15901   3.398   2.569   3.766 -0.7588  0.1271  0.0434
 1423SOL    HW115902   3.447   2.529   3.838  0.2084 -1.0044 -1.2531
 1423SOL    HW215903   3.432   2.658   3.762  1.2338 -0.5576  1.6772
 1424SOL     OW15904   2.486   2.617  15.093  0.2393 -0.2217  0.1085
 1424SOL    HW115905   2.404   2.575  15.119 -2.1178  2.4507 -2.8560
 1424SOL    HW215906   2.512   2.656  15.176 -0.7897 -1.8880  1.2195
 1425SOL     OW15907   1.862   2.956   3.885 -0.1844 -0.1610 -0.0669
 1425SOL    HW115908   1.880   2.933   3.794  0.4907  1.7500 -0.4192
 1425SOL    HW215909   1.919   3.032   3.900 -0.7693  0.7800 -2.5360
 1426SOL     OW15910   2.686   3.178  14.285  0.5320  0.0090 -0.2217
 1426SOL    HW115911   2.634   3.166  14.364 -0.7093  0.7960 -0.8983
 1426SOL    HW215912   2.661   3.266  14.256 -0.4939  0.5758  2.3427
 1427SOL     OW15913   0.720   0.230   8.555 -0.3942 -0.0483  0.3313
 1427SOL    HW115914   0.702   0.322   8.537 -2.5351 -0.3561  0.8909
 1427SOL    HW215915   0.719   0.222   8.650  1.6299  2.1266  0.5359
 1428SOL     OW15916   0.263   3.081  11.118 -0.4450 -0.4444 -0.1400
 1428SOL    HW115917   0.248   3.042  11.032  2.4867 -1.1062 -0.3361
 1428SOL    HW215918   0.309   3.007  11.159  0.6765  0.8610  0.9602
 1429SOL     OW15919   3.051   1.107  15.107 -0.1453 -0.0299 -0.1357
 1429SOL    HW115920   2.961   1.076  15.114 -0.4243  0.4264 -1.8642
 1429SOL    HW215921   3.053   1.162  15.185  2.1692  1.2483 -1.1006
 1430SOL     OW15922   3.087   1.232   9.808 -0.6465  0.4281  0.1452
 1430SOL    HW115923   3.145   1.262   9.738 -0.7140 -1.9837 -0.9073
 1430SOL    HW215924   3.056   1.319   9.834 -0.6806  0.6023 -0.4949
 1431SOL     OW15925   0.024   0.296   6.506  0.2208  0.1159  0.4088
 1431SOL    HW115926   0.009   0.233   6.435 -1.4202  0.4639  0.4439
 1431SOL    HW215927   4.671   0.305   6.541 -0.5501  0.8662 -1.7413
 1432SOL     OW15928   0.620   0.953  12.947  0.0096  0.1388  0.0385
 1432SOL    HW115929   0.611   0.941  12.852 -0.8139  1.3377 -0.0414
 1432SOL    HW215930   0.604   0.862  12.969  0.2904  0.3224  1.0038
 1433SOL     OW15931   1.421   3.307   6.291 -0.3528  0.0061  0.4435
 1433SOL    HW115932   1.374   3.331   6.371 -1.1115  0.6920 -0.2058
 1433SOL    HW215933   1.492   3.368   6.314  0.1898 -0.1962 -0.6636
 1434SOL     OW15934   2.989   0.927   6.698 -0.3465  0.1821  0.2481
 1434SOL    HW115935   3.072   0.934   6.745 -0.0347 -1.2483 -0.1055
 1434SOL    HW215936   3.022   0.930   6.608  1.5430  0.1082  0.9337
 1435SOL     OW15937   3.909   3.987   6.518 -0.1678  0.2605 -0.1238
 1435SOL    HW115938   3.917   3.928   6.592 -1.1748 -0.3602 -0.5002
 1435SOL    HW215939   3.949   4.063   6.560  1.5683 -1.4102  1.2059
 1436SOL     OW15940   2.521   1.723  16.358 -0.0584  0.3569 -0.1581
 1436SOL    HW115941   2.575   1.672  16.298 -0.2176  0.4931 -0.4198
 1436SOL    HW215942   2.561   1.718  16.445  0.3369 -1.8461 -0.4674
 1437SOL     OW15943   4.351   3.257   5.654  0.4135 -0.1747  0.1009
 1437SOL    HW115944   4.336   3.168   5.685  1.5540 -0.4196 -0.0587
 1437SOL    HW215945   4.262   3.269   5.621  0.8347 -0.1255 -0.9916
 1438SOL     OW15946   3.063   3.343  12.362 -0.3941 -0.2393 -0.1733
 1438SOL    HW115947   3.074   3.263  12.311  0.9767  0.5806 -1.1528
 1438SOL    HW215948   3.119   3.323  12.437 -1.3210  0.6099  0.7679
 1439SOL     OW15949   3.104   4.344   6.076  0.6152 -0.3469 -0.9930
 1439SOL    HW115950   3.032   4.355   6.139  1.3767  1.5957 -0.4798
 1439SOL    HW215951   3.116   4.434   6.046 -0.6660  0.0467 -0.3505
 1440SOL     OW15952   4.269   2.249   6.138  0.2195 -0.0162 -0.5197
 1440SOL    HW115953   4.300   2.239   6.048  1.5186  2.3603 -0.3251
 1440SOL    HW215954   4.344   2.264   6.194  1.5409 -3.3026 -1.4176
 1441SOL     OW15955   2.560   4.544   5.015 -0.1042 -0.3219 -0.7774
 1441SOL    HW115956   2.518   4.495   5.085 -0.6230  0.7953 -0.2946
 1441SOL    HW215957   2.567   4.475   4.949 -0.5237 -0.7072 -0.4166
 1442SOL     OW15958   1.360   1.085   9.097 -0.1725  0.6303  0.6011
 1442SOL    HW115959   1.368   1.171   9.139 -0.3985  0.6849  0.5300
 1442SOL    HW215960   1.440   1.040   9.124 -0.1216  0.7694  0.6836
 1443SOL     OW15961   3.814   4.441  16.254  0.3617 -0.7275 -0.6109
 1443SOL    HW115962   3.790   4.460  16.163 -3.7431 -1.4352  0.2937
 1443SOL    HW215963   3.755   4.368  16.274  0.4988 -0.3398  1.1751
 1444SOL     OW15964   1.452   2.914  17.049 -0.4831 -0.3288 -0.3935
 1444SOL    HW115965   1.371   2.963  17.060  0.1723  0.7411 -0.3162
 1444SOL    HW215966   1.442   2.826  17.086 -1.3840 -0.6154 -1.3132
 1445SOL     OW15967   2.326   3.432   1.635 -0.3484 -0.5565  0.1226
 1445SOL    HW115968   2.376   3.501   1.678  1.8386 -1.9686 -0.1025
 1445SOL    HW215969   2.239   3.448   1.671 -1.0543  0.6824 -2.1714
 1446SOL     OW15970   0.962   2.515   6.469  0.3072 -0.1795 -0.1759
 1446SOL    HW115971   1.057   2.522   6.477  0.1825  1.8036 -0.3697
 1446SOL    HW215972   0.940   2.455   6.541 -0.8390 -1.3635 -1.5118
 1447SOL     OW15973   3.084   0.492  14.810 -0.6549 -0.6987 -0.0627
 1447SOL    HW115974   3.127   0.485  14.724  0.2867 -2.3269  0.5473
 1447SOL    HW215975   3.000   0.512  14.770 -0.5646  1.1544  0.6707
 1448SOL     OW15976   3.481   2.514   7.634  0.3637  0.1961  0.4087
 1448SOL    HW115977   3.570   2.491   7.663  0.9860  0.3556 -1.4140
 1448SOL    HW215978   3.436   2.433   7.610 -0.7796  1.5349 -1.9315
 1449SOL     OW15979   4.614   0.780   6.528 -0.7166 -0.2333 -0.4629
 1449SOL    HW115980   4.651   0.695   6.550 -0.6541 -0.3639 -1.0857
 1449SOL    HW215981   4.554   0.800   6.600  0.5583 -1.2965  0.8755
 1450SOL     OW15982   1.189   2.381   9.587 -0.0549  0.1708  0.3302
 1450SOL    HW115983   1.283   2.399   9.587 -0.3014  1.4095 -0.5344
 1450SOL    HW215984   1.178   2.286   9.585  1.5357 -0.0564  1.8544
 1451SOL     OW15985   1.164   3.938   3.234 -0.2351 -0.3295 -0.1291
 1451SOL    HW115986   1.170   4.021   3.186  0.1203 -1.4718 -2.0425
 1451SOL    HW215987   1.071   3.917   3.228  0.2690 -2.2834 -0.9491
 1452SOL     OW15988   1.174   2.807   6.031  0.5274  0.4004 -0.0406
 1452SOL    HW115989   1.136   2.791   6.117 -0.5529  0.3630 -0.5165
 1452SOL    HW215990   1.166   2.717   5.999 -0.3008  0.9004 -1.2646
 1453SOL     OW15991   1.041   3.846   9.642  0.3488 -0.1354 -0.3162
 1453SOL    HW115992   1.049   3.912   9.711 -0.4872  1.0466 -1.3420
 1453SOL    HW215993   1.097   3.891   9.579 -0.1064 -1.7664 -1.8884
 1454SOL     OW15994   4.114   0.412   5.963  0.4166 -0.2058 -0.1595
 1454SOL    HW115995   4.182   0.439   5.901  1.5026 -1.5599  0.4690
 1454SOL    HW215996   4.079   0.335   5.919 -0.2202  0.1191 -0.2339
 1455SOL     OW15997   3.202   4.062   0.698  0.3216 -0.0516  0.2840
 1455SOL    HW115998   3.240   3.975   0.710  0.0537 -0.2210 -0.1305
 1455SOL    HW215999   3.118   4.039   0.660 -0.0212  0.9778  0.4117
 1456SOL     OW16000   0.711   2.944   2.240 -0.0601 -0.1333  0.0585
 1456SOL    HW116001   0.721   3.011   2.307  0.7636 -2.0134  1.8221
 1456SOL    HW216002   0.708   2.861   2.287 -1.4302  0.3423  0.8078
 1457SOL     OW16003   2.793   3.791   8.738  0.3985 -0.0859 -0.3009
 1457SOL    HW116004   2.873   3.740   8.720  0.6658  0.2369 -0.0332
 1457SOL    HW216005   2.738   3.713   8.743 -1.1943  1.2068  1.9567
 1458SOL     OW16006   3.945   4.266   8.801  0.1413  0.3670 -0.2568
 1458SOL    HW116007   4.023   4.240   8.850  0.1797 -0.2837 -0.6680
 1458SOL    HW216008   3.919   4.183   8.763 -1.2618  0.3686  0.6972
 1459SOL     OW16009   1.891   1.212   5.460 -0.2174 -0.7247  0.1750
 1459SOL    HW116010   1.940   1.294   5.454 -1.9319  0.4286  1.8481
 1459SOL    HW216011   1.964   1.153   5.441  0.2495  0.1745 -0.8741
 1460SOL     OW16012   1.923   1.198  14.964  0.0047  0.4735  0.1943
 1460SOL    HW116013   1.975   1.142  15.022 -2.5214  0.3373  2.2809
 1460SOL    HW216014   1.853   1.138  14.941  1.2820 -0.6020 -0.8611
 1461SOL     OW16015   1.466   4.350   9.244 -0.3190  0.1185  0.3897
 1461SOL    HW116016   1.456   4.315   9.333  1.5754 -0.9019  0.1904
 1461SOL    HW216017   1.506   4.276   9.198  0.6204 -0.0207  1.4210
 1462SOL     OW16018   3.631   2.943   8.659  0.8891  0.1937  0.4878
 1462SOL    HW116019   3.633   2.865   8.604 -0.8456 -0.8324  1.8735
 1462SOL    HW216020   3.565   2.921   8.726  1.5425  0.8907  1.3600
 1463SOL     OW16021   1.662   0.808  10.210 -0.1467 -0.0100 -0.1885
 1463SOL    HW116022   1.649   0.724  10.167  0.5595  0.4501 -1.2877
 1463SOL    HW216023   1.725   0.783  10.279  0.4931  1.0580 -0.3887
 1464SOL     OW16024   2.994   4.693   7.151  0.0064  0.0627  0.3356
 1464SOL    HW116025   2.959   4.700   7.240 -1.0680  1.7056 -0.2281
 1464SOL    HW216026   2.915   4.707   7.099 -0.2727 -0.9357  0.4836
 1465SOL     OW16027   0.878   1.009   7.959 -0.0712 -0.4102 -0.1538
 1465SOL    HW116028   0.838   0.926   7.934 -3.3325  0.7329  1.2796
 1465SOL    HW216029   0.946   1.010   7.891 -0.3173 -0.7738 -0.4086
 1466SOL     OW16030   4.505   3.575   5.491  0.0426 -0.3825 -0.1715
 1466SOL    HW116031   4.543   3.540   5.571  0.9987 -0.1368 -0.5185
 1466SOL    HW216032   4.504   3.503   5.429  0.8065 -0.7386  0.2329
 1467SOL     OW16033   1.780   1.091  16.328  0.8588  0.0970 -0.1608
 1467SOL    HW116034   1.706   1.035  16.304  1.2525 -1.0585  1.3290
 1467SOL    HW216035   1.761   1.166  16.272 -0.1597 -0.2736 -0.3113
 1468SOL     OW16036   0.849   1.674   1.378  0.2853  0.8164 -0.5758
 1468SOL    HW116037   0.889   1.587   1.384 -1.1517  0.2865  1.3401
 1468SOL    HW216038   0.863   1.697   1.287 -0.8646 -0.3656 -1.0484
 1469SOL     OW16039   3.189   2.062   8.494 -0.1643  0.1473  0.3858
 1469SOL    HW116040   3.161   1.983   8.539 -0.8109 -0.6665 -1.4487
 1469SOL    HW216041   3.264   2.099   8.540 -0.3245  0.2122  0.5950
 1470SOL     OW16042   3.050   2.228   7.254  0.6578  0.6912 -0.0868
 1470SOL    HW116043   3.091   2.296   7.307 -0.6807  1.3369  0.1454
 1470SOL    HW216044   3.082   2.249   7.166  1.8612 -0.5003  0.0729
 1471SOL     OW16045   2.688   0.358   2.056 -0.3558  0.0693  0.0533
 1471SOL    HW116046   2.720   0.432   2.109 -0.4130  0.3119 -0.2511
 1471SOL    HW216047   2.762   0.298   2.066 -0.2585  0.0584 -0.7504
 1472SOL     OW16048   2.100   1.019   2.807  0.3168  0.7927  0.0620
 1472SOL    HW116049   2.024   1.047   2.858 -1.4274 -1.3838 -1.3642
 1472SOL    HW216050   2.162   0.992   2.874 -2.1710 -0.1630  1.9626
 1473SOL     OW16051   2.966   1.456  15.467 -0.1612  0.6024 -0.3165
 1473SOL    HW116052   2.899   1.477  15.533  0.0380 -1.6280  0.5878
 1473SOL    HW216053   2.930   1.500  15.390  0.0084 -1.1759 -1.4159
 1474SOL     OW16054   1.264   4.632  12.835 -0.4813 -0.0129 -0.2209
 1474SOL    HW116055   1.333   4.669  12.780 -2.7588  3.4058 -0.7243
 1474SOL    HW216056   1.296   4.544  12.855  2.1178  0.5909 -1.7009
 1475SOL     OW16057   1.505   3.691  11.853 -0.1569 -0.0180  0.2163
 1475SOL    HW116058   1.463   3.606  11.837 -2.6465  1.3362 -0.3970
 1475SOL    HW216059   1.596   3.671  11.832 -0.8506 -2.0827 -0.8226
 1476SOL     OW16060   0.438   4.216  16.961 -0.2289  0.0242 -0.2221
 1476SOL    HW116061   0.375   4.178  16.899  0.8740 -3.3754  0.7186
 1476SOL    HW216062   0.383   4.282  17.002  1.6045  0.3492  1.6998
 1477SOL     OW16063   4.328   1.230   6.927  0.1668 -0.1698 -0.0892
 1477SOL    HW116064   4.325   1.324   6.941 -0.2092 -0.2455  0.3618
 1477SOL    HW216065   4.390   1.206   6.996 -1.0791  1.6389  1.6517
 1478SOL     OW16066   4.134   3.329   6.027 -0.3995  0.0329 -0.0906
 1478SOL    HW116067   4.196   3.364   6.090  1.2062 -1.0598 -1.0807
 1478SOL    HW216068   4.164   3.238   6.025  1.8904  0.8037 -0.3319
 1479SOL     OW16069   0.741   0.194   1.461 -0.3165 -0.5416 -0.1045
 1479SOL    HW116070   0.653   0.183   1.497 -0.8371 -0.2352 -1.2854
 1479SOL    HW216071   0.736   0.118   1.403  0.5696 -0.1432 -0.7032
 1480SOL     OW16072   3.101   4.128  10.442 -0.2088 -0.5569 -0.3133
 1480SOL    HW116073   3.052   4.087  10.371 -0.7257 -2.0788  0.9202
 1480SOL    HW216074   3.095   4.220  10.417  2.4140 -0.2495  0.1721
 1481SOL     OW16075   2.078   4.727   8.806 -0.1653 -0.1172 -0.7208
 1481SOL    HW116076   2.004   4.688   8.853  1.7602  0.5249  2.8447
 1481SOL    HW216077   2.029   0.036   8.737 -0.7568  1.2957  0.6096
 1482SOL     OW16078   1.569   2.539  10.363 -0.0305 -0.2214 -0.1320
 1482SOL    HW116079   1.491   2.590  10.387  0.6026  1.0912 -0.8762
 1482SOL    HW216080   1.624   2.605  10.322  2.7330 -0.6467  2.9098
 1483SOL     OW16081   3.926   2.316   0.388 -0.4966 -0.5704 -0.2663
 1483SOL    HW116082   3.879   2.334   0.308 -0.7803  0.4859  0.1470
 1483SOL    HW216083   3.988   2.250   0.355 -0.1732  0.8409 -2.4487
 1484SOL     OW16084   3.328   3.048   9.883 -0.2352 -0.1736 -0.6667
 1484SOL    HW116085   3.378   2.975   9.846 -0.4025  0.1616 -1.5635
 1484SOL    HW216086   3.358   3.043   9.974 -0.3405  1.3786 -0.5364
 1485SOL     OW16087   2.978   2.410   1.636  0.4821  0.3698  0.0352
 1485SOL    HW116088   2.997   2.454   1.553 -0.9614 -1.7546 -1.4137
 1485SOL    HW216089   3.049   2.433   1.696  2.0966 -1.2137 -1.2736
 1486SOL     OW16090   4.151   2.360   0.142  0.2439 -0.4278  0.0872
 1486SOL    HW116091   4.144   2.290   0.207 -2.1274 -0.3147 -0.0232
 1486SOL    HW216092   4.098   2.432   0.178  0.1637  0.0574 -1.0001
 1487SOL     OW16093   3.776   1.212   2.685 -0.1432 -0.1013 -0.0104
 1487SOL    HW116094   3.741   1.156   2.754 -2.1784 -0.8145 -1.6207
 1487SOL    HW216095   3.833   1.149   2.641  2.3052  0.8101  1.8560
 1488SOL     OW16096   4.708   2.431   5.773  0.5512  0.0369  0.4671
 1488SOL    HW116097   4.664   2.507   5.811 -0.2275 -1.2255  2.1480
 1488SOL    HW216098   0.026   2.391   5.842  0.5570 -1.6884 -0.5292
 1489SOL     OW16099   0.497   2.279  15.789  0.5534 -0.1500  0.0178
 1489SOL    HW116100   0.487   2.373  15.797  0.8416  0.0324 -1.7159
 1489SOL    HW216101   0.575   2.266  15.735  0.5898  1.9827 -0.4214
 1490SOL     OW16102   0.097   3.506  13.314 -0.3930 -0.3725  0.5631
 1490SOL    HW116103   0.126   3.466  13.232  2.2586 -0.4683  1.5598
 1490SOL    HW216104   0.003   3.525  13.308 -0.5765 -0.9387  1.4495
 1491SOL     OW16105   0.727   2.214   8.031 -0.3401  0.1846 -0.0273
 1491SOL    HW116106   0.684   2.262   8.102 -0.5728  1.1051 -0.7879
 1491SOL    HW216107   0.707   2.272   7.958 -3.6171  0.5928  1.2229
 1492SOL     OW16108   4.519   0.494  12.119 -0.0096  0.3844 -0.5393
 1492SOL    HW116109   4.491   0.571  12.069  0.0748 -0.2480 -1.5530
 1492SOL    HW216110   4.595   0.449  12.083  0.2624  0.7571 -0.4337
 1493SOL     OW16111   1.461   0.658  11.403 -0.3597  0.0709  0.0565
 1493SOL    HW116112   1.447   0.678  11.496 -0.3650  2.4566 -0.4348
 1493SOL    HW216113   1.544   0.701  11.384 -0.9516  1.4194  0.4911
 1494SOL     OW16114   1.853   3.456   4.457  0.0888  0.3109  0.2199
 1494SOL    HW116115   1.849   3.498   4.371 -2.5473 -0.1451  0.1300
 1494SOL    HW216116   1.905   3.380   4.429  1.3303  1.0011  0.6179
 1495SOL     OW16117   2.440   4.677   1.501 -0.3856  0.1633 -0.2169
 1495SOL    HW116118   2.424   4.632   1.418  0.1700 -0.7702  0.1710
 1495SOL    HW216119   2.508   4.616   1.531 -0.1166  0.9355  0.7485
 1496SOL     OW16120   0.218   3.944   1.978  0.1066  0.5024  0.3761
 1496SOL    HW116121   0.232   3.858   1.937 -0.7256  0.8665 -0.6793
 1496SOL    HW216122   0.304   3.987   1.972  0.3941 -0.3614 -1.7102
 1497SOL     OW16123   0.493   3.039  10.881 -0.4171 -0.4198  0.0970
 1497SOL    HW116124   0.398   3.034  10.871 -0.6278  1.4515  1.0498
 1497SOL    HW216125   0.523   3.004  10.797 -0.1952 -0.3528  0.1478
 1498SOL     OW16126   1.581   1.261   0.461  0.4494  0.1793  0.5243
 1498SOL    HW116127   1.606   1.305   0.380 -0.3823  2.0604  1.2822
 1498SOL    HW216128   1.653   1.281   0.521 -1.8424 -0.5822  3.4907
 1499SOL     OW16129   2.248   3.702   7.114  0.0810  0.8504  0.2194
 1499SOL    HW116130   2.172   3.656   7.149  0.4875  0.6979  0.9065
 1499SOL    HW216131   2.319   3.679   7.175 -0.4505 -2.8237 -0.5570
 1500SOL     OW16132   4.113   2.113   8.677 -0.6475  0.1093 -0.5947
 1500SOL    HW116133   4.080   2.030   8.711 -1.0896  0.6197  0.2246
 1500SOL    HW216134   4.152   2.076   8.598  1.2466 -2.4388  1.4875
 1501SOL     OW16135   0.116   4.386   6.194 -0.0064  0.4008 -0.9618
 1501SOL    HW116136   0.178   4.423   6.257  0.7600 -1.1818 -0.7818
 1501SOL    HW216137   0.055   4.459   6.194 -0.1609  0.2704 -0.5830
 1502SOL     OW16138   0.223   1.602  17.402  1.5171 -0.0206 -0.7591
 1502SOL    HW116139   0.301   1.641  17.441  0.6267  1.5101 -0.5113
 1502SOL    HW216140   0.246   1.509  17.403 -1.3023 -0.7247 -2.5080
 1503SOL     OW16141   3.852   1.664   0.553 -0.3441  0.2814  0.0581
 1503SOL    HW116142   3.947   1.678   0.545 -0.2381 -0.1837  0.5278
 1503SOL    HW216143   3.829   1.572   0.554 -0.7121  0.3938  1.5990
 1504SOL     OW16144   4.418   2.469  15.115 -0.1203 -0.3730  0.1962
 1504SOL    HW116145   4.353   2.413  15.073 -0.1694 -0.6795  0.6773
 1504SOL    HW216146   4.358   2.506  15.179 -0.2186  0.6051 -0.4693
 1505SOL     OW16147   4.331   1.894  16.490  0.0975 -0.3213  0.3496
 1505SOL    HW116148   4.348   1.964  16.552  0.7104 -1.9397  2.0101
 1505SOL    HW216149   4.340   1.935  16.404 -2.4387 -0.2981  0.1216
 1506SOL     OW16150   1.884   1.131  14.611  0.1213 -0.2846  0.3087
 1506SOL    HW116151   1.808   1.082  14.642  0.2219 -1.8460 -1.8963
 1506SOL    HW216152   1.845   1.217  14.624 -0.8736 -0.7652  0.4920
 1507SOL     OW16153   0.216   1.898   2.832 -0.2341  0.4810 -0.2574
 1507SOL    HW116154   0.308   1.884   2.808 -0.9018 -1.3941 -1.6922
 1507SOL    HW216155   0.230   1.981   2.878  1.2315  0.0844  0.0206
 1508SOL     OW16156   1.694   3.025   7.349  0.4380  0.3002  0.0951
 1508SOL    HW116157   1.782   3.052   7.323 -0.7010  2.9788 -0.9250
 1508SOL    HW216158   1.668   2.985   7.266 -2.9733 -1.6110  2.0819
 1509SOL     OW16159   4.277   4.491   7.457 -0.6371  0.1889  0.1772
 1509SOL    HW116160   4.338   4.565   7.466  0.5548 -0.4392 -2.8544
 1509SOL    HW216161   4.331   4.412   7.462  1.3047  1.6791  2.8780
 1510SOL     OW16162   0.270   3.490   5.916  0.5698 -0.1239 -0.3495
 1510SOL    HW116163   0.271   3.574   5.961 -1.1306  0.2606 -1.0103
 1510SOL    HW216164   0.363   3.470   5.918  0.0528 -2.0398  4.0846
 1511SOL     OW16165   4.167   3.693   9.253 -0.0477 -0.0958 -0.3296
 1511SOL    HW116166   4.090   3.748   9.265 -0.1994 -0.2971 -0.3788
 1511SOL    HW216167   4.230   3.729   9.316  0.1627 -1.9254  0.5005
 1512SOL     OW16168   3.199   1.473   8.794  0.2429 -0.7762 -0.2919
 1512SOL    HW116169   3.193   1.536   8.865 -1.3098 -2.3581  0.9877
 1512SOL    HW216170   3.135   1.503   8.730 -0.3627  0.4771  0.9170
 1513SOL     OW16171   2.629   0.120   6.013 -0.8865  0.8992 -0.7539
 1513SOL    HW116172   2.662   0.132   6.102 -2.1299 -0.8842 -0.0612
 1513SOL    HW216173   2.583   0.037   6.028  1.2889 -0.1174  0.2838
 1514SOL     OW16174   2.021   3.497   3.931  0.2216 -0.2763 -0.0028
 1514SOL    HW116175   2.044   3.510   3.839 -0.5130 -0.6640 -0.2428
 1514SOL    HW216176   1.945   3.553   3.915  1.2731  0.8554 -1.0799
 1515SOL     OW16177   0.406   4.082  11.593  0.0408 -0.2628 -0.2555
 1515SOL    HW116178   0.328   4.092  11.537  0.1387  1.6613 -0.0327
 1515SOL    HW216179   0.464   4.024  11.544 -0.2680 -1.3462  0.6587
 1516SOL     OW16180   2.295   0.026   6.828  0.5484  0.2262  0.1985
 1516SOL    HW116181   2.279   4.668   6.819 -2.0815  0.8356 -1.3970
 1516SOL    HW216182   2.269   0.048   6.917 -2.1854  0.0164 -0.5474
 1517SOL     OW16183   1.331   3.423   8.738  0.3531  0.0536  0.1484
 1517SOL    HW116184   1.273   3.489   8.701  1.4934  1.3063  0.5843
 1517SOL    HW216185   1.412   3.446   8.692  2.2834 -3.5632  1.6767
 1518SOL     OW16186   1.343   0.974   5.667 -0.2531  0.4142  0.2667
 1518SOL    HW116187   1.321   0.914   5.738 -0.6387  0.4950  0.2153
 1518SOL    HW216188   1.372   0.912   5.600 -0.9020 -0.1151  0.4804
 1519SOL     OW16189   4.115   2.441   2.595 -0.3531 -0.5066 -0.4503
 1519SOL    HW116190   4.185   2.443   2.660  0.0935 -0.9609 -0.9123
 1519SOL    HW216191   4.152   2.512   2.542 -0.6618  0.0402  0.0714
 1520SOL     OW16192   3.302   2.109   8.960  0.6078 -0.1824  0.0791
 1520SOL    HW116193   3.339   2.186   9.004  0.5810  1.7525 -3.2533
 1520SOL    HW216194   3.275   2.051   9.031  0.2630  0.9470  0.8628
 1521SOL     OW16195   3.710   0.666  15.678 -0.0026 -0.2021 -0.8839
 1521SOL    HW116196   3.673   0.582  15.652 -0.1735 -0.9260  1.7295
 1521SOL    HW216197   3.761   0.629  15.750  0.7141  1.6904 -0.4015
 1522SOL     OW16198   3.938   3.321   9.069  0.3269 -0.1318  0.2116
 1522SOL    HW116199   3.936   3.414   9.094  1.9035 -0.1736  0.4900
 1522SOL    HW216200   4.031   3.300   9.080 -0.1594 -3.0393 -1.1586
 1523SOL     OW16201   1.728   2.465  11.041 -0.4577 -0.1570 -0.4687
 1523SOL    HW116202   1.777   2.470  11.123  0.9256  0.5145 -1.3175
 1523SOL    HW216203   1.694   2.554  11.041  0.3500  0.1508  2.6256
 1524SOL     OW16204   2.985   0.072   5.468 -0.4692 -0.2093 -0.0512
 1524SOL    HW116205   2.919   0.109   5.409  0.3370 -0.7152 -1.2570
 1524SOL    HW216206   2.941   0.102   5.547 -0.5328 -0.6946  0.1015
 1525SOL     OW16207   1.552   0.462   0.214 -0.3209  0.5240  0.0464
 1525SOL    HW116208   1.578   0.445   0.124 -0.2202  0.6997  0.0430
 1525SOL    HW216209   1.633   0.457   0.265 -0.9447 -0.3797  0.9588
 1526SOL     OW16210   3.508   3.665  10.763  0.2019  0.8176  0.4399
 1526SOL    HW116211   3.529   3.578  10.730 -2.3318  0.1518  0.5690
 1526SOL    HW216212   3.480   3.702  10.680 -0.5827 -1.0855 -0.1497
 1527SOL     OW16213   0.397   2.459   4.875  0.1125  0.4740  0.5847
 1527SOL    HW116214   0.488   2.464   4.905  0.5231 -2.3116 -0.1795
 1527SOL    HW216215   0.362   2.413   4.952  0.0484 -2.4298 -1.1731
 1528SOL     OW16216   2.750   1.445  17.327 -0.3677 -0.5204  0.0948
 1528SOL    HW116217   2.697   1.365  17.321 -1.7358  0.2524  1.9112
 1528SOL    HW216218   2.814   1.432  17.256 -0.1281 -0.7255  0.3443
 1529SOL     OW16219   1.631   0.454   2.693  1.0073 -0.2585  0.6607
 1529SOL    HW116220   1.538   0.431   2.691  0.4277  1.8506  2.7767
 1529SOL    HW216221   1.647   0.496   2.778 -1.6351  1.7582  0.1501
 1530SOL     OW16222   1.103   2.325  11.658  0.2020 -0.1915 -0.0878
 1530SOL    HW116223   1.009   2.310  11.648  0.2388 -0.4156 -0.1185
 1530SOL    HW216224   1.136   2.235  11.666 -0.8241 -0.3661  2.1293
 1531SOL     OW16225   4.698   0.983   0.435  0.1220 -0.3767  0.0765
 1531SOL    HW116226   4.689   1.076   0.456 -0.1788  0.0210 -1.8224
 1531SOL    HW216227   0.055   0.963   0.420  0.3499  0.4206  0.4633
 1532SOL     OW16228   4.244   3.612   2.136  0.0166  0.1184  0.0024
 1532SOL    HW116229   4.204   3.672   2.199  1.4676  1.3914 -0.2802
 1532SOL    HW216230   4.204   3.651   2.059 -2.2868 -1.3859  0.4669
 1533SOL     OW16231   1.285   4.543   4.344  0.3742  0.3357 -0.8380
 1533SOL    HW116232   1.299   4.526   4.437  1.1494 -0.6930 -1.1326
 1533SOL    HW216233   1.190   4.556   4.343  0.2867 -0.2389  0.1277
 1534SOL     OW16234   4.628   1.557   8.594  0.1483 -0.3588 -0.7888
 1534SOL    HW116235   4.677   1.572   8.675  0.0928 -1.6023 -0.5294
 1534SOL    HW216236   4.696   1.523   8.536  3.0645 -0.9234  2.9790
 1535SOL     OW16237   1.936   2.796  10.879  0.3602  0.1585 -0.3517
 1535SOL    HW116238   2.004   2.759  10.936 -1.4419 -2.9553 -0.2256
 1535SOL    HW216239   1.863   2.738  10.902  0.8584 -0.2468  0.2169
 1536SOL     OW16240   0.202   2.780   1.434 -0.0419 -0.8228  0.1043
 1536SOL    HW116241   0.115   2.776   1.395 -0.5305 -0.2725  1.1110
 1536SOL    HW216242   0.192   2.715   1.503 -1.0167  0.8945  1.5905
 1537SOL     OW16243   3.672   1.410   5.372 -0.0647 -0.5263  0.2083
 1537SOL    HW116244   3.677   1.433   5.465 -0.4183 -1.7710  0.5337
 1537SOL    HW216245   3.585   1.439   5.346 -0.2918 -0.9912  0.4432
 1538SOL     OW16246   0.200   0.221  11.703 -0.3498  1.0720  0.6758
 1538SOL    HW116247   0.132   0.202  11.768  1.2128 -1.9821  1.4009
 1538SOL    HW216248   0.178   0.145  11.650 -1.9374  1.4075  0.8754
 1539SOL     OW16249   3.204   4.134   8.998 -0.0031  0.4232  0.4190
 1539SOL    HW116250   3.188   4.140   9.092 -3.2656 -1.5365 -0.0264
 1539SOL    HW216251   3.217   4.040   8.991  0.3201  0.7750 -3.8503
 1540SOL     OW16252   0.985   3.879  10.172  0.1361  0.6358 -0.0356
 1540SOL    HW116253   0.968   3.825  10.249 -1.2116 -1.5398 -1.8552
 1540SOL    HW216254   0.940   3.830  10.103 -0.3550 -0.5439  1.1094
 1541SOL     OW16255   1.769   3.039  12.903  0.1162  0.3945 -0.4209
 1541SOL    HW116256   1.692   3.081  12.942 -0.8154 -0.6626 -1.0952
 1541SOL    HW216257   1.726   2.975  12.845  1.1525 -1.2106  0.5901
 1542SOL     OW16258   1.071   3.111   2.844  0.6749 -0.3086 -0.0440
 1542SOL    HW116259   1.142   3.140   2.901  1.6182 -0.9164 -0.9135
 1542SOL    HW216260   1.078   3.164   2.764  0.4053 -0.8040 -0.3962
 1543SOL     OW16261   1.043   1.751  12.608 -0.1051 -0.8216  0.2225
 1543SOL    HW116262   1.046   1.846  12.617  2.9916 -0.9271  0.2290
 1543SOL    HW216263   1.120   1.723  12.657  0.7889  0.7493 -0.2798
 1544SOL     OW16264   3.581   2.682   8.544  0.4020 -0.2487  0.4511
 1544SOL    HW116265   3.522   2.668   8.618 -1.7903 -1.5945 -1.5542
 1544SOL    HW216266   3.598   2.595   8.508 -3.0965 -0.5059 -0.5485
 1545SOL     OW16267   4.593   4.093   3.730 -0.2547 -0.2561  0.1398
 1545SOL    HW116268   4.534   4.150   3.780  2.6110  1.5626  1.4907
 1545SOL    HW216269   4.592   4.010   3.777  0.6867  0.2687  1.0994
 1546SOL     OW16270   4.483   1.155   1.396 -0.6787  0.4830  0.4900
 1546SOL    HW116271   4.440   1.171   1.311 -0.9525 -0.5093  0.4418
 1546SOL    HW216272   4.408   1.142   1.455 -1.5714  1.3778 -0.4310
 1547SOL     OW16273   3.678   3.377   7.983 -0.1461 -0.5932 -0.0716
 1547SOL    HW116274   3.736   3.452   7.978 -1.2161  0.3207  1.0857
 1547SOL    HW216275   3.719   3.323   8.051 -1.8016 -3.0909 -1.0363
 1548SOL     OW16276   0.093   4.599   2.327  0.1033 -0.3550 -0.2943
 1548SOL    HW116277   0.045   4.658   2.386 -0.2565 -0.6950 -0.2525
 1548SOL    HW216278   0.118   4.537   2.396  4.1040  0.2080 -1.2235
 1549SOL     OW16279   0.844   3.345   8.981  0.0576 -0.0453  0.5954
 1549SOL    HW116280   0.765   3.399   8.974  0.3576  0.3580  0.2707
 1549SOL    HW216281   0.862   3.342   8.887  0.2975  0.7806  0.6149
 1550SOL     OW16282   1.396   4.647  14.411  0.4645 -0.3614  0.3299
 1550SOL    HW116283   1.329   4.642  14.343  2.5362 -0.4079 -1.7154
 1550SOL    HW216284   1.401   0.007  14.422 -1.3035 -0.2582  0.2005
 1551SOL     OW16285   3.373   2.860   4.025  0.4814  0.2959 -0.4356
 1551SOL    HW116286   3.459   2.819   4.034  1.0132  1.0665 -2.0448
 1551SOL    HW216287   3.398   2.952   4.038 -1.7827  0.7030  1.0569
 1552SOL     OW16288   4.185   0.622   8.289 -0.3131 -0.4838  0.1800
 1552SOL    HW116289   4.279   0.630   8.270  0.3644 -3.7446  2.3685
 1552SOL    HW216290   4.175   0.527   8.289 -0.2892 -0.4953 -1.9175
 1553SOL     OW16291   0.409   0.743   2.988 -0.3465  0.2460  0.1462
 1553SOL    HW116292   0.368   0.694   3.059  0.9203 -0.2438  0.5459
 1553SOL    HW216293   0.419   0.670   2.928  0.1229 -0.2061  0.7751
 1554SOL     OW16294   0.295   2.457   9.290 -0.0754 -0.0178  0.1929
 1554SOL    HW116295   0.216   2.454   9.235 -2.0027  1.5941  2.8513
 1554SOL    HW216296   0.272   2.393   9.357 -1.5106 -0.3695 -0.6218
 1555SOL     OW16297   1.919   0.996   0.212  0.3916 -0.7543  0.2631
 1555SOL    HW116298   1.902   0.991   0.306 -0.0172 -0.4768  0.2037
 1555SOL    HW216299   1.887   0.910   0.188 -3.1182  0.5516  0.3421
 1556SOL     OW16300   0.122   2.817   7.604 -0.1849 -0.0311  0.0423
 1556SOL    HW116301   0.027   2.804   7.609 -0.5359  2.7610  0.8561
 1556SOL    HW216302   0.124   2.827   7.509  2.1210 -2.1864 -0.1316
 1557SOL     OW16303   3.125   2.112   2.251  0.4682  0.4692  0.5089
 1557SOL    HW116304   3.100   2.020   2.257 -2.0389  1.2976  2.5387
 1557SOL    HW216305   3.168   2.112   2.166  0.6421 -0.1036  0.5985
 1558SOL     OW16306   0.737   0.612   1.598  0.6084 -0.3679 -0.0349
 1558SOL    HW116307   0.675   0.612   1.671  0.7191  2.3553  0.0679
 1558SOL    HW216308   0.798   0.679   1.629  0.0853 -0.2799  0.8359
 1559SOL     OW16309   3.039   0.030   1.790 -0.8302  0.0579  0.0379
 1559SOL    HW116310   3.046   4.688   1.734 -0.9727 -1.1682  1.7324
 1559SOL    HW216311   3.027   0.097   1.723  2.1665 -0.2229 -0.8020
 1560SOL     OW16312   0.434   1.862  14.984 -0.3264  0.1729  0.0835
 1560SOL    HW116313   0.391   1.779  15.002 -0.7837  0.6767  1.2488
 1560SOL    HW216314   0.479   1.841  14.902 -1.4679 -2.1989  0.0615
 1561SOL     OW16315   2.703   0.103   8.094  0.2940 -0.2986  0.0537
 1561SOL    HW116316   2.716   0.158   8.172 -3.5377 -0.8228  1.0328
 1561SOL    HW216317   2.727   0.013   8.116  0.9184 -0.1497  0.0026
 1562SOL     OW16318   1.705   2.079   9.748 -0.3374  0.5178 -0.1002
 1562SOL    HW116319   1.744   2.158   9.785  0.2647 -0.5524  1.5712
 1562SOL    HW216320   1.629   2.109   9.698 -0.7547  0.0332  0.2454
 1563SOL     OW16321   1.992   0.008   2.117  0.3848  0.3241 -0.4965
 1563SOL    HW116322   2.009   0.102   2.129 -1.1165  0.3211  1.6424
 1563SOL    HW216323   2.084   4.719   2.109  1.5698  3.6223  2.5512
 1564SOL     OW16324   1.041   0.347  11.990  0.0880 -0.4541 -0.0919
 1564SOL    HW116325   1.080   0.315  12.071  2.6241 -0.9978 -1.5499
 1564SOL    HW216326   1.107   0.413  11.969  0.3590 -1.0500 -1.1166
 1565SOL     OW16327   4.405   0.324   5.064  0.0272 -0.0810 -0.1566
 1565SOL    HW116328   4.413   0.273   5.144  0.1392  0.0116 -0.1085
 1565SOL    HW216329   4.477   0.288   5.012  0.4754  0.9967 -0.2845
 1566SOL     OW16330   1.012   0.352   2.589  0.0503  0.8423 -0.1117
 1566SOL    HW116331   1.048   0.378   2.674  0.3749 -0.5411  0.1729
 1566SOL    HW216332   1.004   0.258   2.608  2.7062  0.9832  1.7777
 1567SOL     OW16333   4.114   3.894   3.144 -0.5172 -0.1906 -0.5136
 1567SOL    HW116334   4.201   3.931   3.133 -0.9973  1.0424 -0.1860
 1567SOL    HW216335   4.119   3.827   3.076 -0.2611 -0.8475  0.1643
 1568SOL     OW16336   0.498   3.016   9.613  0.0727  0.2020  0.4285
 1568SOL    HW116337   0.592   3.013   9.601  0.1660  1.2100  0.9156
 1568SOL    HW216338   0.477   2.936   9.662  1.2645 -0.5484 -0.3002
 1569SOL     OW16339   3.368   3.634   5.579  0.2817  0.6656 -0.4244
 1569SOL    HW116340   3.414   3.592   5.507  0.0308 -0.8492  0.2838
 1569SOL    HW216341   3.360   3.724   5.548 -2.4288  0.1876 -1.0802
 1570SOL     OW16342   2.103   1.260   7.852  0.2292  0.2664  0.4016
 1570SOL    HW116343   2.131   1.276   7.761 -1.2865  2.1789  0.2648
 1570SOL    HW216344   2.010   1.262   7.831  0.5858 -0.4742 -1.2890
 1571SOL     OW16345   2.799   3.844   3.151 -0.2919 -0.0413 -0.1677
 1571SOL    HW116346   2.851   3.766   3.129 -1.1760  0.0763 -2.6133
 1571SOL    HW216347   2.720   3.800   3.183 -0.1424 -1.3450 -1.5983
 1572SOL     OW16348   4.340   4.027   3.105 -0.1148  0.6362 -0.3239
 1572SOL    HW116349   4.378   4.006   3.020 -0.2461 -2.6100  0.4328
 1572SOL    HW216350   4.398   4.094   3.141  0.4759 -1.8704  3.3867
 1573SOL     OW16351   0.276   3.114   9.481  0.6451 -0.0603  0.0544
 1573SOL    HW116352   0.256   3.172   9.554 -0.4294  0.9242 -1.0198
 1573SOL    HW216353   0.354   3.071   9.517 -0.4538 -0.5635  1.8397
 1574SOL     OW16354   1.275   3.492   5.007 -0.0297 -0.2440 -0.1646
 1574SOL    HW116355   1.280   3.418   4.946  0.5509 -0.0401 -0.3622
 1574SOL    HW216356   1.360   3.478   5.049  0.2781 -1.7368 -1.2701
 1575SOL     OW16357   2.591   3.537   5.123  0.0756  0.0981 -0.2891
 1575SOL    HW116358   2.578   3.563   5.214  1.1099  2.8881 -0.9278
 1575SOL    HW216359   2.515   3.563   5.070  0.5727  1.4191 -0.3612
 1576SOL     OW16360   0.659   1.370  14.799 -0.8789 -0.1043  0.1237
 1576SOL    HW116361   0.636   1.288  14.755 -1.6720 -1.3349  2.8406
 1576SOL    HW216362   0.618   1.433  14.740  2.4271  1.8305 -0.0679
 1577SOL     OW16363   2.261   3.548   8.646  0.0974 -0.2378  0.4214
 1577SOL    HW116364   2.255   3.491   8.570  3.0702  1.3156 -0.9758
 1577SOL    HW216365   2.280   3.490   8.720  1.3765  0.8579  0.9576
 1578SOL     OW16366   3.578   3.725   2.202 -0.3087 -0.3842  0.0079
 1578SOL    HW116367   3.537   3.696   2.284 -2.4096 -1.7921 -1.5299
 1578SOL    HW216368   3.619   3.805   2.235 -1.9888  0.0425  1.0654
 1579SOL     OW16369   3.189   0.922   7.620 -0.1525  0.2609  0.5126
 1579SOL    HW116370   3.135   0.852   7.585  4.0793 -1.1541 -3.3665
 1579SOL    HW216371   3.236   0.872   7.686 -1.1754 -2.1715 -0.5993
 1580SOL     OW16372   1.566   4.183  11.994  0.7014 -0.1077 -0.3579
 1580SOL    HW116373   1.609   4.217  11.915 -2.6162  0.8022 -1.7871
 1580SOL    HW216374   1.472   4.203  11.985  0.7393  0.7819  1.1967
 1581SOL     OW16375   1.451   2.286   5.840 -0.4287 -0.1204 -0.3823
 1581SOL    HW116376   1.450   2.346   5.915  0.7333 -0.4912 -0.0700
 1581SOL    HW216377   1.477   2.204   5.883  0.2369 -0.6217 -1.7318
 1582SOL     OW16378   4.586   3.205  10.490 -0.3407 -0.3277 -0.1626
 1582SOL    HW116379   4.615   3.292  10.466 -1.0498 -0.3159 -0.9587
 1582SOL    HW216380   4.639   3.188  10.568 -1.3998 -0.5400  0.5115
 1583SOL     OW16381   4.473   0.029   5.657  0.0660 -0.0777  0.4123
 1583SOL    HW116382   4.466   4.685   5.711  0.4062  0.1920  0.8602
 1583SOL    HW216383   4.557   0.016   5.615  0.7111 -3.1977  2.6364
 1584SOL     OW16384   1.295   3.962  12.403  0.3047 -0.1606 -0.0130
 1584SOL    HW116385   1.316   3.887  12.347  1.7259  0.8994 -0.8870
 1584SOL    HW216386   1.343   3.934  12.482 -0.5629  2.0001  1.2828
 1585SOL     OW16387   0.063   2.656   1.753 -0.2364 -0.8308 -0.4068
 1585SOL    HW116388   0.038   2.676   1.843 -1.7666 -0.5203 -0.9080
 1585SOL    HW216389   4.720   2.619   1.714 -0.2929 -1.9934  0.7861
 1586SOL     OW16390   4.607   2.194  15.894  0.1043  0.0611 -0.5607
 1586SOL    HW116391   4.688   2.245  15.897 -0.4986  0.9251  1.1326
 1586SOL    HW216392   4.542   2.258  15.922  2.1102  1.8348  0.0502
 1587SOL     OW16393   3.800   2.435   8.840 -0.2017 -0.1248  0.4484
 1587SOL    HW116394   3.830   2.383   8.766 -0.6329 -0.1486  0.2946
 1587SOL    HW216395   3.871   2.435   8.905 -0.8762 -0.6367  1.1943
 1588SOL     OW16396   0.568   0.621  10.361  0.0083 -0.0026  0.7580
 1588SOL    HW116397   0.512   0.639  10.437  1.6891  1.7835  1.5775
 1588SOL    HW216398   0.577   0.710  10.328  0.9390  0.0165  1.0549
 1589SOL     OW16399   1.078   2.743  15.618  0.2799  0.0477 -0.9052
 1589SOL    HW116400   0.992   2.726  15.578 -0.7671 -1.1659  1.8933
 1589SOL    HW216401   1.135   2.699  15.555 -1.5619  1.6802 -3.7382
 1590SOL     OW16402   2.174   4.555  14.398 -0.3356  0.0536 -0.2878
 1590SOL    HW116403   2.122   4.593  14.327 -1.7578 -2.0935 -0.3950
 1590SOL    HW216404   2.262   4.582  14.370 -0.1057  1.7043  2.0385
 1591SOL     OW16405   4.027   2.593   4.174 -0.2610 -0.0121  0.2545
 1591SOL    HW116406   3.996   2.503   4.170  0.9519 -0.4808  1.2024
 1591SOL    HW216407   4.040   2.597   4.269  0.2697  0.6578  0.1564
 1592SOL     OW16408   4.583   3.853   7.799  0.1269 -0.2249 -0.1250
 1592SOL    HW116409   4.654   3.908   7.831 -1.1862  2.3812 -1.6992
 1592SOL    HW216410   4.543   3.816   7.878 -0.7610  0.5734 -0.1883
 1593SOL     OW16411   1.770   2.820   7.533  0.6075  0.9392  0.3716
 1593SOL    HW116412   1.793   2.883   7.601  0.8479  0.9581  0.2728
 1593SOL    HW216413   1.738   2.879   7.465 -0.1175 -1.1266 -1.0817
 1594SOL     OW16414   1.421   0.737   5.850 -0.3780  0.0521 -0.3841
 1594SOL    HW116415   1.430   0.700   5.938 -0.7550  1.0540  0.0742
 1594SOL    HW216416   1.342   0.693   5.818 -2.2596  3.0964  0.1232
 1595SOL     OW16417   3.150   1.739   4.966 -0.4439  0.3518 -0.2508
 1595SOL    HW116418   3.140   1.827   5.001  0.3054  0.8466 -1.2535
 1595SOL    HW216419   3.135   1.685   5.043 -2.1126  1.2876  0.0858
 1596SOL     OW16420   0.618   4.514   3.109 -0.0338 -0.2447 -0.1622
 1596SOL    HW116421   0.570   4.577   3.055  0.7957  0.4737 -0.0531
 1596SOL    HW216422   0.704   4.544   3.081  0.1364 -0.7434 -0.1720
 1597SOL     OW16423   2.483   2.781   6.613 -0.6849 -0.2637 -0.6932
 1597SOL    HW116424   2.436   2.712   6.567 -0.9334  0.3820 -1.4126
 1597SOL    HW216425   2.426   2.794   6.689  1.4996 -0.3973  0.9848
 1598SOL     OW16426   3.457   3.995   0.082 -0.1518  0.2001 -0.2200
 1598SOL    HW116427   3.526   3.932   0.107  0.2145  0.5329 -0.3922
 1598SOL    HW216428   3.471   4.005  17.730 -1.0368 -0.0140 -0.3694
 1599SOL     OW16429   1.059   2.801   7.837 -0.6847  0.3104  0.1956
 1599SOL    HW116430   0.993   2.838   7.895  1.5863  0.3630  2.7637
 1599SOL    HW216431   1.144   2.792   7.880 -1.4645  0.2112  1.7200
 1600SOL     OW16432   0.536   3.106  14.529  0.3394  0.1082  0.5158
 1600SOL    HW116433   0.565   3.116  14.620  1.2972 -0.7877  0.3096
 1600SOL    HW216434   0.484   3.186  14.518 -0.8299 -0.5440  1.3090
 1601SOL     OW16435   2.335   3.107   6.887  0.7900 -0.1259 -0.0845
 1601SOL    HW116436   2.313   3.023   6.846  2.1499 -0.6878  0.3281
 1601SOL    HW216437   2.288   3.093   6.969  2.2184  0.8424  0.8921
 1602SOL     OW16438   2.208   1.748   5.622  0.7638  0.2528  0.0901
 1602SOL    HW116439   2.119   1.759   5.589  1.0371  2.1312 -0.0474
 1602SOL    HW216440   2.193   1.706   5.707  0.1650  0.1879 -0.0492
 1603SOL     OW16441   2.080   0.920  14.572 -0.0581  0.0125  0.2907
 1603SOL    HW116442   2.015   0.987  14.552  0.0977 -0.4337 -1.7049
 1603SOL    HW216443   2.155   0.942  14.517  0.3085 -0.0987  0.7435
 1604SOL     OW16444   1.665   3.320  15.236 -0.0378  0.0877  0.3513
 1604SOL    HW116445   1.727   3.350  15.302 -0.2047 -1.5655  1.2475
 1604SOL    HW216446   1.615   3.401  15.233 -1.0967 -0.5682  0.3286
 1605SOL     OW16447   3.497   1.902   2.269 -0.1428  0.1735 -0.0364
 1605SOL    HW116448   3.581   1.888   2.226 -0.3135 -0.4711 -0.1621
 1605SOL    HW216449   3.524   1.903   2.361 -1.2688  1.0246  0.2866
 1606SOL     OW16450   2.418   1.848   2.712  0.1518 -0.1006 -0.1640
 1606SOL    HW116451   2.384   1.802   2.789  1.9959 -3.4970 -1.4253
 1606SOL    HW216452   2.338   1.860   2.660  0.5657 -0.3997 -0.8687
 1607SOL     OW16453   0.907   0.789   1.687 -0.0106  0.1594 -0.4105
 1607SOL    HW116454   0.916   0.870   1.637  2.3733  1.0361  1.4343
 1607SOL    HW216455   0.989   0.785   1.736  0.2651 -1.2051 -0.9936
 1608SOL     OW16456   4.594   0.680  12.958 -0.4651 -0.0651  0.5227
 1608SOL    HW116457   4.534   0.741  12.916 -1.0332 -0.5045  0.7052
 1608SOL    HW216458   4.552   0.661  13.042 -2.6090 -1.1893 -0.8083
 1609SOL     OW16459   2.614   4.306  17.404 -0.2697  0.2665 -0.3849
 1609SOL    HW116460   2.544   4.255  17.445 -0.5277 -0.6637 -1.9973
 1609SOL    HW216461   2.562   4.354  17.339 -2.8029 -1.6713  0.2386
 1610SOL     OW16462   0.760   4.277   1.814 -0.2262 -0.1555  0.1419
 1610SOL    HW116463   0.746   4.208   1.879 -1.0058  0.5089  0.7003
 1610SOL    HW216464   0.829   4.238   1.762 -0.4967  0.9137 -1.0144
 1611SOL     OW16465   0.562   2.694   6.659 -0.3790 -0.0346  0.1641
 1611SOL    HW116466   0.612   2.671   6.738  0.3118  1.9626  0.3140
 1611SOL    HW216467   0.603   2.638   6.593  0.3997  0.4213  0.2613
 1612SOL     OW16468   4.605   1.399  14.687 -0.5313  0.0109  0.1514
 1612SOL    HW116469   4.667   1.439  14.626 -1.0690  0.1883 -0.2776
 1612SOL    HW216470   4.650   1.318  14.709  2.2468  0.7417 -2.9365
 1613SOL     OW16471   0.903   3.882  10.587  0.6105 -0.9343 -0.3392
 1613SOL    HW116472   0.881   3.821  10.517 -0.8396 -1.0534  0.2366
 1613SOL    HW216473   0.970   3.840  10.641 -1.8759 -4.4621 -0.0483
 1614SOL     OW16474   0.350   0.324  16.761  0.0617  0.1792 -0.2160
 1614SOL    HW116475   0.281   0.334  16.695  0.3236 -1.3155 -0.7292
 1614SOL    HW216476   0.427   0.338  16.705  0.0661 -1.8031 -0.7218
 1615SOL     OW16477   1.079   0.014   4.318 -0.2786  0.1827  0.8535
 1615SOL    HW116478   1.132   0.067   4.258 -2.1333 -1.6812 -2.3870
 1615SOL    HW216479   1.010   4.716   4.261 -1.4510 -0.5520  2.6954
 1616SOL     OW16480   0.661   3.803   7.044  0.1839 -0.1914 -0.3146
 1616SOL    HW116481   0.713   3.748   7.103  0.4813  1.1699  0.6881
 1616SOL    HW216482   0.605   3.842   7.112  1.0607  0.5134  0.0054
 1617SOL     OW16483   0.660   0.421   7.504  0.4139  0.3588  0.0650
 1617SOL    HW116484   0.650   0.385   7.592  1.5664 -2.1644 -0.8440
 1617SOL    HW216485   0.620   0.348   7.456  0.5207  0.3545 -0.0185
 1618SOL     OW16486   1.718   2.695   3.914  0.1238  0.4048  0.1746
 1618SOL    HW116487   1.751   2.779   3.883 -0.2778  0.6556  0.4193
 1618SOL    HW216488   1.625   2.695   3.894  0.3142 -0.0866 -0.7044
 1619SOL     OW16489   0.421   1.404  10.753 -0.3755  0.0940 -0.4425
 1619SOL    HW116490   0.327   1.393  10.741 -0.2891  0.4536 -1.5223
 1619SOL    HW216491   0.447   1.317  10.782 -0.5177 -0.3797 -1.7109
 1620SOL     OW16492   0.112   0.407   4.441  0.7056  0.3656 -0.3423
 1620SOL    HW116493   0.037   0.467   4.442  1.5766  1.4120  2.3494
 1620SOL    HW216494   0.116   0.382   4.533  0.2217  0.4949 -0.2822
 1621SOL     OW16495   2.102   4.718  12.444  0.9458 -0.1194 -0.2497
 1621SOL    HW116496   2.133   4.664  12.517  2.0531  3.4357  1.8565
 1621SOL    HW216497   2.012   4.684  12.443  1.2794 -0.9934 -1.8972
 1622SOL     OW16498   0.198   3.684   8.543  0.0973  0.1388 -0.3687
 1622SOL    HW116499   0.216   3.604   8.591 -0.4002 -0.3866 -1.0586
 1622SOL    HW216500   0.188   3.648   8.455 -1.1993 -0.2753 -0.0497
 1623SOL     OW16501   3.137   4.395   4.076  0.0830  0.0884 -0.1680
 1623SOL    HW116502   3.210   4.446   4.040  1.6010 -2.2072 -0.3558
 1623SOL    HW216503   3.157   4.399   4.170 -0.6211  0.1054 -0.0191
 1624SOL     OW16504   1.441   4.167   3.360 -0.5865  0.0105  0.2816
 1624SOL    HW116505   1.375   4.198   3.299 -1.5268  0.8555  1.7512
 1624SOL    HW216506   1.490   4.111   3.299  0.0053  3.3361 -2.3403
 1625SOL     OW16507   1.410   0.615  14.769 -0.1447 -0.2302 -0.5591
 1625SOL    HW116508   1.471   0.557  14.815 -0.8268 -0.5579 -0.0720
 1625SOL    HW216509   1.457   0.693  14.739 -0.9124  0.4152 -0.0783
 1626SOL     OW16510   4.287   1.362   1.678 -0.2717 -0.6992 -0.1259
 1626SOL    HW116511   4.377   1.396   1.675 -0.2912 -0.5943  0.4151
 1626SOL    HW216512   4.303   1.273   1.710  2.5505  0.0283  0.5321
 1627SOL     OW16513   0.582   1.437   5.982  0.2018  0.3107 -0.0272
 1627SOL    HW116514   0.563   1.381   6.057  1.7827  0.1031  0.2174
 1627SOL    HW216515   0.505   1.421   5.928  0.4204 -0.6452 -0.0499
 1628SOL     OW16516   2.715   1.273   1.977  0.5264  0.1318 -0.0422
 1628SOL    HW116517   2.633   1.288   1.930 -0.2539 -3.2778  0.2036
 1628SOL    HW216518   2.757   1.214   1.914 -0.0768 -1.4954  1.0597
 1629SOL     OW16519   1.501   2.543  14.353 -0.6127 -0.3054  0.1545
 1629SOL    HW116520   1.508   2.468  14.412  1.5217  0.0881  0.4149
 1629SOL    HW216521   1.416   2.571  14.386 -0.1914  2.1749 -0.8655
 1630SOL     OW16522   4.261   4.523   1.822 -0.5181 -0.0125  0.2078
 1630SOL    HW116523   4.269   4.617   1.837 -0.3212  0.3550 -2.1321
 1630SOL    HW216524   4.339   4.490   1.867 -0.3695 -0.8255 -0.6507
 1631SOL     OW16525   0.821   3.130   9.159  0.1021 -0.3074  0.1202
 1631SOL    HW116526   0.858   3.172   9.081  1.8825 -0.9811  0.5892
 1631SOL    HW216527   0.737   3.103   9.122 -1.2082  1.5299  1.7759
 1632SOL     OW16528   1.503   3.002   9.427  0.3580  0.1328 -0.0531
 1632SOL    HW116529   1.563   2.994   9.354 -0.5583 -0.3066 -0.7555
 1632SOL    HW216530   1.499   2.915   9.467  0.2956 -1.2823 -3.1896
 1633SOL     OW16531   1.302   0.183   2.929  0.5411 -0.1750 -0.1601
 1633SOL    HW116532   1.327   0.153   3.017 -0.8277  1.1285  0.6763
 1633SOL    HW216533   1.235   0.248   2.950 -0.4128 -1.3457  0.3930
 1634SOL     OW16534   2.844   1.844   6.578 -0.0181  0.7086  0.2147
 1634SOL    HW116535   2.911   1.789   6.536 -0.6716  1.0588 -1.2702
 1634SOL    HW216536   2.794   1.864   6.499 -0.1866 -2.8851 -0.5953
 1635SOL     OW16537   2.119   1.502   4.126  0.0441  0.2002  0.2314
 1635SOL    HW116538   2.070   1.536   4.201 -1.5222  1.0787 -1.1733
 1635SOL    HW216539   2.131   1.410   4.149 -1.3909 -0.5722 -2.1974
 1636SOL     OW16540   1.430   0.851   2.314  0.6578 -0.5481  0.1693
 1636SOL    HW116541   1.441   0.883   2.404 -1.3317  1.0653 -0.1636
 1636SOL    HW216542   1.504   0.790   2.310  2.0494  1.1917 -0.6120
 1637SOL     OW16543   4.246   2.390   1.929  0.2729 -0.4212 -0.2423
 1637SOL    HW116544   4.295   2.378   1.848 -0.5543 -0.1851 -0.7663
 1637SOL    HW216545   4.306   2.455   1.966 -1.9254  1.1103  0.5945
 1638SOL     OW16546   2.700   4.489  15.618  0.0357  0.5330  0.3400
 1638SOL    HW116547   2.715   4.572  15.662  0.5864  0.1881  0.8127
 1638SOL    HW216548   2.669   4.432  15.689  0.0872  2.4784  1.9090
 1639SOL     OW16549   2.611   2.384   7.781  0.9028  0.0522 -0.1604
 1639SOL    HW116550   2.678   2.452   7.771  1.1075 -0.0562  0.4936
 1639SOL    HW216551   2.644   2.309   7.732  1.6011 -0.5639  1.2348
 1640SOL     OW16552   1.246   4.638  14.167 -0.8514 -0.3558 -0.5026
 1640SOL    HW116553   1.160   4.633  14.209 -0.0148  2.3437  1.5563
 1640SOL    HW216554   1.235   4.707  14.102 -1.6503 -1.3343 -1.4008
 1641SOL     OW16555   3.506   3.227   2.697 -0.0374 -0.3610 -0.7944
 1641SOL    HW116556   3.459   3.194   2.774  0.5089  1.1147  0.1591
 1641SOL    HW216557   3.447   3.218   2.623  0.5138 -2.5244 -0.9714
 1642SOL     OW16558   2.371   3.627   6.588 -0.6045  0.2000  0.0821
 1642SOL    HW116559   2.362   3.663   6.499  1.2103  1.3185  0.3472
 1642SOL    HW216560   2.280   3.598   6.590 -0.6795  0.3889 -0.5458
 1643SOL     OW16561   0.182   1.317   6.297  0.3010  0.4928 -0.5696
 1643SOL    HW116562   0.182   1.287   6.207  1.1822  1.2928 -0.8419
 1643SOL    HW216563   0.206   1.407   6.274 -2.7448  0.7982 -2.4834
 1644SOL     OW16564   3.643   1.531   6.498  0.0427 -0.8479  0.0043
 1644SOL    HW116565   3.562   1.506   6.542 -0.3455  0.0761 -0.1831
 1644SOL    HW216566   3.689   1.517   6.581  0.8803  2.5771  0.1089
 1645SOL     OW16567   3.806   3.572  14.466  0.4303 -0.3195  0.0748
 1645SOL    HW116568   3.775   3.650  14.420 -0.3196 -0.6687 -0.0063
 1645SOL    HW216569   3.741   3.556  14.535 -1.5581 -0.3655 -1.8273
 1646SOL     OW16570   1.768   2.748  10.236  0.1390  0.5417  0.1138
 1646SOL    HW116571   1.799   2.731  10.325 -1.1382  1.6683  0.7812
 1646SOL    HW216572   1.835   2.805  10.199 -0.0289  0.0205 -0.9936
 1647SOL     OW16573   3.725   3.474   6.835  0.2225  0.0415  0.0423
 1647SOL    HW116574   3.669   3.546   6.864  1.7832  0.4064  2.1253
 1647SOL    HW216575   3.772   3.451   6.915 -1.7252  0.9312  1.4553
 1648SOL     OW16576   1.645   4.525   6.129  0.5735 -0.6057  0.0718
 1648SOL    HW116577   1.740   4.520   6.135  0.7475  0.8641 -1.5417
 1648SOL    HW216578   1.622   4.605   6.178 -1.5225 -1.5814  0.6702
 1649SOL     OW16579   4.328   4.080   9.813 -0.1776  0.7028 -0.1454
 1649SOL    HW116580   4.233   4.079   9.817 -0.2130  3.2906 -0.3401
 1649SOL    HW216581   4.349   4.092   9.905 -2.0959 -1.6850  0.6206
 1650SOL     OW16582   0.765   0.844   1.035  0.1246  0.1973 -0.2125
 1650SOL    HW116583   0.717   0.927   1.034 -1.1117 -0.5122  0.4577
 1650SOL    HW216584   0.692   0.791   1.005  0.0489 -0.1970  0.6884
 1651SOL     OW16585   0.672   2.803   1.764 -0.4146 -0.5155 -0.3626
 1651SOL    HW116586   0.691   2.720   1.807  0.7823 -0.0156  0.0754
 1651SOL    HW216587   0.698   2.870   1.827 -0.9606 -2.1730  1.5925
 1652SOL     OW16588   3.345   1.715   2.131 -0.2382  0.6096 -0.1070
 1652SOL    HW116589   3.404   1.640   2.119 -0.8984 -0.3865  2.9618
 1652SOL    HW216590   3.387   1.773   2.194  1.1040 -0.9211  0.4003
 1653SOL     OW16591   1.733   1.156   3.485 -0.0002 -0.2394 -0.1843
 1653SOL    HW116592   1.750   1.250   3.485 -0.4101 -0.1644 -0.1716
 1653SOL    HW216593   1.783   1.135   3.406  0.9412 -0.4734  0.4873
 1654SOL     OW16594   0.593   4.354   1.605 -0.1425  0.3724  0.2700
 1654SOL    HW116595   0.620   4.324   1.691  0.0822  0.7715  0.3363
 1654SOL    HW216596   0.677   4.383   1.571  0.3400 -1.3158  0.0314
 1655SOL     OW16597   4.280   2.525  10.178 -0.7209  0.0008 -0.0785
 1655SOL    HW116598   4.257   2.583  10.106 -3.4923 -1.5415 -0.4500
 1655SOL    HW216599   4.341   2.471  10.128 -1.0696 -1.4714  1.0704
 1656SOL     OW16600   3.334   2.915   7.950  0.5155 -0.3680 -0.7851
 1656SOL    HW116601   3.381   2.914   7.866  1.8023  0.1757 -0.0642
 1656SOL    HW216602   3.243   2.921   7.918  0.3377  0.6669 -0.0805
 1657SOL     OW16603   1.958   0.202  11.382 -0.1301  0.3907 -0.3195
 1657SOL    HW116604   1.893   0.137  11.356  0.6307  0.0446 -1.4067
 1657SOL    HW216605   2.036   0.158  11.346 -0.0528  0.7321 -0.5693
 1658SOL     OW16606   0.456   2.073   0.540 -0.2316 -0.4467 -0.5184
 1658SOL    HW116607   0.528   2.016   0.514 -0.4341 -1.0538  0.2234
 1658SOL    HW216608   0.458   2.146   0.479  0.4264 -0.0629 -0.0325
 1659SOL     OW16609   1.072   3.438   5.171 -0.2032 -0.3576  0.5241
 1659SOL    HW116610   1.032   3.363   5.127 -2.1486  0.0861  1.5047
 1659SOL    HW216611   1.139   3.452   5.105 -0.4292  0.0587  0.3851
 1660SOL     OW16612   4.258   1.409  17.623  0.6186 -0.3028  0.0315
 1660SOL    HW116613   4.266   1.407  17.528  1.7860  1.4721  0.0876
 1660SOL    HW216614   4.299   1.494  17.643  0.6076 -0.0105 -1.2009
 1661SOL     OW16615   4.521   3.305   1.784 -0.3589 -0.4389 -0.1785
 1661SOL    HW116616   4.477   3.348   1.857 -1.7098 -3.1228  0.6085
 1661SOL    HW216617   4.600   3.260   1.816 -0.9315 -0.8626  0.6396
 1662SOL     OW16618   1.642   3.587   7.973  0.6112 -0.5140  0.6129
 1662SOL    HW116619   1.548   3.608   7.974  0.8911  0.8501 -0.5427
 1662SOL    HW216620   1.628   3.492   7.974  1.8247 -0.6919  0.8315
 1663SOL     OW16621   1.847   0.544   5.664 -0.6844 -0.2007  0.2486
 1663SOL    HW116622   1.767   0.530   5.715  0.3558 -0.4031  1.8128
 1663SOL    HW216623   1.809   0.574   5.582  3.3780 -0.0335 -1.5301
 1664SOL     OW16624   1.517   3.691   4.707 -0.0925 -0.3535 -0.3754
 1664SOL    HW116625   1.592   3.740   4.742  0.5482 -2.5659  1.3891
 1664SOL    HW216626   1.463   3.761   4.672  0.0282 -0.4671 -0.7897
 1665SOL     OW16627   0.629   1.176   8.206 -0.9516  0.6383 -0.3293
 1665SOL    HW116628   0.573   1.194   8.282 -1.2580  1.5149 -0.7692
 1665SOL    HW216629   0.568   1.130   8.148  0.6594 -1.8836 -0.0179
 1666SOL     OW16630   0.159   2.103  10.203 -0.1272  0.9312 -0.0541
 1666SOL    HW116631   0.249   2.132  10.220  0.6112 -0.9484 -0.7300
 1666SOL    HW216632   0.172   2.011  10.180  1.7228  1.3715 -0.7988
 1667SOL     OW16633   3.851   2.164   6.330 -0.3644 -0.8882 -0.3643
 1667SOL    HW116634   3.882   2.241   6.281  0.1934 -0.1441  1.1629
 1667SOL    HW216635   3.786   2.206   6.387  1.2904  1.0994  0.0766
 1668SOL     OW16636   0.507   3.518   1.045 -0.0239 -0.0245  0.2097
 1668SOL    HW116637   0.594   3.521   1.006 -0.8568 -2.4630 -1.8710
 1668SOL    HW216638   0.509   3.440   1.101 -1.8148  1.9229  2.9767
 1669SOL     OW16639   0.323   0.251   5.644 -0.2897  0.5225  0.6149
 1669SOL    HW116640   0.263   0.212   5.708  0.0641  1.5361  1.5682
 1669SOL    HW216641   0.338   0.332   5.694  0.3125 -0.1621  1.5405
 1670SOL     OW16642   4.438   0.916   4.312 -0.0569  0.4220  0.3132
 1670SOL    HW116643   4.360   0.903   4.366 -1.5209  1.7620 -1.5020
 1670SOL    HW216644   4.471   0.829   4.289 -1.1342 -0.8373  3.4614
 1671SOL     OW16645   0.325   2.726   6.784  0.3095 -0.1158  0.9679
 1671SOL    HW116646   0.408   2.687   6.756 -0.2503 -1.8032  1.6194
 1671SOL    HW216647   0.348   2.791   6.851  1.7774  0.7297 -0.3499
 1672SOL     OW16648   1.306   3.298  14.280 -0.2785  0.4150 -0.4450
 1672SOL    HW116649   1.350   3.377  14.249 -0.5894  1.0784  0.7868
 1672SOL    HW216650   1.369   3.227  14.268  0.9036  1.3648  0.2086
 1673SOL     OW16651   1.031   0.264   3.024 -0.1172  0.0523  0.2097
 1673SOL    HW116652   0.991   0.327   3.084  0.3483  1.3332 -0.8320
 1673SOL    HW216653   0.946   0.236   2.989  1.0154 -0.6336 -1.9162
 1674SOL     OW16654   3.005   2.592   9.089  0.1775 -0.1965  0.2189
 1674SOL    HW116655   3.066   2.528   9.125  1.9903  1.8356  0.8085
 1674SOL    HW216656   2.938   2.589   9.158 -0.4737  0.3872 -0.3810
 1675SOL     OW16657   0.652   1.547   9.558  0.0194 -0.6196  0.1261
 1675SOL    HW116658   0.589   1.578   9.493  0.9258  0.7427 -0.1044
 1675SOL    HW216659   0.612   1.467   9.593 -1.5619  0.4651  0.8036
 1676SOL     OW16660   2.822   2.233   0.102 -0.2156 -0.2905  0.0258
 1676SOL    HW116661   2.760   2.236   0.175  1.6343 -0.6763  1.6033
 1676SOL    HW216662   2.874   2.154   0.122 -1.0107 -0.8667 -0.1827
 1677SOL     OW16663   2.972   4.586  17.641 -0.4952  0.0494  0.0258
 1677SOL    HW116664   3.018   4.652  17.693  0.1593  0.1818 -0.7293
 1677SOL    HW216665   2.961   4.630  17.556 -0.3883 -0.8008 -0.4276
 1678SOL     OW16666   0.856   1.615   5.028 -0.1702  0.3959 -0.3523
 1678SOL    HW116667   0.898   1.695   4.996 -0.5329  0.0339 -1.7258
 1678SOL    HW216668   0.783   1.659   5.070  0.1477  1.4899 -0.9330
 1679SOL     OW16669   3.037   3.800   2.458 -0.5669 -0.2718 -0.1469
 1679SOL    HW116670   3.050   3.864   2.528  0.1702 -1.1527  0.5275
 1679SOL    HW216671   3.094   3.838   2.391 -0.1743  1.9040  1.4237
 1680SOL     OW16672   1.090   1.030   5.893  0.8841  0.2302  0.1827
 1680SOL    HW116673   1.090   0.966   5.964  0.3333 -1.3819 -1.2710
 1680SOL    HW216674   1.102   1.116   5.935  2.8033 -0.3430  0.8536
 1681SOL     OW16675   1.556   4.639  15.818 -0.0078  0.4773 -0.0916
 1681SOL    HW116676   1.539   4.689  15.899 -2.7204 -0.0560 -0.3098
 1681SOL    HW216677   1.522   4.554  15.846 -2.0020  1.8257  1.6512
 1682SOL     OW16678   3.813   1.292  14.847 -0.4261  0.4399 -0.2733
 1682SOL    HW116679   3.836   1.235  14.773 -1.2516  1.4247 -1.2848
 1682SOL    HW216680   3.870   1.365  14.822 -1.6434  1.0378 -1.2869
 1683SOL     OW16681   2.601   1.781  13.219 -0.1772 -0.0889 -0.0038
 1683SOL    HW116682   2.662   1.780  13.293 -0.5155  2.3399  0.3083
 1683SOL    HW216683   2.640   1.717  13.159  1.3286  1.4875 -0.7104
 1684SOL     OW16684   1.959   2.017   8.788 -0.0150  0.2370  0.1269
 1684SOL    HW116685   1.938   1.985   8.700  0.3112 -1.3946  0.6426
 1684SOL    HW216686   2.030   2.080   8.785 -0.3665  0.6324  0.1564
 1685SOL     OW16687   1.899   3.554   6.951 -0.1348  0.5307  0.1682
 1685SOL    HW116688   1.972   3.567   7.013  2.7998  0.2685 -3.2560
 1685SOL    HW216689   1.928   3.615   6.883 -2.4742  0.1512 -1.1638
 1686SOL     OW16690   0.400   3.465   7.084 -0.3122  0.1898 -0.0740
 1686SOL    HW116691   0.375   3.376   7.108 -1.1163  0.4473  0.0431
 1686SOL    HW216692   0.330   3.514   7.128 -1.4375 -1.0178 -0.4947
 1687SOL     OW16693   1.312   0.603   6.346 -0.5174 -0.0642 -0.4780
 1687SOL    HW116694   1.257   0.534   6.383 -1.6790 -0.1892 -2.4437
 1687SOL    HW216695   1.288   0.601   6.254 -1.8922  1.3411 -0.1510
 1688SOL     OW16696   1.417   0.458   6.000  0.0494  0.4314  0.0998
 1688SOL    HW116697   1.396   0.381   5.947  0.2541  0.8837 -0.6424
 1688SOL    HW216698   1.441   0.412   6.080 -0.2361  0.0253 -0.0514
 1689SOL     OW16699   3.445   3.749  17.627 -0.1942  0.5915  0.0783
 1689SOL    HW116700   3.388   3.701  17.567 -0.3311  0.6107  0.1945
 1689SOL    HW216701   3.506   3.787  17.563  0.5409 -2.4843 -1.0315
 1690SOL     OW16702   3.357   4.406   7.028  0.2071  0.0467 -0.3543
 1690SOL    HW116703   3.272   4.403   6.985 -1.3239  2.9296  2.5007
 1690SOL    HW216704   3.413   4.460   6.972  0.0111 -0.1380 -0.7243
 1691SOL     OW16705   1.611   0.947  17.060  0.2013  0.4069  0.3189
 1691SOL    HW116706   1.571   0.909  17.139  1.6399  1.8783  1.7601
 1691SOL    HW216707   1.545   1.008  17.028  1.0426  0.4539 -1.2953
 1692SOL     OW16708   4.454   1.118   6.702 -0.0512 -0.4456 -0.0497
 1692SOL    HW116709   4.441   1.181   6.631 -0.9066  0.0806  0.5725
 1692SOL    HW216710   4.389   1.153   6.764 -0.6737 -2.1121  0.2299
 1693SOL     OW16711   4.262   3.545   7.343 -0.2524  0.3912 -0.2454
 1693SOL    HW116712   4.279   3.484   7.272  0.8949  0.0607  0.3060
 1693SOL    HW216713   4.192   3.495   7.386 -1.4433  1.5670 -0.8347
 1694SOL     OW16714   2.600   3.252  13.101  0.5280  1.0195 -0.0795
 1694SOL    HW116715   2.611   3.291  13.014  0.2152 -0.5219 -0.8076
 1694SOL    HW216716   2.597   3.336  13.148  0.6430  1.0377 -0.1036
 1695SOL     OW16717   1.087   1.046   8.402 -0.1490 -0.0462  0.0068
 1695SOL    HW116718   1.096   1.105   8.476 -1.4800  0.6753 -0.3854
 1695SOL    HW216719   1.023   1.102   8.358 -1.5081 -0.2147  1.7769
 1696SOL     OW16720   4.058   2.390  10.159 -0.1430 -0.0888  0.4642
 1696SOL    HW116721   4.098   2.305  10.142 -0.1559 -0.0607  0.2903
 1696SOL    HW216722   4.137   2.444  10.160  1.6087 -2.6527  0.8109
 1697SOL     OW16723   2.070   1.874   7.129  0.2004 -0.1777 -0.5961
 1697SOL    HW116724   2.015   1.945   7.164 -0.5359 -2.0708  2.0446
 1697SOL    HW216725   2.144   1.891   7.187 -1.8897  0.4370  1.9146
 1698SOL     OW16726   0.195   4.073   7.484 -0.1684 -0.9522  0.4266
 1698SOL    HW116727   0.211   4.021   7.562  2.6171  0.0566  0.5284
 1698SOL    HW216728   0.116   4.034   7.445  0.7925 -2.0019 -0.4732
 1699SOL     OW16729   4.121   3.998  11.076 -0.1433 -0.3616  0.2277
 1699SOL    HW116730   4.122   4.093  11.083 -1.7198 -0.1645 -2.1910
 1699SOL    HW216731   4.110   3.989  10.981 -0.4800 -1.5761  0.3715
 1700SOL     OW16732   4.027   0.787  14.923  0.1014  0.0958  0.1976
 1700SOL    HW116733   4.070   0.781  15.008  1.4225 -3.4755 -0.7142
 1700SOL    HW216734   4.039   0.701  14.881  0.8385  0.5237 -0.4746
 1701SOL     OW16735   1.145   4.115   7.051 -0.1780  0.4377  0.1673
 1701SOL    HW116736   1.083   4.181   7.082  0.4967  0.7314  0.8825
 1701SOL    HW216737   1.230   4.149   7.082  0.7875 -0.3774 -1.5683
 1702SOL     OW16738   2.477   2.536   7.308  0.3260  0.0739  0.1659
 1702SOL    HW116739   2.391   2.575   7.290  0.2605 -1.4313 -2.7305
 1702SOL    HW216740   2.516   2.518   7.223  0.2373 -2.3359  0.6440
 1703SOL     OW16741   0.491   2.555  15.797  0.4919 -0.2241  0.1651
 1703SOL    HW116742   0.491   2.576  15.703 -2.6147 -1.0490 -0.0261
 1703SOL    HW216743   0.409   2.598  15.822  0.6949  2.2751 -3.3551
 1704SOL     OW16744   4.492   3.487  12.805  0.8936 -0.0658  0.6107
 1704SOL    HW116745   4.539   3.437  12.871  0.0992 -2.5508 -0.7113
 1704SOL    HW216746   4.414   3.502  12.858 -0.1977  2.4163 -1.7089
 1705SOL     OW16747   0.803   3.988   6.910  0.6589  0.0142  0.3158
 1705SOL    HW116748   0.836   3.997   7.000  2.6041 -1.7650 -0.2231
 1705SOL    HW216749   0.739   3.921   6.935  1.0900 -0.8968 -1.0508
 1706SOL     OW16750   1.192   1.862  14.450  0.3172 -0.3254  0.0511
 1706SOL    HW116751   1.116   1.803  14.450  1.1132 -1.3441 -0.0843
 1706SOL    HW216752   1.265   1.806  14.477 -0.2778 -0.7186  0.8250
 1707SOL     OW16753   4.398   1.806  10.721  0.3287 -0.4778 -0.0304
 1707SOL    HW116754   4.421   1.876  10.660  0.5876  0.6504  1.3745
 1707SOL    HW216755   4.479   1.796  10.772  0.7082 -2.0186 -0.9096
 1708SOL     OW16756   2.632   4.679  15.207  0.0241 -0.5388 -0.0622
 1708SOL    HW116757   2.667   4.592  15.223 -1.0535 -0.9073  0.2942
 1708SOL    HW216758   2.557   4.663  15.264  1.2870 -0.4364  1.6364
 1709SOL     OW16759   0.857   3.365   3.528 -0.6094  0.2036  0.0088
 1709SOL    HW116760   0.770   3.369   3.489 -0.7466 -2.6348  0.0494
 1709SOL    HW216761   0.903   3.329   3.453 -0.7059 -2.4270  1.2069
 1710SOL     OW16762   1.241   2.668  12.517 -0.3592  0.2480  0.2077
 1710SOL    HW116763   1.182   2.606  12.561  0.6811 -0.4597  0.5967
 1710SOL    HW216764   1.317   2.675  12.575  0.0344 -1.6744 -0.0906
 1711SOL     OW16765   1.399   3.935   4.664 -0.2129  0.4080 -0.4047
 1711SOL    HW116766   1.346   4.009   4.695 -0.3218  0.4451 -0.6764
 1711SOL    HW216767   1.400   3.950   4.569 -2.3126 -2.4006 -0.8554
 1712SOL     OW16768   0.310   1.478   4.629 -0.0080  0.4600  0.0009
 1712SOL    HW116769   0.371   1.550   4.638 -0.6701  0.8585  1.3199
 1712SOL    HW216770   0.248   1.502   4.561 -1.0340 -0.5037  0.5829
 1713SOL     OW16771   1.593   1.296   5.205 -0.0992 -0.4315 -0.2346
 1713SOL    HW116772   1.617   1.219   5.153  1.2828  0.0334 -0.2862
 1713SOL    HW216773   1.634   1.355   5.142  0.3367 -0.5862 -0.1008
 1714SOL     OW16774   4.513   0.031   8.158  0.2727 -0.4270 -0.1415
 1714SOL    HW116775   4.606   0.028   8.136  0.3013 -1.9460  0.2406
 1714SOL    HW216776   4.505   0.127   8.160  0.0734 -0.4518  0.2873
 1715SOL     OW16777   1.106   1.364   6.271  0.0893  0.1552  0.2405
 1715SOL    HW116778   1.057   1.394   6.348 -4.1452 -0.6114 -2.1718
 1715SOL    HW216779   1.177   1.427   6.262  0.7658 -0.2331  2.7672
 1716SOL     OW16780   3.086   0.837   5.902  0.3799  0.7785 -0.3385
 1716SOL    HW116781   3.064   0.909   5.842  0.7685  1.2352  0.0699
 1716SOL    HW216782   2.998   0.803   5.918  0.0028  0.0973 -3.7578
 1717SOL     OW16783   1.448   2.493   9.601  0.5324  0.0454  0.3505
 1717SOL    HW116784   1.433   2.527   9.690  0.4329 -1.3247  0.8608
 1717SOL    HW216785   1.542   2.509   9.592  0.5654  1.1205  2.5078
 1718SOL     OW16786   3.134   1.524  15.697  0.6291 -0.1503 -0.1553
 1718SOL    HW116787   3.160   1.506  15.607 -0.0134 -1.3652 -0.0968
 1718SOL    HW216788   3.098   1.440  15.724 -1.2556  0.3123 -1.2412
 1719SOL     OW16789   4.281   3.436   2.968  0.2353  0.3417 -0.0324
 1719SOL    HW116790   4.362   3.404   2.927  0.1391  1.4956 -1.1379
 1719SOL    HW216791   4.297   3.408   3.058  2.1051 -0.1585 -0.5077
 1720SOL     OW16792   4.023   4.687   2.746  0.1327  0.7343 -0.3109
 1720SOL    HW116793   4.087   4.620   2.722  0.0833  0.8397 -0.7298
 1720SOL    HW216794   3.952   4.674   2.683 -0.5620 -1.4335  0.9035
 1721SOL     OW16795   0.791   1.336  10.708  0.2320 -0.4796 -0.4515
 1721SOL    HW116796   0.827   1.281  10.638 -0.6912  1.6013 -2.5718
 1721SOL    HW216797   0.829   1.423  10.701 -0.2838 -0.2367 -0.2355
 1722SOL     OW16798   4.458   0.801  12.194 -0.2178 -0.2764 -0.5588
 1722SOL    HW116799   4.528   0.766  12.250  1.5825  0.5845 -2.2551
 1722SOL    HW216800   4.386   0.777  12.252 -0.0763  2.5341  0.7882
 1723SOL     OW16801   2.880   3.935  16.782 -0.3458 -0.4226 -0.0266
 1723SOL    HW116802   2.905   3.908  16.870  0.9102 -1.3987 -0.6851
 1723SOL    HW216803   2.954   3.990  16.758  1.4591 -2.7196  0.2912
 1724SOL     OW16804   3.700   2.815   6.806 -0.0616 -0.0821 -0.1716
 1724SOL    HW116805   3.752   2.876   6.754  2.0405 -0.9166  0.9316
 1724SOL    HW216806   3.624   2.871   6.796  0.5218  0.8675  0.7058
 1725SOL     OW16807   2.643   1.829   0.408  0.3818 -0.2732 -0.3792
 1725SOL    HW116808   2.583   1.822   0.334  0.3663  0.0077 -0.3909
 1725SOL    HW216809   2.721   1.787   0.371  1.3113  0.1749  1.0942
 1726SOL     OW16810   2.145   4.350   8.148  0.2759 -0.2402 -0.3031
 1726SOL    HW116811   2.185   4.282   8.201 -0.1770  0.8710  1.4547
 1726SOL    HW216812   2.134   4.310   8.062 -2.0467  1.4912 -0.8094
 1727SOL     OW16813   1.820   2.137   2.444 -0.0928  0.3151  0.3710
 1727SOL    HW116814   1.840   2.079   2.371 -0.1372  2.4108 -1.2899
 1727SOL    HW216815   1.846   2.223   2.410 -0.8897  0.8633  1.1647
 1728SOL     OW16816   2.397   0.390   2.040  0.1021 -0.0469 -0.1124
 1728SOL    HW116817   2.396   0.400   1.944 -1.4396 -2.0366 -0.3102
 1728SOL    HW216818   2.487   0.361   2.051  0.3065  0.8564  0.5686
 1729SOL     OW16819   0.394   4.380  10.856 -0.8027  0.6311  0.2478
 1729SOL    HW116820   0.481   4.417  10.842 -1.5247  2.1482 -0.3313
 1729SOL    HW216821   0.392   4.398  10.950 -0.7353 -0.1794  0.3964
 1730SOL     OW16822   0.598   3.127   3.011 -0.0705  0.1023 -0.3103
 1730SOL    HW116823   0.639   3.206   3.048  0.0466 -0.1432  0.0913
 1730SOL    HW216824   0.540   3.172   2.950 -0.3594 -0.0425 -0.1460
 1731SOL     OW16825   2.878   4.281   8.284 -0.4378 -0.1347 -0.0835
 1731SOL    HW116826   2.918   4.360   8.248 -1.0598  0.5198  0.6501
 1731SOL    HW216827   2.871   4.222   8.209  0.7469  0.2248 -0.4772
 1732SOL     OW16828   3.262   1.650   6.783  0.4334 -0.4700 -0.0628
 1732SOL    HW116829   3.266   1.719   6.717  0.0270  0.0578  0.4565
 1732SOL    HW216830   3.345   1.605   6.768  1.3192  1.6702 -1.6891
 1733SOL     OW16831   0.790   2.336   2.087 -0.4559 -0.1300 -0.3837
 1733SOL    HW116832   0.775   2.306   1.997  0.5189  1.3466 -1.0397
 1733SOL    HW216833   0.859   2.402   2.085 -0.2701 -0.2343  1.8770
 1734SOL     OW16834   0.660   0.791   7.584  0.6409 -0.1295 -0.2496
 1734SOL    HW116835   0.571   0.766   7.608  0.5878  0.2181 -0.0983
 1734SOL    HW216836   0.710   0.773   7.664 -1.2943 -1.0515  0.7568
 1735SOL     OW16837   3.212   2.226  14.325 -0.2592  0.2876  0.1782
 1735SOL    HW116838   3.262   2.307  14.327 -0.8189  0.6614 -0.7812
 1735SOL    HW216839   3.271   2.171  14.274  0.4536  0.6824  0.5841
 1736SOL     OW16840   3.735   2.712   8.810 -0.2411  0.2362 -0.1195
 1736SOL    HW116841   3.805   2.771   8.783  0.4965 -0.9237 -0.7327
 1736SOL    HW216842   3.773   2.625   8.802  0.1208  0.1665  2.3628
 1737SOL     OW16843   2.209   0.460   4.772  0.0142  0.6280  1.2958
 1737SOL    HW116844   2.137   0.515   4.804 -1.8529  0.0571 -1.9112
 1737SOL    HW216845   2.175   0.417   4.693  0.7837  2.5965 -0.1118
 1738SOL     OW16846   0.524   3.593   6.507  0.3600 -0.3985 -0.1579
 1738SOL    HW116847   0.482   3.513   6.540  2.3569 -1.0134  0.9568
 1738SOL    HW216848   0.498   3.595   6.415 -2.0176 -2.3724  0.4685
 1739SOL     OW16849   1.718   0.974  17.382 -0.4627  0.6058 -0.6124
 1739SOL    HW116850   1.728   1.069  17.372  0.3810  0.4758 -1.0515
 1739SOL    HW216851   1.811   0.959  17.402 -0.3621  0.2177 -1.3519
 1740SOL     OW16852   0.194   2.841   7.350 -0.3627 -0.2313  0.0245
 1740SOL    HW116853   0.145   2.885   7.281 -2.9281 -0.3026  1.7928
 1740SOL    HW216854   0.269   2.900   7.357 -0.6818  0.2665 -0.8091
 1741SOL     OW16855   4.376   1.506   8.695 -0.4140 -0.2514  0.0103
 1741SOL    HW116856   4.455   1.547   8.658  1.0592 -1.4395  1.8201
 1741SOL    HW216857   4.397   1.502   8.788 -1.2698 -0.9923  0.1627
 1742SOL     OW16858   1.757   0.347   1.046  0.3588  0.0321 -0.0715
 1742SOL    HW116859   1.763   0.386   0.959 -2.4860  2.3279  0.7549
 1742SOL    HW216860   1.823   0.278   1.040 -0.1738 -0.3289 -1.8240
 1743SOL     OW16861   4.590   0.969   1.176 -0.0380 -0.1760 -0.3505
 1743SOL    HW116862   4.546   0.902   1.229  1.6055  0.5416  1.9610
 1743SOL    HW216863   4.544   1.040   1.221  1.4976 -0.3662  1.5447
 1744SOL     OW16864   4.683   0.749   5.964 -0.3384 -0.9994  0.3009
 1744SOL    HW116865   4.702   0.737   6.057 -0.7684  1.8771  0.7735
 1744SOL    HW216866   4.653   0.661   5.943  0.6354 -1.4980  0.9823
 1745SOL     OW16867   1.873   3.230  12.074 -0.4165  0.1400 -0.1658
 1745SOL    HW116868   1.968   3.227  12.063 -0.3268  0.2869  0.5543
 1745SOL    HW216869   1.849   3.279  11.995 -1.2284 -1.4697 -0.9071
 1746SOL     OW16870   3.241   1.219   4.327 -0.0073 -0.1203 -0.1424
 1746SOL    HW116871   3.229   1.152   4.259  1.1948 -0.7365  0.2491
 1746SOL    HW216872   3.158   1.202   4.372 -0.2186 -2.2959 -1.3440
 1747SOL     OW16873   0.862   3.488   4.734 -0.0664 -0.3041  0.1090
 1747SOL    HW116874   0.847   3.582   4.746  1.3562 -0.2548  1.6309
 1747SOL    HW216875   0.864   3.479   4.639  0.6239  0.6828  0.0222
 1748SOL     OW16876   2.712   3.111   3.760  0.0875 -0.1892  0.1057
 1748SOL    HW116877   2.707   3.023   3.722 -2.9423 -0.2243  0.5607
 1748SOL    HW216878   2.743   3.092   3.848 -0.4534  0.1497  0.3721
 1749SOL     OW16879   4.359   2.720   9.338  0.3552  0.4404 -0.4499
 1749SOL    HW116880   4.437   2.721   9.393  1.2479 -2.3627 -1.6483
 1749SOL    HW216881   4.393   2.738   9.251 -2.3255 -1.1327 -1.8215
 1750SOL     OW16882   2.581   1.855  15.604 -0.2420 -0.3984 -0.1767
 1750SOL    HW116883   2.676   1.855  15.591 -0.1814  0.2568  0.2587
 1750SOL    HW216884   2.577   1.784  15.668 -0.7285 -0.8488 -0.6974
 1751SOL     OW16885   4.576   3.206   8.902 -0.0525  0.2777 -0.4007
 1751SOL    HW116886   4.525   3.137   8.944  1.3225 -1.3698 -1.4265
 1751SOL    HW216887   4.617   3.168   8.824  1.0668  3.3210 -1.3256
 1752SOL     OW16888   1.136   3.402  16.840  0.6298  0.1329 -0.5075
 1752SOL    HW116889   1.169   3.344  16.771  0.9812 -1.2801  0.8544
 1752SOL    HW216890   1.045   3.376  16.854  1.2052 -0.5149  2.0488
 1753SOL     OW16891   4.152   1.297   8.216  0.4470  0.0181  0.3877
 1753SOL    HW116892   4.174   1.368   8.277 -0.1505  0.9894 -0.5331
 1753SOL    HW216893   4.064   1.320   8.189  0.2167  0.2592  1.3343
 1754SOL     OW16894   2.068   1.687   3.591 -0.0115  0.3454  0.0522
 1754SOL    HW116895   2.009   1.612   3.589 -0.4565  0.6186  2.3996
 1754SOL    HW216896   2.099   1.673   3.681 -0.2392 -3.2909 -0.4194
 1755SOL     OW16897   2.630   0.281   8.890  0.2764 -0.1773  0.0361
 1755SOL    HW116898   2.663   0.239   8.970  0.9930 -2.9911 -1.7463
 1755SOL    HW216899   2.548   0.318   8.925 -0.9503 -1.3694 -1.5749
 1756SOL     OW16900   0.614   1.470  16.946  0.0951 -0.1384  0.3070
 1756SOL    HW116901   0.618   1.375  16.942  0.9708 -0.0607 -0.7112
 1756SOL    HW216902   0.536   1.486  16.999 -0.7684  1.4999 -1.4255
 1757SOL     OW16903   0.802   1.973  10.282 -0.4883  0.5846 -0.3809
 1757SOL    HW116904   0.809   1.955  10.188 -0.5088 -1.1561 -0.0440
 1757SOL    HW216905   0.885   2.017  10.301  0.9272 -0.6814 -3.5632
 1758SOL     OW16906   1.775   2.838   1.390  1.3302  0.0286  0.0979
 1758SOL    HW116907   1.861   2.873   1.412  1.4596  0.0468 -0.4318
 1758SOL    HW216908   1.752   2.899   1.320 -2.3673 -1.9499 -0.4484
 1759SOL     OW16909   4.360   2.085   6.943 -0.1524 -0.0192 -0.4158
 1759SOL    HW116910   4.436   2.037   6.909 -1.4421 -1.3361 -1.4281
 1759SOL    HW216911   4.358   2.161   6.885  1.5669  1.4901  1.4831
 1760SOL     OW16912   1.820   0.195   8.792  0.4442  0.2480  0.1926
 1760SOL    HW116913   1.759   0.122   8.795  1.4291 -0.5873 -0.0904
 1760SOL    HW216914   1.815   0.227   8.883 -0.1834  0.3426  0.1246
 1761SOL     OW16915   3.525   2.238  11.498  0.1748 -0.8361  0.7839
 1761SOL    HW116916   3.569   2.184  11.564  0.9675  0.3290  1.2078
 1761SOL    HW216917   3.442   2.191  11.491  1.1809 -2.9015  2.9317
 1762SOL     OW16918   1.116   2.201   6.740 -1.0770  0.2010  0.0929
 1762SOL    HW116919   1.092   2.225   6.830  0.4920  0.4794  0.4452
 1762SOL    HW216920   1.131   2.285   6.695  0.6790 -0.7703 -1.1330
 1763SOL     OW16921   4.158   3.135   1.020  0.5185  0.2341  0.1217
 1763SOL    HW116922   4.137   3.048   0.986  2.0892 -0.2909  0.4747
 1763SOL    HW216923   4.160   3.186   0.939  1.9836 -0.9457 -0.5906
 1764SOL     OW16924   1.305   3.642  12.456 -0.1217 -0.1116 -0.0098
 1764SOL    HW116925   1.367   3.699  12.410  1.9348 -2.4700 -0.1525
 1764SOL    HW216926   1.287   3.581  12.386  0.6378 -1.9595  1.3994
 1765SOL     OW16927   2.815   0.919   0.089  0.3743  0.4161 -0.9041
 1765SOL    HW116928   2.782   0.932   0.178 -0.8761  0.3883 -1.3674
 1765SOL    HW216929   2.780   0.984   0.028  1.6622  0.3626 -1.7062
 1766SOL     OW16930   1.753   3.353  11.835 -0.4091 -0.0385 -0.4913
 1766SOL    HW116931   1.715   3.435  11.864 -0.4290 -0.0449 -0.4993
 1766SOL    HW216932   1.687   3.289  11.862 -1.1875  1.1929  0.5200
 1767SOL     OW16933   3.237   3.626  14.954 -0.2620  0.1027  0.0525
 1767SOL    HW116934   3.150   3.614  14.917  0.6548 -1.4710 -1.6117
 1767SOL    HW216935   3.288   3.632  14.873 -0.6603 -0.2504 -0.2243
 1768SOL     OW16936   3.995   3.101  12.111 -0.4325  0.1965  0.3378
 1768SOL    HW116937   3.998   3.169  12.178  0.5348  0.2779  0.2083
 1768SOL    HW216938   4.083   3.095  12.074 -0.6651  1.8714 -0.4632
 1769SOL     OW16939   3.835   2.586  14.526  0.1974 -0.4852  0.1608
 1769SOL    HW116940   3.877   2.663  14.566 -1.0493  0.2942 -0.0373
 1769SOL    HW216941   3.777   2.556  14.595 -0.1000 -0.8851 -0.2597
 1770SOL     OW16942   0.491   1.316   1.716 -0.0677  0.7298  0.5887
 1770SOL    HW116943   0.547   1.316   1.793 -0.8410  1.3837  1.1501
 1770SOL    HW216944   0.496   1.228   1.679 -0.0689  1.1903 -0.5152
 1771SOL     OW16945   3.798   1.183   2.152  0.0438 -0.5812  0.1552
 1771SOL    HW116946   3.820   1.271   2.182 -1.3885  0.4960 -1.9022
 1771SOL    HW216947   3.734   1.157   2.219 -0.7758  2.4086  0.5020
 1772SOL     OW16948   2.959   3.741  15.082 -0.6014 -0.3307 -0.5617
 1772SOL    HW116949   2.954   3.699  14.996  0.8360  0.6116 -1.0988
 1772SOL    HW216950   3.008   3.679  15.135  0.2346 -0.7251 -1.8191
 1773SOL     OW16951   2.091   1.776   6.085  0.0839 -0.1682  0.1441
 1773SOL    HW116952   2.050   1.854   6.122  0.1339  0.7478 -1.7340
 1773SOL    HW216953   2.030   1.708   6.116  0.8028 -0.7603  0.2574
 1774SOL     OW16954   1.468   2.234   2.302 -0.7721  0.1241  0.2648
 1774SOL    HW116955   1.472   2.237   2.397 -0.5509  3.4207  0.1649
 1774SOL    HW216956   1.445   2.326   2.288 -0.7077  0.1519  0.3394
 1775SOL     OW16957   1.040   1.593   2.621  0.7217 -0.9104 -0.3350
 1775SOL    HW116958   1.052   1.670   2.677  2.4240 -0.9859 -0.5924
 1775SOL    HW216959   1.081   1.615   2.537  0.2948  1.4091  0.0526
 1776SOL     OW16960   0.478   4.620   5.891 -0.2883  0.1943  0.1691
 1776SOL    HW116961   0.403   4.582   5.937  1.0289 -1.1234  1.2003
 1776SOL    HW216962   0.476   4.706   5.934  0.6876 -0.1273  0.8604
 1777SOL     OW16963   2.788   0.426  17.199 -0.3361  0.4168  0.2038
 1777SOL    HW116964   2.787   0.491  17.129 -0.5938  0.6509  0.4290
 1777SOL    HW216965   2.861   0.373  17.166  0.8336  1.6032  0.9099
 1778SOL     OW16966   3.633   0.098   3.698  0.0926  0.2662 -0.0881
 1778SOL    HW116967   3.668   0.156   3.766 -0.2135  1.2501 -0.7750
 1778SOL    HW216968   3.715   0.048   3.689 -0.0519 -0.1622  0.9092
 1779SOL     OW16969   3.718   3.382   2.253 -0.2027  0.1631  0.1789
 1779SOL    HW116970   3.638   3.429   2.231  0.7989  0.3735 -3.0204
 1779SOL    HW216971   3.743   3.438   2.327  1.5537  0.2660 -0.4934
 1780SOL     OW16972   0.642   2.371  15.570 -0.4240  0.1561  0.0006
 1780SOL    HW116973   0.667   2.290  15.524 -0.9999  0.3065 -0.5712
 1780SOL    HW216974   0.553   2.378  15.535  0.0280  1.8536 -0.8039
 1781SOL     OW16975   0.032   1.702   6.166 -0.1965  1.1717 -0.6471
 1781SOL    HW116976   0.027   1.688   6.261  1.4319  2.8971 -0.3184
 1781SOL    HW216977   4.678   1.693   6.134 -0.4938 -0.3134  0.5598
 1782SOL     OW16978   0.395   3.811   4.170  0.0811  0.6271 -0.4216
 1782SOL    HW116979   0.483   3.785   4.198  0.3751  0.2420 -1.7320
 1782SOL    HW216980   0.391   3.888   4.227  2.5390 -0.3307  1.0394
 1783SOL     OW16981   3.854   1.512   8.701 -0.4111 -0.9471 -0.4017
 1783SOL    HW116982   3.941   1.541   8.728 -0.1886 -3.5423  1.6932
 1783SOL    HW216983   3.832   1.553   8.618 -0.4293  0.2636  0.2073
 1784SOL     OW16984   3.174   0.848   8.859 -0.2354  0.2540 -0.6541
 1784SOL    HW116985   3.104   0.792   8.824 -1.8063  0.6956  1.7904
 1784SOL    HW216986   3.161   0.931   8.814 -1.1852  0.6993  0.4481
 1785SOL     OW16987   3.697   1.942   7.949 -0.3367 -0.2621 -0.4160
 1785SOL    HW116988   3.665   2.018   7.997  1.2518  0.0382  0.1856
 1785SOL    HW216989   3.738   1.987   7.874 -0.7246  1.1279  0.2090
 1786SOL     OW16990   1.901   1.404  14.799  0.1681 -0.6377  0.0852
 1786SOL    HW116991   1.916   1.325  14.851  2.5787 -2.1609 -2.9164
 1786SOL    HW216992   1.965   1.399  14.728  1.2870  2.4721  0.8451
 1787SOL     OW16993   3.877   3.341   5.244  0.3313  0.1951 -0.1760
 1787SOL    HW116994   3.944   3.354   5.312  2.2209 -1.3886 -1.7250
 1787SOL    HW216995   3.922   3.387   5.173 -2.1586 -0.0849 -1.9058
 1788SOL     OW16996   1.332   0.107   1.667 -0.1030  0.2090 -0.3034
 1788SOL    HW116997   1.248   0.147   1.688  0.3589  1.2722 -0.4776
 1788SOL    HW216998   1.316   0.100   1.573  2.0891 -2.6933 -0.4594
 1789SOL     OW16999   1.607   0.581  12.358  0.3929  0.1284 -0.0959
 1789SOL    HW117000   1.659   0.650  12.317 -0.3763  0.7883  0.0354
 1789SOL    HW217001   1.661   0.584  12.437  0.7122  0.6854 -0.3386
 1790SOL     OW17002   4.494   2.042   1.923 -0.4701  1.1923  0.3512
 1790SOL    HW117003   4.486   2.032   2.018  0.7509  0.4119  0.3755
 1790SOL    HW217004   4.424   1.985   1.890  1.1441 -0.9216  0.6064
 1791SOL     OW17005   2.132   1.527   5.819  0.2862  0.3624  0.1106
 1791SOL    HW117006   2.073   1.544   5.745 -0.4653 -2.7553 -0.0375
 1791SOL    HW217007   2.080   1.482   5.885  1.0523 -0.3265  0.2464
 1792SOL     OW17008   1.111   2.242   6.244  0.2136 -0.4223  0.3572
 1792SOL    HW117009   1.085   2.164   6.195 -0.4849 -0.6834  1.1503
 1792SOL    HW217010   1.141   2.207   6.328 -0.9007 -0.3915  0.7704
 1793SOL     OW17011   2.581   0.876   5.089 -0.2471  0.2890  0.2259
 1793SOL    HW117012   2.620   0.804   5.039  0.3562  0.8249 -0.0659
 1793SOL    HW217013   2.578   0.948   5.027  0.3256 -0.2923 -0.4775
 1794SOL     OW17014   1.253   1.807  16.306 -0.1242 -0.2199  0.2286
 1794SOL    HW117015   1.325   1.839  16.252 -0.0815  1.7030  1.4317
 1794SOL    HW217016   1.258   1.717  16.272  0.7357 -0.8411  1.9505
 1795SOL     OW17017   3.333   2.855  17.336  0.0999 -0.2834 -0.4242
 1795SOL    HW117018   3.402   2.890  17.393 -0.0352 -1.0188  0.1773
 1795SOL    HW217019   3.331   2.764  17.365  0.8380 -0.7646 -1.9006
 1796SOL     OW17020   4.064   0.228   3.870  0.4727 -0.0314 -0.1757
 1796SOL    HW117021   4.079   0.257   3.960 -2.5834 -4.4194  1.8054
 1796SOL    HW217022   4.132   0.277   3.825 -0.3148  1.5898  0.4000
 1797SOL     OW17023   1.544   4.630   6.855  0.5743 -0.4880  0.0771
 1797SOL    HW117024   1.543   4.551   6.801 -0.7200 -1.3948  1.4416
 1797SOL    HW217025   1.512   4.605   6.942  3.0087  0.0388  1.1089
 1798SOL     OW17026   0.392   1.859  12.591  0.7106 -0.0212  0.4961
 1798SOL    HW117027   0.364   1.951  12.590 -0.3653 -0.3635 -0.6239
 1798SOL    HW217028   0.361   1.833  12.678  0.4589 -0.2847  0.3238
 1799SOL     OW17029   4.553   0.037   3.556 -0.7863 -0.0709  0.0577
 1799SOL    HW117030   4.467   0.023   3.516  0.4774 -2.0534 -1.9762
 1799SOL    HW217031   4.599   0.040   3.473  0.8607 -1.6109  0.9043
 1800SOL     OW17032   2.186   0.689  13.239 -0.6641 -1.1050 -0.0921
 1800SOL    HW117033   2.098   0.655  13.226 -1.3688  0.4545  0.6870
 1800SOL    HW217034   2.182   0.755  13.307  1.4107 -1.3142  0.2523
 1801SOL     OW17035   4.037   3.900   3.707  0.4375  0.1374  0.2249
 1801SOL    HW117036   4.053   3.895   3.613 -0.3861 -2.3800  0.2110
 1801SOL    HW217037   4.010   3.991   3.709  0.0619  0.0517 -0.9932
 1802SOL     OW17038   1.053   1.260  10.195  0.2289 -0.8030 -0.2046
 1802SOL    HW117039   1.077   1.226  10.109 -1.7339 -1.6794 -0.4019
 1802SOL    HW217040   1.130   1.313  10.214 -0.6837  0.5928 -0.3906
 1803SOL     OW17041   0.103   1.476   8.488  0.4387 -0.2250  0.6437
 1803SOL    HW117042   0.124   1.428   8.409  1.3946 -0.0766  0.8006
 1803SOL    HW217043   0.152   1.555   8.463  0.7714 -0.4463  0.6054
 1804SOL     OW17044   1.807   3.007  10.793  0.1226 -0.1457 -0.0748
 1804SOL    HW117045   1.839   3.040  10.709 -0.3677 -1.0012 -0.5944
 1804SOL    HW217046   1.861   2.930  10.815 -0.2282 -0.6372 -0.9720
 1805SOL     OW17047   4.388   0.728   3.564 -0.4503 -0.3755 -0.0587
 1805SOL    HW117048   4.436   0.769   3.493  3.2265 -1.7889  1.6030
 1805SOL    HW217049   4.456   0.665   3.588 -0.0831  1.2142  3.0534
 1806SOL     OW17050   0.969   0.396   8.699 -0.0500  0.1426  0.7966
 1806SOL    HW117051   0.876   0.413   8.679 -0.2188  1.1457  2.4265
 1806SOL    HW217052   1.015   0.454   8.638 -0.6282 -0.4605 -0.2131
 1807SOL     OW17053   4.096   3.004   3.131 -0.2265  0.2175  0.0332
 1807SOL    HW117054   4.178   2.996   3.082  0.1037 -0.4609  0.6975
 1807SOL    HW217055   4.092   3.099   3.134 -2.1477  0.0262  2.8159
 1808SOL     OW17056   2.815   3.387  14.512  0.0004 -0.0840 -0.2588
 1808SOL    HW117057   2.848   3.298  14.520 -0.0550 -0.1722 -1.0014
 1808SOL    HW217058   2.876   3.423  14.577 -0.8291 -0.2679  0.6140
 1809SOL     OW17059   3.459   4.208   1.205 -0.1708 -0.1685  0.0943
 1809SOL    HW117060   3.448   4.130   1.260 -1.2285  0.3626  0.6250
 1809SOL    HW217061   3.491   4.277   1.263 -1.1768  1.2596 -1.0449
 1810SOL     OW17062   2.115   2.060  14.793  0.3074 -0.1218 -0.0527
 1810SOL    HW117063   2.059   2.131  14.763  1.8097  1.2710  0.4542
 1810SOL    HW217064   2.056   2.015  14.854  0.4236  1.5939  1.3138
 1811SOL     OW17065   3.533   2.849  10.806 -0.1515 -0.5559 -0.3229
 1811SOL    HW117066   3.577   2.838  10.890  1.9784  0.6359 -1.2736
 1811SOL    HW217067   3.604   2.819  10.748 -0.2545  0.7654 -1.1198
 1812SOL     OW17068   4.691   1.245   3.952 -0.0435  0.0487 -0.6911
 1812SOL    HW117069   4.634   1.317   3.927 -1.0988  0.3347  2.5763
 1812SOL    HW217070   0.040   1.288   3.963  0.1257 -0.1709 -1.1200
 1813SOL     OW17071   1.589   1.059  15.995  0.1664 -0.1434  0.1228
 1813SOL    HW117072   1.541   1.135  16.026 -1.5016 -2.4491  3.3014
 1813SOL    HW217073   1.571   0.996  16.066  0.1665  0.1794  0.4090
 1814SOL     OW17074   0.558   4.293   2.953  0.3067  0.6353 -0.2238
 1814SOL    HW117075   0.572   4.357   3.022  2.1712 -0.4901  0.4342
 1814SOL    HW217076   0.642   4.250   2.935 -0.1599 -0.6659  0.7489
 1815SOL     OW17077   0.169   0.313   7.824 -0.4061  0.1513 -0.1418
 1815SOL    HW117078   0.163   0.408   7.828  2.6011  0.4461 -2.1946
 1815SOL    HW217079   0.254   0.292   7.864 -0.6498 -2.8497 -1.1669
 1816SOL     OW17080   3.246   0.457   6.543  0.0437 -0.3776 -0.4684
 1816SOL    HW117081   3.321   0.398   6.540  1.0297  0.9849 -2.8203
 1816SOL    HW217082   3.290   0.532   6.582 -1.4728  0.1994  0.1550
 1817SOL     OW17083   3.450   2.829   8.852  0.1418 -0.4764 -0.6185
 1817SOL    HW117084   3.446   2.844   8.947 -1.3813 -0.7738 -0.6463
 1817SOL    HW217085   3.510   2.754   8.850  0.7960  0.0216  0.2360
 1818SOL     OW17086   1.969   1.669   2.366 -0.0314  0.2267 -0.0926
 1818SOL    HW117087   1.905   1.644   2.433  3.9290 -0.4603  3.4035
 1818SOL    HW217088   1.992   1.588   2.321  0.1345  0.4806 -0.4590
 1819SOL     OW17089   2.288   1.404  15.787 -0.6201 -0.5049 -0.3018
 1819SOL    HW117090   2.288   1.345  15.863 -0.9916  2.1329  1.7487
 1819SOL    HW217091   2.306   1.337  15.721  0.1047  0.4044 -1.0257
 1820SOL     OW17092   3.547   3.409   8.894 -0.3549  0.3194  0.1139
 1820SOL    HW117093   3.546   3.476   8.963 -0.2406  1.2039 -0.7538
 1820SOL    HW217094   3.641   3.401   8.877 -0.3962 -0.1173  0.0896
 1821SOL     OW17095   1.270   4.565   8.826  0.8768 -0.6340  0.3088
 1821SOL    HW117096   1.280   4.537   8.735  0.1012 -1.8508  0.5929
 1821SOL    HW217097   1.229   4.484   8.858 -0.5848  0.3865  1.0273
 1822SOL     OW17098   0.494   1.837   7.300  0.1056  0.5437  0.4123
 1822SOL    HW117099   0.443   1.860   7.377 -0.8903 -1.8828  0.4696
 1822SOL    HW217100   0.575   1.814   7.346 -0.2258 -0.2233  0.6119
 1823SOL     OW17101   1.132   4.425   1.832  0.4232  0.8771  0.4332
 1823SOL    HW117102   1.170   4.393   1.913  1.2321 -1.4914 -0.9105
 1823SOL    HW217103   1.063   4.485   1.862 -0.9259  0.0750 -1.0113
 1824SOL     OW17104   2.820   1.740   9.367 -1.4505  0.5684  0.3279
 1824SOL    HW117105   2.800   1.647   9.355  1.2773  0.0807 -0.3945
 1824SOL    HW217106   2.777   1.759   9.451 -1.0906 -0.3317  0.7167
 1825SOL     OW17107   0.630   4.550   7.363 -0.0588 -0.1701  0.4603
 1825SOL    HW117108   0.537   4.570   7.371  0.1152 -0.1989  2.6624
 1825SOL    HW217109   0.653   4.629   7.314  0.9369  1.0844  2.9214
 1826SOL     OW17110   3.842   0.463  13.358 -0.0439  0.0112  0.1050
 1826SOL    HW117111   3.825   0.399  13.289  0.4186  0.0070 -0.0075
 1826SOL    HW217112   3.763   0.514  13.371 -0.0548  0.3695 -1.4451
 1827SOL     OW17113   0.367   4.530   3.879 -0.4940 -0.0713  0.3264
 1827SOL    HW117114   0.301   4.590   3.844  0.0261 -1.0262 -2.3265
 1827SOL    HW217115   0.319   4.451   3.853  1.8222 -1.7117  1.0408
 1828SOL     OW17116   1.761   2.638   4.817 -0.3884 -0.7394  0.3030
 1828SOL    HW117117   1.774   2.599   4.731 -1.0593  1.8370 -0.9693
 1828SOL    HW217118   1.839   2.601   4.859 -0.2302 -1.2639 -0.4623
 1829SOL     OW17119   1.179   2.009  15.532 -0.7328 -0.3791 -0.2767
 1829SOL    HW117120   1.199   1.980  15.621  0.1919  3.9635  0.9702
 1829SOL    HW217121   1.251   2.071  15.520 -2.0906  1.6246  1.8562
 1830SOL     OW17122   4.356   3.639   2.682 -0.2012 -0.2190  0.0726
 1830SOL    HW117123   4.366   3.726   2.643 -0.2070  0.1230  0.8322
 1830SOL    HW217124   4.419   3.643   2.754 -2.2607  1.7214  1.7860
 1831SOL     OW17125   1.859   2.688   6.308  0.1244  0.4926  0.5221
 1831SOL    HW117126   1.902   2.708   6.392 -0.2547 -0.2114  0.8923
 1831SOL    HW217127   1.930   2.640   6.265  1.4757  1.3969  1.7320
 1832SOL     OW17128   2.662   0.242   1.531 -0.1365  0.5490  0.1799
 1832SOL    HW117129   2.641   0.258   1.623 -1.6447  0.7813 -0.2115
 1832SOL    HW217130   2.754   0.220   1.545 -0.9228 -2.4980  0.5655
 1833SOL     OW17131   2.735   1.853  14.634  0.1811 -0.4531  0.5010
 1833SOL    HW117132   2.805   1.884  14.577  0.3530 -0.5535  0.6568
 1833SOL    HW217133   2.687   1.785  14.587 -0.1147 -0.9229  1.4748
 1834SOL     OW17134   2.168   1.215   8.302  0.2705  0.9274  0.1859
 1834SOL    HW117135   2.113   1.202   8.225 -0.4156  1.9605  0.4977
 1834SOL    HW217136   2.217   1.134   8.293  1.4986  1.5607  1.1504
 1835SOL     OW17137   2.764   2.414  14.576  0.6486 -0.4067  0.4974
 1835SOL    HW117138   2.708   2.394  14.651 -0.6828  1.1627 -0.0846
 1835SOL    HW217139   2.737   2.348  14.512  1.0538 -0.9116  0.8410
 1836SOL     OW17140   0.622   2.735   5.302  0.4872 -0.0414 -0.0635
 1836SOL    HW117141   0.691   2.781   5.254  1.8907 -1.9318  0.1113
 1836SOL    HW217142   0.653   2.721   5.391  0.4632 -0.6883 -0.1578
 1837SOL     OW17143   0.824   0.606  12.051  0.2249 -0.5040 -0.1057
 1837SOL    HW117144   0.784   0.681  12.006  0.2742  0.6363  1.7686
 1837SOL    HW217145   0.865   0.573  11.970 -0.0287 -2.0699  0.4117
 1838SOL     OW17146   4.656   1.410   1.012  0.0853  0.2144  0.0923
 1838SOL    HW117147   4.565   1.403   0.986  0.0162 -1.4624  0.7258
 1838SOL    HW217148   4.673   1.501   0.991  0.2727 -0.1205 -1.1832
 1839SOL     OW17149   0.113   1.830   7.264  0.3288 -0.1934  0.1811
 1839SOL    HW117150   0.142   1.755   7.212 -0.6413 -1.3689  1.3415
 1839SOL    HW217151   0.031   1.799   7.302 -0.1423  1.8791  0.8812
 1840SOL     OW17152   2.653   4.617  10.673  0.0646 -0.0152  0.0374
 1840SOL    HW117153   2.719   4.578  10.731  1.0400  1.4860 -0.0580
 1840SOL    HW217154   2.708   4.665  10.612 -0.3045  3.1792  2.2010
 1841SOL     OW17155   2.585   3.802   3.342  0.5618 -0.3604  0.5236
 1841SOL    HW117156   2.599   3.850   3.424 -2.2305 -0.4681  1.0518
 1841SOL    HW217157   2.594   3.713   3.376 -4.1179 -1.2796 -0.6420
 1842SOL     OW17158   3.932   1.789   7.813 -0.3536 -0.2285  0.0397
 1842SOL    HW117159   3.878   1.842   7.871 -1.2237 -3.5096  2.2454
 1842SOL    HW217160   3.909   1.824   7.727  2.5456 -0.6513 -0.9071
 1843SOL     OW17161   0.693   4.657   5.243  0.0214 -0.6890 -0.5458
 1843SOL    HW117162   0.678   4.725   5.177  0.1857 -0.4514 -0.3350
 1843SOL    HW217163   0.708   4.705   5.324 -0.0342  0.7278 -1.3744
 1844SOL     OW17164   1.402   0.872   1.384 -0.1986 -0.0890 -0.1248
 1844SOL    HW117165   1.476   0.840   1.333 -0.6043 -2.2370  0.6432
 1844SOL    HW217166   1.339   0.804   1.364 -0.3744 -0.6582  2.3684
 1845SOL     OW17167   0.650   4.359   3.343 -0.4662 -0.3073 -0.7651
 1845SOL    HW117168   0.728   4.400   3.379 -1.1372 -0.0678  0.4285
 1845SOL    HW217169   0.621   4.427   3.282 -2.4663  0.5449  1.1394
 1846SOL     OW17170   1.857   3.359   8.578 -0.4514  0.0854  0.0725
 1846SOL    HW117171   1.786   3.377   8.516 -0.7412  0.2558  0.4570
 1846SOL    HW217172   1.927   3.362   8.512 -0.7720 -0.0375 -0.2754
 1847SOL     OW17173   0.247   1.521   5.189 -0.1287  0.6553  0.0618
 1847SOL    HW117174   0.248   1.615   5.206 -0.4451  0.7694 -0.5436
 1847SOL    HW217175   0.322   1.521   5.129  1.3608  1.8120  1.9530
 1848SOL     OW17176   2.194   0.664  14.181 -0.2919  0.4853 -0.0808
 1848SOL    HW117177   2.176   0.570  14.175  1.3016  0.1708  0.2520
 1848SOL    HW217178   2.122   0.705  14.133 -0.9869 -0.2536  0.3356
 1849SOL     OW17179   0.975   1.288   3.006 -0.2471 -0.5479 -0.2885
 1849SOL    HW117180   0.932   1.322   2.927 -0.5962 -1.8694 -0.6722
 1849SOL    HW217181   1.031   1.358   3.040  0.9490 -2.4125  1.5497
 1850SOL     OW17182   4.177   1.290   6.672 -0.2243 -0.1724  0.0090
 1850SOL    HW117183   4.133   1.362   6.625 -0.6569  0.0825  0.7925
 1850SOL    HW217184   4.217   1.332   6.748 -0.1646  0.0421 -0.1399
 1851SOL     OW17185   0.006   4.695   1.314 -0.6724 -0.3744  0.2609
 1851SOL    HW117186   0.058   4.731   1.386  2.0263 -1.8548 -0.9490
 1851SOL    HW217187   4.704   4.611   1.339  0.6961 -1.7295 -2.2275
 1852SOL     OW17188   0.421   3.036   3.720  0.1683  0.6679  0.3982
 1852SOL    HW117189   0.338   3.068   3.755  1.3077  3.3867  0.6458
 1852SOL    HW217190   0.420   2.949   3.760  1.1540  0.2525 -0.4719
 1853SOL     OW17191   1.764   0.187  10.236 -0.6457  0.0779 -0.2188
 1853SOL    HW117192   1.808   0.220  10.314 -1.0644 -0.7826  0.3897
 1853SOL    HW217193   1.789   0.095  10.231 -2.1209 -0.2501 -1.7703
 1854SOL     OW17194   4.583   2.840   4.496  0.1647  0.2500  0.1287
 1854SOL    HW117195   4.627   2.765   4.536  0.2539  0.0549 -0.3341
 1854SOL    HW217196   4.563   2.798   4.412  0.9046 -2.5005  1.3137
 1855SOL     OW17197   3.438   2.493   5.874 -0.2365  0.6435  0.2159
 1855SOL    HW117198   3.521   2.533   5.848  0.1105 -0.1508  0.0940
 1855SOL    HW217199   3.464   2.465   5.962 -0.4988 -0.3324 -0.0078
 1856SOL     OW17200   0.912   2.065  15.386 -0.6033 -0.3296  0.3075
 1856SOL    HW117201   1.002   2.050  15.413 -0.6675  2.0874  1.8524
 1856SOL    HW217202   0.872   1.978  15.371  1.2100 -1.0358 -0.4039
 1857SOL     OW17203   3.302   2.833  12.382  0.2652  0.2825 -0.1585
 1857SOL    HW117204   3.341   2.915  12.352 -0.6625  1.0288  0.6569
 1857SOL    HW217205   3.316   2.849  12.476 -0.5334  0.9093 -0.1507
 1858SOL     OW17206   2.363   1.195   6.867 -0.3525  0.5505 -0.3272
 1858SOL    HW117207   2.391   1.276   6.908  2.6012  0.2379 -1.7955
 1858SOL    HW217208   2.276   1.214   6.831 -0.9286  1.7543  1.7187
 1859SOL     OW17209   1.761   4.357   0.287  0.2523 -0.1993 -0.3028
 1859SOL    HW117210   1.680   4.331   0.242  1.9997 -0.5611 -3.1974
 1859SOL    HW217211   1.823   4.370   0.216  0.1578  2.0805  0.0325
 1860SOL     OW17212   3.936   2.686   9.363  0.1608 -0.8170 -0.2284
 1860SOL    HW117213   4.014   2.738   9.341  1.1394 -2.4176 -0.5381
 1860SOL    HW217214   3.868   2.751   9.377  1.1298  0.3089 -0.7357
 1861SOL     OW17215   1.235   1.322  13.328  0.3555 -0.1098  0.1656
 1861SOL    HW117216   1.191   1.306  13.245  2.2613 -0.7103 -0.7158
 1861SOL    HW217217   1.298   1.250  13.323 -1.9767 -2.0280 -1.6842
 1862SOL     OW17218   0.967   1.087  11.020  0.4682  0.0305 -0.5997
 1862SOL    HW117219   1.049   1.058  11.060 -1.4243 -1.2256  2.3466
 1862SOL    HW217220   0.911   1.078  11.097  0.0265  0.2610 -0.8952
 1863SOL     OW17221   1.102   3.865   8.532  0.1508  0.1960  0.4079
 1863SOL    HW117222   1.196   3.879   8.525  0.2181 -1.1652 -1.3465
 1863SOL    HW217223   1.074   3.862   8.441 -0.0126 -1.9889  0.5244
 1864SOL     OW17224   2.019   4.503  11.687  0.4182 -0.1137  0.1899
 1864SOL    HW117225   1.926   4.500  11.665  1.2035 -1.4796 -2.8123
 1864SOL    HW217226   2.048   4.550  11.609  1.4172  2.8135  2.3285
 1865SOL     OW17227   0.455   1.442   8.163 -0.8329 -0.1301 -0.1687
 1865SOL    HW117228   0.444   1.409   8.073  2.3266  0.2423 -0.6759
 1865SOL    HW217229   0.405   1.378   8.214 -2.3274  0.8612 -0.3995
 1866SOL     OW17230   0.435   4.167   4.850  0.1928 -0.4953 -0.7685
 1866SOL    HW117231   0.528   4.150   4.836  0.4989  0.7820 -0.2497
 1866SOL    HW217232   0.402   4.096   4.794 -0.7297  0.4316 -1.4068
 1867SOL     OW17233   2.062   0.896  16.900 -0.4001 -0.4037 -0.6338
 1867SOL    HW117234   2.103   0.903  16.986  1.0268 -1.9946 -1.1795
 1867SOL    HW217235   2.111   0.968  16.860  0.5200 -0.7093 -0.0513
 1868SOL     OW17236   4.162   0.705   9.053 -0.1653 -0.0880  0.3087
 1868SOL    HW117237   4.249   0.689   9.018 -0.6396 -1.7415 -0.0941
 1868SOL    HW217238   4.166   0.639   9.122  1.2990  0.0097  0.3109
 1869SOL     OW17239   2.758   0.176   4.008  0.5777 -0.4775 -0.2143
 1869SOL    HW117240   2.783   0.248   3.950  1.8957 -0.4317  0.3987
 1869SOL    HW217241   2.673   0.214   4.033  0.4679 -1.5829  1.0751
 1870SOL     OW17242   1.954   1.376  15.536  0.4143  0.0189 -0.5004
 1870SOL    HW117243   1.957   1.459  15.584 -1.6503 -0.3948  0.3755
 1870SOL    HW217244   1.910   1.406  15.456 -1.5348  1.1940  1.0131
 1871SOL     OW17245   2.162   3.089  12.597 -0.1605 -0.4854  0.1148
 1871SOL    HW117246   2.198   3.025  12.535  0.8696  0.3510 -0.1423
 1871SOL    HW217247   2.106   3.039  12.656  0.2494 -0.2485  0.6962
 1872SOL     OW17248   1.942   1.483   4.888  0.1918  0.1960  0.5898
 1872SOL    HW117249   1.956   1.578   4.891  0.0521  0.1995  1.3077
 1872SOL    HW217250   2.022   1.445   4.926 -0.1872  1.8643  3.0489
 1873SOL     OW17251   2.550   1.909  17.056  0.2704  0.1330  0.4641
 1873SOL    HW117252   2.511   1.915  16.969  0.4259  1.0691  0.4572
 1873SOL    HW217253   2.517   1.992  17.091 -0.6862 -0.5905  1.2989
 1874SOL     OW17254   3.803   3.270  13.302  0.1619  0.6925  0.2542
 1874SOL    HW117255   3.793   3.307  13.389 -0.5899  1.6010 -0.2223
 1874SOL    HW217256   3.849   3.192  13.333 -1.0729 -0.8526 -1.7840
 1875SOL     OW17257   0.790   2.990  10.887 -0.3250  0.0893  0.1311
 1875SOL    HW117258   0.794   2.894  10.895  1.1569  0.4509  3.7475
 1875SOL    HW217259   0.715   3.019  10.939 -0.1743 -1.6106  1.3043
 1876SOL     OW17260   3.853   0.417   8.833 -0.4452  0.0581 -0.0552
 1876SOL    HW117261   3.945   0.406   8.810 -0.5566 -0.0749 -0.4389
 1876SOL    HW217262   3.816   0.445   8.749  1.3598  1.0916 -0.5057
 1877SOL     OW17263   0.560   0.395  14.137 -0.3164  0.1815  0.4605
 1877SOL    HW117264   0.643   0.434  14.111 -0.7723  0.8281 -0.0216
 1877SOL    HW217265   0.514   0.472  14.169 -0.4930 -0.0575  0.7986
 1878SOL     OW17266   4.568   0.089   2.369  0.5420 -0.6285 -0.1891
 1878SOL    HW117267   4.533   0.094   2.458  1.4834 -1.5889  0.2255
 1878SOL    HW217268   4.509   0.027   2.326 -0.5203 -0.5233  1.0855
 1879SOL     OW17269   2.037   4.205   3.422 -0.0646 -0.2413 -1.2431
 1879SOL    HW117270   2.034   4.272   3.353 -1.1237  0.9245 -0.0706
 1879SOL    HW217271   2.132   4.203   3.434 -0.4069 -0.3001  1.3309
 1880SOL     OW17272   0.444   1.317   8.714 -0.1662 -0.3658 -0.4792
 1880SOL    HW117273   0.350   1.318   8.731 -0.1086  0.9545 -0.2298
 1880SOL    HW217274   0.463   1.406   8.745  0.5072 -0.0863 -1.6840
 1881SOL     OW17275   3.933   4.344   4.020  0.1198  0.2610  0.2099
 1881SOL    HW117276   4.020   4.374   4.046 -0.2730  0.8079  0.8981
 1881SOL    HW217277   3.914   4.270   4.077 -1.2790  1.0670  0.7961
 1882SOL     OW17278   3.659   1.142   6.701  0.1138 -0.2163  0.4928
 1882SOL    HW117279   3.697   1.214   6.751 -1.4366  0.5868  0.5202
 1882SOL    HW217280   3.675   1.158   6.608 -2.9281 -2.0261 -0.3804
 1883SOL     OW17281   0.147   1.410   4.026 -0.2815  0.8861  0.5040
 1883SOL    HW117282   0.225   1.466   4.026  0.6352 -0.3878  0.4293
 1883SOL    HW217283   0.161   1.362   4.107  0.7715  1.5599  0.7198
 1884SOL     OW17284   3.813   2.942  16.848 -0.7353  0.0908 -0.0369
 1884SOL    HW117285   3.760   2.864  16.831 -2.6824  1.3648  0.0471
 1884SOL    HW217286   3.841   2.927  16.938  0.6540 -0.0905 -0.5011
 1885SOL     OW17287   0.612   4.534  11.310 -0.0580  0.3568 -0.3211
 1885SOL    HW117288   0.586   4.462  11.367 -2.0801  0.7611 -0.7418
 1885SOL    HW217289   0.550   4.601  11.340  0.0225 -0.7568  2.3099
 1886SOL     OW17290   4.105   2.890   6.937  0.1853  0.6190 -0.4291
 1886SOL    HW117291   4.121   2.804   6.975 -0.9769  0.1493 -1.0285
 1886SOL    HW217292   4.196   2.917   6.924  0.6317 -0.7479 -0.1007
 1887SOL     OW17293   3.203   1.937   3.896  0.2437 -0.1144  0.1795
 1887SOL    HW117294   3.264   1.965   3.964 -0.1285  2.3931 -0.5173
 1887SOL    HW217295   3.243   1.856   3.863  0.4115  0.4118 -0.9064
 1888SOL     OW17296   2.492   4.139   3.861 -0.0193 -0.8956 -0.0731
 1888SOL    HW117297   2.510   4.048   3.835  1.3531 -0.8201  0.6431
 1888SOL    HW217298   2.519   4.194   3.787 -1.7722 -0.0230 -0.0656
 1889SOL     OW17299   1.908   4.301  17.295 -0.5828 -0.2798 -0.2372
 1889SOL    HW117300   2.000   4.327  17.293 -1.0550  1.3616 -0.2494
 1889SOL    HW217301   1.891   4.275  17.205 -1.2598  1.0153 -0.4808
 1890SOL     OW17302   1.183   3.495   2.339  0.5601  0.9314 -0.2092
 1890SOL    HW117303   1.230   3.433   2.395 -2.2109  0.5371  1.7283
 1890SOL    HW217304   1.098   3.495   2.383  0.3281  3.0358 -0.6603
 1891SOL     OW17305   0.510   3.394   4.820 -0.0157  0.4216 -0.2157
 1891SOL    HW117306   0.491   3.325   4.757  0.8073  1.3721 -1.5170
 1891SOL    HW217307   0.429   3.407   4.869  0.2884  0.1988  0.3469
 1892SOL     OW17308   1.928   2.982   8.603 -0.8108  0.1270  0.4497
 1892SOL    HW117309   1.983   2.905   8.595  0.7070  1.2403  0.1261
 1892SOL    HW217310   1.988   3.056   8.615  1.3859 -1.5130 -0.4220
 1893SOL     OW17311   0.344   1.388   7.918  0.1217  0.2690 -0.1538
 1893SOL    HW117312   0.370   1.344   7.837 -0.3049 -1.5753  0.7286
 1893SOL    HW217313   0.274   1.439   7.877  1.3438  1.1880 -1.0994
 1894SOL     OW17314   2.070   2.824   7.733 -0.0964  0.1460  0.0753
 1894SOL    HW117315   2.040   2.753   7.676  2.5057  0.2899 -1.4927
 1894SOL    HW217316   1.991   2.878   7.725  1.4007  1.9435 -2.8478
 1895SOL     OW17317   2.863   1.521   4.083 -0.0790  0.1752 -0.2530
 1895SOL    HW117318   2.939   1.464   4.090 -0.3790 -0.0924  0.8501
 1895SOL    HW217319   2.814   1.483   4.009  0.8259  0.3374 -0.9327
 1896SOL     OW17320   4.507   4.193   1.803  0.4039  0.3138 -0.1107
 1896SOL    HW117321   4.588   4.165   1.845  2.4347  0.0855 -4.1487
 1896SOL    HW217322   4.469   4.108   1.781  0.7518  0.2683 -0.5299
 1897SOL     OW17323   4.124   4.246  11.146  0.2882 -0.3544  0.2310
 1897SOL    HW117324   4.208   4.278  11.178 -0.5201  0.0384  1.9319
 1897SOL    HW217325   4.073   4.261  11.225 -1.5446 -0.5150 -0.9207
 1898SOL     OW17326   0.499   2.617   8.222  0.8749  0.5724  0.0436
 1898SOL    HW117327   0.463   2.705   8.232  0.0209  0.3625 -1.1082
 1898SOL    HW217328   0.592   2.636   8.211  1.4746 -1.5347  1.5321
 1899SOL     OW17329   2.332   0.096   6.085  0.1734  0.2007  0.3253
 1899SOL    HW117330   2.319   0.189   6.106 -0.7849 -0.1294  1.1930
 1899SOL    HW217331   2.288   0.104   6.000  1.8883  0.4414 -0.5316
 1900SOL     OW17332   2.535   0.517  17.282 -0.2462  0.0480  0.7802
 1900SOL    HW117333   2.621   0.484  17.256 -1.1509 -1.3288 -0.4764
 1900SOL    HW217334   2.511   0.577  17.211  0.1842  1.3567  1.7382
 1901SOL     OW17335   2.292   3.014  12.258  0.0763 -0.0921 -0.1609
 1901SOL    HW117336   2.200   3.001  12.283  0.3912 -2.2195 -0.0573
 1901SOL    HW217337   2.332   2.943  12.308 -0.7391  0.6948  1.6324
 1902SOL     OW17338   2.559   0.222   1.156  0.1880  0.5616  0.2205
 1902SOL    HW117339   2.523   0.237   1.243 -0.5558 -2.8690  0.5039
 1902SOL    HW217340   2.512   0.144   1.128  1.0252 -0.2568  1.0878
 1903SOL     OW17341   2.645   2.480   5.525  0.2355  0.1113  0.6624
 1903SOL    HW117342   2.711   2.549   5.520 -1.6616  1.7714 -1.6688
 1903SOL    HW217343   2.566   2.529   5.501  0.6115  1.1353  1.5419
 1904SOL     OW17344   2.403   3.708  16.201 -0.0931 -0.2634  0.2168
 1904SOL    HW117345   2.420   3.758  16.280 -2.7989  0.3074  0.4499
 1904SOL    HW217346   2.429   3.621  16.232 -0.9929 -0.7134 -0.2694
 1905SOL     OW17347   0.840   1.563  14.638  0.1473  0.7322 -0.1806
 1905SOL    HW117348   0.745   1.566  14.648  0.0541 -0.7915 -0.5782
 1905SOL    HW217349   0.854   1.495  14.573  2.3501  1.4752 -0.4828
 1906SOL     OW17350   4.022   2.965   7.301 -0.4251 -0.3637 -0.0963
 1906SOL    HW117351   4.057   2.974   7.389 -1.2061 -1.2467  0.3114
 1906SOL    HW217352   4.093   2.918   7.257 -0.9433  0.3103 -1.6350
 1907SOL     OW17353   3.803   4.688  12.464 -0.5199 -0.1809  0.3896
 1907SOL    HW117354   3.810   4.630  12.539  0.7104  0.2283  0.5924
 1907SOL    HW217355   3.711   4.673  12.443  0.1233 -1.5412 -1.3772
 1908SOL     OW17356   2.062   1.442   5.465  0.5818  0.3097 -0.6820
 1908SOL    HW117357   2.094   1.448   5.374 -0.9677 -0.3439 -1.2608
 1908SOL    HW217358   2.065   1.537   5.475 -2.2450  0.4986 -1.6554
 1909SOL     OW17359   0.940   2.870  10.293  0.1011  0.2340  0.2306
 1909SOL    HW117360   0.906   2.957  10.274 -1.2008 -0.9173 -2.6223
 1909SOL    HW217361   0.999   2.849  10.221 -0.4499 -1.6487  0.3106
 1910SOL     OW17362   2.664   4.635   4.773 -0.2854  0.6619 -0.1038
 1910SOL    HW117363   2.668   4.610   4.865  0.4094 -0.6241 -0.4945
 1910SOL    HW217364   2.758   4.648   4.766 -0.5618  3.2216  0.8578
 1911SOL     OW17365   3.979   4.482   3.760 -0.0352  0.0004 -0.0393
 1911SOL    HW117366   3.941   4.570   3.769  0.3111  0.2554 -1.0878
 1911SOL    HW217367   4.011   4.464   3.849 -0.0566 -0.2118 -0.0763
 1912SOL     OW17368   3.834   3.727   7.054  0.2698 -0.2648  0.5428
 1912SOL    HW117369   3.771   3.712   6.984  0.9110 -0.2181 -0.0513
 1912SOL    HW217370   3.798   3.804   7.098 -0.3198  0.3418 -0.9956
 1913SOL     OW17371   3.980   0.608   7.990  0.4727  0.1994  0.7889
 1913SOL    HW117372   4.064   0.587   8.029 -0.0483 -1.4782  1.0276
 1913SOL    HW217373   3.918   0.605   8.063 -0.4130  1.0136  0.0653
 1914SOL     OW17374   1.705   1.909   4.984  0.3991  0.0501  0.2203
 1914SOL    HW117375   1.663   1.858   5.054 -1.1474 -0.8102 -1.3371
 1914SOL    HW217376   1.632   1.916   4.922 -1.5393  0.8069  2.5704
 1915SOL     OW17377   2.549   3.926   0.017 -0.1809 -0.1423  0.2571
 1915SOL    HW117378   2.472   3.933  17.702  1.1261  1.7798 -1.2607
 1915SOL    HW217379   2.563   4.013   0.055  0.5619 -1.5337  3.1805
 1916SOL     OW17380   3.293   4.118   9.744  0.3389  0.0822 -0.9641
 1916SOL    HW117381   3.252   4.195   9.704  0.6139  1.4071  1.3456
 1916SOL    HW217382   3.372   4.168   9.763 -0.0886  0.4370 -0.0973
 1917SOL     OW17383   4.211   1.822  14.510 -0.3399  0.3895 -0.6414
 1917SOL    HW117384   4.224   1.901  14.562  0.4627 -0.3138  0.2085
 1917SOL    HW217385   4.184   1.866  14.429 -1.6313  0.3144 -0.2618
 1918SOL     OW17386   2.018   0.155   4.839  1.0193 -0.0262  0.1699
 1918SOL    HW117387   1.992   0.064   4.856 -0.6165  0.4945  0.4699
 1918SOL    HW217388   1.950   0.198   4.787  2.1472  0.4957 -0.8639
 1919SOL     OW17389   0.298   0.711   5.116 -0.0458  0.4936 -0.3914
 1919SOL    HW117390   0.339   0.641   5.065  0.5921  0.1098  0.6370
 1919SOL    HW217391   0.207   0.701   5.090 -0.3553  0.0759  0.8469
 1920SOL     OW17392   2.493   1.477   2.279  0.0374  0.0635 -0.2098
 1920SOL    HW117393   2.412   1.467   2.229  0.1116  0.4432 -0.4042
 1920SOL    HW217394   2.526   1.560   2.245  1.7650  0.2747  2.0274
 1921SOL     OW17395   0.453   1.012   7.462 -0.2918  0.5745  0.2373
 1921SOL    HW117396   0.513   1.087   7.466  0.3526  0.0942 -0.2727
 1921SOL    HW217397   0.430   1.012   7.555  1.3048 -1.2403  0.6274
 1922SOL     OW17398   2.260   3.280  14.211  0.3650 -0.5137 -0.0143
 1922SOL    HW117399   2.183   3.242  14.169  2.2573 -1.1635 -2.8397
 1922SOL    HW217400   2.224   3.354  14.261 -0.7611 -2.2451  1.7494
 1923SOL     OW17401   0.110   0.362  16.618  0.5196 -0.1975  0.1480
 1923SOL    HW117402   0.016   0.369  16.602  1.0334  2.2095 -1.9107
 1923SOL    HW217403   0.134   0.454  16.610 -1.4382  0.3306  0.3112
 1924SOL     OW17404   1.353   4.364   1.207  0.0318  0.0239 -0.1820
 1924SOL    HW117405   1.268   4.333   1.177  0.1255 -0.5638  0.1565
 1924SOL    HW217406   1.410   4.288   1.221 -0.4534 -0.7824 -2.5286
 1925SOL     OW17407   4.592   0.969   9.448 -0.9465 -0.2801  0.9889
 1925SOL    HW117408   4.593   1.063   9.433  1.1061 -0.2762  1.1703
 1925SOL    HW217409   4.670   0.939   9.401 -0.1291  0.9294  1.5586
 1926SOL     OW17410   3.686   1.455   6.053  0.1877  0.0604  0.4776
 1926SOL    HW117411   3.742   1.412   5.988 -0.8711 -1.3262  0.4781
 1926SOL    HW217412   3.731   1.421   6.131  1.1356 -1.0863 -0.5710
 1927SOL     OW17413   0.956   3.147   4.213 -0.0826  0.6937 -0.6985
 1927SOL    HW117414   0.912   3.062   4.216 -0.9134  1.2068  1.2725
 1927SOL    HW217415   0.909   3.182   4.137  0.7317  0.0623 -1.5050
 1928SOL     OW17416   0.193   1.247  16.724 -0.4133 -0.1630 -0.5263
 1928SOL    HW117417   0.113   1.210  16.688 -1.2096 -0.0241  1.0851
 1928SOL    HW217418   0.256   1.242  16.652  0.2411  2.1888 -0.1365
 1929SOL     OW17419   4.383   3.094   4.910  0.1529 -0.3486 -0.0340
 1929SOL    HW117420   4.478   3.086   4.920  0.0816 -1.2454 -0.1163
 1929SOL    HW217421   4.379   3.141   4.827 -1.4149 -0.7360 -0.1689
 1930SOL     OW17422   4.250   3.757   4.149  0.0963  0.0006  0.0846
 1930SOL    HW117423   4.301   3.802   4.081 -1.0378 -1.4915 -1.7436
 1930SOL    HW217424   4.165   3.757   4.106  0.6791  1.2002 -1.0955
 1931SOL     OW17425   0.979   2.811   9.718  0.0864 -0.0929 -0.2304
 1931SOL    HW117426   0.953   2.731   9.672 -1.6343  0.3898 -0.0635
 1931SOL    HW217427   1.048   2.852   9.666 -0.6672  0.0098 -1.1354
 1932SOL     OW17428   1.876   2.747   8.913 -0.0989  0.3535 -0.3625
 1932SOL    HW117429   1.843   2.834   8.891  0.2239  0.0675 -1.9269
 1932SOL    HW217430   1.790   2.707   8.897  0.6407 -0.5594 -2.0207
 1933SOL     OW17431   4.431   1.471   2.346  0.4122  0.0351  0.2574
 1933SOL    HW117432   4.524   1.475   2.368  0.3365  2.4742  0.1296
 1933SOL    HW217433   4.435   1.429   2.260  0.1248  0.5639 -0.0127
 1934SOL     OW17434   0.180   1.501   9.499 -0.2468 -0.6080  0.6005
 1934SOL    HW117435   0.190   1.596   9.507 -0.3694 -0.5615  0.1808
 1934SOL    HW217436   0.213   1.470   9.584  0.7839  0.8653  0.7452
 1935SOL     OW17437   1.640   0.167   8.074 -0.1083 -0.2716 -0.0323
 1935SOL    HW117438   1.672   0.219   8.000 -0.1546  0.5746  0.5385
 1935SOL    HW217439   1.711   0.179   8.137  1.1599  0.7443 -1.6649
 1936SOL     OW17440   4.506   0.848   3.331 -0.6021  0.1836  0.0238
 1936SOL    HW117441   4.426   0.888   3.300 -0.4354  0.9667  0.6062
 1936SOL    HW217442   4.507   0.760   3.292 -1.7167  1.2499 -2.3886
 1937SOL     OW17443   0.999   0.423   5.630  0.2156  0.0349  0.1156
 1937SOL    HW117444   1.007   0.329   5.615 -0.2835  0.1060 -0.5716
 1937SOL    HW217445   0.928   0.417   5.693 -0.7185  0.2975 -0.9120
 1938SOL     OW17446   4.231   3.485   9.070 -0.2188 -0.1986  0.0525
 1938SOL    HW117447   4.169   3.520   9.006 -0.8516  2.4519  2.1545
 1938SOL    HW217448   4.203   3.525   9.152 -1.4713  0.4209 -0.6894
 1939SOL     OW17449   0.914   0.380   1.528  0.2556  0.0723 -0.3364
 1939SOL    HW117450   0.851   0.310   1.514  0.4860 -0.1519 -0.2608
 1939SOL    HW217451   0.865   0.462   1.538  0.1792 -0.0458  0.2787
 1940SOL     OW17452   4.272   2.480  13.956 -0.9336 -0.3980 -0.7687
 1940SOL    HW117453   4.344   2.542  13.942 -0.7700 -0.6579 -1.0792
 1940SOL    HW217454   4.281   2.456  14.048 -2.6715  2.5288  0.1730
 1941SOL     OW17455   0.026   2.290   6.875  0.4276  0.8876 -0.5831
 1941SOL    HW117456   0.052   2.303   6.966  1.6703 -1.3796 -0.6016
 1941SOL    HW217457   4.666   2.293   6.873  0.3005 -1.9396  1.4608
 1942SOL     OW17458   1.247   3.505   5.962  0.4048 -0.6519 -0.2375
 1942SOL    HW117459   1.221   3.425   5.916 -0.3649 -1.5610  1.7505
 1942SOL    HW217460   1.343   3.505   5.963  0.4190 -2.5148 -0.5435
 1943SOL     OW17461   0.164   3.809  16.178  0.4817  0.2133 -0.6790
 1943SOL    HW117462   0.119   3.817  16.094  0.8686  0.5311 -0.8585
 1943SOL    HW217463   0.249   3.851  16.167 -0.7475  2.8560 -0.2616
 1944SOL     OW17464   2.064   4.178   5.007 -0.2746  0.1565  0.0397
 1944SOL    HW117465   2.102   4.106   4.957  0.0776  1.0364 -0.9862
 1944SOL    HW217466   2.124   4.247   4.977 -1.8397 -0.5406 -4.7691
 1945SOL     OW17467   2.244   2.250  12.509  0.2660  0.1212  0.5535
 1945SOL    HW117468   2.297   2.173  12.487  1.4216  1.0928 -0.0744
 1945SOL    HW217469   2.164   2.203  12.533  0.5936  1.2196  3.8339
 1946SOL     OW17470   0.110   1.691   4.726 -0.6880  0.8298  0.0780
 1946SOL    HW117471   0.046   1.626   4.697  0.2726  0.0237 -0.2476
 1946SOL    HW217472   0.171   1.679   4.653 -1.8793 -1.5482 -0.5130
 1947SOL     OW17473   3.226   3.112   6.864  0.2901  0.4037 -0.1392
 1947SOL    HW117474   3.233   3.183   6.800  3.1443 -1.5904 -2.0732
 1947SOL    HW217475   3.205   3.158   6.945  0.1613 -0.2121  0.1787
 1948SOL     OW17476   0.489   0.643  17.449 -0.1393  0.2789 -0.7749
 1948SOL    HW117477   0.471   0.639  17.355  2.1612  0.9208 -1.2409
 1948SOL    HW217478   0.439   0.724  17.462 -1.4063 -0.9823  2.1316
 1949SOL     OW17479   3.250   4.378   8.642  0.2309 -0.4271  0.0673
 1949SOL    HW117480   3.346   4.382   8.644  0.3355 -2.4108 -1.6516
 1949SOL    HW217481   3.230   4.285   8.639  0.6264 -0.5718  1.6865
 1950SOL     OW17482   4.600   1.823   4.989 -0.2951  0.0068 -0.3218
 1950SOL    HW117483   4.526   1.848   4.935 -0.4425  1.1459  0.4061
 1950SOL    HW217484   4.665   1.881   4.949 -0.7286  1.2543  0.8047
 1951SOL     OW17485   1.133   4.571  10.743  0.1601 -0.0581 -0.4933
 1951SOL    HW117486   1.209   4.516  10.725  0.3071  0.0042 -0.0677
 1951SOL    HW217487   1.143   4.638  10.675 -0.9214  1.2114  0.5991
 1952SOL     OW17488   0.850   2.998   1.058 -0.0972 -0.2544  0.3205
 1952SOL    HW117489   0.935   3.001   1.103 -0.0573 -0.8034  0.2823
 1952SOL    HW217490   0.796   2.999   1.136  0.6943 -0.4565  0.8777
 1953SOL     OW17491   2.938   3.816   4.509 -0.2251 -0.0533 -0.4887
 1953SOL    HW117492   2.848   3.828   4.477 -0.1491  1.2899 -0.2350
 1953SOL    HW217493   2.915   3.769   4.589 -1.6007  2.5424  0.6782
 1954SOL     OW17494   2.771   0.920   8.762  0.5232 -0.0752  0.2514
 1954SOL    HW117495   2.822   0.842   8.739 -0.7492 -0.6993 -0.4161
 1954SOL    HW217496   2.789   0.919   8.856 -2.5467  0.7997  0.8223
 1955SOL     OW17497   1.892   3.405   1.983 -0.1036  0.0569 -0.3469
 1955SOL    HW117498   1.975   3.442   2.012 -1.3969  3.4602 -0.9543
 1955SOL    HW217499   1.844   3.386   2.064  0.0403 -1.3795 -0.6013
 1956SOL     OW17500   1.126   3.233   6.273  0.3174  0.0398  0.4912
 1956SOL    HW117501   1.131   3.163   6.208 -0.0809 -1.3272  1.9418
 1956SOL    HW217502   1.215   3.266   6.279  0.0366  0.8554  0.2507
 1957SOL     OW17503   2.944   0.038  16.212  0.4400  0.2894  0.0371
 1957SOL    HW117504   3.027   0.035  16.260  0.1741 -2.0344  0.3477
 1957SOL    HW217505   2.893   0.088  16.275  0.1408 -0.7675  0.6219
 1958SOL     OW17506   3.030   2.476   4.984  0.8737 -0.2404  0.2783
 1958SOL    HW117507   3.017   2.383   4.965  2.3970  0.1317 -2.6624
 1958SOL    HW217508   2.939   2.494   5.010  1.1503 -0.8957  1.6373
 1959SOL     OW17509   2.001   4.061   0.932  0.0737  0.0294 -0.0735
 1959SOL    HW117510   1.980   4.150   0.903  1.6325  0.1519 -0.8563
 1959SOL    HW217511   1.929   4.022   0.883 -0.9307 -1.2546  2.4387
 1960SOL     OW17512   2.020   3.325  12.432 -0.0158 -0.0207  0.0754
 1960SOL    HW117513   2.014   3.300  12.524  0.6657  1.4105  0.5113
 1960SOL    HW217514   2.090   3.391  12.431 -1.8480  1.9542  0.0511
 1961SOL     OW17515   1.922   4.029   4.665  0.3289 -0.2479  0.2961
 1961SOL    HW117516   2.010   4.041   4.700  0.9196  1.7374 -1.8728
 1961SOL    HW217517   1.925   4.062   4.575 -2.0387 -2.2935 -0.5437
 1962SOL     OW17518   2.981   0.431   5.347  0.1190 -0.0992 -0.8764
 1962SOL    HW117519   3.046   0.361   5.355  0.8465  0.4687 -1.8117
 1962SOL    HW217520   2.977   0.459   5.438 -0.1740  2.6809 -1.7450
 1963SOL     OW17521   1.939   2.818   8.083 -0.3968  0.1186  0.2221
 1963SOL    HW117522   1.906   2.862   8.162  1.2349 -0.5070  1.2702
 1963SOL    HW217523   1.984   2.744   8.123  2.2413  1.6447  0.0927
 1964SOL     OW17524   2.385   0.414  12.221  0.1062 -0.4862  0.3394
 1964SOL    HW117525   2.454   0.391  12.283 -1.2808 -4.0485  0.5576
 1964SOL    HW217526   2.374   0.330  12.177 -0.2221 -1.0355  1.4818
 1965SOL     OW17527   1.281   4.512   7.398 -0.2131  0.4769 -0.2686
 1965SOL    HW117528   1.336   4.560   7.459 -0.1523  1.4455 -1.0782
 1965SOL    HW217529   1.252   4.577   7.334  1.0781 -0.6891 -2.0497
 1966SOL     OW17530   1.521   1.066   1.989  0.4587 -0.5177 -0.1112
 1966SOL    HW117531   1.566   1.009   1.926 -1.1630 -0.7269 -1.0989
 1966SOL    HW217532   1.535   1.012   2.067 -1.3658  0.5376  0.9416
 1967SOL     OW17533   0.105   1.004   6.407  0.3854  0.1250 -0.1206
 1967SOL    HW117534   0.147   0.942   6.347  0.2003  1.4291 -1.5965
 1967SOL    HW217535   0.186   1.035   6.447  0.2660  2.0083 -1.3484
 1968SOL     OW17536   1.977   0.722   3.977 -0.4423 -0.0472 -0.0648
 1968SOL    HW117537   1.996   0.628   3.973  1.2408  0.3109 -0.8536
 1968SOL    HW217538   1.986   0.744   4.069 -1.7814  0.3677 -0.0474
 1969SOL     OW17539   1.492   3.174   6.794  0.0328  0.0639  0.2077
 1969SOL    HW117540   1.564   3.237   6.784 -1.6372  2.0662  1.0535
 1969SOL    HW217541   1.548   3.096   6.804 -0.7679 -0.7080 -1.3072
 1970SOL     OW17542   2.580   4.082   5.984  0.1033 -0.5069 -0.7177
 1970SOL    HW117543   2.553   4.100   6.074  0.8912  1.4051 -0.8632
 1970SOL    HW217544   2.658   4.139   5.982  0.5749 -1.0932  1.6082
 1971SOL     OW17545   2.621   2.769   7.336 -0.3465  0.1818 -0.2237
 1971SOL    HW117546   2.543   2.801   7.290 -0.1911  0.6760 -0.1496
 1971SOL    HW217547   2.596   2.678   7.350 -0.7028  0.5006  1.1621
 1972SOL     OW17548   0.024   2.035   4.000 -0.1002 -0.1227  0.1845
 1972SOL    HW117549   4.700   2.036   3.925  0.0009  0.6872  0.1089
 1972SOL    HW217550   0.006   1.948   4.036 -1.1358 -1.0162 -2.4518
 1973SOL     OW17551   0.456   3.398   5.174 -0.4948  0.1544 -0.3958
 1973SOL    HW117552   0.531   3.340   5.190 -1.3914 -1.5302 -2.3573
 1973SOL    HW217553   0.488   3.478   5.215 -1.3126  0.2227  0.1045
 1974SOL     OW17554   2.180   0.235   2.601 -0.6441 -0.8324  0.0906
 1974SOL    HW117555   2.100   0.242   2.654 -1.8680 -0.7145 -1.7620
 1974SOL    HW217556   2.227   0.171   2.654 -1.2594 -1.0291  0.3945
 1975SOL     OW17557   3.891   0.441  12.672  0.3461  0.0416 -0.2818
 1975SOL    HW117558   3.975   0.397  12.661 -1.2151 -2.3338 -2.6859
 1975SOL    HW217559   3.821   0.378  12.653  2.2248 -2.0236 -0.2983
 1976SOL     OW17560   3.787   4.051   1.651  0.0311 -0.0611  0.2848
 1976SOL    HW117561   3.840   4.093   1.583  0.3494  0.2834  0.7434
 1976SOL    HW217562   3.741   3.994   1.590  0.0596  0.7604 -0.5147
 1977SOL     OW17563   3.978   0.778   8.415 -0.1367  0.0808  0.3405
 1977SOL    HW117564   4.055   0.733   8.380 -0.0244  0.3974  0.1807
 1977SOL    HW217565   3.934   0.813   8.337  0.9352  1.8460  0.5272
 1978SOL     OW17566   2.356   0.183   3.836 -0.4631  0.3367  0.3656
 1978SOL    HW117567   2.303   0.255   3.871  0.4791  1.2704 -0.1105
 1978SOL    HW217568   2.332   0.115   3.899  0.2206 -1.7144 -1.5955
 1979SOL     OW17569   0.892   3.314   7.942  0.0082 -1.0417 -0.1844
 1979SOL    HW117570   0.874   3.228   7.980  0.4460 -1.1684 -0.2701
 1979SOL    HW217571   0.864   3.300   7.851 -0.0760  0.0441 -0.3340
 1980SOL     OW17572   2.829   3.755   6.017  0.3062 -0.0950 -0.3573
 1980SOL    HW117573   2.839   3.847   6.043 -0.2937 -0.1242 -0.0089
 1980SOL    HW217574   2.895   3.692   6.047 -0.1765 -0.3397  0.1826
 1981SOL     OW17575   0.128   1.342   9.125 -0.1163  0.4315 -0.5029
 1981SOL    HW117576   0.145   1.321   9.217  0.2338 -0.5136 -0.7876
 1981SOL    HW217577   0.062   1.411   9.126 -0.8108 -0.2646  1.4526
 1982SOL     OW17578   0.534   0.426   7.861 -0.2219  0.6837  0.0628
 1982SOL    HW117579   0.523   0.501   7.802 -3.6763 -0.1351 -0.3660
 1982SOL    HW217580   0.606   0.376   7.825 -0.3627  0.5370 -0.0161
 1983SOL     OW17581   4.453   3.713   3.155  1.0108 -0.8935  0.4766
 1983SOL    HW117582   4.544   3.713   3.185  0.4803 -0.2926  2.0852
 1983SOL    HW217583   4.456   3.786   3.094 -1.1782 -1.3868 -0.2371
 1984SOL     OW17584   0.603   3.468  15.137 -0.5521  0.2816 -0.4574
 1984SOL    HW117585   0.638   3.556  15.123  1.1309 -0.0333  1.6669
 1984SOL    HW217586   0.548   3.457  15.060 -0.8363 -1.7914  0.0326
 1985SOL     OW17587   2.156   0.012   8.331 -0.1759 -0.1144  0.0461
 1985SOL    HW117588   2.197   4.702   8.257  2.5609  1.6298  0.4504
 1985SOL    HW217589   2.072   4.703   8.327 -0.0325 -0.5067  1.2444
 1986SOL     OW17590   4.688   1.641   0.907 -0.0978  0.4158  0.2790
 1986SOL    HW117591   4.667   1.707   0.973  0.0930  0.5456  0.2071
 1986SOL    HW217592   0.032   1.682   0.877  0.8588 -1.6158  0.0620
 1987SOL     OW17593   2.923   1.757   9.113 -0.1587 -0.0185 -0.4622
 1987SOL    HW117594   2.882   1.739   9.198 -1.9111  0.1854 -1.2632
 1987SOL    HW217595   2.922   1.851   9.099  1.0951 -0.0199 -0.5640
 1988SOL     OW17596   0.994   2.746   2.489  0.3527  0.1830  1.2778
 1988SOL    HW117597   1.035   2.777   2.570 -1.2287  0.4731  1.9715
 1988SOL    HW217598   0.925   2.683   2.509 -0.1818  0.4080  0.1049
 1989SOL     OW17599   3.959   2.615   7.253 -0.1859 -0.5630 -0.3161
 1989SOL    HW117600   4.030   2.676   7.271 -0.9832 -0.5047  2.6574
 1989SOL    HW217601   3.917   2.666   7.184  1.1240 -0.5183 -1.0672
 1990SOL     OW17602   1.858   2.864   4.154  0.3402 -0.1559  0.1316
 1990SOL    HW117603   1.947   2.833   4.138  0.1217 -1.5455  1.6426
 1990SOL    HW217604   1.813   2.860   4.069  2.2078 -0.4052 -0.8433
 1991SOL     OW17605   1.205   1.127   2.800  0.0147 -0.3053  0.0105
 1991SOL    HW117606   1.175   1.146   2.711 -0.5158 -1.0499  0.0283
 1991SOL    HW217607   1.147   1.054   2.821  1.5353 -0.8002  2.5471
 1992SOL     OW17608   1.415   4.460   5.159  0.2004  0.7359  0.5811
 1992SOL    HW117609   1.349   4.410   5.112 -0.5042  1.8492  0.3843
 1992SOL    HW217610   1.474   4.389   5.185 -1.9510 -1.1113  0.4218
 1993SOL     OW17611   2.281   4.633  12.703  0.7631  0.1569  0.0739
 1993SOL    HW117612   2.298   4.699  12.770 -1.2857  2.8482 -2.0246
 1993SOL    HW217613   2.275   4.557  12.761  0.8135  1.2594  1.5278
 1994SOL     OW17614   3.220   3.895   5.253  0.3257 -0.7912  0.0506
 1994SOL    HW117615   3.204   3.862   5.342 -0.6321 -1.5878 -0.4204
 1994SOL    HW217616   3.316   3.890   5.249  0.4248  3.7709 -3.2349
 1995SOL     OW17617   2.718   0.217   6.276 -0.0501  0.4712  0.1589
 1995SOL    HW117618   2.698   0.244   6.365  0.7042 -0.1327  0.5037
 1995SOL    HW217619   2.813   0.210   6.276  0.0025  1.3895  1.8514
 1996SOL     OW17620   0.840   2.842  14.401 -0.1604 -0.3821 -0.3467
 1996SOL    HW117621   0.760   2.808  14.361  0.6554  0.5979 -2.7679
 1996SOL    HW217622   0.904   2.860  14.333 -0.1873  3.0726  0.4974
 1997SOL     OW17623   1.625   3.723  11.459 -0.5498  0.1342 -0.3368
 1997SOL    HW117624   1.681   3.658  11.501  1.0574  3.3722  2.5694
 1997SOL    HW217625   1.665   3.731  11.372 -0.2889  0.2580 -0.2054
 1998SOL     OW17626   3.546   4.617  13.874 -0.6231  0.3716  0.0771
 1998SOL    HW117627   3.628   4.578  13.905 -0.2977  2.5225  1.8643
 1998SOL    HW217628   3.512   4.547  13.817  2.6106 -1.4453  0.3851
 1999SOL     OW17629   3.569   4.389   2.686 -0.5129 -0.1906 -0.7856
 1999SOL    HW117630   3.619   4.375   2.766 -0.4816 -1.4039 -1.0232
 1999SOL    HW217631   3.531   4.304   2.667  0.8450 -1.5676  2.7069
 2000SOL     OW17632   2.353   1.997  10.775 -0.5213  0.5440 -0.2217
 2000SOL    HW117633   2.305   1.995  10.693  0.8722 -1.1267 -0.9872
 2000SOL    HW217634   2.317   1.916  10.813 -1.2552  0.2975 -1.4620
 2001SOL     OW17635   0.027   0.514   2.264 -0.1838  0.2566 -0.3599
 2001SOL    HW117636   0.034   0.419   2.278 -1.4440  0.4255  1.4308
 2001SOL    HW217637   4.694   0.536   2.326 -0.5702  1.4384 -1.2113
 2002SOL     OW17638   3.903   2.775  15.030  0.1264  0.1165  0.2608
 2002SOL    HW117639   3.907   2.861  15.073 -1.2662  0.6160 -0.5932
 2002SOL    HW217640   3.998   2.761  15.033  0.0722 -0.9585 -3.6003
 2003SOL     OW17641   3.532   2.354  11.246  0.8701  0.3211 -0.1735
 2003SOL    HW117642   3.454   2.315  11.208  1.5618 -2.2038  1.0061
 2003SOL    HW217643   3.545   2.293  11.319  1.9124  1.3013  0.4643
 2004SOL     OW17644   2.926   3.212   6.860  0.9821  0.1391 -0.1753
 2004SOL    HW117645   2.971   3.127   6.863  1.2594  0.3500  1.8898
 2004SOL    HW217646   2.864   3.210   6.933  0.9105  4.6663 -0.0853
 2005SOL     OW17647   2.792   4.471   3.294  0.3753  0.5731  0.3288
 2005SOL    HW117648   2.839   4.502   3.217  0.3421  0.9191  0.4481
 2005SOL    HW217649   2.865   4.437   3.347 -0.9599 -0.9111  1.2330
 2006SOL     OW17650   4.016   3.918   3.402  0.2609  0.4318 -0.4364
 2006SOL    HW117651   4.057   3.894   3.319 -0.9496 -2.1162 -0.2694
 2006SOL    HW217652   4.060   4.003   3.414 -0.8587  1.3781 -3.0257
 2007SOL     OW17653   3.936   4.337  12.219 -0.0988  0.0997  0.0934
 2007SOL    HW117654   3.841   4.333  12.206  0.0948 -0.5656 -1.1141
 2007SOL    HW217655   3.945   4.261  12.277  0.0112  0.4335  0.5105
 2008SOL     OW17656   3.413   4.114  15.056  0.6325  0.7991  0.1028
 2008SOL    HW117657   3.419   4.128  14.961 -1.7550  3.7666  0.3792
 2008SOL    HW217658   3.362   4.189  15.085 -1.2898 -0.3442 -0.3479
 2009SOL     OW17659   0.329   1.007   9.498  0.0253  0.6590 -0.3640
 2009SOL    HW117660   0.281   0.926   9.511 -1.4200  1.1584 -2.5781
 2009SOL    HW217661   0.383   0.981   9.423 -0.1734  0.3336 -0.3931
 2010SOL     OW17662   0.878   1.453  16.786 -0.2065 -0.1152 -0.0726
 2010SOL    HW117663   0.893   1.495  16.870  0.5115  1.6029 -1.0507
 2010SOL    HW217664   0.823   1.377  16.803 -1.3635  0.2768 -2.0730
 2011SOL     OW17665   2.905   4.278  16.673 -0.1580 -0.4162  0.9465
 2011SOL    HW117666   2.979   4.226  16.704  0.4872  0.4453  0.8337
 2011SOL    HW217667   2.875   4.320  16.754 -0.7779  0.2007  0.3971
 2012SOL     OW17668   3.317   3.633   4.329 -0.3672 -0.3322 -0.2369
 2012SOL    HW117669   3.412   3.619   4.332 -0.6638 -1.7639  2.4065
 2012SOL    HW217670   3.315   3.719   4.371  0.1821  0.8024 -2.5278
 2013SOL     OW17671   1.532   4.294   1.619  0.3141  0.1898  0.6802
 2013SOL    HW117672   1.491   4.297   1.706  0.3411 -0.3329  0.7106
 2013SOL    HW217673   1.481   4.369   1.587 -0.8033  0.2139  2.5116
 2014SOL     OW17674   2.755   2.510   3.016 -0.4916 -0.1418  0.2744
 2014SOL    HW117675   2.822   2.578   3.023 -0.6907  0.0877 -0.0516
 2014SOL    HW217676   2.798   2.428   2.994  0.7848  0.8305 -0.8426
 2015SOL     OW17677   1.840   4.698   0.638 -0.7158 -0.1975  0.6301
 2015SOL    HW117678   1.851   4.678   0.545 -2.0529  1.7843  0.0368
 2015SOL    HW217679   1.894   4.628   0.674 -0.7854 -0.8063 -0.4280
 2016SOL     OW17680   2.442   1.006   2.765  0.3525  0.0707 -0.5200
 2016SOL    HW117681   2.494   0.933   2.729  0.2820 -0.2655  0.0536
 2016SOL    HW217682   2.380   0.958   2.820  1.5881 -0.3533  0.5279
 2017SOL     OW17683   4.382   3.240   5.224 -0.0809  0.1708 -0.5449
 2017SOL    HW117684   4.397   3.172   5.290  2.1204  1.4052  0.2127
 2017SOL    HW217685   4.458   3.295   5.239  0.8017 -1.5655  1.3727
 2018SOL     OW17686   0.004   1.801   8.306 -0.3744  0.3165  0.7158
 2018SOL    HW117687   0.065   1.771   8.373  0.4207  2.5567  0.9985
 2018SOL    HW217688   4.728   1.717   8.262  1.3777 -0.4087  1.6448
 2019SOL     OW17689   4.137   1.056   6.950 -0.4613  0.3641 -0.3546
 2019SOL    HW117690   4.189   1.130   6.921  0.2402  0.2554  0.6349
 2019SOL    HW217691   4.064   1.067   6.888 -0.2795 -0.6958 -0.7565
 2020SOL     OW17692   0.782   0.869   6.947  0.0043 -0.4594 -0.4271
 2020SOL    HW117693   0.746   0.816   6.876  0.3013  0.5779 -1.3501
 2020SOL    HW217694   0.809   0.947   6.899 -1.1611  1.1482  1.5087
 2021SOL     OW17695   1.491   4.608   5.375 -0.4219 -0.0666 -0.2456
 2021SOL    HW117696   1.508   4.527   5.423 -0.5875 -0.2095 -0.4290
 2021SOL    HW217697   1.466   4.571   5.290 -1.6528 -0.6196  0.3594
 2022SOL     OW17698   3.138   1.943   2.787  0.1448  0.9584 -0.3011
 2022SOL    HW117699   3.137   2.029   2.746  0.1816  0.4564 -1.3489
 2022SOL    HW217700   3.130   1.890   2.708  0.6408  0.2287  0.1390
 2023SOL     OW17701   3.661   4.587   8.009 -0.3300  0.1615 -0.0824
 2023SOL    HW117702   3.574   4.626   8.022 -0.9928 -1.2919 -0.2398
 2023SOL    HW217703   3.632   4.496   8.015  1.4181 -0.3990 -0.1978
 2024SOL     OW17704   0.972   1.346   6.946  0.5462 -0.9707  0.0137
 2024SOL    HW117705   1.040   1.413   6.934  0.0901 -0.1380  2.0109
 2024SOL    HW217706   1.017   1.278   6.896  0.2215  0.3764 -2.1096
 2025SOL     OW17707   4.428   4.701  11.668  0.5593 -0.1910 -0.4109
 2025SOL    HW117708   4.507   4.727  11.715  1.0727 -0.1865 -1.2926
 2025SOL    HW217709   4.425   4.606  11.682 -1.9677  0.0966  1.2023
 2026SOL     OW17710   2.732   2.933   5.394 -0.6370 -0.1353  0.4068
 2026SOL    HW117711   2.738   2.857   5.452 -0.1673 -0.2075  0.2663
 2026SOL    HW217712   2.818   2.932   5.352 -0.9316 -1.6780 -0.1398
 2027SOL     OW17713   4.360   2.826   4.811  0.5771 -0.4375  0.0523
 2027SOL    HW117714   4.352   2.910   4.765  0.1522 -1.4454 -1.6819
 2027SOL    HW217715   4.288   2.784   4.765  0.4926  1.3505 -1.4447
 2028SOL     OW17716   3.718   3.050   7.680  0.0262  0.2900  0.2361
 2028SOL    HW117717   3.770   3.131   7.680  0.8774 -0.2596 -4.0681
 2028SOL    HW217718   3.728   3.017   7.591 -0.3990  0.0108  0.2950
 2029SOL     OW17719   2.591   0.857  11.986 -0.4598 -0.8958  0.2078
 2029SOL    HW117720   2.675   0.853  12.032 -0.6392  1.0235  0.7345
 2029SOL    HW217721   2.536   0.829  12.060  0.4439  0.1249  1.2662
 2030SOL     OW17722   4.092   1.398   1.919 -0.7825 -0.0906 -0.4245
 2030SOL    HW117723   4.151   1.404   1.844  0.4793  1.4147  0.6960
 2030SOL    HW217724   4.053   1.311   1.924 -3.0386  1.0264  1.8722
 2031SOL     OW17725   2.696   0.790   2.066 -0.1352 -0.2494  0.0717
 2031SOL    HW117726   2.662   0.741   1.991  1.3341 -1.8741  0.4674
 2031SOL    HW217727   2.652   0.875   2.059 -0.4997 -0.6252 -2.4302
 2032SOL     OW17728   2.981   4.325   3.407  0.5411 -0.8769  0.0873
 2032SOL    HW117729   2.944   4.239   3.385 -2.6512  0.7115 -0.8612
 2032SOL    HW217730   3.020   4.310   3.492 -0.0097  0.8214  0.6481
 2033SOL     OW17731   2.985   3.964  10.976 -0.4206  0.0327  0.0822
 2033SOL    HW117732   2.932   4.024  10.923  0.0295 -0.0047 -0.4064
 2033SOL    HW217733   2.947   3.984  11.062 -1.2716 -2.4855  0.2925
 2034SOL     OW17734   2.400   4.167   9.586  0.4144  0.6100 -0.0613
 2034SOL    HW117735   2.359   4.254   9.593  1.3758  1.2118 -2.0195
 2034SOL    HW217736   2.328   4.109   9.612  1.1382 -0.5170 -0.5954
 2035SOL     OW17737   4.709   2.095   2.804 -0.9289 -0.4290 -0.6563
 2035SOL    HW117738   0.020   2.170   2.766 -2.5536  0.5896 -0.6756
 2035SOL    HW217739   4.668   2.129   2.883 -1.7661 -0.7986 -0.9317
 2036SOL     OW17740   4.025   3.647   8.146  0.3703  0.1071  0.2273
 2036SOL    HW117741   3.931   3.627   8.152  0.2203  0.9255  0.6720
 2036SOL    HW217742   4.031   3.703   8.224  1.2949  1.3780 -0.7489
 2037SOL     OW17743   4.725   1.139   7.847 -0.2121 -0.0433 -0.1927
 2037SOL    HW117744   4.724   1.218   7.794  1.1834  0.3277  0.3379
 2037SOL    HW217745   4.635   1.153   7.879 -0.4029  0.1615 -0.8312
 2038SOL     OW17746   0.599   0.959   9.768  0.4903  0.5085  0.1898
 2038SOL    HW117747   0.608   0.884   9.827  0.3061  0.3367  0.0021
 2038SOL    HW217748   0.507   0.983   9.763  0.8554  1.7759 -0.3129
 2039SOL     OW17749   4.035   2.908   3.820  0.3560 -0.4824  0.0564
 2039SOL    HW117750   4.006   2.928   3.910 -1.0335  0.3750 -0.5814
 2039SOL    HW217751   4.116   2.958   3.823 -0.2994  0.4709  2.1323
 2040SOL     OW17752   3.291   1.118   4.999 -0.1021 -0.3688 -0.1217
 2040SOL    HW117753   3.230   1.105   5.071 -1.5475  0.5634 -1.1847
 2040SOL    HW217754   3.235   1.091   4.926 -0.5135  1.3234 -0.4211
 2041SOL     OW17755   1.513   2.998   7.915  0.3028 -0.5929 -0.4364
 2041SOL    HW117756   1.447   2.959   7.972 -0.1367 -1.4039 -1.5025
 2041SOL    HW217757   1.591   2.942   7.920  0.4609 -0.6032 -2.7464
 2042SOL     OW17758   3.111   4.298   4.396  0.5686 -0.1520  0.0813
 2042SOL    HW117759   3.186   4.331   4.446 -0.4372  0.7538  1.0004
 2042SOL    HW217760   3.040   4.347   4.437 -1.1442 -1.9574 -0.7461
 2043SOL     OW17761   4.347   0.861   2.262  0.5332 -0.2657  0.0116
 2043SOL    HW117762   4.439   0.855   2.238  0.7235  0.1434  0.6465
 2043SOL    HW217763   4.314   0.924   2.198  0.0436 -0.9650 -0.4121
 2044SOL     OW17764   1.424   2.970   9.110 -0.3417 -0.0816  0.1438
 2044SOL    HW117765   1.344   2.963   9.160  0.3798  0.4277  1.3686
 2044SOL    HW217766   1.431   3.064   9.127 -2.0160 -0.4250  2.5493
 2045SOL     OW17767   4.714   4.426  14.312 -0.0174 -0.0688  0.2429
 2045SOL    HW117768   4.695   4.373  14.235 -1.0653 -2.8738  2.4528
 2045SOL    HW217769   0.018   4.361  14.370 -3.4777 -2.7333 -0.4043
 2046SOL     OW17770   4.313   2.199   4.198 -0.4515 -0.4432  0.0886
 2046SOL    HW117771   4.268   2.129   4.151  0.4669 -1.2706  0.4593
 2046SOL    HW217772   4.266   2.203   4.282 -1.5188  1.9144 -0.6055
 2047SOL     OW17773   2.567   3.398  10.909 -0.4121  0.0266 -0.1981
 2047SOL    HW117774   2.622   3.460  10.957 -1.2010 -0.5011  1.3700
 2047SOL    HW217775   2.570   3.314  10.954 -1.2884 -0.0575 -0.3108
 2048SOL     OW17776   2.405   0.048  16.009  0.4749 -0.2203  0.5996
 2048SOL    HW117777   2.338   0.114  15.993  0.3937 -1.2544 -3.2513
 2048SOL    HW217778   2.444   0.060  16.096  0.2346  2.1686  0.3678
 2049SOL     OW17779   3.436   2.249   2.130  0.3093 -0.1495  0.2210
 2049SOL    HW117780   3.495   2.175   2.143  2.1267  1.1114 -0.7575
 2049SOL    HW217781   3.388   2.229   2.049 -1.2946  1.7687  0.6907
 2050SOL     OW17782   1.714   2.558  14.183 -0.5329  0.5586  0.2813
 2050SOL    HW117783   1.732   2.468  14.156 -0.0925  0.3093  1.3717
 2050SOL    HW217784   1.646   2.530  14.245 -0.6660 -0.1821 -0.1919
 2051SOL     OW17785   2.929   3.388  14.261  0.4303 -0.2536  0.5216
 2051SOL    HW117786   2.879   3.386  14.342 -1.3173 -0.4902 -0.5820
 2051SOL    HW217787   2.896   3.475  14.238 -1.9172 -0.7802  2.0179
 2052SOL     OW17788   2.319   0.079  13.950 -0.1879 -0.3690 -0.7419
 2052SOL    HW117789   2.330   0.028  13.870 -0.5729 -1.0893 -0.3393
 2052SOL    HW217790   2.226   0.064  13.969 -0.3885  0.7843 -0.8625
 2053SOL     OW17791   3.383   4.450  15.526 -0.3200  0.5378 -0.1087
 2053SOL    HW117792   3.377   4.355  15.531 -1.2658  0.7221  2.0092
 2053SOL    HW217793   3.403   4.474  15.435 -1.5080 -0.3530 -0.5911
 2054SOL     OW17794   3.717   3.722   3.741  0.5702 -0.7324  0.4174
 2054SOL    HW117795   3.653   3.663   3.781 -2.5589  1.9018 -0.6507
 2054SOL    HW217796   3.711   3.794   3.804  0.2716  0.0037 -0.4559
 2055SOL     OW17797   3.714   0.246   5.624  0.3396 -0.8532 -0.5896
 2055SOL    HW117798   3.673   0.251   5.538 -2.1682 -1.3869  0.5854
 2055SOL    HW217799   3.724   0.340   5.637  1.4187 -0.5839 -3.3386
 2056SOL     OW17800   3.705   4.636   7.687 -0.1575 -0.0205 -0.1060
 2056SOL    HW117801   3.787   4.680   7.665  0.5111 -0.6761  1.1082
 2056SOL    HW217802   3.720   4.648   7.781 -0.9616  0.4427 -0.0364
 2057SOL     OW17803   1.925   3.301   4.961  0.1112  0.3830  0.0339
 2057SOL    HW117804   1.864   3.303   4.887 -2.3444  1.9901  2.1228
 2057SOL    HW217805   1.870   3.256   5.024  1.8454 -0.2830  1.0577
 2058SOL     OW17806   2.223   0.845  15.335  0.3400  0.1696  0.4559
 2058SOL    HW117807   2.251   0.937  15.338 -0.6755  0.5023 -0.3545
 2058SOL    HW217808   2.184   0.835  15.422 -0.6452 -0.7139 -0.0870
 2059SOL     OW17809   3.807   1.499   6.731 -0.2813  0.4955 -0.2727
 2059SOL    HW117810   3.805   1.436   6.803 -3.0334 -0.0697 -0.8180
 2059SOL    HW217811   3.835   1.575   6.781  0.8156 -0.7566  1.0463
 2060SOL     OW17812   3.607   3.391   7.175 -0.2350  0.0510  0.1883
 2060SOL    HW117813   3.606   3.410   7.269  1.3589 -0.6737  0.3463
 2060SOL    HW217814   3.696   3.419   7.156  0.6765 -1.9482  1.5752
 2061SOL     OW17815   4.278   2.677   8.026 -0.7612  0.2402 -0.0580
 2061SOL    HW117816   4.208   2.663   8.090  0.5006 -0.3483  1.1912
 2061SOL    HW217817   4.297   2.588   7.997 -1.7830  0.3792 -1.1852
 2062SOL     OW17818   2.538   3.570   6.169  0.1245 -0.3448 -0.1337
 2062SOL    HW117819   2.626   3.588   6.136  0.2019  1.2442  0.9357
 2062SOL    HW217820   2.568   3.544   6.256  0.6815 -3.2417 -1.2003
 2063SOL     OW17821   1.903   1.357   1.283  0.0833  0.2241  0.2712
 2063SOL    HW117822   1.822   1.351   1.333 -0.4922 -1.2733 -0.8303
 2063SOL    HW217823   1.868   1.370   1.195  0.3474  0.5089  0.2078
 2064SOL     OW17824   1.670   2.733  10.920  0.5492 -0.1659 -0.1811
 2064SOL    HW117825   1.637   2.821  10.902  0.8384  0.6743  3.4209
 2064SOL    HW217826   1.636   2.699  10.837  0.6030  1.2520 -0.7857
 2065SOL     OW17827   2.765   2.925   3.177 -0.1719  0.1273 -0.1942
 2065SOL    HW117828   2.784   2.892   3.090  1.6697  0.1968  0.1840
 2065SOL    HW217829   2.834   2.878   3.223  0.0926 -1.3674 -2.1612
 2066SOL     OW17830   0.281   3.433   4.995  0.5549  0.4334 -0.4268
 2066SOL    HW117831   0.213   3.371   5.018  0.8459  1.1215  2.2329
 2066SOL    HW217832   0.341   3.432   5.070  0.7550  0.2523 -0.5888
 2067SOL     OW17833   4.414   1.969   6.439 -0.3664  0.0780  0.1713
 2067SOL    HW117834   4.325   1.962   6.404  0.0323  2.4746 -1.2493
 2067SOL    HW217835   4.423   1.891   6.494 -2.0467 -0.4034 -0.2294
 2068SOL     OW17836   0.589   4.017   7.293  0.2479  0.0696 -0.3799
 2068SOL    HW117837   0.583   4.097   7.241 -1.6594  0.3130  0.2364
 2068SOL    HW217838   0.683   4.011   7.308 -0.4481 -0.9094  3.4322
 2069SOL     OW17839   0.390   4.039   8.827 -0.0296  0.1912  0.3522
 2069SOL    HW117840   0.330   4.029   8.901 -1.7242  1.8371 -0.7805
 2069SOL    HW217841   0.433   3.954   8.833 -1.9078 -0.8184 -0.5287
 2070SOL     OW17842   2.844   2.221   2.838  0.0318 -0.2700  0.2063
 2070SOL    HW117843   2.934   2.227   2.870  0.0002  2.2123 -0.2054
 2070SOL    HW217844   2.846   2.241   2.744 -1.6795  3.4778  0.9511
 2071SOL     OW17845   1.606   4.658   3.018  0.3935  0.0068  0.8237
 2071SOL    HW117846   1.553   4.706   3.081 -0.1973 -1.2424  1.2857
 2071SOL    HW217847   1.689   4.651   3.064 -0.3131  1.2655  2.2737
 2072SOL     OW17848   1.713   3.949   1.355 -0.2188 -0.2266 -0.2187
 2072SOL    HW117849   1.746   3.984   1.438 -0.7570 -0.2809  0.0198
 2072SOL    HW217850   1.774   3.975   1.287  1.3073 -1.6756  0.5676
 2073SOL     OW17851   3.021   0.081  15.100 -0.4624 -0.0090 -0.4387
 2073SOL    HW117852   3.071   0.159  15.074  0.1124 -0.8196 -1.7519
 2073SOL    HW217853   3.071   0.016  15.051 -1.4097  0.8971 -2.5797
 2074SOL     OW17854   3.496   1.015  15.494  0.1036 -0.1786  0.1254
 2074SOL    HW117855   3.578   0.967  15.490  1.4145  2.1358 -0.8850
 2074SOL    HW217856   3.506   1.071  15.417 -0.2333 -2.7455 -1.7828
 2075SOL     OW17857   2.797   0.034  12.055 -0.1064 -0.1667  0.3702
 2075SOL    HW117858   2.797   0.127  12.079  3.5756  0.0795 -0.7112
 2075SOL    HW217859   2.705   0.021  12.032  0.0422  0.2167 -0.4398
 2076SOL     OW17860   1.516   0.287  15.500  0.1802 -0.4767  0.2122
 2076SOL    HW117861   1.494   0.277  15.408 -1.0096 -1.6573  0.6314
 2076SOL    HW217862   1.557   0.374  15.501  1.4523 -1.0445 -3.5622
 2077SOL     OW17863   3.467   2.652   3.085  0.0115 -0.7346  0.4111
 2077SOL    HW117864   3.460   2.618   2.996  3.4406  1.6995 -0.7955
 2077SOL    HW217865   3.509   2.576   3.124  0.5897  0.0205  1.2468
 2078SOL     OW17866   0.834   0.474   9.702 -0.6717  0.2035 -0.3206
 2078SOL    HW117867   0.750   0.478   9.657 -1.3660 -1.7717  0.7831
 2078SOL    HW217868   0.855   0.567   9.701  0.1112  0.0230 -0.7494
 2079SOL     OW17869   0.547   2.023  15.726 -0.2156  0.0684  0.2232
 2079SOL    HW117870   0.557   2.047  15.634  2.3905 -3.0514 -0.3401
 2079SOL    HW217871   0.507   2.100  15.765  1.3735  0.5492  0.9229
 2080SOL     OW17872   3.502   2.445   3.978 -0.3405 -0.6967 -1.0606
 2080SOL    HW117873   3.562   2.389   4.027 -1.1749  1.5755  2.5598
 2080SOL    HW217874   3.426   2.386   3.971 -2.1499  1.5990 -0.7423
 2081SOL     OW17875   0.393   0.310   0.015 -0.3293 -0.5722  0.5689
 2081SOL    HW117876   0.487   0.330   0.007 -0.7462  0.9164 -0.5509
 2081SOL    HW217877   0.406   0.257   0.093 -1.8512 -1.5557  0.1337
 2082SOL     OW17878   3.232   1.660   3.892 -0.3774  0.2443 -0.3369
 2082SOL    HW117879   3.158   1.614   3.853 -0.1527 -0.8196  0.4881
 2082SOL    HW217880   3.209   1.653   3.985  2.7385 -0.1807  0.3959
 2083SOL     OW17881   2.608   1.537  14.952 -0.3326  0.3257 -0.1642
 2083SOL    HW117882   2.658   1.618  14.963  2.0118 -1.1304 -0.1003
 2083SOL    HW217883   2.615   1.522  14.857  0.9524  0.4421 -0.0869
 2084SOL     OW17884   2.428   3.945   1.939  0.0903 -0.0453 -0.2523
 2084SOL    HW117885   2.481   3.916   1.865 -0.3297  1.3577 -1.0998
 2084SOL    HW217886   2.504   3.957   1.996 -1.2945 -0.7361  1.7369
 2085SOL     OW17887   3.057   3.594   5.790  0.0561  0.5031 -0.1433
 2085SOL    HW117888   3.000   3.602   5.867 -1.0552  1.3681 -1.0437
 2085SOL    HW217889   3.147   3.584   5.820  0.1849  3.0988  0.2833
 2086SOL     OW17890   0.102   2.981   7.144  0.3033 -0.0629  0.2232
 2086SOL    HW117891   0.039   3.044   7.179  0.9209  1.1544 -0.8416
 2086SOL    HW217892   0.160   3.036   7.090  1.2758 -0.0944  1.2527
 2087SOL     OW17893   3.308   1.550  10.721 -0.1094 -0.0244  0.0202
 2087SOL    HW117894   3.363   1.508  10.787  1.1480  2.6513  0.6997
 2087SOL    HW217895   3.337   1.639  10.699 -1.0989  0.1974 -0.3754
 2088SOL     OW17896   3.369   4.011   1.371 -0.8702  0.0480 -0.0048
 2088SOL    HW117897   3.375   4.005   1.467  3.5211  1.6588 -0.1947
 2088SOL    HW217898   3.288   4.060   1.360 -1.9396 -1.9443 -1.0716
 2089SOL     OW17899   2.954   0.850   1.316 -0.6857  0.1199 -0.4763
 2089SOL    HW117900   2.939   0.841   1.222 -1.6400 -0.2058 -0.2938
 2089SOL    HW217901   2.964   0.761   1.349 -0.5905  0.8924  1.5607
 2090SOL     OW17902   1.050   0.955   1.100 -0.1868 -0.5276 -0.2599
 2090SOL    HW117903   1.012   0.974   1.014 -0.7708  1.2084  0.3895
 2090SOL    HW217904   1.032   0.862   1.114  0.6666 -0.6547 -0.0458
 2091SOL     OW17905   3.134   3.338   2.162  0.5308 -0.2009  0.1104
 2091SOL    HW117906   3.095   3.425   2.155  0.0968 -0.5172 -1.2750
 2091SOL    HW217907   3.056   3.288   2.184  0.8075 -0.9417 -0.5729
 2092SOL     OW17908   2.788   0.953  17.434 -0.0606 -0.3089  0.3019
 2092SOL    HW117909   2.872   0.926  17.397  0.0930 -1.5780  1.5441
 2092SOL    HW217910   2.779   0.887  17.503  2.3566  0.6971  1.6169
 2093SOL     OW17911   4.561   3.057   2.270 -0.2502  0.0795  0.0397
 2093SOL    HW117912   4.656   3.046   2.269 -0.0543  2.0605 -1.5703
 2093SOL    HW217913   4.542   2.964   2.282 -2.6499  0.4785 -0.7495
 2094SOL     OW17914   3.645   0.867   2.084  0.2970 -0.1239 -0.3668
 2094SOL    HW117915   3.563   0.911   2.108 -0.5774 -1.2892 -1.1923
 2094SOL    HW217916   3.666   0.922   2.008 -2.8092  0.7358 -0.5913
 2095SOL     OW17917   1.036   3.845   7.799 -0.2064 -0.1013  0.4763
 2095SOL    HW117918   1.124   3.879   7.790 -0.3229 -0.2258 -1.3020
 2095SOL    HW217919   1.039   3.791   7.878 -0.6633 -1.3223 -0.3244
 2096SOL     OW17920   4.106   4.455   6.322  0.6340 -0.3446  0.3296
 2096SOL    HW117921   4.112   4.456   6.227 -2.1136 -0.4163  0.1462
 2096SOL    HW217922   4.074   4.544   6.337 -0.8120 -1.0232  1.3488
 2097SOL     OW17923   0.612   3.928  15.698 -0.0035  0.4884  0.4915
 2097SOL    HW117924   0.607   3.932  15.602  0.6016 -0.1071  0.4270
 2097SOL    HW217925   0.698   3.884  15.699  0.1790  0.9077  2.0340
 2098SOL     OW17926   4.474   2.472  12.191 -0.1325 -0.4623  0.2818
 2098SOL    HW117927   4.565   2.464  12.160  0.3915  1.5180  1.3177
 2098SOL    HW217928   4.467   2.564  12.217  0.6670 -0.3329  0.0697
 2099SOL     OW17929   2.488   0.867  13.790 -0.2372  0.0642 -0.4310
 2099SOL    HW117930   2.502   0.831  13.878 -2.2423  1.0191  0.2950
 2099SOL    HW217931   2.566   0.922  13.786 -0.9690  1.1401  0.1686
 2100SOL     OW17932   3.150   0.683  15.570 -0.2645  0.2056  0.1453
 2100SOL    HW117933   3.177   0.773  15.584 -2.0757  0.2809  3.2959
 2100SOL    HW217934   3.096   0.689  15.491  0.1304 -0.2174 -0.1589
 2101SOL     OW17935   4.644   4.437   1.401  0.5233 -0.1019  0.0790
 2101SOL    HW117936   4.693   4.375   1.346 -1.8723 -0.5368 -1.5278
 2101SOL    HW217937   4.566   4.389   1.427 -0.9685  3.1166  1.5579
 2102SOL     OW17938   2.329   0.221  15.785  0.6872 -0.2670  0.2037
 2102SOL    HW117939   2.373   0.144  15.749  1.8438 -0.3731  1.8722
 2102SOL    HW217940   2.395   0.287  15.767 -0.6892  0.7270 -1.2181
 2103SOL     OW17941   2.086   0.819   3.139  0.4156  0.7196  0.4764
 2103SOL    HW117942   2.129   0.742   3.177  3.3279  2.4407  0.6314
 2103SOL    HW217943   2.159   0.875   3.110  0.4610  0.2198 -0.3725
 2104SOL     OW17944   1.772   1.663   5.842 -0.4438  0.0303 -0.2651
 2104SOL    HW117945   1.840   1.714   5.799  0.1203  1.1965  2.0061
 2104SOL    HW217946   1.757   1.603   5.769  0.7364  1.0636 -1.3442
 2105SOL     OW17947   1.557   4.675   0.378 -0.2962 -0.0473  0.2487
 2105SOL    HW117948   1.544   0.025   0.418  0.0799 -0.4356  1.1859
 2105SOL    HW217949   1.652   4.666   0.377 -0.1563  1.3446  0.0360
 2106SOL     OW17950   2.703   1.178  17.119 -0.1758  0.4131 -0.0137
 2106SOL    HW117951   2.655   1.259  17.104  0.5725  0.7767 -0.4459
 2106SOL    HW217952   2.637   1.114  17.091  2.1355  0.2000 -4.9652
 2107SOL     OW17953   4.564   3.784   3.782 -0.0932  0.0552 -0.5287
 2107SOL    HW117954   4.658   3.770   3.772 -0.4084 -1.2329 -1.6507
 2107SOL    HW217955   4.531   3.709   3.734  0.0925 -0.1253 -0.3734
 2108SOL     OW17956   3.207   0.957   6.951  0.1013  0.3175  0.6241
 2108SOL    HW117957   3.206   1.053   6.956 -0.9668  0.4170 -1.1716
 2108SOL    HW217958   3.302   0.948   6.954  0.1519  0.3390 -0.8206
 2109SOL     OW17959   3.983   3.898  12.851  0.0466 -0.4028 -0.3419
 2109SOL    HW117960   4.049   3.837  12.817 -1.3445 -3.0227  1.6401
 2109SOL    HW217961   4.024   3.907  12.938 -1.2534  0.0791  0.2146
 2110SOL     OW17962   1.627   2.613   7.561  0.0615  0.5139  0.6035
 2110SOL    HW117963   1.696   2.675   7.537 -0.5843  0.9973  0.0235
 2110SOL    HW217964   1.625   2.629   7.655 -1.1880 -2.2235  1.0433
 2111SOL     OW17965   1.760   2.441   7.208 -0.2517 -0.1807  0.0049
 2111SOL    HW117966   1.804   2.379   7.149  0.3815 -0.9056  1.2280
 2111SOL    HW217967   1.678   2.398   7.231 -1.3936  1.0969 -1.7800
 2112SOL     OW17968   0.882   0.082   1.714 -0.2132 -0.1854  0.1052
 2112SOL    HW117969   0.795   0.102   1.748  0.3722  0.4621  1.2353
 2112SOL    HW217970   0.863   0.063   1.622 -0.1899 -0.6033  0.1880
 2113SOL     OW17971   3.353   3.890  10.964 -0.3257  0.3424 -0.3075
 2113SOL    HW117972   3.320   3.970  11.005  1.6324  0.9614  0.0709
 2113SOL    HW217973   3.286   3.835  11.004 -0.4415 -0.9122 -2.2400
 2114SOL     OW17974   0.898   0.069   9.288  0.0660 -0.2646 -0.7752
 2114SOL    HW117975   0.872   0.062   9.196 -2.2052 -1.5982 -0.0243
 2114SOL    HW217976   0.989   0.040   9.292 -0.4449 -1.6496  0.9126
 2115SOL     OW17977   2.526   2.697   8.724 -0.4427  0.7154 -0.3616
 2115SOL    HW117978   2.448   2.641   8.719  1.7833 -2.4235 -0.3469
 2115SOL    HW217979   2.552   2.682   8.633  1.9060  0.5418  0.3245
 2116SOL     OW17980   3.617   3.790   6.274 -0.2056 -0.2044 -0.2723
 2116SOL    HW117981   3.701   3.836   6.264  0.1043 -0.9132 -0.8892
 2116SOL    HW217982   3.644   3.702   6.247  1.5092  0.5285 -0.9596
 2117SOL     OW17983   2.469   2.555   6.433 -0.3929  0.7934  0.4551
 2117SOL    HW117984   2.418   2.523   6.359 -0.2124  1.5480  0.0046
 2117SOL    HW217985   2.556   2.551   6.392 -1.6037 -1.1483 -1.9401
 2118SOL     OW17986   0.323   3.732   8.883 -0.3334  0.2654 -0.0657
 2118SOL    HW117987   0.406   3.699   8.849  0.0844 -1.8844  3.1015
 2118SOL    HW217988   0.333   3.714   8.976 -0.2843 -1.5297 -0.4124
 2119SOL     OW17989   1.154   2.437   6.920 -0.2084 -0.1994 -0.1479
 2119SOL    HW117990   1.118   2.437   7.009  0.1324 -2.0527 -0.0072
 2119SOL    HW217991   1.247   2.418   6.930 -0.0520  0.7968  0.2534
 2120SOL     OW17992   3.905   3.119   4.130 -0.3026 -0.4061  0.0408
 2120SOL    HW117993   3.829   3.107   4.074 -1.0034  1.9432  0.4893
 2120SOL    HW217994   3.930   3.027   4.136 -0.7623 -0.5755 -0.6232
 2121SOL     OW17995   3.817   0.350   3.210 -0.4560 -0.4189 -0.6683
 2121SOL    HW117996   3.848   0.281   3.152 -0.3711  0.5033 -1.7190
 2121SOL    HW217997   3.727   0.316   3.217 -0.1354 -1.0888  0.2423
 2122SOL     OW17998   4.535   4.340   1.121  0.1831 -0.8116  0.3899
 2122SOL    HW117999   4.459   4.290   1.089  0.7824 -0.8590 -0.9556
 2122SOL    HW218000   4.493   4.424   1.138 -1.2889 -1.0767 -1.9564
 2123SOL     OW18001   1.226   0.261   4.176  0.2057 -0.0831 -0.6375
 2123SOL    HW118002   1.310   0.222   4.203 -0.7882 -1.5776  0.2851
 2123SOL    HW218003   1.213   0.219   4.092  0.2347  1.1997 -1.2859
 2124SOL     OW18004   4.709   3.445  10.402  0.0623  0.6578 -0.1901
 2124SOL    HW118005   0.025   3.525  10.408  0.4464  0.5584 -2.0685
 2124SOL    HW218006   0.036   3.373  10.397 -2.7826 -1.8996  0.9664
 2125SOL     OW18007   4.106   4.621   3.438 -0.0901 -0.0487  0.2267
 2125SOL    HW118008   4.033   4.679   3.460 -0.2443 -1.2295  2.8042
 2125SOL    HW218009   4.074   4.569   3.365 -0.2775 -1.0149  0.9933
 2126SOL     OW18010   4.539   2.898   1.928 -0.4134 -0.0160 -0.0436
 2126SOL    HW118011   4.463   2.881   1.985 -0.4776 -0.2883 -0.2080
 2126SOL    HW218012   4.593   2.819   1.936 -1.1934 -0.6484 -0.9315
 2127SOL     OW18013   0.554   2.182   3.831 -0.3784  0.0668  0.6155
 2127SOL    HW118014   0.460   2.167   3.821 -0.5195  1.3580 -0.0117
 2127SOL    HW218015   0.571   2.173   3.737 -0.0855 -0.1774  0.6932
 2128SOL     OW18016   3.186   0.244   5.367 -0.0894 -0.1655 -0.4626
 2128SOL    HW118017   3.116   0.185   5.395 -0.7437  0.5151 -0.6674
 2128SOL    HW218018   3.260   0.211   5.419 -0.9668 -0.3983  0.6518
 2129SOL     OW18019   4.348   0.181   6.549 -0.1870  0.3849 -0.3215
 2129SOL    HW118020   4.253   0.175   6.537 -0.4279  1.6185  0.8929
 2129SOL    HW218021   4.357   0.109   6.611  1.1662  1.4224  0.6886
 2130SOL     OW18022   2.807   0.523  17.477  0.2847 -0.3086  0.3445
 2130SOL    HW118023   2.769   0.608  17.499  0.2061 -0.3663  0.4293
 2130SOL    HW218024   2.771   0.511  17.389  0.3423  0.7210  0.1740
 2131SOL     OW18025   0.142   1.225   6.022  0.1918 -0.2326  0.6257
 2131SOL    HW118026   0.059   1.264   5.993  0.9319  0.5787 -0.3795
 2131SOL    HW218027   0.159   1.165   5.949  1.9677  3.0133 -1.5990
 2132SOL     OW18028   1.150   0.373   1.350  0.5356  0.0225  1.1211
 2132SOL    HW118029   1.178   0.283   1.370 -0.9220 -0.2529  1.8810
 2132SOL    HW218030   1.063   0.372   1.389 -0.5279  2.4677 -1.2732
 2133SOL     OW18031   2.062   0.711   5.648 -0.3689 -0.3163  0.6667
 2133SOL    HW118032   1.995   0.643   5.642 -0.2591 -0.4343  0.7679
 2133SOL    HW218033   2.139   0.660   5.621  1.9540  1.6917  3.4678
 2134SOL     OW18034   0.733   1.147   3.876 -0.2007 -0.0329  0.0715
 2134SOL    HW118035   0.674   1.154   3.801  0.8824  0.1705 -0.7679
 2134SOL    HW218036   0.813   1.119   3.830 -0.9979 -0.2264 -1.2124
 2135SOL     OW18037   0.700   0.705   2.687 -0.8869  0.9313 -0.0996
 2135SOL    HW118038   0.723   0.676   2.599  0.0817 -0.4568  0.6141
 2135SOL    HW218039   0.728   0.796   2.699  0.6821  0.0422  2.8859
 2136SOL     OW18040   4.158   2.401   8.293 -0.4354  0.1979 -0.2509
 2136SOL    HW118041   4.096   2.459   8.250 -1.6248 -1.6272 -0.9837
 2136SOL    HW218042   4.108   2.319   8.292 -0.6470  0.3311 -0.6844
 2137SOL     OW18043   2.077   3.048  10.950 -0.1083  0.2504  0.4776
 2137SOL    HW118044   2.017   2.978  10.923 -0.7726  0.1694  2.1598
 2137SOL    HW218045   2.028   3.070  11.030 -2.1757 -0.0588 -0.7126
 2138SOL     OW18046   1.756   4.080  13.998  0.0687  0.5249 -0.0517
 2138SOL    HW118047   1.730   4.072  14.090 -1.8315  0.2330 -0.6128
 2138SOL    HW218048   1.840   4.127  14.003 -0.4952  1.4558  0.7524
 2139SOL     OW18049   3.496   4.049  17.510 -0.4920 -0.3215 -0.2492
 2139SOL    HW118050   3.551   3.981  17.471  1.1082  0.7437  0.1585
 2139SOL    HW218051   3.416   4.001  17.533 -0.9948  1.2376  1.2632
 2140SOL     OW18052   3.977   1.451   0.303  0.6582  0.3621 -0.1217
 2140SOL    HW118053   4.020   1.478   0.221 -2.3955  2.7004 -0.9746
 2140SOL    HW218054   4.014   1.510   0.369  1.3212  0.7221 -0.8107
 2141SOL     OW18055   2.069   3.709   7.488  0.3618  0.2002 -0.5583
 2141SOL    HW118056   2.097   3.711   7.580  0.0612 -0.0567 -0.4655
 2141SOL    HW218057   2.104   3.794   7.458  1.7611  0.0185  0.5257
 2142SOL     OW18058   3.795   4.060   2.597  0.7313 -0.9010  0.2264
 2142SOL    HW118059   3.701   4.051   2.606  0.3048  4.9289  1.2496
 2142SOL    HW218060   3.827   4.052   2.686 -3.5663  1.6375  1.9799
 2143SOL     OW18061   3.072   3.189   4.770 -0.5065  0.2587 -0.4772
 2143SOL    HW118062   3.023   3.224   4.845 -1.7664  0.9558 -1.6261
 2143SOL    HW218063   3.038   3.240   4.696 -0.2889  1.5120  0.2859
 2144SOL     OW18064   4.189   3.034  14.375 -0.3974 -0.2290  0.2660
 2144SOL    HW118065   4.239   3.108  14.342  0.8082 -0.9747  0.4114
 2144SOL    HW218066   4.128   3.074  14.438 -0.7543  0.4719 -0.5289
 2145SOL     OW18067   3.411   4.221   3.431 -0.6602 -0.5756  0.1736
 2145SOL    HW118068   3.358   4.154   3.474 -1.1339 -1.0624 -1.1787
 2145SOL    HW218069   3.369   4.252   3.350 -1.7237 -3.1975 -0.2780
 2146SOL     OW18070   0.671   4.151   3.776 -0.0880  0.1090 -0.3290
 2146SOL    HW118071   0.584   4.191   3.775 -0.1710 -0.0619  0.1720
 2146SOL    HW218072   0.661   4.078   3.837  1.6110  0.1929  0.0426
 2147SOL     OW18073   2.047   4.287  16.868  0.0854  0.1042  0.6193
 2147SOL    HW118074   1.986   4.286  16.943  0.0569 -0.7469  0.5765
 2147SOL    HW218075   2.119   4.232  16.897  0.4193 -0.8055 -2.0155
 2148SOL     OW18076   2.005   2.087  16.636  0.3835 -0.2749  0.1899
 2148SOL    HW118077   1.978   2.061  16.548 -0.7886 -0.5202  0.6257
 2148SOL    HW218078   1.919   2.104  16.675  0.2762  0.8120 -0.5127
 2149SOL     OW18079   4.205   1.803  15.145  0.2648  0.3417 -0.1372
 2149SOL    HW118080   4.295   1.807  15.176 -0.1441 -1.3825  1.2295
 2149SOL    HW218081   4.206   1.719  15.099  1.6864 -0.2822  1.0521
 2150SOL     OW18082   0.975   0.551  14.794  0.0861  0.5599 -0.6806
 2150SOL    HW118083   1.056   0.599  14.776  2.2113 -2.1127  1.8526
 2150SOL    HW218084   0.937   0.597  14.868  0.8229 -1.6775  1.0874
 2151SOL     OW18085   1.351   2.729   8.922  0.1227 -0.1304 -0.8837
 2151SOL    HW118086   1.335   2.787   8.996  2.2590 -0.7415  0.0675
 2151SOL    HW218087   1.410   2.784   8.870  0.6890  0.1383  0.0427
 2152SOL     OW18088   2.260   0.951   2.142  0.1322 -0.0844  0.2053
 2152SOL    HW118089   2.316   0.921   2.071  1.8400  2.3476  0.5482
 2152SOL    HW218090   2.196   0.879   2.141  0.0850 -0.0039 -2.6720
 2153SOL     OW18091   4.537   2.854   3.705 -0.0722 -0.1024 -0.4443
 2153SOL    HW118092   4.535   2.818   3.794 -2.7578  0.3954 -0.2939
 2153SOL    HW218093   4.478   2.929   3.707  0.8651  0.6350 -0.8437
 2154SOL     OW18094   2.641   3.391   3.759  0.1756 -0.1256 -0.4286
 2154SOL    HW118095   2.670   3.299   3.762  0.0459 -0.0959  2.1459
 2154SOL    HW218096   2.557   3.386   3.805 -0.8716 -0.3586 -2.3735
 2155SOL     OW18097   1.145   2.240   8.971 -0.0844  0.2904  0.4432
 2155SOL    HW118098   1.121   2.281   9.054 -1.4530 -0.5523  0.4815
 2155SOL    HW218099   1.098   2.157   8.985  1.9220 -1.0865 -0.9925
 2156SOL     OW18100   0.039   2.445   6.280  0.4399  0.4921  0.0652
 2156SOL    HW118101   0.089   2.527   6.278  0.1979  0.6065 -1.3357
 2156SOL    HW218102   0.106   2.382   6.306  0.7291  0.8620  0.2246
 2157SOL     OW18103   0.924   2.462   1.575  0.1315 -0.6383  0.0314
 2157SOL    HW118104   0.956   2.404   1.644 -0.2465 -0.0485  0.6951
 2157SOL    HW218105   0.830   2.456   1.587  0.0433 -2.8697 -1.8371
 2158SOL     OW18106   2.753   1.621   1.164 -0.1228  0.3708  0.1280
 2158SOL    HW118107   2.838   1.645   1.199 -0.5525  1.8949  0.1217
 2158SOL    HW218108   2.697   1.666   1.227  0.3311  2.4686 -0.9900
 2159SOL     OW18109   0.209   0.845   2.362 -0.1258  0.0502  0.5448
 2159SOL    HW118110   0.214   0.927   2.312 -0.2710  0.0040  0.4519
 2159SOL    HW218111   0.279   0.863   2.425  0.2484  1.6036 -0.3102
 2160SOL     OW18112   2.756   1.745   4.571  0.3047 -0.3293 -0.3192
 2160SOL    HW118113   2.744   1.809   4.501  1.6826 -0.4774 -0.6959
 2160SOL    HW218114   2.849   1.753   4.595  0.0722 -1.3025  0.9128
 2161SOL     OW18115   3.603   0.757   4.571 -0.1664  0.5919 -0.6458
 2161SOL    HW118116   3.571   0.794   4.489  0.3285  1.3904 -0.4912
 2161SOL    HW218117   3.661   0.684   4.551 -1.3793 -0.0794 -1.6710
 2162SOL     OW18118   1.396   4.362   3.631 -0.2441  0.4203  0.1784
 2162SOL    HW118119   1.400   4.295   3.563 -0.6686  0.7139 -0.1400
 2162SOL    HW218120   1.308   4.399   3.621 -0.4088  0.6774  2.4677
 2163SOL     OW18121   1.786   3.286  10.812  0.0367  1.0470  0.0860
 2163SOL    HW118122   1.786   3.193  10.837 -0.3737  0.9018 -0.4511
 2163SOL    HW218123   1.760   3.283  10.720  1.2264 -0.6013 -0.2138
 2164SOL     OW18124   2.246   1.384  17.405  0.3804  0.5330 -0.0451
 2164SOL    HW118125   2.290   1.310  17.364  0.5240  0.7561 -0.2937
 2164SOL    HW218126   2.298   1.458  17.374  1.5602  0.6859  2.3235
 2165SOL     OW18127   4.591   0.361  16.592  0.3637  0.4680  0.1431
 2165SOL    HW118128   4.514   0.374  16.647 -0.6543 -1.0767 -0.9026
 2165SOL    HW218129   4.554   0.304  16.525 -0.0234  1.8139 -0.7699
 2166SOL     OW18130   4.265   0.420   6.905  0.0233  0.4965 -0.2469
 2166SOL    HW118131   4.224   0.380   6.829 -0.5458  0.1694  0.2302
 2166SOL    HW218132   4.238   0.511   6.895 -0.3581  0.5342  1.0618
 2167SOL     OW18133   0.956   4.233   3.763  0.1591 -0.8741  0.2862
 2167SOL    HW118134   0.871   4.227   3.719 -0.9615  2.0506  2.0363
 2167SOL    HW218135   0.926   4.264   3.849  2.6681 -0.2520  0.9388
 2168SOL     OW18136   1.691   2.656   8.210  0.7765  0.1695  0.7937
 2168SOL    HW118137   1.613   2.671   8.264  0.9982 -0.3919  1.2705
 2168SOL    HW218138   1.751   2.642   8.283  0.1440  2.5322  1.7639
 2169SOL     OW18139   3.645   3.495   2.738 -0.1204 -0.4887 -0.3599
 2169SOL    HW118140   3.615   3.405   2.725  1.7056 -1.2945  1.1011
 2169SOL    HW218141   3.660   3.531   2.650  0.1324 -0.7069 -0.4064
 2170SOL     OW18142   3.860   3.157  12.833  0.2739 -0.1571 -0.4003
 2170SOL    HW118143   3.955   3.154  12.823  0.1672 -2.0530 -0.6861
 2170SOL    HW218144   3.865   3.232  12.892 -0.0338  2.0916 -3.2177
 2171SOL     OW18145   0.937   4.286   2.636  0.4753  0.5410  0.2918
 2171SOL    HW118146   0.990   4.331   2.702  0.9481 -1.0625  0.9924
 2171SOL    HW218147   0.981   4.310   2.554  0.1196  1.0685  0.2554
 2172SOL     OW18148   4.420   4.186   6.097  0.6905 -0.2042 -0.1948
 2172SOL    HW118149   4.442   4.265   6.147  2.2122 -1.3964  1.0311
 2172SOL    HW218150   4.324   4.192   6.102  0.6014 -2.2720  0.7358
 2173SOL     OW18151   1.321   0.389   0.867 -0.2897  0.6225 -0.5143
 2173SOL    HW118152   1.316   0.335   0.946 -1.3147  0.6799 -0.5423
 2173SOL    HW218153   1.245   0.446   0.876 -0.8878 -0.2781  0.1187
 2174SOL     OW18154   3.389   4.375   7.558 -0.2726  0.1521 -0.4686
 2174SOL    HW118155   3.361   4.305   7.499  0.7355  0.3541 -1.1931
 2174SOL    HW218156   3.332   4.446   7.529  0.1587  0.8753  0.4685
 2175SOL     OW18157   1.854   1.633   3.057 -0.1393  0.0888 -0.6444
 2175SOL    HW118158   1.767   1.664   3.083  0.7431  0.8187  1.4124
 2175SOL    HW218159   1.902   1.706   3.018 -0.1463 -1.0190 -2.7080
 2176SOL     OW18160   0.533   2.306   9.993  0.3647 -0.1488  0.4069
 2176SOL    HW118161   0.529   2.387  10.044  0.0386  0.0509  0.0605
 2176SOL    HW218162   0.565   2.334   9.908 -0.2083  0.7866  0.4972
 2177SOL     OW18163   0.616   2.582  10.137 -0.2432 -0.1391 -0.2756
 2177SOL    HW118164   0.704   2.569  10.102 -0.6533 -1.7445 -0.6837
 2177SOL    HW218165   0.580   2.622  10.057 -0.1057  0.9700  0.2145
 2178SOL     OW18166   2.094   3.729   6.830 -0.2917  0.3070 -0.4254
 2178SOL    HW118167   2.066   3.794   6.766 -2.0017 -0.8462 -0.8483
 2178SOL    HW218168   2.183   3.752   6.854 -0.1992 -0.3225 -0.1615
 2179SOL     OW18169   4.394   1.343   7.766 -0.0548 -0.1054  0.2257
 2179SOL    HW118170   4.456   1.281   7.804  0.6094  0.3157 -0.1756
 2179SOL    HW218171   4.330   1.346   7.837 -1.3692 -2.1541 -0.8881
 2180SOL     OW18172   1.733   4.591   3.539  1.1732  0.0193  0.5912
 2180SOL    HW118173   1.712   4.555   3.625 -1.4390 -2.1601 -0.9692
 2180SOL    HW218174   1.826   4.572   3.528  1.1052  0.4223 -0.7480
 2181SOL     OW18175   0.521   3.980   8.440 -0.0158 -0.4669 -0.1202
 2181SOL    HW118176   0.559   4.030   8.512 -0.4884  1.2222 -1.0394
 2181SOL    HW218177   0.580   3.905   8.434 -1.7542 -1.7907 -0.6350
 2182SOL     OW18178   2.508   0.958   9.791  0.4093 -0.1711 -0.1180
 2182SOL    HW118179   2.559   1.036   9.769  0.4427  0.0947  0.8956
 2182SOL    HW218180   2.578   0.896   9.812 -1.1464 -1.9160 -0.0631
 2183SOL     OW18181   2.615   4.669   7.316 -0.1420 -0.0814 -0.6011
 2183SOL    HW118182   2.687   4.731   7.310 -0.3771  0.2807  0.3939
 2183SOL    HW218183   2.556   4.697   7.386  1.7543 -2.6840  2.0160
 2184SOL     OW18184   3.226   2.820   4.409  0.1302  0.4065 -0.5206
 2184SOL    HW118185   3.284   2.889   4.442  0.2192  0.7811 -1.4368
 2184SOL    HW218186   3.287   2.766   4.359 -0.2941 -0.1415 -0.4428
 2185SOL     OW18187   1.741   0.060   5.880  0.3859  0.3255 -0.4618
 2185SOL    HW118188   1.728   0.128   5.815  0.0541  1.0861  0.4006
 2185SOL    HW218189   1.765   4.723   5.822  2.7487  0.5309  0.2434
 2186SOL     OW18190   1.678   1.810   8.395  0.4272 -0.1902 -0.8207
 2186SOL    HW118191   1.589   1.786   8.371 -0.0221 -0.9508  1.5422
 2186SOL    HW218192   1.719   1.728   8.424  1.4934  0.9450  0.8994
 2187SOL     OW18193   2.978   1.908  13.611  0.3869 -0.1657  0.7337
 2187SOL    HW118194   2.928   1.946  13.539  0.5979 -1.9001 -0.3339
 2187SOL    HW218195   3.056   1.963  13.602 -1.1408  1.4332 -2.6577
 2188SOL     OW18196   1.816   4.580   2.011 -0.2668 -0.1960 -0.0670
 2188SOL    HW118197   1.882   4.631   2.058 -0.2171 -0.6487  0.3584
 2188SOL    HW218198   1.873   4.541   1.945  1.0664  2.5657 -0.5693
 2189SOL     OW18199   0.960   2.956   4.710 -0.1489 -0.6659  0.0499
 2189SOL    HW118200   0.986   2.903   4.635  0.7385  1.8057 -1.3841
 2189SOL    HW218201   0.890   2.900   4.743  0.4676 -1.2812  0.2925
 2190SOL     OW18202   4.712   1.138  14.676 -0.2394 -0.2710  0.3796
 2190SOL    HW118203   4.703   1.135  14.580  1.2382  1.1073  0.2064
 2190SOL    HW218204   4.621   1.132  14.704 -0.1031 -0.4904  0.7688
 2191SOL     OW18205   4.635   3.494  15.712  0.3926  0.3353 -0.8095
 2191SOL    HW118206   4.653   3.455  15.798 -1.2349  2.0422  0.3023
 2191SOL    HW218207   4.562   3.551  15.736  0.7367  0.4212  0.0458
 2192SOL     OW18208   3.971   3.278   1.802  0.2164 -0.4399 -0.6030
 2192SOL    HW118209   4.031   3.205   1.785  0.6077 -0.1995 -0.2589
 2192SOL    HW218210   4.017   3.325   1.872  0.9740  1.5070 -2.3968
 2193SOL     OW18211   3.256   2.855   2.102 -0.3783 -0.1304  0.0893
 2193SOL    HW118212   3.252   2.943   2.140  1.4937 -1.2840  2.9782
 2193SOL    HW218213   3.350   2.848   2.083 -0.7898 -0.9066 -1.6417
 2194SOL     OW18214   2.900   1.995   5.727 -0.4115  0.2763  0.1827
 2194SOL    HW118215   2.889   1.958   5.814  1.4163  0.6933  0.5912
 2194SOL    HW218216   2.875   2.086   5.747 -0.5845  0.6425 -1.6683
 2195SOL     OW18217   3.058   2.437   3.830  0.8030  0.0739 -0.3581
 2195SOL    HW118218   3.013   2.517   3.805  1.2006 -0.2156 -2.0251
 2195SOL    HW218219   3.125   2.423   3.762  1.7978 -1.8400  1.0010
 2196SOL     OW18220   4.398   0.076   6.895  0.0347  0.3279 -0.5152
 2196SOL    HW118221   4.374   0.028   6.815 -1.5524  0.4717 -0.1340
 2196SOL    HW218222   4.391   0.001   6.953 -0.9879  2.7211  2.4191
 2197SOL     OW18223   2.083   1.614   3.851  0.0737  0.0691  0.0145
 2197SOL    HW118224   2.102   1.548   3.918 -0.0417  0.5450  0.5189
 2197SOL    HW218225   2.017   1.664   3.900  0.1613 -0.3803  0.5927
 2198SOL     OW18226   1.796   3.572   5.184 -0.0394 -0.0751 -0.5341
 2198SOL    HW118227   1.787   3.659   5.144  0.0647  0.6347  0.9853
 2198SOL    HW218228   1.891   3.562   5.193  0.0710  0.8784 -0.6279
 2199SOL     OW18229   3.758   1.848   8.852  0.2530 -0.1161  0.1752
 2199SOL    HW118230   3.761   1.887   8.940 -3.2784  0.6160 -0.0118
 2199SOL    HW218231   3.739   1.759   8.881  2.4129 -1.2963 -2.1483
 2200SOL     OW18232   1.214   0.586   5.674 -0.4200 -0.1060  0.6917
 2200SOL    HW118233   1.191   0.667   5.630  0.4295 -0.5074 -0.4732
 2200SOL    HW218234   1.133   0.536   5.670 -1.3567  1.4502  0.4875
 2201SOL     OW18235   4.252   1.951   1.252  0.1865  0.0790  0.0658
 2201SOL    HW118236   4.302   2.029   1.277  1.1397 -0.3167 -0.6115
 2201SOL    HW218237   4.274   1.944   1.160  0.4076  0.0329  0.1225
 2202SOL     OW18238   2.183   0.493   2.157  0.7508  0.9342 -0.3800
 2202SOL    HW118239   2.253   0.447   2.111  1.5199 -0.3235  2.0421
 2202SOL    HW218240   2.202   0.462   2.246 -1.4249 -0.2146 -0.3255
 2203SOL     OW18241   3.021   2.743   5.787  0.1587  0.0151 -0.5008
 2203SOL    HW118242   3.085   2.705   5.846 -0.8225 -2.1571 -0.8594
 2203SOL    HW218243   3.081   2.780   5.723 -0.0210  2.4210  0.7163
 2204SOL     OW18244   4.002   4.461   7.908 -0.0247  0.2563  0.0165
 2204SOL    HW118245   4.085   4.414   7.917 -0.8135 -1.1444 -0.0228
 2204SOL    HW218246   3.991   4.451   7.813 -0.5135 -0.5289  0.1566
 2205SOL     OW18247   0.845   2.323  11.150  0.4941  0.1077  0.4531
 2205SOL    HW118248   0.852   2.352  11.241  2.7206 -1.2272  0.6984
 2205SOL    HW218249   0.890   2.239  11.155 -0.0905 -0.1431  1.4215
 2206SOL     OW18250   2.329   3.589   3.067  0.2459 -0.3391 -0.1468
 2206SOL    HW118251   2.419   3.618   3.051  0.7295 -0.7905  1.7296
 2206SOL    HW218252   2.304   3.553   2.982 -0.0391 -0.4768 -0.0033
 2207SOL     OW18253   1.291   3.696   0.536 -0.2366 -0.1206 -0.4803
 2207SOL    HW118254   1.263   3.653   0.617 -1.4047 -0.1881 -0.9197
 2207SOL    HW218255   1.313   3.615   0.490 -1.0701  0.1350 -1.3312
 2208SOL     OW18256   4.435   3.919   3.996 -0.0378  0.0497  0.0508
 2208SOL    HW118257   4.478   3.858   3.936 -1.2554  0.6493 -1.4352
 2208SOL    HW218258   4.509   3.979   3.997 -0.7710  0.9684 -0.8239
 2209SOL     OW18259   4.196   0.358  14.322  0.2962  0.0532 -0.5675
 2209SOL    HW118260   4.253   0.432  14.303 -0.3601  0.6514 -0.1944
 2209SOL    HW218261   4.255   0.282  14.316  0.1825 -0.0750 -0.0433
 2210SOL     OW18262   0.011   2.621   2.548 -0.2229 -0.2214 -0.6645
 2210SOL    HW118263   0.045   2.674   2.476  0.5630  2.5721  1.7128
 2210SOL    HW218264   4.704   2.689   2.600 -1.8836 -1.7212 -0.0771
 2211SOL     OW18265   0.981   2.679   2.201  0.5620  0.2070  0.2667
 2211SOL    HW118266   0.887   2.689   2.219  0.4602 -2.4242  1.2229
 2211SOL    HW218267   1.024   2.688   2.285  0.2018  1.4426  0.3189
 2212SOL     OW18268   3.217   2.335   4.489  0.0711 -0.3481 -0.0070
 2212SOL    HW118269   3.183   2.341   4.400 -2.5980 -0.0028  1.0380
 2212SOL    HW218270   3.194   2.423   4.520  0.2173 -0.7222  1.1753
 2213SOL     OW18271   2.752   3.257   7.080 -0.3592  0.4543 -0.1781
 2213SOL    HW118272   2.665   3.223   7.100 -0.2084  0.7968  1.0653
 2213SOL    HW218273   2.798   3.241   7.162 -0.1855 -2.3437 -0.8180
 2214SOL     OW18274   0.211   0.791   6.239 -0.7303 -0.0892  0.0664
 2214SOL    HW118275   0.258   0.735   6.300  0.7635  0.9128 -0.1704
 2214SOL    HW218276   0.181   0.722   6.180 -0.3180  0.9097 -1.3072
 2215SOL     OW18277   1.485   1.906  15.111 -0.0387  0.1356 -0.1309
 2215SOL    HW118278   1.516   1.994  15.133  2.7960 -0.2728 -2.4712
 2215SOL    HW218279   1.550   1.892  15.043  1.8558  4.2783  0.8573
 2216SOL     OW18280   0.420   4.101   8.193 -0.8520  0.1375  0.5309
 2216SOL    HW118281   0.445   4.036   8.259 -0.5479  0.8039  1.0692
 2216SOL    HW218282   0.430   4.176   8.252  2.1248  0.8719 -0.8835
 2217SOL     OW18283   3.991   4.002   7.037 -0.4531 -0.3651 -0.1944
 2217SOL    HW118284   4.056   4.048   6.985 -0.8983 -1.9981 -2.1961
 2217SOL    HW218285   3.906   4.045   7.024 -0.5419 -0.8270 -1.1129
 2218SOL     OW18286   1.163   0.569   9.650 -0.2336 -0.2296 -0.6140
 2218SOL    HW118287   1.080   0.522   9.660  0.0327 -0.6013 -0.1254
 2218SOL    HW218288   1.223   0.502   9.683  1.0181  0.4810 -1.4664
 2219SOL     OW18289   3.212   3.777   4.731  0.2885  0.0777  0.1392
 2219SOL    HW118290   3.129   3.731   4.716  0.6852 -0.3409 -0.7700
 2219SOL    HW218291   3.213   3.778   4.827 -0.8509 -0.1349  0.1513
 2220SOL     OW18292   4.639   1.878   8.727  0.4971  0.2256  0.0924
 2220SOL    HW118293   4.561   1.855   8.677  0.2430  1.6076 -0.1474
 2220SOL    HW218294   4.598   1.940   8.788 -1.8127 -1.5048  0.2953
 2221SOL     OW18295   2.933   2.328   2.195  0.0302  0.5023 -0.6030
 2221SOL    HW118296   2.992   2.391   2.235  0.2678 -0.1960  0.1461
 2221SOL    HW218297   2.974   2.247   2.225  0.6580  0.7308 -0.8379
 2222SOL     OW18298   0.689   0.199   7.715  0.1467  0.0947 -0.2167
 2222SOL    HW118299   0.764   0.176   7.770 -0.4915  0.7515  0.9125
 2222SOL    HW218300   0.636   0.121   7.695  0.3087 -0.2311  0.6259
 2223SOL     OW18301   4.293   0.286   5.389 -0.1863 -0.4961  0.3972
 2223SOL    HW118302   4.263   0.230   5.318 -2.5551 -0.8769  1.6992
 2223SOL    HW218303   4.211   0.312   5.429 -0.3444 -0.0656 -0.2113
 2224SOL     OW18304   0.736   3.109   5.482  0.0875 -0.0382  0.1872
 2224SOL    HW118305   0.800   3.057   5.434 -1.2035 -3.2536  2.0061
 2224SOL    HW218306   0.750   3.192   5.436  2.1885 -1.8654 -2.4440
 2225SOL     OW18307   1.313   0.772   0.409  0.1354 -0.1781  0.0739
 2225SOL    HW118308   1.324   0.719   0.330 -0.0135 -0.1827  0.0575
 2225SOL    HW218309   1.273   0.709   0.469  2.0187 -0.2658  1.2286
 2226SOL     OW18310   4.656   4.361   5.543  0.4723 -0.0519 -0.4386
 2226SOL    HW118311   4.700   4.296   5.489  2.3935  1.5641 -0.8622
 2226SOL    HW218312   4.734   4.389   5.592 -0.8861  1.1164  1.0342
 2227SOL     OW18313   4.383   4.133   4.187  0.5025 -0.0752  0.1451
 2227SOL    HW118314   4.299   4.145   4.232  1.1932  0.3185  1.3453
 2227SOL    HW218315   4.386   4.040   4.164 -1.8220  0.0289 -0.6171
 2228SOL     OW18316   0.937   0.846   7.425  0.2274 -0.2182 -0.2408
 2228SOL    HW118317   0.943   0.828   7.519 -0.6250 -0.0209 -0.1441
 2228SOL    HW218318   0.850   0.818   7.395 -0.0838 -1.6466  1.9654
 2229SOL     OW18319   1.477   1.072   6.044 -0.1693  0.0033  0.0050
 2229SOL    HW118320   1.397   1.114   6.014 -1.1589 -2.1295 -0.3542
 2229SOL    HW218321   1.443   1.041   6.128 -1.2079 -0.2303 -0.5037
 2230SOL     OW18322   2.539   0.936   7.983 -0.5102 -0.0781 -0.0456
 2230SOL    HW118323   2.604   0.891   7.928  0.3606  0.5339  0.4932
 2230SOL    HW218324   2.499   0.859   8.024 -0.2135  0.7261  1.7119
 2231SOL     OW18325   0.536   1.416   2.844  0.0748 -0.0609 -0.3604
 2231SOL    HW118326   0.584   1.499   2.840  1.8697 -0.8110  4.9053
 2231SOL    HW218327   0.610   1.355   2.841  0.5887  0.4215  2.6255
 2232SOL     OW18328   0.454   0.587   7.660 -0.0625  0.2684  0.1953
 2232SOL    HW118329   0.458   0.519   7.592  0.5008 -0.7097  1.1932
 2232SOL    HW218330   0.373   0.635   7.648  0.4405  1.1555  0.3333
 2233SOL     OW18331   1.395   0.588   2.499  0.6269  0.5573 -0.2547
 2233SOL    HW118332   1.449   0.559   2.427  1.8844 -0.7089  1.1880
 2233SOL    HW218333   1.405   0.519   2.565 -0.4534 -0.2202 -0.8898
 2234SOL     OW18334   3.749   0.099   4.174  0.5468  0.0570 -0.2793
 2234SOL    HW118335   3.662   0.115   4.137 -0.5502  0.5569  2.5410
 2234SOL    HW218336   3.811   0.165   4.144 -0.7273  1.9734  1.2972
 2235SOL     OW18337   0.230   4.096   9.023 -0.3967  0.0667 -0.3934
 2235SOL    HW118338   0.272   4.086   9.109 -2.9014 -0.5285  0.7606
 2235SOL    HW218339   0.160   4.032   9.036 -0.4897  0.6722  2.0685
 2236SOL     OW18340   1.726   3.450  16.478  0.2350  0.3616  0.2364
 2236SOL    HW118341   1.714   3.382  16.411  0.4540  0.5518  0.0001
 2236SOL    HW218342   1.805   3.422  16.524 -0.2153 -1.4188 -0.0885
 2237SOL     OW18343   0.898   4.244   0.157  0.0692 -0.1623 -0.0564
 2237SOL    HW118344   0.913   4.253   0.063  0.3297 -2.2203 -0.2212
 2237SOL    HW218345   0.981   4.206   0.184 -0.3888 -0.6877  0.6214
 2238SOL     OW18346   1.374   3.019   4.512  0.1626  0.0024 -0.4043
 2238SOL    HW118347   1.353   3.107   4.482  0.9997  0.7417  1.2143
 2238SOL    HW218348   1.282   2.993   4.521  0.2411 -0.4908 -1.0431
 2239SOL     OW18349   1.125   0.818   4.060  0.1368  0.6489  0.3394
 2239SOL    HW118350   1.208   0.770   4.062 -0.6278 -0.6871 -0.1962
 2239SOL    HW218351   1.137   0.861   3.975 -1.2698  2.4121  1.0312
 2240SOL     OW18352   1.882   1.603   8.022  0.5453  0.1967 -0.2535
 2240SOL    HW118353   1.886   1.623   8.116 -0.0347  0.8508 -0.3633
 2240SOL    HW218354   1.818   1.672   8.003  0.0498 -0.1111  0.2955
 2241SOL     OW18355   1.847   1.001   1.625 -0.1544 -0.3062 -0.1451
 2241SOL    HW118356   1.917   1.057   1.592  0.0907 -0.1988  0.5527
 2241SOL    HW218357   1.895   0.954   1.694  0.4254  1.7266  0.8266
 2242SOL     OW18358   0.502   1.410   5.167  0.0718 -0.1128 -0.7453
 2242SOL    HW118359   0.547   1.446   5.244  0.1247  0.7343 -1.1629
 2242SOL    HW218360   0.452   1.343   5.213  1.2068 -0.6683 -0.3142
 2243SOL     OW18361   2.398   2.181   3.809  0.3579 -0.0513 -0.0732
 2243SOL    HW118362   2.431   2.116   3.872 -4.2942 -1.1387  1.2074
 2243SOL    HW218363   2.305   2.157   3.807  0.2542  0.3408  0.1037
 2244SOL     OW18364   2.128   2.074   5.183  0.0815 -0.0454 -0.2319
 2244SOL    HW118365   2.054   2.097   5.126  0.5985  0.2710 -0.7634
 2244SOL    HW218366   2.203   2.070   5.125 -0.3356  1.8987 -0.8930
 2245SOL     OW18367   0.940   1.477   9.968 -0.0599  0.2250  0.2333
 2245SOL    HW118368   0.903   1.546   9.912 -1.7209 -0.8546  0.0054
 2245SOL    HW218369   1.018   1.527   9.991 -0.8623  0.9962  1.2336
 2246SOL     OW18370   1.427   0.598   6.579 -0.6930  0.0370 -0.3318
 2246SOL    HW118371   1.403   0.616   6.488 -3.2158  3.0438  0.9601
 2246SOL    HW218372   1.491   0.664   6.606  0.8504 -1.5338 -0.1443
 2247SOL     OW18373   3.771   0.755   5.668 -0.4917 -0.2978 -0.2389
 2247SOL    HW118374   3.754   0.801   5.750  1.0796  0.7070 -0.4797
 2247SOL    HW218375   3.866   0.743   5.670 -0.4841 -0.1984 -0.0447
 2248SOL     OW18376   3.900   3.226   2.132  0.8145 -0.3599  0.2514
 2248SOL    HW118377   3.827   3.281   2.161  1.4363  1.8449 -2.4078
 2248SOL    HW218378   3.958   3.298   2.106  0.2528  0.5037  1.3852
 2249SOL     OW18379   2.493   0.104   7.053 -0.5464 -0.5615 -0.1345
 2249SOL    HW118380   2.523   0.080   7.141 -0.6215 -0.4210 -0.0707
 2249SOL    HW218381   2.443   0.182   7.078  2.1174  0.0760  3.1766
 2250SOL     OW18382   2.811   3.794   1.594  0.0586  0.2142 -0.5049
 2250SOL    HW118383   2.903   3.821   1.598  0.0460 -0.0642  1.5812
 2250SOL    HW218384   2.801   3.781   1.500 -0.1708 -1.3186 -0.2655
 2251SOL     OW18385   1.360   1.098  15.779 -0.5400  0.3906 -0.2211
 2251SOL    HW118386   1.436   1.047  15.805 -1.0143  0.3814  1.1419
 2251SOL    HW218387   1.390   1.175  15.732  1.1696  0.9313  1.7587
 2252SOL     OW18388   3.621   0.951   5.527  0.1867 -0.5201  0.5361
 2252SOL    HW118389   3.662   0.903   5.599 -0.4664 -0.4173  0.9741
 2252SOL    HW218390   3.586   0.893   5.459  0.4265  0.1415 -0.1585
 2253SOL     OW18391   1.397   0.186   8.196 -0.1120 -1.1303 -0.2967
 2253SOL    HW118392   1.483   0.190   8.155 -0.0655  3.1557  0.2227
 2253SOL    HW218393   1.378   0.095   8.173  1.3131 -1.4801 -0.0743
 2254SOL     OW18394   1.513   2.858   4.332  0.4987  0.4165 -0.3223
 2254SOL    HW118395   1.472   2.850   4.246 -0.4959  1.4235  0.0546
 2254SOL    HW218396   1.445   2.915   4.369  1.2576  1.3283 -0.3403
 2255SOL     OW18397   2.270   3.237   6.071 -0.3247  0.2677  0.5885
 2255SOL    HW118398   2.194   3.183   6.096 -0.9515  1.7861  1.9184
 2255SOL    HW218399   2.271   3.219   5.977  1.3592 -3.5353  1.3169
 2256SOL     OW18400   4.358   4.046  12.597  0.1843 -1.0955 -0.5836
 2256SOL    HW118401   4.319   4.073  12.680  0.4596  0.5892 -1.0015
 2256SOL    HW218402   4.277   4.024  12.551 -0.7572  1.6723 -0.2437
 2257SOL     OW18403   2.499   4.615   8.259 -0.5422  0.3378 -0.2708
 2257SOL    HW118404   2.443   4.614   8.181 -0.5377 -2.2747 -0.2349
 2257SOL    HW218405   2.584   4.586   8.224 -0.4022  0.9804 -0.4589
 2258SOL     OW18406   0.030   1.113   7.137 -0.2165 -0.7572 -0.8718
 2258SOL    HW118407   0.060   1.075   7.220 -0.5105 -2.8655 -1.7500
 2258SOL    HW218408   0.051   1.042   7.077  0.9068 -1.5284  0.4357
 2259SOL     OW18409   0.894   1.661  10.291 -0.8338  0.1952 -0.2221
 2259SOL    HW118410   0.818   1.707  10.329  0.5537  2.3175 -0.0267
 2259SOL    HW218411   0.855   1.575  10.278 -0.2386 -0.2532  0.9526
 2260SOL     OW18412   1.549   0.185  14.691  0.3248 -0.0745 -0.5845
 2260SOL    HW118413   1.614   0.116  14.705 -1.4850 -1.4761  0.8499
 2260SOL    HW218414   1.601   0.264  14.708 -0.8065  0.5659 -0.1121
 2261SOL     OW18415   2.411   1.015   8.460 -0.7145  0.2377  0.1527
 2261SOL    HW118416   2.486   1.033   8.404  0.4450  1.0534  1.9679
 2261SOL    HW218417   2.357   0.982   8.388 -4.1762 -1.2448  3.4589
 2262SOL     OW18418   2.108   1.706   4.555  0.7070  0.3763 -0.1707
 2262SOL    HW118419   2.135   1.772   4.491 -1.3235  0.0887 -1.3181
 2262SOL    HW218420   2.059   1.652   4.493  1.3380 -1.2036  0.7130
 2263SOL     OW18421   1.236   2.300   0.866 -0.0592  0.3969  0.1193
 2263SOL    HW118422   1.172   2.341   0.925  1.3016  2.8015 -0.1022
 2263SOL    HW218423   1.194   2.214   0.863  1.7905 -0.4404 -1.5083
 2264SOL     OW18424   0.999   1.592   3.102 -0.2007  0.1291  0.2967
 2264SOL    HW118425   0.965   1.667   3.053 -1.0530  0.1349  0.9051
 2264SOL    HW218426   1.022   1.632   3.187 -0.7913  1.4340 -0.1552
 2265SOL     OW18427   0.164   0.423   3.527  0.4609  0.0010  0.5729
 2265SOL    HW118428   0.139   0.490   3.591 -1.1497 -2.5246  2.6139
 2265SOL    HW218429   0.187   0.348   3.583  0.2335 -0.7494 -0.3436
 2266SOL     OW18430   0.146   4.181   8.402  0.0550 -0.0424 -0.0481
 2266SOL    HW118431   0.194   4.098   8.411  0.1498 -0.0839 -0.9150
 2266SOL    HW218432   0.059   4.142   8.410 -0.2550  0.7196  0.2201
 2267SOL     OW18433   0.804   0.309  15.262 -0.2431  0.2079 -0.0467
 2267SOL    HW118434   0.857   0.280  15.188  0.7683  1.2953  0.2512
 2267SOL    HW218435   0.839   0.243  15.323 -0.0320  1.1584  0.8669
 2268SOL     OW18436   4.520   2.340   6.206 -0.0486  0.0546 -0.2088
 2268SOL    HW118437   4.596   2.392   6.233 -0.5409  0.9788 -0.6460
 2268SOL    HW218438   4.546   2.294   6.126 -1.2435  1.4131 -1.3630
 2269SOL     OW18439   0.508   1.834   7.884  0.2473 -0.0501  0.3241
 2269SOL    HW118440   0.505   1.757   7.828  0.9581 -0.6441  1.1053
 2269SOL    HW218441   0.460   1.808   7.962  0.3059 -0.1033  0.3429
 2270SOL     OW18442   2.535   0.177   9.466 -0.2946  0.3654 -0.1737
 2270SOL    HW118443   2.561   0.192   9.375  1.2197  1.2040  0.4127
 2270SOL    HW218444   2.564   0.255   9.513  2.0029 -0.3003 -0.5250
 2271SOL     OW18445   0.024   1.747   4.087 -0.0801  1.1248  0.2525
 2271SOL    HW118446   0.113   1.776   4.108  1.4125 -1.1459 -2.8699
 2271SOL    HW218447   0.003   1.710   4.172  3.6896 -0.0963  0.6729
 2272SOL     OW18448   0.920   2.367  17.534 -0.4277 -0.1256  0.0467
 2272SOL    HW118449   1.005   2.357  17.577 -0.2878  1.1816  0.0557
 2272SOL    HW218450   0.862   2.400  17.602  0.3597  0.1650  0.5839
 2273SOL     OW18451   1.588   3.318  13.371  0.3040  0.0021 -0.4195
 2273SOL    HW118452   1.516   3.318  13.308 -1.4968  2.0226  1.6482
 2273SOL    HW218453   1.644   3.261  13.318 -1.3552 -0.9098 -1.2124
 2274SOL     OW18454   2.877   1.305   8.749 -0.4983  0.1696 -1.0266
 2274SOL    HW118455   2.893   1.375   8.812  0.8364  0.5842 -1.8177
 2274SOL    HW218456   2.965   1.300   8.711 -0.1193  1.6042 -0.3364
 2275SOL     OW18457   4.413   0.258  14.577 -0.2950 -0.0481  0.7207
 2275SOL    HW118458   4.461   0.260  14.660  0.4876  0.8466  0.2571
 2275SOL    HW218459   4.476   0.291  14.513 -0.2884  0.9147  1.2132
 2276SOL     OW18460   1.416   4.595   0.764  0.7091  0.2140 -0.9763
 2276SOL    HW118461   1.421   4.599   0.669  1.1830  1.0096 -0.9195
 2276SOL    HW218462   1.332   4.551   0.774  1.7264 -1.7956 -1.2364
 2277SOL     OW18463   2.035   2.348  16.155 -0.7875 -0.0870  0.0097
 2277SOL    HW118464   2.027   2.304  16.239  1.2981 -0.1334  0.1863
 2277SOL    HW218465   1.951   2.393  16.144 -1.4291 -1.0743  0.8595
 2278SOL     OW18466   4.110   4.622   9.083  0.0639 -0.1551 -0.0828
 2278SOL    HW118467   4.071   4.705   9.106 -1.4783 -1.2238  1.1355
 2278SOL    HW218468   4.181   4.649   9.024  1.0577 -0.3786  1.0069
 2279SOL     OW18469   3.654   2.446  15.851 -0.0856  0.4179 -0.2557
 2279SOL    HW118470   3.728   2.404  15.807 -1.5579 -1.7439 -0.6572
 2279SOL    HW218471   3.702   2.456  15.934  1.6332 -2.7048 -0.8597
 2280SOL     OW18472   0.825   2.321  11.681  0.3149 -0.0746  0.0376
 2280SOL    HW118473   0.790   2.256  11.743  1.7713  0.2203  1.1522
 2280SOL    HW218474   0.816   2.398  11.736  1.9884 -0.6010  1.0492
 2281SOL     OW18475   1.910   0.106   1.007 -0.6902 -0.1917 -1.1798
 2281SOL    HW118476   1.936   0.018   0.981  1.8133  0.3597 -0.5006
 2281SOL    HW218477   1.831   0.110   0.953 -0.5073  2.5472 -1.2335
 2282SOL     OW18478   1.330   1.533   6.245 -0.1545  0.0731 -0.0690
 2282SOL    HW118479   1.399   1.528   6.179  1.6290  0.3493  1.7730
 2282SOL    HW218480   1.342   1.624   6.273  0.0169  0.1258 -0.3110
 2283SOL     OW18481   4.015   4.298  13.560 -0.6093  0.0119  0.5842
 2283SOL    HW118482   4.057   4.358  13.497  0.2221 -0.5370  0.6098
 2283SOL    HW218483   3.993   4.366  13.623 -0.0085  1.3620 -0.6491
 2284SOL     OW18484   1.593   1.008   4.850 -0.1840 -0.3866 -0.1643
 2284SOL    HW118485   1.524   0.962   4.898 -0.6158 -0.2615 -0.6683
 2284SOL    HW218486   1.535   1.061   4.794 -0.9375  0.0164  0.9834
 2285SOL     OW18487   0.175   3.765   1.218  0.0440  0.0145  0.5719
 2285SOL    HW118488   0.174   3.734   1.308 -1.5454  1.4034  1.0440
 2285SOL    HW218489   0.267   3.766   1.194 -1.0739  0.2653 -3.8324
 2286SOL     OW18490   3.350   0.954   7.413 -0.3234 -0.1903 -0.0421
 2286SOL    HW118491   3.280   0.945   7.478 -1.7328 -0.8231 -1.6327
 2286SOL    HW218492   3.348   1.049   7.401 -1.5448 -0.2748 -0.5443
 2287SOL     OW18493   4.127   3.800   9.872  0.4403 -0.0166 -0.5067
 2287SOL    HW118494   4.079   3.718   9.860  0.1554  0.1755 -0.6784
 2287SOL    HW218495   4.217   3.769   9.879  0.0723 -1.0479 -0.3912
 2288SOL     OW18496   3.953   1.088   5.172  0.4101 -0.4711  0.1048
 2288SOL    HW118497   3.948   1.048   5.085 -0.0117  1.0625 -0.5912
 2288SOL    HW218498   3.858   1.094   5.186  0.4187 -0.5303  0.1834
 2289SOL     OW18499   0.969   2.014   7.273 -0.2084 -0.3759  0.1535
 2289SOL    HW118500   0.891   2.048   7.316  2.7583  3.9974  2.0954
 2289SOL    HW218501   0.937   1.928   7.247  0.2345 -0.4418 -0.1701
 2290SOL     OW18502   2.260   4.193   9.888  0.3300 -0.4806  0.8528
 2290SOL    HW118503   2.259   4.235   9.974 -2.4344 -0.4734  0.8250
 2290SOL    HW218504   2.294   4.110   9.918 -0.3896 -1.6584 -1.5575
 2291SOL     OW18505   0.628   0.223   3.506  0.4963  0.1234 -0.0624
 2291SOL    HW118506   0.592   0.293   3.559  0.5307  0.9763 -1.1605
 2291SOL    HW218507   0.552   0.166   3.497  1.3492 -0.8522 -1.1256
 2292SOL     OW18508   4.195   1.110   2.732  0.6660  0.0152  0.0973
 2292SOL    HW118509   4.242   1.189   2.708 -0.7504  1.4707  2.1038
 2292SOL    HW218510   4.169   1.073   2.648  1.4578 -1.7837  0.6520
 2293SOL     OW18511   4.444   1.037  16.990 -0.4373 -0.6541  0.0670
 2293SOL    HW118512   4.538   1.057  16.986  0.0508 -2.9203  0.3262
 2293SOL    HW218513   4.409   1.014  16.905  0.6716  0.5198 -0.7208
 2294SOL     OW18514   1.304   0.134   9.048 -0.7786 -0.3367 -0.6126
 2294SOL    HW118515   1.382   0.087   9.076  1.0990  2.1265 -1.7313
 2294SOL    HW218516   1.334   0.224   9.058  0.7677 -0.8850 -0.3391
 2295SOL     OW18517   0.828   2.163   1.489  0.1616  0.1172 -0.0764
 2295SOL    HW118518   0.918   2.186   1.512 -0.6558  1.6492  1.6476
 2295SOL    HW218519   0.827   2.071   1.464 -0.5454 -0.8729  3.5977
 2296SOL     OW18520   3.447   2.025   4.658 -0.1379 -0.4900 -0.4395
 2296SOL    HW118521   3.433   1.997   4.748  1.1501  0.0573 -0.0701
 2296SOL    HW218522   3.508   1.957   4.629 -0.1356  0.5263 -2.8133
 2297SOL     OW18523   4.374   0.995   5.440 -0.8204 -0.1855  0.5046
 2297SOL    HW118524   4.455   1.032   5.475  0.1721 -0.7569 -1.1865
 2297SOL    HW218525   4.381   1.003   5.345  0.3760  1.2951  0.7341
 2298SOL     OW18526   2.425   1.207   4.072 -0.2310 -0.3298  0.3760
 2298SOL    HW118527   2.351   1.146   4.072  0.8300 -1.6217  0.8677
 2298SOL    HW218528   2.444   1.227   4.163 -2.3641  4.6957 -0.3033
 2299SOL     OW18529   3.565   0.021   8.884 -0.4043 -0.2082 -0.1356
 2299SOL    HW118530   3.609   4.688   8.834  2.9082  1.0290  1.1110
 2299SOL    HW218531   3.534   4.709   8.960 -0.8406 -0.6218 -0.5704
 2300SOL     OW18532   2.564   3.376  10.174 -0.3603  0.2004  0.1079
 2300SOL    HW118533   2.569   3.446  10.240  0.4199  0.1420  0.1143
 2300SOL    HW218534   2.622   3.309  10.212 -3.0205 -0.6640  2.6326
 2301SOL     OW18535   2.090   4.441   6.387  0.2919 -0.7272 -0.4978
 2301SOL    HW118536   2.072   4.529   6.419  1.7906 -0.7608  0.4086
 2301SOL    HW218537   2.175   4.475   6.362 -0.3501 -0.0791 -1.8122
 2302SOL     OW18538   3.631   0.532   5.644 -0.0240  0.3398  0.0471
 2302SOL    HW118539   3.676   0.613   5.669  0.9264 -0.6899  1.6166
 2302SOL    HW218540   3.583   0.518   5.726 -4.1308 -0.5780 -2.5059
 2303SOL     OW18541   0.728   3.191   6.072 -0.0531 -0.3795 -0.1517
 2303SOL    HW118542   0.639   3.187   6.037  0.7935  1.4516 -2.4648
 2303SOL    HW218543   0.755   3.099   6.066  0.2981 -0.2982  0.2094
 2304SOL     OW18544   1.814   0.259  12.530 -0.1415  0.2684  0.5785
 2304SOL    HW118545   1.893   0.309  12.549 -0.0254 -0.3557  1.7789
 2304SOL    HW218546   1.831   0.245  12.437  2.2596 -0.7267  1.1706
 2305SOL     OW18547   2.928   0.726   2.377 -0.1902 -0.1485 -0.6019
 2305SOL    HW118548   2.967   0.718   2.464  1.2882 -3.3013 -1.5511
 2305SOL    HW218549   2.904   0.819   2.380  1.3817  0.2791 -0.7841
 2306SOL     OW18550   2.759   3.455  12.723  0.0072 -0.3651  0.1216
 2306SOL    HW118551   2.816   3.458  12.647 -0.5340 -0.0405 -0.2667
 2306SOL    HW218552   2.766   3.550  12.739 -2.5475 -0.5856  2.4412
 2307SOL     OW18553   3.763   3.151   9.166  0.5734  0.2181 -0.3930
 2307SOL    HW118554   3.702   3.217   9.200 -1.8966 -2.8444  1.1334
 2307SOL    HW218555   3.814   3.205   9.105  2.5480 -0.2393  0.8565
 2308SOL     OW18556   3.507   2.263   4.878 -0.3576 -0.3340  0.1231
 2308SOL    HW118557   3.467   2.200   4.818 -0.2653  1.1906 -1.5422
 2308SOL    HW218558   3.433   2.322   4.892 -0.3459 -0.0954 -0.8533
 2309SOL     OW18559   2.555   0.359  15.756  0.4139  0.4616 -0.2609
 2309SOL    HW118560   2.591   0.432  15.806  1.5753 -0.7385  0.6476
 2309SOL    HW218561   2.596   0.291  15.810  0.5668 -1.4055 -2.7064
 2310SOL     OW18562   0.140   4.261   6.555 -0.0727  0.4321 -0.2907
 2310SOL    HW118563   0.170   4.304   6.475 -1.5384  1.3213 -0.3705
 2310SOL    HW218564   0.216   4.267   6.614 -0.9548  0.1216  0.8805
 2311SOL     OW18565   4.221   0.858  16.178  0.7883  0.4270 -0.0393
 2311SOL    HW118566   4.283   0.842  16.249  1.1502  0.6693 -0.2980
 2311SOL    HW218567   4.157   0.894  16.240 -0.0259 -0.3052 -0.4508
 2312SOL     OW18568   3.097   0.169  14.705  0.1516 -0.1685 -0.0588
 2312SOL    HW118569   3.065   0.192  14.793 -0.7696  1.5647 -0.8468
 2312SOL    HW218570   3.016   0.142  14.662 -0.8011 -1.3077  2.4533
 2313SOL     OW18571   4.301   1.803   8.832 -0.4668 -0.0901  0.0183
 2313SOL    HW118572   4.352   1.802   8.751  1.1596  0.6057  1.0172
 2313SOL    HW218573   4.320   1.887   8.873  2.0549 -1.8768  2.5950
 2314SOL     OW18574   2.121   1.035   8.673  0.3666 -0.0828 -0.5270
 2314SOL    HW118575   2.191   0.974   8.695 -1.4719 -1.3229  1.8194
 2314SOL    HW218576   2.090   1.007   8.587 -1.1715  0.1391 -0.0502
 2315SOL     OW18577   4.220   2.743   7.172  0.5188  0.1206  0.0546
 2315SOL    HW118578   4.215   2.691   7.252  1.3980  0.7130  0.4913
 2315SOL    HW218579   4.312   2.772   7.170  0.5255 -0.0688 -2.6598
 2316SOL     OW18580   2.708   3.164   8.586  0.0285 -0.2476  0.6486
 2316SOL    HW118581   2.779   3.114   8.627 -0.1559 -0.8689  0.2121
 2316SOL    HW218582   2.651   3.093   8.556  1.3799 -0.7728 -0.6843
 2317SOL     OW18583   1.520   2.834   4.628  0.2870 -0.0796 -0.0844
 2317SOL    HW118584   1.605   2.872   4.603  0.6809  0.5305  2.1377
 2317SOL    HW218585   1.467   2.904   4.589  1.2548  0.7140  0.0143
 2318SOL     OW18586   2.408   2.117  17.195  0.0422  0.5633  0.1790
 2318SOL    HW118587   2.425   2.178  17.267  2.4115 -0.3523  0.3976
 2318SOL    HW218588   2.350   2.167  17.136  0.5188  1.3517  0.3832
 2319SOL     OW18589   0.902   2.165   3.794 -0.0194  0.7022 -0.1926
 2319SOL    HW118590   0.982   2.167   3.847 -1.3929 -0.3673  1.9266
 2319SOL    HW218591   0.856   2.104   3.852  0.6910  0.2639 -0.0883
 2320SOL     OW18592   1.471   2.056   3.831  0.2764 -0.6232 -0.6029
 2320SOL    HW118593   1.555   2.032   3.792  1.7214  0.6868  1.6840
 2320SOL    HW218594   1.431   1.973   3.807 -0.5725  0.2078 -2.0291
 2321SOL     OW18595   3.189   3.035   1.855 -0.9584  0.0894 -0.4091
 2321SOL    HW118596   3.235   2.960   1.891 -1.1312  0.7217  1.1259
 2321SOL    HW218597   3.253   3.080   1.799  0.4268  0.6789  1.6729
 2322SOL     OW18598   3.298   3.012   3.467 -0.2216  0.4344 -0.3008
 2322SOL    HW118599   3.218   3.043   3.508 -1.2899  1.5882 -3.2043
 2322SOL    HW218600   3.270   2.923   3.448 -0.9082  0.9373 -1.6559
 2323SOL     OW18601   3.142   0.318  15.011 -0.3980 -0.3133 -0.2417
 2323SOL    HW118602   3.217   0.370  15.039 -2.7416  3.2275 -0.4603
 2323SOL    HW218603   3.097   0.383  14.956 -1.4416 -0.9034 -0.1037
 2324SOL     OW18604   2.536   2.818   3.374 -0.1869 -0.7519  0.2835
 2324SOL    HW118605   2.464   2.780   3.323  0.5026 -1.9123  0.1649
 2324SOL    HW218606   2.611   2.774   3.334 -1.1241 -2.8716  0.8315
 2325SOL     OW18607   3.407   3.847   2.691 -0.1153 -0.2811  0.6181
 2325SOL    HW118608   3.479   3.821   2.750  1.0905 -0.4554 -0.9242
 2325SOL    HW218609   3.324   3.838   2.738  0.5824  0.3494  1.9739
 2326SOL     OW18610   4.239   1.784   6.081  0.2751  0.3616 -1.1336
 2326SOL    HW118611   4.228   1.740   6.165 -2.4792 -2.3913 -2.9478
 2326SOL    HW218612   4.160   1.837   6.082 -1.0362 -1.5909 -2.1666
 2327SOL     OW18613   4.672   4.360   7.654 -0.0172 -0.1392  0.3708
 2327SOL    HW118614   4.668   4.307   7.734 -1.0792 -2.0377 -0.9266
 2327SOL    HW218615   4.620   4.304   7.596  2.8795 -1.6549 -0.7165
 2328SOL     OW18616   0.698   3.798   1.544  0.0137 -0.5329 -0.0268
 2328SOL    HW118617   0.657   3.815   1.459 -0.1345  3.0360  0.7792
 2328SOL    HW218618   0.729   3.708   1.550 -0.3888 -0.6737 -0.0431
 2329SOL     OW18619   1.480   3.400   2.262 -0.5828  0.1004  0.9563
 2329SOL    HW118620   1.459   3.353   2.181 -0.9277  1.5139  0.2159
 2329SOL    HW218621   1.477   3.488   2.225 -1.3295  0.1396  1.0991
 2330SOL     OW18622   2.511   2.307   1.260  0.3997 -0.0270 -0.2371
 2330SOL    HW118623   2.485   2.374   1.196 -0.7746 -0.9261 -0.7077
 2330SOL    HW218624   2.449   2.327   1.330  1.7146 -0.0176  0.9177
 2331SOL     OW18625   1.442   0.293   3.648  0.3302  0.5253  0.1219
 2331SOL    HW118626   1.371   0.228   3.648 -0.0702  0.9721  0.7887
 2331SOL    HW218627   1.510   0.246   3.600  0.6183  0.2618  0.7959
 2332SOL     OW18628   4.314   3.066  12.300  0.3933 -0.0816  0.5494
 2332SOL    HW118629   4.374   2.992  12.297 -0.6958 -0.8736 -1.4888
 2332SOL    HW218630   4.299   3.072  12.206  0.9043 -1.0876  0.4121
 2333SOL     OW18631   4.578   0.585   6.790  0.0919 -0.0587 -0.0974
 2333SOL    HW118632   4.502   0.621   6.743 -0.6362 -0.2303  0.9450
 2333SOL    HW218633   4.589   0.497   6.755 -0.3166 -0.1326 -0.0346
 2334SOL     OW18634   2.678   0.783   4.673 -0.2679 -0.0506  0.0265
 2334SOL    HW118635   2.678   0.725   4.749 -0.6118  0.4135  0.3840
 2334SOL    HW218636   2.594   0.827   4.690  1.5034  2.4292  2.5429
 2335SOL     OW18637   2.290   0.204   5.587  0.6411  0.2665 -0.2941
 2335SOL    HW118638   2.308   0.290   5.549 -0.0124  0.4007 -0.3036
 2335SOL    HW218639   2.224   0.187   5.520 -0.6440  0.5950  0.8909
 2336SOL     OW18640   0.476   4.589  10.353 -0.0702 -0.0124 -0.0219
 2336SOL    HW118641   0.457   4.502  10.319 -2.7284 -0.0027  1.4222
 2336SOL    HW218642   0.396   4.606  10.403 -0.7916  0.5910 -1.3777
 2337SOL     OW18643   2.363   1.598  15.567  0.2471  0.1760 -0.5444
 2337SOL    HW118644   2.442   1.634  15.608  0.1212  0.0462 -0.1859
 2337SOL    HW218645   2.329   1.547  15.641  1.9273  0.3249  0.3452
 2338SOL     OW18646   0.082   1.132  14.388 -0.4992  0.2108 -0.5870
 2338SOL    HW118647   0.137   1.076  14.334  2.8297  2.0421  0.8604
 2338SOL    HW218648   0.000   1.083  14.389 -1.9855  2.6582 -1.5192
 2339SOL     OW18649   2.801   0.595   2.711  0.1408 -0.1578  0.6279
 2339SOL    HW118650   2.864   0.658   2.677  0.3668 -1.2201 -0.9483
 2339SOL    HW218651   2.852   0.546   2.776  0.2764 -1.5024 -0.4925
 2340SOL     OW18652   2.010   3.485  10.011 -0.4078  0.6542  0.1480
 2340SOL    HW118653   1.958   3.433   9.950 -1.2877 -0.2839  1.7142
 2340SOL    HW218654   1.981   3.453  10.096  0.1101 -0.6811 -0.1851
 2341SOL     OW18655   2.113   3.219   6.648 -0.1513  0.9707  0.2048
 2341SOL    HW118656   2.205   3.247   6.657 -0.1596  1.4574 -1.1494
 2341SOL    HW218657   2.092   3.217   6.741  0.6092 -4.1486  0.2874
 2342SOL     OW18658   3.283   1.414   7.092  0.1178 -0.6423  0.2349
 2342SOL    HW118659   3.309   1.376   7.176 -3.8032  0.8250  2.0778
 2342SOL    HW218660   3.229   1.491   7.109  0.8479 -0.1545  0.3554
 2343SOL     OW18661   1.675   2.325   7.568 -0.0900 -0.8871 -0.0642
 2343SOL    HW118662   1.648   2.413   7.591  0.3453 -0.3680 -1.5252
 2343SOL    HW218663   1.643   2.323   7.477  0.3266  0.7875 -0.2509
 2344SOL     OW18664   2.610   4.605   6.104  0.6795  0.1631  0.1316
 2344SOL    HW118665   2.610   4.515   6.137 -3.1233 -0.6415 -1.9718
 2344SOL    HW218666   2.577   4.587   6.015 -1.3498  1.0893  0.7016
 2345SOL     OW18667   1.722   0.355  16.727 -0.7289 -0.3193 -0.1091
 2345SOL    HW118668   1.637   0.325  16.759 -2.2537  3.3373 -0.8050
 2345SOL    HW218669   1.741   0.429  16.785 -1.0760  1.4733 -2.2820
 2346SOL     OW18670   4.130   4.685   3.921 -0.5639 -0.1276 -0.0860
 2346SOL    HW118671   4.197   4.662   3.856 -0.1968  0.5585  0.0462
 2346SOL    HW218672   4.123   0.043   3.904  1.5513  0.1547  0.6013
 2347SOL     OW18673   1.195   3.419  11.637 -0.1313 -0.0424  0.4468
 2347SOL    HW118674   1.189   3.328  11.607  2.1450  0.5223 -1.6938
 2347SOL    HW218675   1.238   3.464  11.565  0.7335 -0.7912  0.4985
 2348SOL     OW18676   2.613   1.766   1.594 -0.6833 -0.0859  0.0800
 2348SOL    HW118677   2.668   1.710   1.649  1.4424  1.6498 -0.2694
 2348SOL    HW218678   2.673   1.763   1.519  0.3899 -1.2541  0.9893
 2349SOL     OW18679   0.703   1.120   8.823 -0.4408 -0.1719  0.8455
 2349SOL    HW118680   0.733   1.032   8.845 -0.9486 -0.8650 -1.2680
 2349SOL    HW218681   0.613   1.104   8.797 -0.3599  1.8042 -0.6637
 2350SOL     OW18682   0.244   3.101   6.945  0.0836 -0.2581  0.2261
 2350SOL    HW118683   0.329   3.095   6.900  0.6012  2.1452  0.9024
 2350SOL    HW218684   0.235   3.195   6.956 -1.0536 -0.2472 -0.9018
 2351SOL     OW18685   2.100   0.038  11.229 -0.5761  0.1840  0.1176
 2351SOL    HW118686   2.037   4.730  11.172 -2.1818  0.3781  1.7607
 2351SOL    HW218687   2.150   0.077  11.157  0.7091 -1.5624  0.0504
 2352SOL     OW18688   1.148   0.730   6.576 -0.5326  0.1273  0.2307
 2352SOL    HW118689   1.219   0.678   6.540 -2.6117 -0.7452 -2.5969
 2352SOL    HW218690   1.186   0.818   6.573  1.3776 -0.7235 -0.5033
 2353SOL     OW18691   3.108   3.936  14.146  0.3124  0.1700  0.4307
 2353SOL    HW118692   3.050   4.007  14.118 -1.7881 -2.2640 -1.4154
 2353SOL    HW218693   3.140   3.972  14.228  0.8849 -0.0534  0.3092
 2354SOL     OW18694   0.504   0.858   8.612 -0.1033 -0.2351 -0.0884
 2354SOL    HW118695   0.496   0.764   8.627 -0.2846 -0.1441  0.3741
 2354SOL    HW218696   0.542   0.882   8.696 -0.4945  0.6080 -0.1560
 2355SOL     OW18697   2.024   3.298   4.315 -0.1381 -0.1393  0.1487
 2355SOL    HW118698   2.017   3.262   4.227 -0.7857 -1.9536  0.9282
 2355SOL    HW218699   2.100   3.353   4.296 -0.5931  0.3717 -0.1765
 2356SOL     OW18700   0.562   2.793  12.841 -0.5867  0.3322  0.2555
 2356SOL    HW118701   0.485   2.793  12.898  1.2625 -0.1052  2.7741
 2356SOL    HW218702   0.525   2.731  12.778  0.0971 -0.5030  0.6699
 2357SOL     OW18703   1.761   1.281   0.654 -0.1692 -0.4971 -0.6768
 2357SOL    HW118704   1.850   1.317   0.652  0.4057 -1.8149  0.7078
 2357SOL    HW218705   1.718   1.331   0.723 -2.1208 -0.4684 -1.9328
 2358SOL     OW18706   3.037   3.561   7.065 -0.4257 -0.3483  0.0953
 2358SOL    HW118707   3.043   3.586   7.158 -3.3207 -0.1982  0.2381
 2358SOL    HW218708   3.096   3.486   7.060 -0.2558 -0.2205  0.1890
 2359SOL     OW18709   1.364   1.522   2.726  0.0577  0.0885  0.4749
 2359SOL    HW118710   1.355   1.533   2.632 -0.0321 -0.0563  0.4670
 2359SOL    HW218711   1.294   1.571   2.768 -0.4806 -0.4405  0.1873
 2360SOL     OW18712   4.110   0.331   6.696 -0.5322  0.0425  0.4308
 2360SOL    HW118713   4.050   0.263   6.728 -0.1545 -0.0562  0.9175
 2360SOL    HW218714   4.058   0.362   6.621 -0.6987 -2.7186 -0.5961
 2361SOL     OW18715   2.267   0.412   5.193  0.0134  0.1068 -0.0914
 2361SOL    HW118716   2.244   0.321   5.177 -1.5766  0.2725  1.2762
 2361SOL    HW218717   2.324   0.422   5.117 -1.6006 -1.1954 -1.4620
 2362SOL     OW18718   2.863   3.520   8.277  0.2975 -0.3871  0.2702
 2362SOL    HW118719   2.797   3.469   8.229 -0.5085  0.8833  0.0150
 2362SOL    HW218720   2.834   3.508   8.367  0.2513 -1.7825  0.0807
 2363SOL     OW18721   2.562   4.570   0.908  0.1197  0.0669 -0.0485
 2363SOL    HW118722   2.607   4.557   0.824 -1.2505  2.1270 -1.0929
 2363SOL    HW218723   2.529   4.481   0.923 -0.1972  0.1755 -0.1125
 2364SOL     OW18724   1.454   1.830   3.060  0.4182  0.2172  0.2291
 2364SOL    HW118725   1.465   1.854   2.969  1.5304 -0.7020  0.1216
 2364SOL    HW218726   1.492   1.743   3.046  0.2999  0.0733  0.7817
 2365SOL     OW18727   2.109   1.171   7.262 -0.0253 -0.2454 -0.0548
 2365SOL    HW118728   2.095   1.097   7.203 -1.4552  0.3002 -0.3972
 2365SOL    HW218729   2.204   1.179   7.257 -0.0194  1.2496  2.9623
 2366SOL     OW18730   3.692   2.631   8.235  0.3995  0.7212 -0.0110
 2366SOL    HW118731   3.653   2.560   8.286 -1.0653 -0.1602 -2.3527
 2366SOL    HW218732   3.660   2.708   8.282  0.1497 -1.0534  2.7242
 2367SOL     OW18733   0.276   3.727   2.335 -0.1467  0.5845 -0.2004
 2367SOL    HW118734   0.339   3.663   2.367 -0.7160 -0.4946 -1.2767
 2367SOL    HW218735   0.339   3.783   2.288 -0.5346  0.8506 -0.3979
 2368SOL     OW18736   1.375   1.803   2.051  0.8695 -0.0868  0.5521
 2368SOL    HW118737   1.431   1.788   1.975  0.4577  0.0233  0.2227
 2368SOL    HW218738   1.398   1.893   2.072  0.8293  0.1180 -0.2844
 2369SOL     OW18739   2.321   3.862   2.351  0.2382 -0.0455  0.3866
 2369SOL    HW118740   2.293   3.812   2.428  0.3109  0.7358  0.9220
 2369SOL    HW218741   2.413   3.836   2.357  0.2191  1.0235  5.0623
 2370SOL     OW18742   1.087   3.012  16.768 -0.4062 -0.1976  0.3998
 2370SOL    HW118743   1.028   3.029  16.841 -0.4272 -0.2097  0.3856
 2370SOL    HW218744   1.154   2.954  16.803 -1.2278 -1.5321 -0.2510
 2371SOL     OW18745   0.571   2.071   2.447 -0.3147 -0.2086 -0.1854
 2371SOL    HW118746   0.564   2.021   2.366 -0.2526  0.8819 -0.8663
 2371SOL    HW218747   0.591   2.160   2.418 -0.6863  0.4952  1.7441
 2372SOL     OW18748   3.981   1.461   2.571 -0.5386  0.0832 -0.2360
 2372SOL    HW118749   4.067   1.482   2.535 -0.4008  0.8345  0.5408
 2372SOL    HW218750   3.984   1.366   2.584 -0.2907 -0.2687 -2.8934
 2373SOL     OW18751   1.823   1.348   1.993  0.3027 -0.7250 -0.0409
 2373SOL    HW118752   1.880   1.278   1.963 -1.3913 -2.5324  0.9520
 2373SOL    HW218753   1.735   1.315   1.972  0.2280 -0.7379  0.2941
 2374SOL     OW18754   1.823   4.390  10.631 -0.3141  0.7547  0.0026
 2374SOL    HW118755   1.784   4.419  10.548 -2.7223  0.4361  1.0052
 2374SOL    HW218756   1.780   4.304  10.634 -0.5852  0.8834 -0.1140
 2375SOL     OW18757   4.523   1.968   1.483  0.0935 -0.2208 -1.0436
 2375SOL    HW118758   4.499   2.023   1.409  0.8284 -0.4284 -1.4285
 2375SOL    HW218759   4.449   1.907   1.480 -0.0406 -0.1070 -0.0130
 2376SOL     OW18760   3.146   1.739  16.539 -0.4016 -0.3707  0.6431
 2376SOL    HW118761   3.235   1.746  16.506 -0.2266 -0.7858  1.0244
 2376SOL    HW218762   3.105   1.793  16.472  1.1447 -1.2658 -1.0215
 2377SOL     OW18763   0.653   0.223   6.306 -0.1913 -0.5528 -0.0255
 2377SOL    HW118764   0.576   0.209   6.252 -1.3132  0.2496  1.3789
 2377SOL    HW218765   0.659   0.134   6.341  1.0349 -1.1318 -1.7000
 2378SOL     OW18766   3.427   2.417   6.744 -0.2804 -0.1080  0.5290
 2378SOL    HW118767   3.516   2.451   6.750 -0.7082  1.1849 -0.3527
 2378SOL    HW218768   3.371   2.494   6.754  0.7544  0.7695 -0.3621
 2379SOL     OW18769   1.227   1.711  12.809 -0.1380 -0.2640 -0.0808
 2379SOL    HW118770   1.138   1.690  12.840 -0.4575  0.6547 -0.3951
 2379SOL    HW218771   1.239   1.792  12.859  0.7470 -0.5178  0.1123
 2380SOL     OW18772   1.118   0.807   8.664  0.0245  0.1170  0.2856
 2380SOL    HW118773   1.165   0.867   8.607 -0.6476  0.5694  0.2147
 2380SOL    HW218774   1.184   0.744   8.693  0.4406 -0.1119 -1.1671
 2381SOL     OW18775   1.426   3.437  11.833 -0.2733 -0.0783  0.3619
 2381SOL    HW118776   1.347   3.427  11.780  0.1881  1.0023 -0.5220
 2381SOL    HW218777   1.445   3.344  11.847 -1.9701 -0.6381 -0.9687
 2382SOL     OW18778   2.976   2.826   2.114  0.1026 -0.5581 -0.2506
 2382SOL    HW118779   3.065   2.854   2.132 -0.5546  1.3667  0.0036
 2382SOL    HW218780   2.945   2.894   2.053  0.9387  0.6257  0.6673
 2383SOL     OW18781   3.530   0.330   6.081  0.0454 -0.1646  0.5574
 2383SOL    HW118782   3.552   0.355   6.170 -0.1113 -0.5974  0.7163
 2383SOL    HW218783   3.443   0.296   6.101  0.3805 -0.6319  1.2117
 2384SOL     OW18784   1.201   3.891   5.959 -0.7183  0.0490  0.4182
 2384SOL    HW118785   1.115   3.889   6.001 -1.6463  1.6210 -1.3615
 2384SOL    HW218786   1.190   3.836   5.881  2.3836  1.0918 -0.7436
 2385SOL     OW18787   3.478   0.965  13.450  0.0711 -0.7527 -0.3474
 2385SOL    HW118788   3.542   1.016  13.500 -1.5223 -0.1777  1.0966
 2385SOL    HW218789   3.401   1.014  13.478 -0.3639 -0.5041 -1.9435
 2386SOL     OW18790   4.356   1.841   3.897  0.1266  0.2326 -0.1347
 2386SOL    HW118791   4.359   1.759   3.946 -0.5780  0.1602 -0.2022
 2386SOL    HW218792   4.411   1.904   3.944 -0.8297  0.0673  1.2188
 2387SOL     OW18793   4.037   1.063  14.256 -0.5681 -0.4389  0.0515
 2387SOL    HW118794   4.033   1.158  14.253  0.4681 -0.4456 -1.3169
 2387SOL    HW218795   3.989   1.056  14.173 -1.0662  0.2914  0.2793
 2388SOL     OW18796   0.771   0.513  13.199 -0.4979  0.1393  0.0070
 2388SOL    HW118797   0.859   0.484  13.221 -0.4131  0.7389  0.4715
 2388SOL    HW218798   0.726   0.444  13.249 -0.0007 -2.2085 -2.8253
 2389SOL     OW18799   1.288   4.425   4.799  0.3226 -1.1321 -0.3847
 2389SOL    HW118800   1.239   4.411   4.881 -0.3584  2.5021 -0.1909
 2389SOL    HW218801   1.223   4.404   4.732 -1.9244  1.2520  1.0599
 2390SOL     OW18802   0.855   2.785   6.759  0.1792  0.1744 -0.1452
 2390SOL    HW118803   0.924   2.730   6.722 -0.9832 -0.6163 -1.1660
 2390SOL    HW218804   0.871   2.873   6.725 -2.3908  1.1442  1.1344
 2391SOL     OW18805   3.317   2.436  15.755 -0.2052  0.3979 -0.1527
 2391SOL    HW118806   3.227   2.469  15.753  0.2999  1.8398  1.0352
 2391SOL    HW218807   3.333   2.477  15.840 -0.6534 -0.9716  0.5983
 2392SOL     OW18808   2.522   0.860   6.141  0.1744 -0.4731 -0.4991
 2392SOL    HW118809   2.616   0.845   6.157  0.7187  1.7326 -1.6940
 2392SOL    HW218810   2.496   0.774   6.175  0.3323  0.4455  1.9454
 2393SOL     OW18811   0.467   2.911  14.050 -0.4312 -0.1780  0.3399
 2393SOL    HW118812   0.559   2.893  14.034 -0.2510  0.1886  0.9939
 2393SOL    HW218813   0.473   2.945  14.139 -1.9101  1.5274 -0.1906
 2394SOL     OW18814   1.578   3.204   2.973 -0.3264  0.8444  0.3638
 2394SOL    HW118815   1.535   3.243   3.049 -1.9946  0.7369 -0.5444
 2394SOL    HW218816   1.601   3.121   3.015  0.5898  1.2759  0.7375
 2395SOL     OW18817   4.199   3.698   3.774 -0.5799 -0.0102 -0.2726
 2395SOL    HW118818   4.226   3.717   3.684  2.0252 -2.1783  0.0507
 2395SOL    HW218819   4.124   3.758   3.773  0.5141  1.3302 -2.0789
 2396SOL     OW18820   2.217   0.826   3.589  0.1305 -0.1340  0.4115
 2396SOL    HW118821   2.195   0.780   3.670  0.2155  0.9446  1.0555
 2396SOL    HW218822   2.263   0.759   3.539  0.0146  0.3679 -0.3664
 2397SOL     OW18823   4.413   3.658   6.555 -0.1893 -0.2728 -0.1180
 2397SOL    HW118824   4.451   3.699   6.478  2.0116  1.3864  1.8471
 2397SOL    HW218825   4.334   3.623   6.514 -0.4796 -1.7895  1.7245
 2398SOL     OW18826   1.002   4.236   3.397  0.4354 -0.0807 -0.0373
 2398SOL    HW118827   0.995   4.224   3.302  1.5970  0.8009 -0.2355
 2398SOL    HW218828   0.975   4.327   3.408  0.2878 -0.0972 -0.2679
 2399SOL     OW18829   2.070   3.974   8.455 -0.2998 -0.5523  0.0554
 2399SOL    HW118830   2.145   3.952   8.399 -0.3540 -2.7309  0.8441
 2399SOL    HW218831   2.013   4.026   8.398 -2.4416 -0.1937  2.5663
 2400SOL     OW18832   3.319   0.639   8.921 -0.0842 -0.1201  0.2879
 2400SOL    HW118833   3.261   0.714   8.906 -0.3012 -0.4265 -0.4124
 2400SOL    HW218834   3.289   0.595   8.841 -0.9711 -0.2331  0.6744
 2401SOL     OW18835   2.809   1.110   6.784 -0.1156 -0.6507  0.1078
 2401SOL    HW118836   2.839   1.087   6.872 -0.0741  0.3334  0.3550
 2401SOL    HW218837   2.858   1.046   6.732 -0.3261 -1.9469  1.5319
 2402SOL     OW18838   2.960   0.359   2.357 -0.0873 -0.6097 -0.3672
 2402SOL    HW118839   2.890   0.416   2.388  0.6116  0.0486  0.0259
 2402SOL    HW218840   2.955   0.289   2.422  0.7948  0.1100  0.4924
 2403SOL     OW18841   0.853   1.470   8.684  0.3785  0.0027  0.5984
 2403SOL    HW118842   0.914   1.542   8.669  0.4468 -0.2942 -0.5484
 2403SOL    HW218843   0.897   1.414   8.747 -0.6666  0.4796  1.7560
 2404SOL     OW18844   1.456   1.307  16.068  0.1229 -0.2221  1.3324
 2404SOL    HW118845   1.514   1.363  16.121  1.4289 -1.1558  0.9050
 2404SOL    HW218846   1.373   1.313  16.115  0.0547 -3.5047  1.6524
 2405SOL     OW18847   3.251   0.817  13.321 -0.0374  0.7026  0.2845
 2405SOL    HW118848   3.345   0.834  13.329  0.3119 -1.4395  0.7051
 2405SOL    HW218849   3.218   0.870  13.249 -1.0217  2.0786  1.7251
 2406SOL     OW18850   0.297   2.561   7.100 -0.4464  0.5222 -0.0427
 2406SOL    HW118851   0.256   2.636   7.057 -1.2894 -1.1850 -2.2083
 2406SOL    HW218852   0.377   2.601   7.134 -1.7970  2.1694  1.1910
 2407SOL     OW18853   1.071   0.717   3.302  0.0128  0.1778 -0.0465
 2407SOL    HW118854   1.153   0.767   3.301  0.3047 -0.3052  2.0051
 2407SOL    HW218855   1.103   0.631   3.329  0.1090 -0.0256 -0.8062
 2408SOL     OW18856   1.070   3.708   6.577  0.5304  0.4043  0.0017
 2408SOL    HW118857   0.977   3.728   6.566  0.4738 -1.8396 -3.8928
 2408SOL    HW218858   1.108   3.783   6.532  1.5339  1.2218  2.2284
 2409SOL     OW18859   4.445   3.433   6.685  0.0880 -0.5570 -0.1441
 2409SOL    HW118860   4.451   3.511   6.629  1.5217 -0.6466 -0.1085
 2409SOL    HW218861   4.527   3.438   6.734 -1.0889 -1.5772  1.9286
 2410SOL     OW18862   3.278   2.412   3.042 -0.1738 -0.6312 -0.1694
 2410SOL    HW118863   3.346   2.386   2.980  0.5865 -0.0299  0.4083
 2410SOL    HW218864   3.222   2.458   2.981 -0.8623 -1.2142  0.0218
 2411SOL     OW18865   2.950   4.595  10.789 -0.2286 -0.1252  0.3463
 2411SOL    HW118866   3.015   4.664  10.781 -1.1425  0.4812 -1.9278
 2411SOL    HW218867   2.987   4.521  10.740  0.8194  1.7018 -1.5933
 2412SOL     OW18868   2.588   4.420   0.261  0.1503 -0.2343 -0.4924
 2412SOL    HW118869   2.682   4.408   0.275 -0.1366  1.3050  2.7054
 2412SOL    HW218870   2.574   4.514   0.249 -1.1685 -0.6467 -2.2128
 2413SOL     OW18871   0.270   1.571   6.173 -0.1059 -0.0584 -0.4123
 2413SOL    HW118872   0.183   1.610   6.182 -0.1144 -0.5535  1.4964
 2413SOL    HW218873   0.277   1.571   6.077 -0.8249  1.3200 -0.4580
 2414SOL     OW18874   1.633   4.047   9.511  0.0474  0.2565 -0.2606
 2414SOL    HW118875   1.722   4.018   9.490  0.2206  1.7720 -1.6424
 2414SOL    HW218876   1.652   4.103   9.586  2.3318 -1.9918  0.8408
 2415SOL     OW18877   3.222   3.692   1.527  0.1220 -0.1523  0.3277
 2415SOL    HW118878   3.163   3.729   1.461  0.5222 -0.7633 -0.3741
 2415SOL    HW218879   3.177   3.729   1.604 -0.1408 -1.8534  0.9952
 2416SOL     OW18880   1.656   0.005   4.032 -0.6305  0.3552  0.1740
 2416SOL    HW118881   1.641   0.090   4.073  2.2802  1.3846 -0.8297
 2416SOL    HW218882   1.584   4.689   4.069  0.1199 -0.6372  0.2635
 2417SOL     OW18883   0.408   3.915   1.442 -0.0697  0.3477  0.2523
 2417SOL    HW118884   0.478   3.948   1.385 -0.0945  1.2841  0.7700
 2417SOL    HW218885   0.369   4.002   1.450  0.9860  0.7067  1.3779
 2418SOL     OW18886   0.325   1.519   3.529  0.5082 -0.1389 -0.0254
 2418SOL    HW118887   0.340   1.469   3.449 -0.3584  1.3016 -1.0927
 2418SOL    HW218888   0.356   1.456   3.594  0.2406  0.1796  0.4104
 2419SOL     OW18889   1.994   1.148   7.534  0.2506  0.8820  0.2516
 2419SOL    HW118890   1.915   1.194   7.508 -0.7469 -0.5409  0.7900
 2419SOL    HW218891   2.060   1.173   7.469  0.7454 -1.3390 -0.0889
 2420SOL     OW18892   2.674   2.750   9.469  0.1095 -0.3548 -0.0003
 2420SOL    HW118893   2.648   2.713   9.553 -2.0995  2.2078  0.4626
 2420SOL    HW218894   2.617   2.702   9.408 -0.7107  0.2695  0.2659
 2421SOL     OW18895   2.570   4.359  15.406 -0.9409  0.3872 -0.2607
 2421SOL    HW118896   2.607   4.412  15.477  1.4869 -0.4942 -0.8420
 2421SOL    HW218897   2.488   4.407  15.397 -2.0870 -1.3279  0.8702
 2422SOL     OW18898   2.009   4.188   5.269 -0.1436  0.4319  0.3852
 2422SOL    HW118899   2.033   4.190   5.176 -1.3198  1.4003  0.0948
 2422SOL    HW218900   2.096   4.171   5.305  0.2279  2.0655  0.2757
 2423SOL     OW18901   3.034   2.237   6.492  0.1297 -0.3934  0.9186
 2423SOL    HW118902   3.099   2.205   6.554  0.5554  1.1371  1.2608
 2423SOL    HW218903   3.088   2.309   6.459 -1.7087 -0.0477 -1.3205
 2424SOL     OW18904   1.879   1.064  17.139 -0.2678 -0.5460 -0.0883
 2424SOL    HW118905   1.799   1.013  17.146 -0.8982  0.3571 -0.6534
 2424SOL    HW218906   1.850   1.145  17.182 -0.3124 -0.1272 -0.9048
 2425SOL     OW18907   3.142   2.169  17.643  0.1073  0.1242 -0.0472
 2425SOL    HW118908   3.216   2.117  17.612 -0.8976 -1.2377 -0.1525
 2425SOL    HW218909   3.124   2.143  17.733 -1.4869  4.3460  0.8362
 2426SOL     OW18910   2.486   2.976  16.518 -0.3965  0.1790  0.6416
 2426SOL    HW118911   2.442   2.892  16.508 -0.0517 -0.0326  0.9023
 2426SOL    HW218912   2.480   2.977  16.614 -3.1208  1.6673  0.4718
 2427SOL     OW18913   0.514   2.845   3.215  0.1410 -0.0805 -0.2890
 2427SOL    HW118914   0.473   2.928   3.190  0.4848  0.9375  2.5236
 2427SOL    HW218915   0.484   2.827   3.305  1.8860 -0.0048  0.3025
 2428SOL     OW18916   0.547   0.023   9.446 -0.4204  0.8489 -0.4451
 2428SOL    HW118917   0.547   4.724   9.357  1.6777  0.7047 -0.3903
 2428SOL    HW218918   0.590   0.107   9.432 -0.5726  0.8741 -0.7567
 2429SOL     OW18919   1.106   2.302   8.508  0.0128 -0.0037  0.0427
 2429SOL    HW118920   1.020   2.309   8.467 -0.5323 -0.4136  1.1174
 2429SOL    HW218921   1.089   2.344   8.592  0.0778 -0.2393  0.1726
 2430SOL     OW18922   4.197   3.087   3.950  0.0175 -0.5726  0.2766
 2430SOL    HW118923   4.167   3.176   3.935  3.9664  0.6028 -0.8453
 2430SOL    HW218924   4.248   3.092   4.030 -0.0958  1.5268  0.2033
 2431SOL     OW18925   0.991   3.793  13.502  0.1973  0.1611 -0.0271
 2431SOL    HW118926   1.046   3.793  13.580  0.0516  1.8470  0.0661
 2431SOL    HW218927   1.058   3.768  13.438  0.4286 -2.0769  1.1141
 2432SOL     OW18928   2.226   4.679   0.404  0.0322 -0.7016  0.1180
 2432SOL    HW118929   2.314   4.707   0.380 -1.0075  0.1524 -2.7435
 2432SOL    HW218930   2.201   0.008   0.470  1.4027  0.8552 -0.8933
 2433SOL     OW18931   2.946   4.312   8.657  0.1306  0.3190 -0.4406
 2433SOL    HW118932   2.852   4.322   8.675  0.0423 -0.2254 -0.5910
 2433SOL    HW218933   2.978   4.313   8.747 -5.2251 -3.3572  1.5377
 2434SOL     OW18934   3.270   0.795   8.422  0.0801 -0.4930  0.0519
 2434SOL    HW118935   3.311   0.824   8.341  1.3452  2.4304  1.7441
 2434SOL    HW218936   3.310   0.863   8.476  3.1384 -1.6059 -0.7966
 2435SOL     OW18937   0.077   3.727   8.788  0.5961 -0.3913  0.3216
 2435SOL    HW118938   0.159   3.749   8.832  0.8611  0.8733 -0.7942
 2435SOL    HW218939   0.111   3.717   8.699  0.4014  0.4041  0.1509
 2436SOL     OW18940   2.357   1.764   1.745 -0.2400  0.1580 -0.5666
 2436SOL    HW118941   2.354   1.804   1.658  1.0686  0.7479 -0.3432
 2436SOL    HW218942   2.450   1.742   1.756  0.1844  2.6443  0.9300
 2437SOL     OW18943   4.093   1.269  10.015  0.5480 -0.1351  0.1387
 2437SOL    HW118944   4.066   1.332   9.948  2.8700  1.2320  0.4703
 2437SOL    HW218945   4.006   1.229  10.019 -0.6776  2.5734  1.3186
 2438SOL     OW18946   0.800   1.727   0.145  0.1606  0.0117 -0.0624
 2438SOL    HW118947   0.874   1.676   0.177  0.0971 -0.0660 -0.0385
 2438SOL    HW218948   0.795   1.697   0.054 -0.4126 -0.0143 -0.0241
 2439SOL     OW18949   3.048   3.400   0.960  0.2746 -0.0960  0.1579
 2439SOL    HW118950   3.036   3.309   0.935  0.7609  0.1634 -1.0188
 2439SOL    HW218951   3.141   3.411   0.940 -0.3713 -1.8525 -3.8290
 2440SOL     OW18952   1.443   2.347  16.670  0.1704 -0.2288  0.0389
 2440SOL    HW118953   1.420   2.409  16.739 -3.3628 -1.5330  0.0531
 2440SOL    HW218954   1.359   2.306  16.652 -0.3027 -0.5585  3.0904
 2441SOL     OW18955   2.157   3.682   4.410 -0.5644  0.1084  0.1874
 2441SOL    HW118956   2.100   3.617   4.450 -0.1221 -0.8195 -0.7132
 2441SOL    HW218957   2.104   3.762   4.414 -1.5786 -0.6110  1.1646
 2442SOL     OW18958   3.144   0.654   3.753 -0.3382  0.3461  0.6271
 2442SOL    HW118959   3.072   0.612   3.800 -0.2316  1.1176  1.4756
 2442SOL    HW218960   3.181   0.575   3.713  1.1881 -0.1136  2.9876
 2443SOL     OW18961   2.045   4.376   3.229 -0.7030 -0.2242 -0.7727
 2443SOL    HW118962   1.956   4.393   3.198 -2.0817 -1.6165  2.4681
 2443SOL    HW218963   2.087   4.387   3.143  1.8888 -0.9893  0.3881
 2444SOL     OW18964   3.253   1.877   5.990  0.5481  0.2969 -0.3952
 2444SOL    HW118965   3.315   1.882   6.063 -0.4762 -2.0060  0.6394
 2444SOL    HW218966   3.165   1.870   6.026  1.3150 -0.1343  1.4156
 2445SOL     OW18967   1.103   1.160   2.549 -0.2981  0.0093 -0.0741
 2445SOL    HW118968   1.067   1.087   2.499  0.9529  0.1010 -1.1071
 2445SOL    HW218969   1.172   1.197   2.494 -0.6523  0.1861 -0.4108
 2446SOL     OW18970   4.380   1.276  16.878  0.4033  0.8672  0.7606
 2446SOL    HW118971   4.461   1.317  16.846  0.4873  0.7551  0.8300
 2446SOL    HW218972   4.417   1.209  16.936 -1.4077 -0.5501  0.2508
 2447SOL     OW18973   0.950   4.487   6.063 -0.0514  0.0848 -0.1351
 2447SOL    HW118974   0.989   4.457   5.982  1.8234 -0.7469  1.0888
 2447SOL    HW218975   1.023   4.521   6.115 -1.4095 -0.8712  2.4146
 2448SOL     OW18976   1.922   0.654   5.256  0.3212  0.0544  0.6240
 2448SOL    HW118977   1.883   0.720   5.313  1.4942  1.2985  0.0020
 2448SOL    HW218978   1.959   0.592   5.318 -2.7998 -0.9772  1.4606
 2449SOL     OW18979   0.426   3.820   1.035 -0.0115  0.1787 -0.7616
 2449SOL    HW118980   0.510   3.843   1.074  0.8504 -2.5150 -1.0230
 2449SOL    HW218981   0.436   3.726   1.023 -1.3260 -0.3608  2.3055
 2450SOL     OW18982   1.924   4.610   6.831  0.3013 -0.2764  0.3991
 2450SOL    HW118983   1.838   4.630   6.868 -0.2505 -2.7408  0.3937
 2450SOL    HW218984   1.937   4.684   6.771  1.2557 -1.6238 -1.0675
 2451SOL     OW18985   2.326   2.272   9.058 -0.0359  0.1343 -0.8531
 2451SOL    HW118986   2.293   2.195   9.105 -1.4276  1.9914  1.2315
 2451SOL    HW218987   2.246   2.322   9.040  0.3972  0.6203 -1.4283
 2452SOL     OW18988   2.358   3.909   8.650  0.0028 -0.0883 -0.2226
 2452SOL    HW118989   2.344   4.001   8.625 -1.8214 -0.3847 -0.2641
 2452SOL    HW218990   2.403   3.870   8.575 -0.9392  0.0858 -0.8731
 2453SOL     OW18991   4.354   3.920   2.617  1.1481 -0.1454  0.7134
 2453SOL    HW118992   4.293   3.977   2.568 -0.8195 -2.2550  0.7075
 2453SOL    HW218993   4.413   3.985   2.655 -1.7528  3.1900 -0.4018
 2454SOL     OW18994   1.266   1.630   3.237 -0.1983 -0.3215 -0.3363
 2454SOL    HW118995   1.323   1.627   3.314 -1.6548 -1.0507  0.6995
 2454SOL    HW218996   1.313   1.696   3.185  0.9760 -0.4988  0.5042
 2455SOL     OW18997   2.820   4.581   6.548  0.2538 -0.0319 -0.0778
 2455SOL    HW118998   2.849   4.580   6.457 -0.2163  0.8755 -0.2422
 2455SOL    HW218999   2.840   4.674   6.564  0.2373  0.3703 -2.3880
 2456SOL     OW19000   3.255   3.154   6.459  0.3995  0.4419  0.4953
 2456SOL    HW119001   3.167   3.174   6.491 -0.6673  1.5918 -3.2479
 2456SOL    HW219002   3.253   3.058   6.466 -2.4870  0.3751 -1.4042
 2457SOL     OW19003   3.342   1.678   1.679  0.1876  0.2121  0.5937
 2457SOL    HW119004   3.426   1.647   1.646  0.3185  0.8610  0.3006
 2457SOL    HW219005   3.301   1.592   1.682 -0.7699  0.5828 -1.4363
 2458SOL     OW19006   0.899   1.815  16.344 -0.2531  0.0771 -0.0424
 2458SOL    HW119007   0.843   1.885  16.309 -0.8527  0.0205  0.8108
 2458SOL    HW219008   0.936   1.858  16.420 -2.5111  1.1727  0.4333
 2459SOL     OW19009   2.940   0.419   3.303 -0.6270  0.3915  0.3369
 2459SOL    HW119010   2.956   0.370   3.383 -3.4394  0.4685  0.9311
 2459SOL    HW219011   3.014   0.480   3.297  0.2352 -0.6391  0.5456
 2460SOL     OW19012   1.168   3.442   3.880 -0.6239 -0.2238 -0.0063
 2460SOL    HW119013   1.146   3.400   3.797 -0.3811  0.5015 -0.4344
 2460SOL    HW219014   1.081   3.436   3.921 -0.8254  1.7924 -0.1633
 2461SOL     OW19015   0.552   0.635   1.822  0.0149  0.1169 -0.4142
 2461SOL    HW119016   0.588   0.719   1.851 -0.0558 -0.4567  1.3094
 2461SOL    HW219017   0.472   0.624   1.873 -0.0796 -1.7320 -0.9715
 2462SOL     OW19018   1.035   3.723   9.142 -0.1349  0.2148  1.0312
 2462SOL    HW119019   1.038   3.644   9.088 -2.1309  0.2619  0.8481
 2462SOL    HW219020   1.129   3.741   9.142 -0.1032  0.0203  0.0563
 2463SOL     OW19021   0.375   3.159  16.984 -0.5781 -0.6596 -0.2449
 2463SOL    HW119022   0.341   3.070  16.993 -0.3211 -0.5369  1.8376
 2463SOL    HW219023   0.450   3.156  16.924 -1.7620 -0.1986 -1.7301
 2464SOL     OW19024   3.402   2.566  15.998 -0.2080 -0.3214  0.8639
 2464SOL    HW119025   3.427   2.544  16.088  2.5111 -0.8929 -0.0189
 2464SOL    HW219026   3.487   2.551  15.956 -0.3903  2.4784 -0.5064
 2465SOL     OW19027   0.609   0.446  12.141 -0.0729 -0.2433 -0.3114
 2465SOL    HW119028   0.569   0.417  12.058 -0.6597  0.2798 -0.2128
 2465SOL    HW219029   0.679   0.502  12.108  0.9780 -0.4374  1.5964
 2466SOL     OW19030   4.514   4.402   4.181 -0.4434  0.4320 -0.3609
 2466SOL    HW119031   4.571   4.353   4.241 -0.1677  1.0611 -0.1096
 2466SOL    HW219032   4.458   4.331   4.149 -0.4457  0.8701 -1.3112
 2467SOL     OW19033   1.089   3.566  17.081  0.0373  0.4892 -0.4978
 2467SOL    HW119034   1.119   3.513  17.006 -0.4118 -0.0610 -0.2843
 2467SOL    HW219035   1.006   3.524  17.103  0.0561 -0.3679 -2.0151
 2468SOL     OW19036   0.997   1.549  11.373 -0.2993  0.2130 -0.4781
 2468SOL    HW119037   0.929   1.569  11.437 -2.8757 -1.0296 -2.8662
 2468SOL    HW219038   0.986   1.624  11.315 -1.3307  0.2038 -0.2897
 2469SOL     OW19039   4.531   3.500   8.835 -0.0778 -0.3864 -0.2755
 2469SOL    HW119040   4.522   3.422   8.890  1.0080  1.1839  2.1045
 2469SOL    HW219041   4.625   3.498   8.818 -0.0028  0.8860 -0.0254
 2470SOL     OW19042   1.913   2.073   7.231 -0.2419  0.2789 -0.2366
 2470SOL    HW119043   1.970   2.121   7.291  0.9328 -1.2254 -0.1415
 2470SOL    HW219044   1.892   2.145   7.173 -0.6899 -0.5926 -1.1565
 2471SOL     OW19045   2.947   0.619   4.868 -0.2600  0.2160  0.5494
 2471SOL    HW119046   2.983   0.537   4.903  0.8233 -0.0319 -1.1588
 2471SOL    HW219047   3.021   0.670   4.901 -1.0801  2.4601 -1.1301
 2472SOL     OW19048   2.148   0.429  16.861  0.1557  0.3466 -0.5571
 2472SOL    HW119049   2.181   0.348  16.822  2.9466  0.9902  0.4905
 2472SOL    HW219050   2.095   0.393  16.933  2.0005  0.0165  0.6344
 2473SOL     OW19051   1.071   2.411   1.299 -0.7870  0.2482  0.1643
 2473SOL    HW119052   1.137   2.425   1.367 -1.8526  2.0522  0.8283
 2473SOL    HW219053   0.994   2.429   1.351  0.8896  0.5513  2.5371
 2474SOL     OW19054   4.396   1.829   4.818  0.0237 -0.2945  0.0464
 2474SOL    HW119055   4.310   1.848   4.782  0.0708  1.0550  0.6671
 2474SOL    HW219056   4.368   1.766   4.885 -2.0335  1.9310  1.2513
 2475SOL     OW19057   2.036   4.332   5.586 -0.5262  0.0567 -0.8428
 2475SOL    HW119058   2.024   4.245   5.626 -0.7781  0.2631 -0.4639
 2475SOL    HW219059   2.118   4.312   5.542  0.5047  1.3763  0.4743
 2476SOL     OW19060   1.965   0.726   6.882  0.1409 -0.3129  0.3857
 2476SOL    HW119061   1.913   0.702   6.806 -0.0117 -2.8090  1.2721
 2476SOL    HW219062   2.042   0.672   6.863  0.1149  0.0726 -0.8063
 2477SOL     OW19063   3.969   2.908   8.885 -0.5848  0.0427  0.2328
 2477SOL    HW119064   3.932   2.922   8.972  0.6046 -1.8212  1.0567
 2477SOL    HW219065   3.994   2.815   8.889  0.9487  0.4736  0.8737
 2478SOL     OW19066   3.715   0.490   7.598  0.5416  0.4353  0.2244
 2478SOL    HW119067   3.637   0.456   7.643  1.2460  0.2970  1.3213
 2478SOL    HW219068   3.771   0.414   7.611 -2.3600 -1.7106  0.3505
 2479SOL     OW19069   0.997   2.502   2.018 -0.1629 -0.2451  0.0102
 2479SOL    HW119070   1.068   2.520   1.956  0.2245  0.5471  0.6908
 2479SOL    HW219071   1.011   2.570   2.084 -1.7318 -0.1321  0.2275
 2480SOL     OW19072   0.363   0.874   8.356  0.2091  0.3003  0.1335
 2480SOL    HW119073   0.417   0.847   8.431  1.2005  2.9573  0.3884
 2480SOL    HW219074   0.426   0.870   8.284 -0.6383  1.7637 -0.6776
 2481SOL     OW19075   0.029   0.856   8.068 -0.4258 -0.0550  0.4261
 2481SOL    HW119076   4.718   0.896   8.141 -0.5406  0.4060  0.1016
 2481SOL    HW219077   0.071   0.779   8.105  0.3795  0.6228  0.9170
 2482SOL     OW19078   1.789   3.221   0.842  0.1051 -0.1437  0.2752
 2482SOL    HW119079   1.748   3.283   0.781 -0.7615 -0.0971  0.9066
 2482SOL    HW219080   1.777   3.266   0.926 -0.4156  0.9122 -0.3563
 2483SOL     OW19081   4.308   3.991   6.468  0.4720 -0.2707  0.3081
 2483SOL    HW119082   4.261   4.074   6.473 -1.6398 -1.3649 -0.9580
 2483SOL    HW219083   4.346   3.985   6.380  2.0328  1.4523  0.8795
 2484SOL     OW19084   3.568   0.346   9.236 -0.3734 -0.4694 -0.2101
 2484SOL    HW119085   3.475   0.363   9.220 -0.2571 -1.4063 -1.8304
 2484SOL    HW219086   3.602   0.315   9.152 -1.7022  2.4957 -1.8356
 2485SOL     OW19087   1.583   1.994   7.996 -0.3168  0.6262 -0.5392
 2485SOL    HW119088   1.523   1.920   7.989  0.3321 -0.0781  1.5017
 2485SOL    HW219089   1.623   2.019   7.912 -0.9708 -0.9241 -1.3095
 2486SOL     OW19090   0.020   0.116   6.745 -0.4593  0.1289 -0.4282
 2486SOL    HW119091   0.053   0.196   6.703 -1.4711  0.2615 -0.9714
 2486SOL    HW219092   4.725   0.051   6.682  2.2525 -1.2338 -0.3175
 2487SOL     OW19093   0.816   3.286   7.689 -0.3285 -0.1369  0.5442
 2487SOL    HW119094   0.898   3.314   7.649 -0.5249  0.4613  0.5501
 2487SOL    HW219095   0.751   3.312   7.623 -0.1725 -3.5403 -0.9212
 2488SOL     OW19096   2.954   3.044  15.191 -0.1391 -0.0520  0.1264
 2488SOL    HW119097   2.953   3.097  15.111  0.3531  0.5501  0.5204
 2488SOL    HW219098   3.036   2.995  15.183 -0.5788 -0.3391 -2.5734
 2489SOL     OW19099   3.044   4.376   2.617  0.1533  0.5346  0.1168
 2489SOL    HW119100   2.974   4.413   2.672  2.6760  0.9775  3.0148
 2489SOL    HW219101   3.119   4.402   2.671 -0.6523 -3.2321  3.0627
 2490SOL     OW19102   1.504   4.649   8.045  0.2062  0.2095  0.1888
 2490SOL    HW119103   1.545   4.734   8.063 -1.6712  1.1435  0.1227
 2490SOL    HW219104   1.484   4.671   7.954  2.2647 -0.5887 -0.4677
 2491SOL     OW19105   0.457   3.972   6.214  0.3523  0.1073  0.1944
 2491SOL    HW119106   0.521   4.010   6.153  0.8968 -1.8196 -0.4305
 2491SOL    HW219107   0.435   4.054   6.258  0.3056  1.5052 -2.4058
 2492SOL     OW19108   2.951   1.355   4.625  0.0029 -0.6948  0.4329
 2492SOL    HW119109   2.927   1.324   4.713 -1.0076  1.9533  1.0985
 2492SOL    HW219110   2.880   1.420   4.617  1.1158  0.4873  0.1844
 2493SOL     OW19111   4.322   0.128   3.744 -0.0930  0.1268  0.7519
 2493SOL    HW119112   4.331   0.075   3.665  1.0144  2.5380 -0.7454
 2493SOL    HW219113   4.414   0.150   3.755 -0.1093  0.4041  0.3355
 2494SOL     OW19114   2.728   0.002  15.721 -0.2432 -0.5020 -0.6296
 2494SOL    HW119115   2.802   0.030  15.666  2.0717 -1.6690  1.8978
 2494SOL    HW219116   2.766   0.017  15.807 -1.8007 -0.9091  0.1283
 2495SOL     OW19117   3.489   1.536   2.895  0.8164 -0.2467  0.0967
 2495SOL    HW119118   3.530   1.622   2.882  0.1178 -0.2766 -2.3021
 2495SOL    HW219119   3.397   1.562   2.894  0.9032  0.0781  2.0053
 2496SOL     OW19120   0.287   0.973   4.651  0.4544  0.3554  0.2651
 2496SOL    HW119121   0.360   0.980   4.712 -0.6567 -1.7632  1.8063
 2496SOL    HW219122   0.234   1.048   4.678  0.4134  1.0782 -1.7717
 2497SOL     OW19123   3.140   2.835   3.835  0.2282  0.3405 -0.5139
 2497SOL    HW119124   3.121   2.929   3.837  2.5308  0.7927 -0.8934
 2497SOL    HW219125   3.208   2.816   3.899  1.0585  1.5227 -1.0641
 2498SOL     OW19126   2.966   0.713   8.679  0.8508 -0.5460  1.0208
 2498SOL    HW119127   3.045   0.690   8.630  1.3840  1.4416  0.9328
 2498SOL    HW219128   2.934   0.623   8.689 -1.6041  0.1942 -0.0995
 2499SOL     OW19129   2.746   0.927   5.322 -0.0419  0.0620 -0.2964
 2499SOL    HW119130   2.677   0.938   5.257 -0.1178  2.6934  0.2034
 2499SOL    HW219131   2.725   0.993   5.388  2.3554  1.6233 -1.0890
 2500SOL     OW19132   2.932   3.155   3.010  0.4609  0.1584  0.6677
 2500SOL    HW119133   2.864   3.178   3.074  1.3488 -0.3775  1.8018
 2500SOL    HW219134   2.997   3.217   3.043  0.8293  0.1687 -0.0694
 2501SOL     OW19135   0.042   2.800   9.092  0.2387 -0.2287 -0.0467
 2501SOL    HW119136   4.730   2.857   9.152  0.9242 -0.2412  0.5176
 2501SOL    HW219137   0.111   2.783   9.157 -0.0691 -1.5558 -0.0695
 2502SOL     OW19138   3.466   0.808   2.851 -0.3220  0.4575  0.0492
 2502SOL    HW119139   3.371   0.801   2.850 -0.1580 -1.6790 -1.0801
 2502SOL    HW219140   3.492   0.728   2.806 -0.6274  0.3299  0.1025
 2503SOL     OW19141   1.696   0.894   6.166 -0.3881  0.2033  0.5517
 2503SOL    HW119142   1.662   0.865   6.082  2.9721  0.3628 -0.8632
 2503SOL    HW219143   1.666   0.819   6.217  0.0878 -0.0175  0.4979
 2504SOL     OW19144   3.498   1.288   0.537  0.6242 -0.2709 -0.1508
 2504SOL    HW119145   3.549   1.209   0.552 -0.7525 -0.7161  2.2238
 2504SOL    HW219146   3.561   1.359   0.550 -0.1930  0.5704 -0.6958
 2505SOL     OW19147   4.732   1.895   5.225 -0.0714  0.4970 -0.1587
 2505SOL    HW119148   4.659   1.880   5.165  0.9933  0.2535 -1.3857
 2505SOL    HW219149   4.716   1.820   5.283  0.7196 -1.3144 -2.2775
 2506SOL     OW19150   2.284   3.167   2.658 -0.7135  0.4732 -0.2118
 2506SOL    HW119151   2.367   3.197   2.695 -1.2159  1.8954 -0.2021
 2506SOL    HW219152   2.290   3.072   2.660  1.3488  0.5805 -1.2849
 2507SOL     OW19153   4.309   2.761   5.978 -0.4667 -0.4498 -0.0247
 2507SOL    HW119154   4.370   2.721   6.040  1.5940  0.3649 -1.5318
 2507SOL    HW219155   4.251   2.685   5.970 -2.7573  1.1067  1.5475
 2508SOL     OW19156   1.814   4.435   7.551 -0.1862 -0.0023 -0.4421
 2508SOL    HW119157   1.880   4.499   7.578  0.0002  0.0596 -1.0467
 2508SOL    HW219158   1.831   4.426   7.457  0.7616 -0.3865 -0.2406
 2509SOL     OW19159   3.536   2.479   8.043 -0.0007 -0.5080  0.5365
 2509SOL    HW119160   3.600   2.534   8.088 -0.6878  0.9566 -0.2534
 2509SOL    HW219161   3.455   2.530   8.054  1.4033  1.4970  1.7914
 2510SOL     OW19162   4.230   3.962   5.506 -0.4950  0.2606  0.1398
 2510SOL    HW119163   4.223   3.971   5.411 -0.1185 -2.3010 -0.1233
 2510SOL    HW219164   4.235   3.869   5.524  1.1264  0.3602  0.2756
 2511SOL     OW19165   2.878   1.466   2.097  0.0711  0.1876  0.1858
 2511SOL    HW119166   2.800   1.423   2.062  2.3590 -2.0170 -2.2429
 2511SOL    HW219167   2.864   1.446   2.189  0.6808 -0.3208  0.1694
 2512SOL     OW19168   4.236   1.516   8.375 -0.1956  0.5159 -0.2748
 2512SOL    HW119169   4.317   1.552   8.411 -0.4498  0.9821 -0.1720
 2512SOL    HW219170   4.170   1.543   8.438 -0.4053  0.9506 -0.6773
 2513SOL     OW19171   0.602   4.427   6.882 -0.2805 -0.0208 -0.0567
 2513SOL    HW119172   0.687   4.470   6.894  1.8568 -3.8700 -1.3011
 2513SOL    HW219173   0.536   4.479   6.928 -0.1363  0.7031 -0.6654
 2514SOL     OW19174   2.385   2.072   5.019 -0.3016 -0.3126 -0.2316
 2514SOL    HW119175   2.360   1.980   5.009 -2.9682  0.5642 -1.7030
 2514SOL    HW219176   2.478   2.061   5.040 -0.1426  1.4579 -0.0016
 2515SOL     OW19177   0.358   0.111  13.747 -0.0802 -0.0499  0.6519
 2515SOL    HW119178   0.414   0.129  13.823  0.0618  3.2598 -0.2128
 2515SOL    HW219179   0.406   0.044  13.699  0.7001  2.1352 -1.6497
 2516SOL     OW19180   0.760   4.159   2.818 -0.3409 -0.0249 -0.5771
 2516SOL    HW119181   0.787   4.226   2.756  0.4727  1.2696  1.1838
 2516SOL    HW219182   0.841   4.107   2.821 -0.8224 -0.6108  2.3729
 2517SOL     OW19183   0.714   4.421   4.852 -0.8042  0.3178  0.2779
 2517SOL    HW119184   0.801   4.447   4.884 -0.1642  1.1147 -2.1409
 2517SOL    HW219185   0.653   4.436   4.925  0.3971  1.0072  1.1395
 2518SOL     OW19186   2.482   1.906  14.929 -0.5068 -0.1142 -0.4435
 2518SOL    HW119187   2.496   1.876  15.019 -0.3625 -0.4995 -0.5959
 2518SOL    HW219188   2.567   1.877  14.896 -0.6010 -1.0383  0.1453
 2519SOL     OW19189   1.310   2.548   4.064  0.4740 -0.1749  0.0916
 2519SOL    HW119190   1.335   2.621   4.007  0.2080  1.0473  1.5228
 2519SOL    HW219191   1.366   2.552   4.141  0.7787 -0.8884 -0.0984
 2520SOL     OW19192   4.034   4.705   8.573 -0.3330  0.2493  0.4552
 2520SOL    HW119193   4.127   4.683   8.574 -0.2153  0.6773 -1.7743
 2520SOL    HW219194   3.991   4.619   8.573 -1.7713  0.9482  2.5511
 2521SOL     OW19195   1.256   1.745   6.723  0.2046 -0.2361 -0.0670
 2521SOL    HW119196   1.193   1.790   6.667 -0.0460 -0.5282 -0.0215
 2521SOL    HW219197   1.310   1.816   6.758 -0.0177 -1.3469  2.5409
 2522SOL     OW19198   0.188   0.549  12.715  0.4086  0.2533 -0.3015
 2522SOL    HW119199   0.167   0.474  12.771  2.7783 -0.3995 -0.2828
 2522SOL    HW219200   0.282   0.537  12.709  0.1784 -0.2372 -3.3068
 2523SOL     OW19201   0.797   2.537  12.956  0.9327 -0.3777 -0.0547
 2523SOL    HW119202   0.727   2.493  13.004  0.0636  0.3080 -0.7061
 2523SOL    HW219203   0.751   2.593  12.894  0.1046  1.1949  1.9572
 2524SOL     OW19204   1.880   4.098   9.063 -0.2150  0.5657 -0.2274
 2524SOL    HW119205   1.928   4.178   9.038  0.1404  0.3777 -0.1504
 2524SOL    HW219206   1.949   4.034   9.043  0.6079  0.5242  2.7039
 2525SOL     OW19207   1.015   2.410   5.059 -0.5882 -0.1030  0.0570
 2525SOL    HW119208   1.005   2.482   5.122  0.6689  1.3764 -1.4300
 2525SOL    HW219209   0.922   2.408   5.038 -0.8709  0.0534  1.2978
 2526SOL     OW19210   2.556   3.133  14.537  0.4587  0.2746 -0.5645
 2526SOL    HW119211   2.595   3.045  14.539  0.6721  0.4265  1.6123
 2526SOL    HW219212   2.464   3.128  14.562  0.8665  1.5985  1.1806
 2527SOL     OW19213   3.462   0.791   3.685  0.1334  0.4558  0.2172
 2527SOL    HW119214   3.485   0.739   3.762 -0.7186 -1.1226 -0.5968
 2527SOL    HW219215   3.461   0.869   3.740 -0.3321  1.0314 -0.6022
 2528SOL     OW19216   1.612   0.011  16.939 -0.4768 -0.0233 -0.7734
 2528SOL    HW119217   1.606   0.077  17.007  1.6769 -1.6635  1.0317
 2528SOL    HW219218   1.604   0.066  16.861  0.7977  1.0025 -0.1852
 2529SOL     OW19219   2.507   0.616  15.184  0.7870 -0.6075 -0.1193
 2529SOL    HW119220   2.521   0.603  15.278 -1.1326  0.9572  0.3620
 2529SOL    HW219221   2.577   0.560  15.149  1.6863 -1.2771  2.7237
 2530SOL     OW19222   0.691   1.848   8.351 -0.3614 -0.1978 -0.1581
 2530SOL    HW119223   0.708   1.755   8.335  0.5047  0.1690 -1.3544
 2530SOL    HW219224   0.760   1.888   8.299 -0.2526 -0.2598 -0.0605
 2531SOL     OW19225   2.380   2.037   2.091 -0.1299 -0.7414 -0.5477
 2531SOL    HW119226   2.451   2.076   2.040 -0.1300 -0.1146 -0.0659
 2531SOL    HW219227   2.331   2.003   2.016  0.2811  0.7686 -1.5029
 2532SOL     OW19228   0.069   0.109   4.997  0.5420  0.5192 -0.2095
 2532SOL    HW119229   0.125   0.051   4.945 -1.0352 -0.9647 -0.2164
 2532SOL    HW219230   0.123   0.188   5.005  0.4203  0.5612  0.1669
 2533SOL     OW19231   2.732   1.578   3.783  0.5892 -0.1668  0.4645
 2533SOL    HW119232   2.648   1.569   3.738  0.4483  1.6784  0.3382
 2533SOL    HW219233   2.791   1.515   3.742  3.7270  1.6902  2.1599
 2534SOL     OW19234   3.456   2.814   1.379  1.0471 -0.1508 -0.0289
 2534SOL    HW119235   3.382   2.760   1.406  0.8217 -0.4494 -1.2378
 2534SOL    HW219236   3.422   2.900   1.403  0.0777 -1.1383  2.1503
 2535SOL     OW19237   3.403   3.786   7.099 -0.3242  0.0259  0.6874
 2535SOL    HW119238   3.340   3.715   7.088  1.2643 -1.2438 -0.2372
 2535SOL    HW219239   3.364   3.870   7.124 -0.0620  0.1342  0.7401
 2536SOL     OW19240   4.091   4.176  17.122 -0.3987 -0.4314 -0.1440
 2536SOL    HW119241   4.073   4.253  17.069 -2.5799 -0.5772  0.3911
 2536SOL    HW219242   4.122   4.110  17.059  0.8527  1.5221 -1.5719
 2537SOL     OW19243   3.283   2.545   8.911 -0.0934  0.1914 -0.3608
 2537SOL    HW119244   3.255   2.566   9.000 -2.2529  0.1450 -1.0128
 2537SOL    HW219245   3.376   2.550   8.933 -0.2912  0.9962  0.2902
 2538SOL     OW19246   0.546   3.320   8.854  0.2610  0.0215  0.4531
 2538SOL    HW119247   0.455   3.347   8.854  0.1714 -0.2754  1.4149
 2538SOL    HW219248   0.571   3.376   8.928  1.1021  0.6489 -0.2992
 2539SOL     OW19249   3.435   1.374   6.110 -0.6995  0.6187 -0.3737
 2539SOL    HW119250   3.390   1.397   6.029 -3.2297 -4.7383 -0.5479
 2539SOL    HW219251   3.522   1.411   6.101  0.1181 -0.6366  2.1114
 2540SOL     OW19252   0.510   1.271   3.098  0.0240  0.1584 -0.4709
 2540SOL    HW119253   0.546   1.183   3.086 -1.5899 -0.8902  2.6918
 2540SOL    HW219254   0.492   1.287   3.005  0.3530  1.5710 -0.2996
 2541SOL     OW19255   2.705   0.819   7.653 -0.7698  0.9856 -0.4261
 2541SOL    HW119256   2.634   0.778   7.604 -0.6656  0.0127  0.2369
 2541SOL    HW219257   2.743   0.741   7.693 -0.1292  1.0716 -0.8630
 2542SOL     OW19258   2.522   3.607   1.757 -0.1851  0.2795  0.1483
 2542SOL    HW119259   2.605   3.563   1.736 -0.4213  0.8035 -1.8991
 2542SOL    HW219260   2.498   3.561   1.837 -1.9460 -2.0045 -1.6777
 2543SOL     OW19261   0.155   4.437   5.745 -0.4974  0.4744 -0.7073
 2543SOL    HW119262   0.219   4.508   5.737 -1.3460  1.1654 -1.4299
 2543SOL    HW219263   0.208   4.358   5.744  0.5182  1.1438  1.5808
 2544SOL     OW19264   2.354   1.277   8.750 -0.0959 -0.2186 -0.6336
 2544SOL    HW119265   2.308   1.306   8.672  1.5235 -1.0096 -1.8874
 2544SOL    HW219266   2.442   1.305   8.727  0.2411 -0.3885  0.4276
 2545SOL     OW19267   2.170   3.939   3.197 -0.1862  0.0840  0.0309
 2545SOL    HW119268   2.189   4.017   3.251 -0.4265 -0.6559  1.1849
 2545SOL    HW219269   2.246   3.934   3.139  0.6537  0.2062  1.1190
 2546SOL     OW19270   0.448   0.316  15.532 -0.3374  0.3489  0.2905
 2546SOL    HW119271   0.519   0.322  15.595  1.1668 -1.3797 -1.2524
 2546SOL    HW219272   0.490   0.297  15.448  1.0687  1.6383  0.7012
 2547SOL     OW19273   0.469   3.253   6.033  0.2292 -0.6434  0.0105
 2547SOL    HW119274   0.496   3.345   6.031 -1.2170 -0.2078  0.0923
 2547SOL    HW219275   0.401   3.247   6.100  0.3519  3.1549  0.5120
 2548SOL     OW19276   3.461   1.945   2.663 -0.2521  0.2759  0.1557
 2548SOL    HW119277   3.397   1.926   2.595  1.2652 -2.5900 -0.4591
 2548SOL    HW219278   3.545   1.945   2.617 -1.0477 -3.4389 -1.3005
 2549SOL     OW19279   0.706   2.446   0.292  0.3923  0.3111 -0.1304
 2549SOL    HW119280   0.623   2.437   0.339  0.4118 -0.5136 -0.2548
 2549SOL    HW219281   0.763   2.380   0.331  0.1465  0.0867 -0.1475
 2550SOL     OW19282   3.067   3.099  10.060  0.1712  0.4846 -0.0161
 2550SOL    HW119283   2.973   3.102  10.080  0.1503 -2.4580  0.3721
 2550SOL    HW219284   3.068   3.115   9.966  2.1382  3.5369  0.5265
 2551SOL     OW19285   2.091   1.248   8.828 -0.4939 -0.3304  0.3951
 2551SOL    HW119286   2.183   1.252   8.854 -0.0215 -0.9949 -1.1310
 2551SOL    HW219287   2.107   1.167   8.779  2.4411 -0.5716  1.7862
 2552SOL     OW19288   1.205   3.434   4.171 -0.2654  0.0953 -0.0367
 2552SOL    HW119289   1.157   3.431   4.088  0.6506 -0.0398 -0.5584
 2552SOL    HW219290   1.134   3.464   4.228 -0.7443 -0.7484 -0.1776
 2553SOL     OW19291   1.290   3.383   1.823 -0.2878  0.3604  0.0751
 2553SOL    HW119292   1.363   3.349   1.772 -1.5326 -1.2393 -0.6505
 2553SOL    HW219293   1.225   3.391   1.753  2.5632 -0.6091 -2.6820
 2554SOL     OW19294   0.019   3.086   2.562 -0.1204  0.1752  0.2341
 2554SOL    HW119295   4.720   3.006   2.522 -0.2036  0.7901 -0.9220
 2554SOL    HW219296   0.058   3.140   2.493  2.6334  0.7037  2.2033
 2555SOL     OW19297   0.862   1.555  16.526 -0.5061  0.6863  0.1545
 2555SOL    HW119298   0.840   1.648  16.531  0.3298  0.8931  0.0145
 2555SOL    HW219299   0.833   1.520  16.610  1.4479 -1.5917 -0.1282
 2556SOL     OW19300   3.099   4.584  16.067 -0.0230 -0.3459 -0.2749
 2556SOL    HW119301   3.076   4.577  15.974 -0.7775  1.7537 -0.2390
 2556SOL    HW219302   3.031   4.642  16.101 -0.6902 -2.1194  1.4031
 2557SOL     OW19303   3.975   0.633  13.642  0.1982 -0.3089  0.6278
 2557SOL    HW119304   4.039   0.575  13.683 -0.9787 -2.8381 -1.0717
 2557SOL    HW219305   3.894   0.584  13.658 -0.1118  0.8596  2.5803
 2558SOL     OW19306   0.879   0.396   6.536  0.5612 -0.0893  0.3504
 2558SOL    HW119307   0.924   0.396   6.621 -0.5636  0.3600  0.9444
 2558SOL    HW219308   0.880   0.300   6.542  0.4770 -0.0708  0.7042
 2559SOL     OW19309   3.222   3.517   6.219 -0.1268 -0.0243 -0.8385
 2559SOL    HW119310   3.275   3.571   6.277 -2.3276  0.4390  0.7254
 2559SOL    HW219311   3.297   3.501   6.162  0.3910  2.5427 -0.8926
 2560SOL     OW19312   2.458   4.684   7.537  0.5732  0.2098 -0.6399
 2560SOL    HW119313   2.376   4.731   7.518  0.2634  0.2422  0.7610
 2560SOL    HW219314   2.419   4.619   7.596 -0.8900  2.1280  0.4972
 2561SOL     OW19315   2.357   1.188   3.016  0.0272 -0.2106 -0.1807
 2561SOL    HW119316   2.283   1.179   3.077 -0.3637 -2.2113 -0.9450
 2561SOL    HW219317   2.324   1.235   2.939 -0.0599  0.0567  0.0201
 2562SOL     OW19318   1.128   2.130  14.512 -0.1157  0.6592  0.1157
 2562SOL    HW119319   1.125   2.175  14.428  0.7287 -1.0547 -0.8321
 2562SOL    HW219320   1.163   2.042  14.498  0.8332  0.9765  0.4970
 2563SOL     OW19321   3.328   2.672   8.099  0.4829  0.2998  0.0718
 2563SOL    HW119322   3.323   2.744   8.037 -1.3500  0.2736  0.2129
 2563SOL    HW219323   3.399   2.693   8.161  1.1314  0.3487 -0.6937
 2564SOL     OW19324   1.719   2.933   6.470 -0.5309  0.1443  0.0053
 2564SOL    HW119325   1.745   2.901   6.383  1.5375  1.9909 -0.0593
 2564SOL    HW219326   1.728   3.028   6.465 -0.8983  0.1236 -1.0875
 2565SOL     OW19327   3.004   0.127   9.253 -0.3764  0.1289 -1.2928
 2565SOL    HW119328   2.944   0.158   9.184  0.2696 -0.1693 -1.9901
 2565SOL    HW219329   2.954   0.133   9.334 -0.3730  1.3822 -1.3857
 2566SOL     OW19330   2.861   3.413  12.028  0.0208 -0.1365  0.3031
 2566SOL    HW119331   2.923   3.378  11.963 -0.6409 -1.4481  0.3693
 2566SOL    HW219332   2.844   3.334  12.079  1.9803 -1.1736 -0.6548
 2567SOL     OW19333   3.376   3.727   7.974 -0.0041 -0.0157 -0.3828
 2567SOL    HW119334   3.405   3.706   8.063 -2.1448 -4.4748 -0.7308
 2567SOL    HW219335   3.404   3.818   7.963 -0.1427  0.3260  2.1191
 2568SOL     OW19336   4.364   2.861   3.124  0.4572  0.3762 -0.0358
 2568SOL    HW119337   4.353   2.818   3.039 -2.4409  0.4862  0.2804
 2568SOL    HW219338   4.301   2.805   3.169  0.8016 -0.2429 -0.3207
 2569SOL     OW19339   0.209   0.310   0.956  0.4930  0.1416  0.0156
 2569SOL    HW119340   0.255   0.301   1.039 -1.7313 -0.0281  1.2318
 2569SOL    HW219341   0.267   0.259   0.898 -0.4983 -1.0981  0.1173
 2570SOL     OW19342   1.250   3.727   5.703 -0.5654 -0.1593  0.9094
 2570SOL    HW119343   1.315   3.683   5.759 -1.2237  0.0410  1.8320
 2570SOL    HW219344   1.237   3.666   5.630 -0.6178  0.4301  0.4271
 2571SOL     OW19345   1.796   0.742   8.398  0.2123  0.5953  0.2148
 2571SOL    HW119346   1.789   0.692   8.317 -1.1496  3.1096 -1.1873
 2571SOL    HW219347   1.863   0.803   8.367 -0.2267  1.3923  0.8241
 2572SOL     OW19348   4.214   3.608   3.296 -0.4191  0.0325 -0.3117
 2572SOL    HW119349   4.238   3.518   3.318  1.0189  0.5205  0.0647
 2572SOL    HW219350   4.293   3.639   3.252  0.7341 -2.7495 -0.2138
 2573SOL     OW19351   1.953   1.047  16.012  0.0686 -0.7347  0.5713
 2573SOL    HW119352   2.014   1.042  15.938 -1.6904 -0.5423 -0.9041
 2573SOL    HW219353   1.871   1.011  15.980  0.2488 -1.7756  1.2915
 2574SOL     OW19354   1.782   0.527   0.379 -0.2504  0.3032 -0.4277
 2574SOL    HW119355   1.776   0.460   0.447 -1.7856  1.3805  0.4885
 2574SOL    HW219356   1.875   0.537   0.361 -0.2444  2.1807  0.6193
 2575SOL     OW19357   0.164   0.071   6.990  0.1955  0.6446  0.0419
 2575SOL    HW119358   0.095   0.081   6.924  0.1188  1.7018  0.2795
 2575SOL    HW219359   0.218   0.003   6.950  1.2403  2.1412 -1.0855
 2576SOL     OW19360   0.884   3.001   7.190 -0.3628  0.9126  0.3161
 2576SOL    HW119361   0.976   2.980   7.176  0.2469  1.7031  3.0843
 2576SOL    HW219362   0.885   3.093   7.218 -1.5757  1.2820 -0.8350
 2577SOL     OW19363   3.755   1.467   9.368  0.1233  0.3294 -0.1079
 2577SOL    HW119364   3.809   1.527   9.317  0.3260 -0.3032 -0.6338
 2577SOL    HW219365   3.731   1.402   9.302  0.7067  0.9658 -0.9406
 2578SOL     OW19366   4.314   3.738   4.427 -0.1504  0.0363 -0.5437
 2578SOL    HW119367   4.262   3.725   4.347  1.9733 -0.3338 -1.8561
 2578SOL    HW219368   4.389   3.789   4.398 -0.1721  0.4269  0.0947
 2579SOL     OW19369   0.383   3.529   6.826  0.0665 -0.6091  0.2181
 2579SOL    HW119370   0.402   3.503   6.916 -0.1935  1.5938  0.8874
 2579SOL    HW219371   0.475   3.546   6.807 -0.1423 -0.3683 -0.6152
 2580SOL     OW19372   1.384   0.269   6.435  0.0285 -0.4038  0.0266
 2580SOL    HW119373   1.346   0.181   6.439 -0.8531  0.0780  2.2289
 2580SOL    HW219374   1.306   0.324   6.444  0.8493  0.7675  0.0091
 2581SOL     OW19375   2.812   0.239   5.608 -0.2568  0.0086 -0.8079
 2581SOL    HW119376   2.760   0.292   5.669 -1.6565  0.0829 -2.0856
 2581SOL    HW219377   2.872   0.313   5.595 -0.1029  0.1916  0.9169
 2582SOL     OW19378   4.563   2.748   2.240 -0.2226 -0.4241  0.1773
 2582SOL    HW119379   4.520   2.667   2.266 -0.0400 -0.5060  0.2281
 2582SOL    HW219380   4.647   2.730   2.283  0.2330 -0.5555 -0.7633
 2583SOL     OW19381   1.785   2.444  16.181  0.1755  0.2486 -0.0212
 2583SOL    HW119382   1.706   2.437  16.235 -0.2814 -0.6635 -0.7956
 2583SOL    HW219383   1.758   2.505  16.112  0.9384  1.0057  0.3658
 2584SOL     OW19384   2.848   3.571   5.010  0.1953  0.5000 -0.4356
 2584SOL    HW119385   2.760   3.570   5.046  1.2726  0.3066  2.2685
 2584SOL    HW219386   2.882   3.649   5.055  1.4265  1.5220 -3.0920
 2585SOL     OW19387   2.598   0.047   5.144  0.1400  0.4322  0.5425
 2585SOL    HW119388   2.563   0.003   5.067  2.4179  0.0839 -0.2986
 2585SOL    HW219389   2.582   0.139   5.123 -0.0729  0.1355 -0.5896
 2586SOL     OW19390   3.383   4.161   4.135  0.2149 -0.1254  1.1208
 2586SOL    HW119391   3.338   4.221   4.193  0.7774  1.9211 -0.5873
 2586SOL    HW219392   3.419   4.111   4.208 -0.8019  0.8023  2.2554
 2587SOL     OW19393   4.143   2.849   6.270 -0.0714  0.1644 -0.4113
 2587SOL    HW119394   4.062   2.818   6.229 -0.6270  0.8965  0.1487
 2587SOL    HW219395   4.166   2.779   6.331 -2.3108  1.3143  1.7422
 2588SOL     OW19396   3.833   2.791  17.089  0.0511 -0.1076 -0.4101
 2588SOL    HW119397   3.864   2.834  17.169  1.9184 -1.1772 -0.5562
 2588SOL    HW219398   3.749   2.755  17.117  0.2431  1.8415  2.6941
 2589SOL     OW19399   1.223   4.536   3.906 -0.0412  0.1192  0.1464
 2589SOL    HW119400   1.145   4.561   3.956 -2.8602 -1.0012 -3.6745
 2589SOL    HW219401   1.183   4.466   3.854 -2.2474  0.1827  1.7373
 2590SOL     OW19402   3.931   3.087   7.079  0.1401 -0.3445 -0.4938
 2590SOL    HW119403   3.957   3.047   7.162  0.7064  0.1883 -0.4122
 2590SOL    HW219404   3.965   3.033   7.007 -1.7541  1.1891 -2.5504
 2591SOL     OW19405   1.189   3.584   4.763  0.6913 -0.5150 -0.0209
 2591SOL    HW119406   1.231   3.576   4.849 -0.9633 -0.1983  0.8113
 2591SOL    HW219407   1.144   3.500   4.758 -0.2866 -0.0161  0.3936
 2592SOL     OW19408   0.881   2.700  17.529  0.5458  0.2603  0.3462
 2592SOL    HW119409   0.933   2.638  17.581  0.3306  0.3865  0.7128
 2592SOL    HW219410   0.862   2.768  17.594 -0.1982  2.2759 -1.9899
 2593SOL     OW19411   0.149   4.226   1.260  0.2121 -0.7034  0.0543
 2593SOL    HW119412   0.231   4.182   1.240  0.4902 -1.5939  3.1481
 2593SOL    HW219413   0.139   4.275   1.178  0.6424 -0.8582 -0.0900
 2594SOL     OW19414   1.968   4.008  15.734 -0.2106 -0.2682  0.1761
 2594SOL    HW119415   2.029   3.944  15.769 -0.6967 -1.4455 -1.1309
 2594SOL    HW219416   1.994   4.018  15.642 -0.9239 -0.6385 -0.0693
 2595SOL     OW19417   4.636   1.945   0.882  0.2584 -0.3556  0.4327
 2595SOL    HW119418   4.633   2.012   0.813 -0.8968 -0.3082  0.5315
 2595SOL    HW219419   4.663   1.996   0.957 -2.1926  1.1736  0.2984
 2596SOL     OW19420   4.729   1.728   2.317  0.1779  0.0542 -0.1412
 2596SOL    HW119421   0.034   1.661   2.372 -1.0037  0.1023  0.7916
 2596SOL    HW219422   4.637   1.715   2.338  0.4553 -0.9752  0.4605
 2597SOL     OW19423   0.753   0.913  10.098 -0.0720 -0.3347  0.0611
 2597SOL    HW119424   0.751   1.008  10.087 -0.3002 -0.3661 -0.1776
 2597SOL    HW219425   0.847   0.897  10.088 -0.4843 -2.9509  0.2006
 2598SOL     OW19426   2.371   4.581   3.438  0.4728 -0.3746 -0.0769
 2598SOL    HW119427   2.322   4.576   3.356  1.3759  3.0767 -0.7992
 2598SOL    HW219428   2.321   4.519   3.491  0.1734  0.7526  0.9424
 2599SOL     OW19429   2.999   2.568   1.393  0.4095 -0.0469  0.4667
 2599SOL    HW119430   3.032   2.554   1.304  0.9437 -1.1759  0.8459
 2599SOL    HW219431   2.913   2.526   1.386  0.4258 -0.4309  2.5952
 2600SOL     OW19432   3.714   1.934   2.049 -0.3886  0.1486 -0.0909
 2600SOL    HW119433   3.798   1.888   2.039 -0.7989 -0.7874  0.8506
 2600SOL    HW219434   3.663   1.879   1.990  0.9353  0.6915 -1.7505
 2601SOL     OW19435   3.309   0.482   2.606  0.1729  0.6316 -0.2295
 2601SOL    HW119436   3.301   0.575   2.587  1.8088  0.8855  0.3227
 2601SOL    HW219437   3.343   0.442   2.526 -2.7415 -0.9933 -0.6864
 2602SOL     OW19438   1.982   2.264  14.705 -0.3554  0.1036 -0.4845
 2602SOL    HW119439   1.918   2.304  14.764  0.7158  0.0045  0.7251
 2602SOL    HW219440   1.921   2.251  14.632 -0.8477 -0.5455  0.0456
 2603SOL     OW19441   2.068   4.614  10.901  0.4774  0.1631  0.4695
 2603SOL    HW119442   2.157   4.617  10.936  0.1669  1.4477  1.1524
 2603SOL    HW219443   2.080   4.573  10.815 -0.7804 -1.8533  1.2303
 2604SOL     OW19444   2.155   2.291  16.482  0.1885 -0.0061  0.2634
 2604SOL    HW119445   2.089   2.352  16.449  1.1139 -0.3959 -2.3188
 2604SOL    HW219446   2.098   2.252  16.548  2.3730 -3.1176  0.3389
 2605SOL     OW19447   2.037   3.886   6.612 -0.4921  0.2257 -0.0412
 2605SOL    HW119448   2.104   3.884   6.544 -0.7316  2.3840 -0.3214
 2605SOL    HW219449   1.966   3.849   6.559 -1.0855  0.8859  0.2887
 2606SOL     OW19450   2.596   1.265   4.688 -0.2951  0.4686 -0.0549
 2606SOL    HW119451   2.513   1.310   4.673  0.0643  1.3480  0.6601
 2606SOL    HW219452   2.650   1.309   4.622  1.0983  2.4836  2.4212
 2607SOL     OW19453   2.183   3.092   2.154 -0.4847  0.7527  0.0973
 2607SOL    HW119454   2.138   3.066   2.074 -1.6214 -1.1262  1.3210
 2607SOL    HW219455   2.129   3.034   2.209 -1.1070  0.5618 -0.7061
 2608SOL     OW19456   4.079   1.250   8.631 -0.1840 -0.0260 -0.0692
 2608SOL    HW119457   4.001   1.306   8.632  1.2091  1.9527 -1.7572
 2608SOL    HW219458   4.088   1.223   8.723 -0.5399  0.3699  0.0841
 2609SOL     OW19459   1.814   1.033   2.625 -0.8265  0.2161 -0.5431
 2609SOL    HW119460   1.825   1.102   2.558  0.2709 -0.3133 -0.9075
 2609SOL    HW219461   1.789   1.091   2.697  1.5372  1.2367 -0.5264
 2610SOL     OW19462   1.652   2.985  12.486 -0.1955 -0.3539 -0.5819
 2610SOL    HW119463   1.624   2.904  12.442  0.0221 -0.1043 -1.1797
 2610SOL    HW219464   1.658   3.047  12.413 -0.2817  0.9643  0.5380
 2611SOL     OW19465   1.642   3.232  14.594  0.0175  0.2885 -0.0971
 2611SOL    HW119466   1.554   3.255  14.564 -0.3894  2.2579  2.5653
 2611SOL    HW219467   1.627   3.225  14.689  1.2095  0.1354  0.0805
 2612SOL     OW19468   3.252   4.200   2.516 -0.0241 -0.0468 -0.0040
 2612SOL    HW119469   3.196   4.274   2.494  0.2583  0.4825  1.0848
 2612SOL    HW219470   3.187   4.132   2.534  0.2808 -0.2796  0.2196
 2613SOL     OW19471   3.285   1.983   1.599  0.1071  0.4860  0.0583
 2613SOL    HW119472   3.239   2.036   1.664  0.6648 -0.3146  1.0997
 2613SOL    HW219473   3.264   1.896   1.633 -1.7649  1.0201  0.2951
 2614SOL     OW19474   2.825   4.470   0.086 -0.0511 -0.4166 -0.7267
 2614SOL    HW119475   2.734   4.480   0.055 -0.6385 -0.3875  1.0192
 2614SOL    HW219476   2.879   4.515   0.021  3.1128 -0.4895  1.8888
 2615SOL     OW19477   3.225   3.844   8.673  0.0794 -0.3097  0.6757
 2615SOL    HW119478   3.301   3.868   8.726 -0.7590  1.2930  1.1474
 2615SOL    HW219479   3.155   3.894   8.713 -1.9711 -0.9149 -2.1962
 2616SOL     OW19480   0.128   3.338  10.724 -0.0930 -0.1202 -0.4464
 2616SOL    HW119481   0.192   3.395  10.768  1.2030 -1.3232 -0.8013
 2616SOL    HW219482   0.165   3.342  10.636  1.0008 -0.8387 -0.0115
 2617SOL     OW19483   0.025   4.322   0.459  0.3106 -0.0713 -0.1549
 2617SOL    HW119484   0.109   4.353   0.494  0.9061  0.9323 -2.4641
 2617SOL    HW219485   4.724   4.281   0.537  0.4011  0.8141  0.3481
 2618SOL     OW19486   1.916   0.316  16.556 -0.1530 -0.3447 -0.0710
 2618SOL    HW119487   1.984   0.360  16.606  0.2173 -0.8916 -0.0906
 2618SOL    HW219488   1.844   0.317  16.620 -0.4636 -0.5399 -0.4148
 2619SOL     OW19489   1.133   0.905   1.487  0.5620  0.4276 -0.1506
 2619SOL    HW119490   1.085   0.961   1.548 -1.6579 -0.6948 -0.8719
 2619SOL    HW219491   1.221   0.941   1.495  0.3804  1.1698 -1.5042
 2620SOL     OW19492   2.960   3.128   4.119 -0.1370  0.3670  0.0721
 2620SOL    HW119493   3.033   3.185   4.144  0.4795 -0.4650  0.1897
 2620SOL    HW219494   2.913   3.193   4.067  2.5128  1.2779 -1.1762
 2621SOL     OW19495   1.391   1.022  14.810  0.6286 -0.2848 -0.1414
 2621SOL    HW119496   1.322   1.009  14.876  1.5870  0.4580  1.0186
 2621SOL    HW219497   1.452   0.951  14.833  0.5500 -0.1274  0.5696
 2622SOL     OW19498   0.045   2.706   8.099  0.1749 -0.0224 -0.6572
 2622SOL    HW119499   4.698   2.725   8.143  0.5742  0.6427 -0.1847
 2622SOL    HW219500   0.012   2.653   8.026 -0.4379 -0.5662  0.0141
 2623SOL     OW19501   0.452   4.525   1.439  0.2284 -0.2679  0.3162
 2623SOL    HW119502   0.505   4.470   1.497  0.7428  1.0980  1.1463
 2623SOL    HW219503   0.502   4.513   1.359 -0.6890  0.5468 -0.3801
 2624SOL     OW19504   2.881   0.948   4.642 -0.1778 -0.1396 -0.4591
 2624SOL    HW119505   2.850   1.018   4.585 -0.2442  2.5614  2.8516
 2624SOL    HW219506   2.804   0.894   4.655  0.6573 -1.7976 -2.3653
 2625SOL     OW19507   2.127   2.025   2.334 -0.2963  0.1091 -0.0061
 2625SOL    HW119508   2.123   2.113   2.297 -0.8239  0.2483  0.3707
 2625SOL    HW219509   2.036   1.996   2.321 -1.4931  2.6992  2.5467
 2626SOL     OW19510   3.374   4.443   1.784  0.5496  0.5392  0.3815
 2626SOL    HW119511   3.459   4.411   1.755 -0.8305 -0.2904 -2.7055
 2626SOL    HW219512   3.356   4.380   1.855 -2.3443  2.8941  1.7224
 2627SOL     OW19513   4.202   4.107   5.229  0.3167 -0.2237 -0.1719
 2627SOL    HW119514   4.131   4.070   5.176 -0.9029  1.1856  0.4736
 2627SOL    HW219515   4.282   4.100   5.177  0.9002 -0.2117  0.7332
 2628SOL     OW19516   4.228   0.211   4.581 -0.2002  0.2477 -0.5344
 2628SOL    HW119517   4.233   0.160   4.500  1.5448  0.0733 -0.3251
 2628SOL    HW219518   4.235   0.144   4.649 -1.5949  0.1220 -0.5052
 2629SOL     OW19519   3.532   4.339   9.403 -0.2421  0.3620  0.1639
 2629SOL    HW119520   3.593   4.368   9.335  1.4875 -0.4591  1.3769
 2629SOL    HW219521   3.589   4.335   9.480 -0.3097  2.0963  0.3096
 2630SOL     OW19522   0.254   3.919   8.391 -0.4567 -0.2745  0.1683
 2630SOL    HW119523   0.224   3.866   8.464 -1.2499 -0.5803 -0.3881
 2630SOL    HW219524   0.342   3.933   8.428 -0.4045 -0.0778 -0.0284
 2631SOL     OW19525   1.844   0.290   4.682 -0.4212 -0.7625 -0.2778
 2631SOL    HW119526   1.782   0.255   4.619  0.4030  1.8074 -2.5308
 2631SOL    HW219527   1.821   0.382   4.673 -1.0429 -0.5346  3.5344
 2632SOL     OW19528   0.913   3.783   2.176  0.6771 -0.0648 -0.1921
 2632SOL    HW119529   0.943   3.872   2.156  0.7904 -0.0374  0.0919
 2632SOL    HW219530   0.948   3.780   2.265  0.0299  1.6630  0.1183
 2633SOL     OW19531   0.194   4.118  15.878  0.1640 -0.0207  0.5660
 2633SOL    HW119532   0.191   4.213  15.864  0.0072 -0.6210 -3.4982
 2633SOL    HW219533   0.285   4.089  15.878 -0.4798 -2.0702 -1.6494
 2634SOL     OW19534   3.898   4.418   7.263  0.7120 -0.2076 -0.3336
 2634SOL    HW119535   3.901   4.343   7.323  1.4279 -1.0178 -1.3839
 2634SOL    HW219536   3.811   4.448   7.288 -0.0322 -0.3153 -2.7749
 2635SOL     OW19537   3.306   0.952   5.560  0.4340 -0.1574  0.2502
 2635SOL    HW119538   3.366   0.940   5.633 -0.7724  0.2622  1.2992
 2635SOL    HW219539   3.368   0.940   5.487  0.1861  0.4869 -0.0649
 2636SOL     OW19540   0.002   0.263   5.641  0.1491 -0.3408 -0.0549
 2636SOL    HW119541   0.044   0.299   5.562 -1.4716 -2.1098 -1.7180
 2636SOL    HW219542   4.645   0.268   5.620 -0.0074  1.0410  0.9598
 2637SOL     OW19543   4.700   2.817   9.581  0.2353  0.4027 -0.1287
 2637SOL    HW119544   4.659   2.730   9.581 -2.0788  1.4786  1.4163
 2637SOL    HW219545   0.053   2.791   9.606  0.3739 -0.7950 -1.8360
 2638SOL     OW19546   2.232   1.434   4.428 -0.2451 -0.0200 -0.2931
 2638SOL    HW119547   2.265   1.517   4.393  0.8434 -1.2755 -2.2509
 2638SOL    HW219548   2.138   1.445   4.418 -0.3599 -0.5823  0.1475
 2639SOL     OW19549   2.321   1.191  15.582 -0.5956 -0.4424  0.0675
 2639SOL    HW119550   2.246   1.193  15.523 -1.1972 -0.2100  0.8323
 2639SOL    HW219551   2.314   1.110  15.632  0.6465 -0.8304 -0.3860
 2640SOL     OW19552   0.444   0.360   2.097 -0.1832  0.4888 -0.6527
 2640SOL    HW119553   0.504   0.287   2.084 -2.0761 -1.0150 -0.9540
 2640SOL    HW219554   0.364   0.329   2.054 -1.1968 -0.2315  1.8009
 2641SOL     OW19555   2.475   2.052   2.970  0.0475  0.0784  0.0870
 2641SOL    HW119556   2.477   1.957   2.961 -1.4427 -0.0628  1.2016
 2641SOL    HW219557   2.567   2.078   2.971  0.3241 -0.9269  1.2492
 2642SOL     OW19558   0.695   2.820  13.222 -0.0852  0.3252  0.4550
 2642SOL    HW119559   0.787   2.820  13.197 -1.0235 -1.5366 -3.0578
 2642SOL    HW219560   0.674   2.908  13.254 -1.0284  0.1122  0.4287
 2643SOL     OW19561   4.463   0.750   8.139  0.0281 -0.1406 -0.1278
 2643SOL    HW119562   4.382   0.765   8.091 -1.4775  0.8052  2.7347
 2643SOL    HW219563   4.516   0.829   8.143  0.4796 -0.3800 -1.5736
 2644SOL     OW19564   2.538   4.491   3.698 -0.0667  0.2940 -0.2837
 2644SOL    HW119565   2.468   4.478   3.633 -1.2116 -1.1542  1.2449
 2644SOL    HW219566   2.594   4.415   3.681  1.3928  1.6485 -1.4673
 2645SOL     OW19567   0.590   3.901  11.470 -0.3776  0.4475  0.0775
 2645SOL    HW119568   0.643   3.939  11.400 -1.6241 -0.3552 -1.3093
 2645SOL    HW219569   0.627   3.813  11.478 -0.2204  0.4673 -0.4181
 2646SOL     OW19570   0.070   3.373   7.618 -0.2254  0.1832  0.6119
 2646SOL    HW119571   0.047   3.283   7.593  0.5292  0.0531  0.3691
 2646SOL    HW219572   4.733   3.403   7.672  0.9514 -0.0307  2.3057
 2647SOL     OW19573   1.648   0.241   3.026  0.0043  0.0708  0.4987
 2647SOL    HW119574   1.703   0.312   2.992 -0.8483  0.7299  0.4930
 2647SOL    HW219575   1.636   0.191   2.946 -0.1387 -0.1208  0.6389
 2648SOL     OW19576   0.248   0.049   1.179 -0.1936  0.2210  0.0395
 2648SOL    HW119577   0.169   0.012   1.219  0.9740 -1.6205  0.6164
 2648SOL    HW219578   0.256   0.124   1.239  2.4349 -1.0309  1.2521
 2649SOL     OW19579   3.666   4.730   2.150 -0.3780 -0.4918  0.6989
 2649SOL    HW119580   3.716   4.674   2.209  1.1345  1.6421  1.4372
 2649SOL    HW219581   3.680   0.085   2.177 -0.4119 -0.1325 -0.4737
 2650SOL     OW19582   0.416   2.066   9.048 -0.2098  0.0966  0.1619
 2650SOL    HW119583   0.503   2.075   9.086 -0.1257 -0.5915  0.1274
 2650SOL    HW219584   0.445   2.027   8.966  2.1822  0.0075  1.0710
 2651SOL     OW19585   3.005   4.532  12.658  0.0645  0.5607 -0.1263
 2651SOL    HW119586   3.099   4.535  12.677  0.1956  0.6497 -0.8090
 2651SOL    HW219587   2.993   4.625  12.640 -0.7290 -0.2300 -3.5788
 2652SOL     OW19588   2.336   3.383   3.779  0.2690 -0.9099 -0.1877
 2652SOL    HW119589   2.299   3.335   3.853  1.8424  0.3214  1.3914
 2652SOL    HW219590   2.340   3.312   3.715  0.3591 -2.2042  1.2709
 2653SOL     OW19591   1.720   4.303   8.798  0.3522 -0.1439 -0.3323
 2653SOL    HW119592   1.664   4.365   8.751 -0.6267 -0.6615  0.1455
 2653SOL    HW219593   1.803   4.329   8.759  0.7779  0.1973  0.8244
 2654SOL     OW19594   0.197   0.707   7.309 -0.6037 -0.4285 -0.6861
 2654SOL    HW119595   0.127   0.771   7.318 -0.7127 -0.8765  1.6096
 2654SOL    HW219596   0.238   0.699   7.395 -0.3390 -0.2765 -0.7991
 2655SOL     OW19597   3.838   1.783  13.683 -0.3183  0.0490  0.4889
 2655SOL    HW119598   3.863   1.702  13.638 -1.1941 -0.4350  0.8660
 2655SOL    HW219599   3.849   1.769  13.777  0.2686 -0.2019  0.3832
 2656SOL     OW19600   1.021   4.567   7.680 -0.2325 -0.0382  0.5417
 2656SOL    HW119601   1.042   4.601   7.766  0.1206 -0.0906  0.4769
 2656SOL    HW219602   0.936   4.524   7.685  1.0877 -2.6858  0.5422
 2657SOL     OW19603   0.763   0.079   4.010 -0.8255 -0.0541  0.2182
 2657SOL    HW119604   0.667   0.084   4.008 -0.8442 -1.6194 -2.2717
 2657SOL    HW219605   0.780   4.729   4.050 -0.4373  0.3396  0.8963
 2658SOL     OW19606   3.841   0.395   6.917 -0.5070  0.5001  0.5801
 2658SOL    HW119607   3.792   0.381   6.836  0.1081 -2.5374  0.7523
 2658SOL    HW219608   3.802   0.336   6.981  1.0485 -0.6243  0.5115
 2659SOL     OW19609   4.126   3.086  12.870 -0.2348  0.4025  0.3824
 2659SOL    HW119610   4.108   3.058  12.960  0.6149  0.8887  0.7123
 2659SOL    HW219611   4.213   3.048  12.852 -0.9560 -0.7115 -0.7272
 2660SOL     OW19612   1.710   1.657  13.319 -0.2304 -0.0255  0.6185
 2660SOL    HW119613   1.779   1.593  13.300  0.7880  0.8883  1.2320
 2660SOL    HW219614   1.655   1.628  13.246  1.0713 -0.2005 -0.3165
 2661SOL     OW19615   2.092   4.606  16.392 -0.3350  0.2266 -0.6671
 2661SOL    HW119616   2.133   4.521  16.374 -1.2500 -0.7089  1.7482
 2661SOL    HW219617   2.064   4.598  16.483 -0.6385  0.9508 -0.6978
 2662SOL     OW19618   4.232   0.117   7.527 -0.2931  0.4352 -0.0608
 2662SOL    HW119619   4.266   0.175   7.595  2.2159 -2.9503  1.5915
 2662SOL    HW219620   4.164   0.175   7.492 -0.2828 -0.5673 -1.7294
 2663SOL     OW19621   4.253   4.367  12.061 -0.2011 -0.4461  0.1970
 2663SOL    HW119622   4.250   4.447  12.113 -3.4627  1.7147 -3.2801
 2663SOL    HW219623   4.181   4.383  12.000  1.7432 -0.6481 -2.1695
 2664SOL     OW19624   0.725   3.658  11.498 -0.0701 -0.3115  0.2897
 2664SOL    HW119625   0.739   3.580  11.553  1.7337 -1.5517 -1.9672
 2664SOL    HW219626   0.813   3.693  11.510 -0.2449  0.2466 -0.1048
 2665SOL     OW19627   3.416   3.550  15.415 -0.9418 -0.3249  0.0828
 2665SOL    HW119628   3.372   3.482  15.466 -0.4828  0.9525  2.1369
 2665SOL    HW219629   3.388   3.521  15.328  0.0314 -1.9411  0.3112
 2666SOL     OW19630   1.941   4.203   3.879 -0.1030 -0.1461 -0.2556
 2666SOL    HW119631   1.858   4.163   3.907  1.4685 -2.4105  1.2206
 2666SOL    HW219632   1.977   4.140   3.816 -1.1513 -2.0344  1.0189
 2667SOL     OW19633   1.916   3.988   7.301  0.2923 -0.0004  0.6396
 2667SOL    HW119634   2.005   3.996   7.334  0.5924 -1.3066  0.1273
 2667SOL    HW219635   1.875   3.948   7.378 -1.6184 -0.5158 -0.6362
 2668SOL     OW19636   3.690   2.239   4.061  0.5319  0.7089  0.8826
 2668SOL    HW119637   3.667   2.150   4.085 -0.5376  0.5508 -0.7830
 2668SOL    HW219638   3.754   2.267   4.127  0.1565 -1.6565  2.2486
 2669SOL     OW19639   0.516   0.635  11.834 -0.0334 -0.0387  0.6183
 2669SOL    HW119640   0.537   0.543  11.848 -0.4480 -0.1550  0.4817
 2669SOL    HW219641   0.431   0.634  11.879 -0.1032  0.3410  0.4986
 2670SOL     OW19642   2.541   3.452   5.878  1.0442  0.1690  0.3586
 2670SOL    HW119643   2.467   3.495   5.920  0.3509 -1.4205  0.7863
 2670SOL    HW219644   2.610   3.467   5.943  0.3585  0.0046  1.1285
 2671SOL     OW19645   2.647   0.604   8.272 -0.3479 -0.1045 -0.0282
 2671SOL    HW119646   2.662   0.693   8.239 -1.2979 -0.6329 -1.9160
 2671SOL    HW219647   2.671   0.608   8.364 -0.5018  1.0463 -0.0397
 2672SOL     OW19648   3.721   1.493   5.660  0.5778  0.1888 -0.0942
 2672SOL    HW119649   3.813   1.496   5.686  0.9582  1.2989 -1.5562
 2672SOL    HW219650   3.700   1.402   5.684  0.0434  0.4358  0.3677
 2673SOL     OW19651   0.181   3.258  10.433 -0.3718 -0.2571  0.5007
 2673SOL    HW119652   0.252   3.281  10.374 -0.2380 -0.4462  0.5867
 2673SOL    HW219653   0.159   3.169  10.407 -0.8898  0.2609 -0.8512
 2674SOL     OW19654   3.095   3.296  11.869 -0.3964  0.2623 -0.1019
 2674SOL    HW119655   3.039   3.218  11.862  0.3422 -0.6642  4.4327
 2674SOL    HW219656   3.149   3.271  11.794 -0.3113  2.6271 -0.8319
 2675SOL     OW19657   3.465   3.607   7.750 -0.1850 -0.0551 -0.1799
 2675SOL    HW119658   3.521   3.673   7.708  1.3208 -1.4719 -0.4295
 2675SOL    HW219659   3.434   3.652   7.828  0.5761 -1.7588  1.0910
 2676SOL     OW19660   3.737   1.416   0.486  0.9574 -0.8846 -0.0653
 2676SOL    HW119661   3.727   1.452   0.397 -1.1940 -1.0189  0.1048
 2676SOL    HW219662   3.788   1.337   0.471  2.1457  0.1961 -1.7824
 2677SOL     OW19663   1.304   2.193   7.592  0.4301 -0.0531 -0.2121
 2677SOL    HW119664   1.269   2.137   7.661  1.9871 -0.8700 -0.0917
 2677SOL    HW219665   1.360   2.135   7.540  1.8003 -2.0979  3.5542
 2678SOL     OW19666   0.249   3.846   7.634 -0.0187  0.0117 -0.4374
 2678SOL    HW119667   0.275   3.755   7.648  0.3080  0.4984  2.1629
 2678SOL    HW219668   0.331   3.896   7.627  0.0500  0.0147  0.3660
 2679SOL     OW19669   1.587   0.578  10.101 -0.6450 -0.5077  0.2172
 2679SOL    HW119670   1.546   0.501  10.141  0.4114 -0.1243  2.0723
 2679SOL    HW219671   1.604   0.542  10.014  2.1593 -1.4323  1.1375
 2680SOL     OW19672   4.396   1.169   8.242  0.1330  0.0742 -0.0097
 2680SOL    HW119673   4.329   1.234   8.221 -0.7155 -0.7169  0.2879
 2680SOL    HW219674   4.401   1.173   8.337  0.5832 -1.9412  0.0511
 2681SOL     OW19675   2.328   4.472   2.803 -0.4931  0.6488 -0.3983
 2681SOL    HW119676   2.236   4.459   2.824  0.0992 -3.3951 -0.3712
 2681SOL    HW219677   2.331   4.419   2.724 -0.2898  1.1356 -0.7190
 2682SOL     OW19678   0.068   3.373   8.189  0.1685 -0.5455 -0.0444
 2682SOL    HW119679   0.093   3.389   8.098  1.8788  1.3936  0.7696
 2682SOL    HW219680   0.035   3.283   8.189 -2.3745  0.3861 -1.2596
 2683SOL     OW19681   3.606   2.002   6.546  0.6953 -0.3378  0.1716
 2683SOL    HW119682   3.633   1.948   6.471  0.7237 -1.7163  1.1646
 2683SOL    HW219683   3.683   1.990   6.601  1.1640  2.4034  0.1021
 2684SOL     OW19684   2.560   2.590   8.475 -0.4362  0.0699 -0.6927
 2684SOL    HW119685   2.633   2.533   8.448  0.0138  1.0813 -1.6021
 2684SOL    HW219686   2.506   2.587   8.397 -0.9989  1.1378 -0.3353
 2685SOL     OW19687   0.149   1.396  10.706  0.3158 -0.1274  0.1242
 2685SOL    HW119688   0.096   1.325  10.669  1.5787 -0.8582 -0.2689
 2685SOL    HW219689   0.124   1.468  10.649 -3.6634 -1.7918 -0.2121
 2686SOL     OW19690   1.413   2.835   7.052 -0.6424  0.3128 -0.2054
 2686SOL    HW119691   1.431   2.746   7.022  2.0104  0.7715  0.0365
 2686SOL    HW219692   1.493   2.851   7.103 -1.1020 -2.2759  1.3674
 2687SOL     OW19693   2.608   4.393   7.272  0.0759 -0.4962  0.0696
 2687SOL    HW119694   2.566   4.479   7.274  0.2965 -0.3653 -1.5230
 2687SOL    HW219695   2.676   4.410   7.338  0.3499  1.1923 -0.6470
 2688SOL     OW19696   4.109   1.572   9.542  0.2659 -0.3417  0.6569
 2688SOL    HW119697   4.100   1.502   9.477 -2.1528 -1.2562  2.0109
 2688SOL    HW219698   4.046   1.632   9.502  0.9200  0.3017  0.5738
 2689SOL     OW19699   3.020   3.909   3.299 -0.1921  0.5682  0.3612
 2689SOL    HW119700   2.944   3.875   3.252  0.4372  0.7610 -0.7945
 2689SOL    HW219701   3.032   3.992   3.253  0.5217  0.3075  0.0870
 2690SOL     OW19702   2.962   1.988   3.762  0.3151  0.6130 -0.7665
 2690SOL    HW119703   2.920   1.979   3.847  1.3498 -2.1983 -0.5489
 2690SOL    HW219704   3.052   2.004   3.791  0.0975 -2.0205  1.2979
 2691SOL     OW19705   1.444   3.943   2.875  0.0816 -0.3902 -0.3520
 2691SOL    HW119706   1.538   3.938   2.856 -0.2620  1.7317 -2.6378
 2691SOL    HW219707   1.411   3.904   2.795 -2.8405  1.5700 -0.1126
 2692SOL     OW19708   2.973   1.854   4.715  0.3758 -0.1522  0.2544
 2692SOL    HW119709   3.036   1.906   4.666 -0.3658 -0.9333 -1.5141
 2692SOL    HW219710   3.012   1.834   4.801 -1.5367  2.7303  1.7761
 2693SOL     OW19711   0.958   0.143   3.809 -0.3016  0.2226 -0.3727
 2693SOL    HW119712   0.901   0.217   3.786  1.4543  1.5438 -0.5631
 2693SOL    HW219713   0.903   0.109   3.879 -1.3059  1.0982 -0.7390
 2694SOL     OW19714   1.374   2.826   5.146  0.1069 -0.0343  0.3518
 2694SOL    HW119715   1.426   2.819   5.066 -1.7070  1.0594 -0.9224
 2694SOL    HW219716   1.401   2.911   5.181  1.2979 -0.7562  1.1792
 2695SOL     OW19717   1.345   4.427  11.800  0.1200 -0.2117  0.4473
 2695SOL    HW119718   1.418   4.489  11.799 -0.5079  0.5473  1.9988
 2695SOL    HW219719   1.386   4.372  11.734 -0.7586  2.1003 -2.0223
 2696SOL     OW19720   4.017   1.513   6.526 -0.0529  0.2733  0.1607
 2696SOL    HW119721   3.947   1.543   6.583 -0.7689 -2.0567  0.5011
 2696SOL    HW219722   4.082   1.580   6.547  0.2700  0.7166 -2.2135
 2697SOL     OW19723   0.816   0.096   8.232 -0.1449 -0.6556  0.1147
 2697SOL    HW119724   0.869   0.092   8.153 -0.7557 -0.0465 -0.3338
 2697SOL    HW219725   0.844   0.181   8.266  0.1099 -0.1384 -1.3848
 2698SOL     OW19726   1.551   2.798  12.311 -0.4882  0.2009  0.1960
 2698SOL    HW119727   1.462   2.771  12.287 -1.2210 -1.0754  4.3814
 2698SOL    HW219728   1.590   2.718  12.275  0.6413  0.7241  0.2744
 2699SOL     OW19729   1.582   1.182   7.997  0.3164 -0.2759 -0.2774
 2699SOL    HW119730   1.637   1.104   8.004  1.9440  1.2183  3.4761
 2699SOL    HW219731   1.544   1.200   8.084  0.0675  1.3376 -0.7087
 2700SOL     OW19732   0.042   4.211   2.623 -0.0233 -0.8504  0.3625
 2700SOL    HW119733   0.029   4.165   2.706 -1.0886 -0.6730  0.2923
 2700SOL    HW219734   0.050   4.137   2.564  1.1564 -0.6270  0.2365
 2701SOL     OW19735   2.616   3.809   4.581  0.2666 -0.0883  0.1198
 2701SOL    HW119736   2.539   3.843   4.536 -0.0786 -1.3231 -0.2324
 2701SOL    HW219737   2.628   3.723   4.540  0.4007  0.5042 -1.0747
 2702SOL     OW19738   2.252   0.906   8.275  0.0454  0.0055  1.2473
 2702SOL    HW119739   2.281   0.891   8.185  1.3335  3.2565  1.1191
 2702SOL    HW219740   2.246   0.814   8.302 -0.8857 -0.8745 -2.0059
 2703SOL     OW19741   2.970   4.292   2.369 -0.1789 -0.5042  0.1440
 2703SOL    HW119742   2.977   4.384   2.345  2.6289 -1.0388 -1.0914
 2703SOL    HW219743   2.984   4.301   2.463 -2.4053 -1.1050  0.5442
 2704SOL     OW19744   2.228   3.070   5.111  0.4571 -0.1617 -0.5588
 2704SOL    HW119745   2.242   2.999   5.174 -2.7254 -0.5582 -0.3331
 2704SOL    HW219746   2.285   3.036   5.042 -1.2352 -0.5166 -1.7698
 2705SOL     OW19747   2.840   4.654   5.121 -0.2172  0.5773  0.0439
 2705SOL    HW119748   2.900   4.728   5.111 -1.8663  2.0912  1.2391
 2705SOL    HW219749   2.756   4.694   5.143 -0.4959  0.4118 -0.7180
 2706SOL     OW19750   0.838   0.195  11.350  0.6609 -0.4869  0.4106
 2706SOL    HW119751   0.853   0.207  11.444 -1.6563 -0.1116  0.7243
 2706SOL    HW219752   0.815   0.281  11.316 -0.1136 -1.3909 -1.3730
 2707SOL     OW19753   1.135   2.540   5.913  0.1815 -0.4062  0.5684
 2707SOL    HW119754   1.170   2.480   5.980 -0.1191 -0.9564  0.2347
 2707SOL    HW219755   1.126   2.477   5.841  1.3469  0.2215 -0.1086
 2708SOL     OW19756   0.862   2.528  10.597 -0.0538  0.1833  0.2442
 2708SOL    HW119757   0.931   2.587  10.567 -0.2421  0.3738  0.1794
 2708SOL    HW219758   0.812   2.525  10.515  2.7065 -0.8116 -1.3894
 2709SOL     OW19759   0.490   2.167   5.765  0.4976  0.0071 -0.2746
 2709SOL    HW119760   0.436   2.237   5.727  0.3967  1.2421  2.0918
 2709SOL    HW219761   0.468   2.178   5.858 -0.2952 -0.1086 -0.4465
 2710SOL     OW19762   4.124   1.668   3.423  0.3205 -0.0774  0.3651
 2710SOL    HW119763   4.045   1.613   3.425 -0.5521  1.0409 -2.3841
 2710SOL    HW219764   4.127   1.673   3.327 -1.6453 -0.1006  0.2911
 2711SOL     OW19765   3.119   1.270  15.305  0.0810 -0.0985 -0.6377
 2711SOL    HW119766   3.087   1.337  15.366 -1.1636  1.1922 -2.6933
 2711SOL    HW219767   3.205   1.276  15.346 -0.3372 -2.1815  0.5368
 2712SOL     OW19768   3.998   1.638   2.213  0.4749 -0.6277  0.5231
 2712SOL    HW119769   4.084   1.638   2.171  0.0779 -0.9608 -0.2887
 2712SOL    HW219770   3.953   1.702   2.158  1.7471 -1.7273 -1.7783
 2713SOL     OW19771   2.874   4.177   1.313 -0.6247 -0.2078 -0.1683
 2713SOL    HW119772   2.817   4.185   1.236  0.5633  0.5927 -0.9539
 2713SOL    HW219773   2.887   4.267   1.341 -1.0201  0.0989 -0.9692
 2714SOL     OW19774   1.444   2.741   9.264  0.1030  0.3035 -1.1453
 2714SOL    HW119775   1.447   2.819   9.209  1.1602  0.6077 -0.6579
 2714SOL    HW219776   1.535   2.712   9.271  0.6447  1.7511 -2.1908
 2715SOL     OW19777   1.391   0.486   5.502  0.5851 -0.1212  0.3709
 2715SOL    HW119778   1.337   0.512   5.576 -1.1649  0.8782 -1.2383
 2715SOL    HW219779   1.353   0.400   5.484  0.0088  0.3070 -0.4743
 2716SOL     OW19780   0.830   2.559   2.630 -0.2062  0.5261 -0.3407
 2716SOL    HW119781   0.851   2.568   2.723  2.3603 -1.0802 -0.7453
 2716SOL    HW219782   0.745   2.601   2.619 -0.2436  1.3219  3.2457
 2717SOL     OW19783   2.983   1.132   7.510  0.0071  0.5353  0.2491
 2717SOL    HW119784   2.924   1.128   7.585  1.5245  0.9129  1.4434
 2717SOL    HW219785   3.056   1.081   7.544 -1.0360 -1.0371  0.1513
 2718SOL     OW19786   1.967   2.553   9.899 -0.3411 -0.2342 -0.5703
 2718SOL    HW119787   2.035   2.494   9.868 -0.9051 -1.7683  1.1122
 2718SOL    HW219788   1.994   2.565   9.990 -2.7075  0.8238  0.0170
 2719SOL     OW19789   2.490   0.696  17.700 -0.0467 -0.5107  0.1787
 2719SOL    HW119790   2.523   0.684   0.046 -1.4797 -0.2243  0.7546
 2719SOL    HW219791   2.395   0.687  17.704  0.0894 -2.8806 -1.3958
 2720SOL     OW19792   4.046   1.301   7.165  0.5592  0.4178 -0.0477
 2720SOL    HW119793   4.102   1.223   7.166  0.3450  0.2086 -3.3847
 2720SOL    HW219794   3.958   1.263   7.168  0.5919  0.3621  0.1645
 2721SOL     OW19795   1.948   3.391  10.260  0.1010 -0.3780  0.6584
 2721SOL    HW119796   1.904   3.440  10.329 -1.4162 -0.7937  0.0049
 2721SOL    HW219797   1.894   3.312  10.269 -1.0415  0.4636  1.2756
 2722SOL     OW19798   3.956   2.501  11.025  0.3694 -0.5416  0.1944
 2722SOL    HW119799   3.900   2.556  11.080  2.2842  1.8635 -0.2740
 2722SOL    HW219800   3.931   2.409  11.036  0.4898 -0.2575  2.7599
 2723SOL     OW19801   4.626   2.670   7.284 -0.2928  0.2719  0.0631
 2723SOL    HW119802   4.622   2.725   7.363 -1.1998  1.2624 -0.6790
 2723SOL    HW219803   4.658   2.582   7.303  1.7625  0.7181 -1.3577
 2724SOL     OW19804   3.382   4.585   7.230  0.0961  0.9564 -0.0687
 2724SOL    HW119805   3.388   4.522   7.159 -0.3197 -0.1364  0.8687
 2724SOL    HW219806   3.326   4.536   7.290 -1.3847  0.4296 -1.8675
 2725SOL     OW19807   0.339   0.420  13.939 -0.2860  0.1154 -0.3431
 2725SOL    HW119808   0.284   0.496  13.960 -0.7038 -0.0112 -0.9528
 2725SOL    HW219809   0.399   0.415  14.013 -1.5707 -2.7146  0.5183
 2726SOL     OW19810   0.104   1.897   4.894  0.4544  0.0836 -0.2754
 2726SOL    HW119811   0.198   1.912   4.906  0.0060  1.8069  1.1288
 2726SOL    HW219812   0.093   1.813   4.850 -0.0767 -1.1738  2.3123
 2727SOL     OW19813   1.026   4.082   8.679 -0.9806 -0.3952  0.0697
 2727SOL    HW119814   1.053   4.010   8.621  3.4167  1.9112 -0.7235
 2727SOL    HW219815   1.088   4.071   8.751 -2.8975  1.2888  1.9327
 2728SOL     OW19816   0.223   0.800   3.988 -0.4529  0.2195 -0.1117
 2728SOL    HW119817   0.140   0.837   3.958 -1.0670 -0.3296  0.9413
 2728SOL    HW219818   0.251   0.868   4.049  2.1949  0.1437 -1.2181
 2729SOL     OW19819   3.002   3.627   7.329 -0.0766 -0.1779  0.2598
 2729SOL    HW119820   3.008   3.538   7.363 -1.0209 -0.5912 -0.6469
 2729SOL    HW219821   2.915   3.654   7.358 -1.1576 -0.9467 -2.2647
 2730SOL     OW19822   0.745   2.895   7.671  0.2627  0.0066 -0.4866
 2730SOL    HW119823   0.788   2.946   7.601  3.0777 -1.2094  0.3365
 2730SOL    HW219824   0.772   2.805   7.655  2.6517  0.4721  0.8834
 2731SOL     OW19825   4.216   0.166   3.231 -0.1323 -0.5431  0.5389
 2731SOL    HW119826   4.256   0.080   3.212  1.3352 -0.3337  2.7184
 2731SOL    HW219827   4.122   0.167   3.218  0.0807 -0.7148 -1.1147
 2732SOL     OW19828   3.500   0.847  15.732  0.0717 -0.5622 -0.1489
 2732SOL    HW119829   3.580   0.813  15.691  1.2894  0.3583  1.4769
 2732SOL    HW219830   3.483   0.929  15.685  0.6727 -0.6272 -0.4828
 2733SOL     OW19831   3.881   1.235   3.761  0.3076  0.1458  0.4282
 2733SOL    HW119832   3.968   1.275   3.764 -0.3453  1.5443  0.6373
 2733SOL    HW219833   3.866   1.243   3.667  1.3624 -4.3104 -0.1174
 2734SOL     OW19834   1.570   1.608   6.549 -0.6529  0.0036  0.0706
 2734SOL    HW119835   1.645   1.576   6.599 -0.4133 -0.3268 -0.5066
 2734SOL    HW219836   1.496   1.578   6.603 -0.7697 -2.3425 -1.4303
 2735SOL     OW19837   3.597   0.680   7.940 -0.0510  0.6806  0.3282
 2735SOL    HW119838   3.623   0.725   7.860  0.3991 -0.6100 -0.2622
 2735SOL    HW219839   3.542   0.607   7.909  0.6403  1.0495 -1.7692
 2736SOL     OW19840   4.489   3.014   7.133  0.0467 -0.4561 -0.2093
 2736SOL    HW119841   4.545   3.090   7.117 -0.5833 -0.5523 -2.8894
 2736SOL    HW219842   4.461   3.039   7.221 -0.0529  1.2972 -0.7442
 2737SOL     OW19843   1.013   1.073   1.671 -0.1010 -0.4861 -0.4571
 2737SOL    HW119844   0.963   1.084   1.751 -0.1532  0.0019 -0.5566
 2737SOL    HW219845   1.062   1.155   1.663 -0.2805 -0.2329  1.0879
 2738SOL     OW19846   4.538   3.852   4.295  0.5176  0.4408  0.0939
 2738SOL    HW119847   4.593   3.784   4.257  2.2509  1.6558  0.4401
 2738SOL    HW219848   4.505   3.889   4.213  0.4812  2.0771  0.8488
 2739SOL     OW19849   2.743   3.380   2.087  0.5249 -0.4240 -0.3971
 2739SOL    HW119850   2.670   3.422   2.042  0.1043  0.0974  0.7531
 2739SOL    HW219851   2.795   3.356   2.011 -0.7098 -1.3670 -0.9510
 2740SOL     OW19852   2.500   3.853   2.732  0.0730  0.1834  0.0897
 2740SOL    HW119853   2.483   3.779   2.675 -1.4201  0.4947  0.1218
 2740SOL    HW219854   2.568   3.893   2.679  0.2856 -1.4178 -0.8028
 2741SOL     OW19855   3.741   0.062   7.191 -0.2282 -0.0788 -0.4772
 2741SOL    HW119856   3.692   0.053   7.273 -0.2137 -0.6147 -0.5250
 2741SOL    HW219857   3.661   0.093   7.148 -0.6488 -0.6472 -0.0970
 2742SOL     OW19858   4.652   0.038   5.971  0.5578 -0.1431 -0.0050
 2742SOL    HW119859   4.563   0.072   5.971  0.9954  0.9954 -0.4200
 2742SOL    HW219860   4.632   4.700   5.913 -2.0633 -0.0853  0.8065
 2743SOL     OW19861   3.944   2.006   7.236 -0.0973  0.0005  0.3680
 2743SOL    HW119862   3.924   2.098   7.219 -0.3929  0.3975  2.8269
 2743SOL    HW219863   4.039   2.005   7.229 -0.1539  4.8924 -0.6222
 2744SOL     OW19864   4.034   0.291   4.422 -0.0543  0.1662 -0.6794
 2744SOL    HW119865   3.966   0.225   4.430  0.3424 -0.2095 -0.4362
 2744SOL    HW219866   4.092   0.263   4.492  0.1088 -0.1084 -0.9251
 2745SOL     OW19867   2.089   0.988   6.326  0.3286 -0.1832 -0.0479
 2745SOL    HW119868   2.035   0.990   6.247 -0.0097 -0.2795  0.1831
 2745SOL    HW219869   2.043   0.919   6.373  0.2744 -1.4452 -1.9868
 2746SOL     OW19870   0.993   1.620   4.649  1.1527 -0.1945  0.1253
 2746SOL    HW119871   0.912   1.595   4.606  1.9558  0.0118 -1.5089
 2746SOL    HW219872   0.985   1.579   4.735 -1.3112  0.4570  0.1976
 2747SOL     OW19873   0.572   3.494   9.049  0.0812  0.2389 -0.2003
 2747SOL    HW119874   0.605   3.583   9.063 -0.0431  0.1972  0.3555
 2747SOL    HW219875   0.500   3.487   9.113 -1.1094  0.1332 -1.5569
 2748SOL     OW19876   3.843   0.164   4.974  0.0117 -0.0316  0.4697
 2748SOL    HW119877   3.905   0.170   4.902  0.9528  0.2065  1.2976
 2748SOL    HW219878   3.848   0.253   5.010 -0.1748 -0.1735  0.8444
 2749SOL     OW19879   2.586   4.397  16.934 -0.1768  0.3951 -0.1847
 2749SOL    HW119880   2.515   4.432  16.881 -1.0182  0.4443  0.9783
 2749SOL    HW219881   2.530   4.392  17.012  0.6197 -3.4051  0.1324
 2750SOL     OW19882   1.221   4.673   8.082  0.3814  0.5282 -0.1010
 2750SOL    HW119883   1.172   4.596   8.054  0.8329  0.2019  0.0155
 2750SOL    HW219884   1.308   4.636   8.094  1.1267  0.9986 -3.9858
 2751SOL     OW19885   2.641   4.171   8.441 -0.0539  0.3575 -0.3232
 2751SOL    HW119886   2.666   4.192   8.531 -1.7628 -3.2361  1.0249
 2751SOL    HW219887   2.706   4.217   8.389  0.0013  0.6222 -0.0208
 2752SOL     OW19888   1.337   1.269   5.952  0.0219  0.7720 -0.4167
 2752SOL    HW119889   1.359   1.248   5.862 -0.5236  0.7335 -0.5423
 2752SOL    HW219890   1.251   1.311   5.946 -1.1607 -1.7708 -1.1363
 2753SOL     OW19891   0.877   0.710   8.328 -0.0237  0.4115 -0.5944
 2753SOL    HW119892   0.968   0.734   8.307 -0.6166  0.4356 -3.0994
 2753SOL    HW219893   0.826   0.787   8.304 -1.2872 -0.6600 -1.3213
 2754SOL     OW19894   2.397   3.363  12.391  0.5748 -0.3750  0.3858
 2754SOL    HW119895   2.415   3.338  12.300 -1.0636  0.6876 -0.2259
 2754SOL    HW219896   2.363   3.452  12.377 -1.5964 -0.8843  2.4092
 2755SOL     OW19897   2.771   2.267   3.238  0.1201 -0.2570  0.1145
 2755SOL    HW119898   2.824   2.251   3.316  0.6092  0.1017 -0.1474
 2755SOL    HW219899   2.715   2.337   3.269 -0.0164 -1.6094  2.9303
 2756SOL     OW19900   0.104   1.517   2.988  0.2232 -0.3032 -0.2912
 2756SOL    HW119901   0.129   1.443   3.044  3.0340  0.3995 -0.6351
 2756SOL    HW219902   0.190   1.535   2.952  1.1950 -0.9215  1.7107
 2757SOL     OW19903   1.498   0.123  11.185 -0.2929 -0.3352  0.1292
 2757SOL    HW119904   1.423   0.180  11.201 -0.8920 -0.8151 -0.9732
 2757SOL    HW219905   1.555   0.181  11.134 -0.7266  1.0509  1.2363
 2758SOL     OW19906   2.088   0.736   2.112  0.2643  0.7590  0.0379
 2758SOL    HW119907   2.118   0.650   2.142 -1.3149  0.3168  0.3081
 2758SOL    HW219908   2.046   0.709   2.031 -0.7335  2.0376  0.1432
 2759SOL     OW19909   4.093   2.933   9.386  0.2177  0.4108 -0.0280
 2759SOL    HW119910   4.073   2.997   9.454  1.4668 -1.5492  2.1777
 2759SOL    HW219911   4.181   2.955   9.356  0.6604 -2.0406 -0.5556
 2760SOL     OW19912   1.974   0.195   3.067 -0.3767  0.7373 -0.2506
 2760SOL    HW119913   1.962   0.214   2.974  1.5399  0.0732 -0.6248
 2760SOL    HW219914   2.019   0.111   3.061 -1.3381  0.2710 -0.9236
 2761SOL     OW19915   1.300   3.448  10.368 -0.3859 -0.4169  0.2447
 2761SOL    HW119916   1.302   3.445  10.272 -0.0242  1.9359  0.1614
 2761SOL    HW219917   1.218   3.490  10.392  1.1917  1.9671  1.5265
 2762SOL     OW19918   4.421   4.078   9.551  0.0328  0.2320 -0.3119
 2762SOL    HW119919   4.430   4.171   9.530  1.9000  0.6535  2.3625
 2762SOL    HW219920   4.378   4.085   9.637 -0.0381  0.5830 -0.3721
 2763SOL     OW19921   2.638   3.851  11.735  0.3713  0.2253  0.3150
 2763SOL    HW119922   2.598   3.918  11.679  0.1860 -2.2660 -2.5148
 2763SOL    HW219923   2.567   3.788  11.741  0.9835 -0.5187 -0.2193
 2764SOL     OW19924   4.127   4.565   7.239  0.4518 -0.5376 -0.0707
 2764SOL    HW119925   4.044   4.517   7.241  0.8001 -1.1143  0.3279
 2764SOL    HW219926   4.172   4.522   7.312  1.2820 -0.7464 -0.7065
 2765SOL     OW19927   3.273   2.752   5.908 -0.0398 -0.1389  0.4868
 2765SOL    HW119928   3.297   2.772   5.999 -1.2004 -1.1847  1.0332
 2765SOL    HW219929   3.352   2.709   5.877 -0.6391  0.1423 -1.4247
 2766SOL     OW19930   2.479   1.294   1.843 -0.1647  0.1446 -0.7077
 2766SOL    HW119931   2.448   1.248   1.921  1.6681 -0.3439 -0.2466
 2766SOL    HW219932   2.399   1.343   1.824  0.4211  0.8537 -1.3675
 2767SOL     OW19933   3.688   2.560   5.819  0.2985 -0.2870  0.6139
 2767SOL    HW119934   3.654   2.480   5.780 -0.2739  0.6638 -0.8410
 2767SOL    HW219935   3.745   2.603   5.755  0.9051  0.0993  1.4043
 2768SOL     OW19936   1.015   2.675  10.440  0.2368 -0.0014 -0.1019
 2768SOL    HW119937   0.969   2.743  10.392  1.0673  1.3423  1.0106
 2768SOL    HW219938   1.080   2.730  10.483  0.0040  0.8831 -0.9035
 2769SOL     OW19939   0.721   2.155   6.194 -0.2822  0.2570 -0.2499
 2769SOL    HW119940   0.765   2.238   6.178  0.1227  0.2378  0.7815
 2769SOL    HW219941   0.704   2.155   6.288  1.4390 -1.4697  0.0507
 2770SOL     OW19942   3.067   0.706   7.503 -0.1260  0.6177 -0.0161
 2770SOL    HW119943   2.989   0.751   7.471 -0.2838 -0.1896 -0.7921
 2770SOL    HW219944   3.060   0.624   7.453  2.4179  1.9341 -2.6041
 2771SOL     OW19945   2.452   0.176   7.947  0.1708 -0.2055  0.2256
 2771SOL    HW119946   2.403   0.205   8.024  1.1041  2.0538 -0.0322
 2771SOL    HW219947   2.542   0.183   7.977  0.8941  1.7699 -2.3882
 2772SOL     OW19948   2.532   1.877   6.926  0.0833  0.3024  0.3452
 2772SOL    HW119949   2.576   1.836   6.852  2.4018  1.2148  1.2096
 2772SOL    HW219950   2.510   1.807   6.987  0.2170 -0.7174 -0.7793
 2773SOL     OW19951   0.087   3.931   7.895 -0.1571 -0.5038  0.6191
 2773SOL    HW119952   0.148   3.962   7.961 -0.1847  0.1960  0.3217
 2773SOL    HW219953   0.156   3.904   7.834  1.3525  0.0761  2.0837
 2774SOL     OW19954   2.758   4.686   2.477 -0.3332  0.3177  0.4216
 2774SOL    HW119955   2.739   0.032   2.430 -1.0865  0.2988  0.6926
 2774SOL    HW219956   2.678   4.637   2.455  0.6676 -1.2509  0.2709
 2775SOL     OW19957   1.731   3.688   3.041  0.8813  0.0066 -0.1034
 2775SOL    HW119958   1.767   3.604   3.013  1.7770  0.0784  0.8287
 2775SOL    HW219959   1.809   3.740   3.063 -0.1050  1.4931 -0.1447
 2776SOL     OW19960   4.382   0.824   7.470 -0.1617 -0.2924  0.1477
 2776SOL    HW119961   4.414   0.756   7.411  0.6624 -1.1830  1.6166
 2776SOL    HW219962   4.421   0.893   7.417 -0.0850 -0.0763  0.4877
 2777SOL     OW19963   1.088   3.507  14.819  0.2218 -0.2740 -0.0310
 2777SOL    HW119964   1.153   3.561  14.775  1.8904 -2.2608 -0.0263
 2777SOL    HW219965   1.094   3.542  14.908 -1.3790 -0.7357  0.2445
 2778SOL     OW19966   1.180   1.327  15.881  0.8457 -0.2233  0.1516
 2778SOL    HW119967   1.221   1.256  15.831 -2.4291  1.0405 -4.3401
 2778SOL    HW219968   1.119   1.280  15.936  1.3847 -0.9862  0.1011
 2779SOL     OW19969   3.915   2.691   2.577 -0.4420 -0.7834  0.1740
 2779SOL    HW119970   3.990   2.635   2.596 -0.2155  0.0251  1.6717
 2779SOL    HW219971   3.960   2.774   2.558 -1.5567 -0.4698 -1.0707
 2780SOL     OW19972   0.704   0.503   8.872 -0.4825 -0.5093 -0.1855
 2780SOL    HW119973   0.767   0.453   8.924 -0.5785 -0.5629 -0.1193
 2780SOL    HW219974   0.627   0.446   8.868  0.5478 -1.8072 -1.7348
 2781SOL     OW19975   2.537   1.386  12.425  0.0466  0.2966  0.5934
 2781SOL    HW119976   2.615   1.334  12.441 -1.5112 -1.9824  0.8658
 2781SOL    HW219977   2.498   1.338  12.352  1.3474  0.2267 -0.0435
 2782SOL     OW19978   2.831   4.454  11.841  0.2605 -0.2581  0.2555
 2782SOL    HW119979   2.815   4.522  11.776 -0.6263 -0.2096  0.5300
 2782SOL    HW219980   2.921   4.479  11.865  0.2172  1.4677 -1.4499
 2783SOL     OW19981   4.381   1.760   5.661 -0.3408 -0.2050  0.2375
 2783SOL    HW119982   4.417   1.700   5.596  0.8702 -0.5551  1.2246
 2783SOL    HW219983   4.377   1.837   5.605 -2.1308  1.9645  3.3087
 2784SOL     OW19984   0.956   0.072   2.291  0.4557 -0.1979 -0.1138
 2784SOL    HW119985   0.901   0.150   2.290  0.4038 -0.2386 -1.4649
 2784SOL    HW219986   1.043   0.111   2.296  0.3328  0.1084 -0.3620
 2785SOL     OW19987   0.291   3.718   1.807 -0.2218  0.2658 -0.3908
 2785SOL    HW119988   0.239   3.693   1.730  0.0339 -1.0849 -0.1365
 2785SOL    HW219989   0.289   3.638   1.860  3.0697  0.4802  0.0616
 2786SOL     OW19990   2.902   1.706   7.193  0.1618  0.4739 -0.2919
 2786SOL    HW119991   2.930   1.797   7.188  0.2440  0.5545  1.6673
 2786SOL    HW219992   2.902   1.682   7.100  0.8769  1.2895 -0.5030
 2787SOL     OW19993   4.405   3.275   7.530  0.3587 -0.4383  0.0930
 2787SOL    HW119994   4.467   3.348   7.531 -0.3924  0.2104 -0.4144
 2787SOL    HW219995   4.323   3.312   7.565  0.3801 -0.0916 -0.2229
 2788SOL     OW19996   0.762   1.023   6.323 -0.1115 -0.2736 -0.2829
 2788SOL    HW119997   0.840   0.968   6.329  0.6915  0.8280 -0.6014
 2788SOL    HW219998   0.799   1.103   6.360 -0.7999 -0.3688  0.6055
 2789SOL     OW19999   3.737   4.095   4.427 -0.1404 -0.4604 -0.7026
 2789SOL    HW120000   3.791   4.072   4.503  0.5715  0.3330 -0.9692
 2789SOL    HW220001   3.678   4.164   4.457  2.7740  1.5594  0.3992
 2790SOL     OW20002   0.204   2.607  12.082 -0.3470 -0.6014  0.1522
 2790SOL    HW120003   0.271   2.543  12.057  1.6155  0.8096  1.8036
 2790SOL    HW220004   0.247   2.630  12.164 -0.6662 -2.0488  0.7274
 2791SOL     OW20005   4.625   4.194   6.571  0.1291  0.3132 -0.0967
 2791SOL    HW120006   4.592   4.189   6.661 -0.9771 -0.6862 -0.5815
 2791SOL    HW220007   4.719   4.210   6.583 -0.3234  1.9365  1.4157
 2792SOL     OW20008   0.871   3.784  15.221  0.0121  0.1531 -0.0440
 2792SOL    HW120009   0.888   3.849  15.290  0.4855 -1.3742  1.2812
 2792SOL    HW220010   0.905   3.844  15.155 -0.3383 -1.3767 -1.6004
 2793SOL     OW20011   0.870   0.449   7.816  0.0426 -0.1985 -0.2298
 2793SOL    HW120012   0.840   0.436   7.906  0.8584  0.2072  0.0963
 2793SOL    HW220013   0.964   0.435   7.828  0.3665 -0.4613 -2.9319
 2794SOL     OW20014   0.058   3.767   4.965 -0.2189  0.2918  0.0512
 2794SOL    HW120015   0.097   3.690   4.923  0.4183 -0.1158  1.4009
 2794SOL    HW220016   4.718   3.787   4.910 -0.0999  2.5787  0.7052
 2795SOL     OW20017   3.391   2.859  14.881 -0.3825  0.0862 -0.1747
 2795SOL    HW120018   3.472   2.828  14.840 -0.2207 -0.8456  0.8255
 2795SOL    HW220019   3.326   2.790  14.865  0.7214 -1.0435  0.1590
 2796SOL     OW20020   1.227   0.537  11.961  0.0211  0.4113  0.0355
 2796SOL    HW120021   1.302   0.537  12.020 -0.3538  1.3983  0.5133
 2796SOL    HW220022   1.260   0.474  11.897  0.3525  2.6799 -2.0469
 2797SOL     OW20023   1.371   1.037   8.306  0.1397 -0.1077 -0.1918
 2797SOL    HW120024   1.329   1.119   8.280 -0.4003 -0.6903 -1.1400
 2797SOL    HW220025   1.324   1.009   8.384  0.3253  0.3858  0.1012
 2798SOL     OW20026   2.430   1.214  17.292  0.4020  0.1541 -0.0326
 2798SOL    HW120027   2.503   1.211  17.354  0.0219  2.6016  0.5334
 2798SOL    HW220028   2.447   1.136  17.240  2.3107 -0.2733  1.2271
 2799SOL     OW20029   1.636   2.152   9.162  0.0843 -1.0366  1.1674
 2799SOL    HW120030   1.561   2.092   9.153 -0.6004  0.5392 -4.1074
 2799SOL    HW220031   1.671   2.133   9.075 -1.9209  1.0918 -0.1170
 2800SOL     OW20032   1.737   2.118  11.157  0.3872 -0.4689 -0.1705
 2800SOL    HW120033   1.778   2.168  11.227  0.1437  0.1852 -0.4980
 2800SOL    HW220034   1.649   2.155  11.155  1.3843  1.8812 -0.1395
 2801SOL     OW20035   1.913   1.761   4.001  0.5715  0.0932  0.3077
 2801SOL    HW120036   1.973   1.817   4.050 -1.2794  0.3997  2.2468
 2801SOL    HW220037   1.861   1.731   4.075  2.2069 -3.0445  0.1815
 2802SOL     OW20038   3.489   3.986   6.397 -0.3550 -0.3996  0.4072
 2802SOL    HW120039   3.435   4.007   6.321 -0.8535 -0.3753  0.7685
 2802SOL    HW220040   3.560   3.935   6.357 -1.6821 -0.9003 -1.2784
 2803SOL     OW20041   3.322   4.731   5.186 -0.2528  0.0781  0.3255
 2803SOL    HW120042   3.401   4.681   5.167  0.5085  1.6614 -0.6583
 2803SOL    HW220043   3.330   0.007   5.281 -2.1601 -0.3219  0.5449
 2804SOL     OW20044   3.306   3.120   2.168  0.0318 -0.1242 -0.2041
 2804SOL    HW120045   3.383   3.167   2.136 -1.5600  0.9458 -2.4629
 2804SOL    HW220046   3.242   3.190   2.162  1.5515  1.2499 -0.4334
 2805SOL     OW20047   1.336   0.784   2.873 -0.1925 -0.2581 -0.1204
 2805SOL    HW120048   1.341   0.704   2.927  0.6805 -0.0321  0.1405
 2805SOL    HW220049   1.378   0.850   2.928  0.0661 -0.1610 -0.4341
 2806SOL     OW20050   1.197   3.396   3.262 -0.0892 -0.3616  0.1955
 2806SOL    HW120051   1.274   3.438   3.302 -1.0041  0.7147  0.8113
 2806SOL    HW220052   1.156   3.470   3.217  0.5483 -0.0408  0.1391
 2807SOL     OW20053   2.922   4.384   0.324  0.0322  0.0139  0.0232
 2807SOL    HW120054   2.896   4.432   0.246 -1.5933 -1.4135 -0.3069
 2807SOL    HW220055   2.993   4.328   0.292 -0.2675 -1.1157  1.3140
 2808SOL     OW20056   2.346   1.911   4.696 -0.5273  0.1161 -0.0913
 2808SOL    HW120057   2.369   1.857   4.772 -2.1776  0.2356  0.4793
 2808SOL    HW220058   2.268   1.951   4.732 -0.8059 -0.3250 -0.2076
 2809SOL     OW20059   2.105   3.446  12.696 -0.4527  0.3369 -0.5877
 2809SOL    HW120060   2.189   3.417  12.732 -1.0829  1.4072  1.7431
 2809SOL    HW220061   2.045   3.377  12.725  0.3269 -0.2016 -0.2759
 2810SOL     OW20062   4.059   3.589  17.274 -0.4458  0.4089  0.3753
 2810SOL    HW120063   3.992   3.523  17.292 -1.6282  0.5052 -3.6735
 2810SOL    HW220064   4.069   3.648  17.349  0.1522 -0.0884  0.6846
 2811SOL     OW20065   0.069   4.323   1.018 -0.0788 -0.5157 -0.5173
 2811SOL    HW120066   0.090   4.402   0.967  1.1327 -0.9805 -0.7358
 2811SOL    HW220067   4.716   4.333   1.053  0.1872  0.6119 -0.1506
 2812SOL     OW20068   3.954   1.711   9.396 -0.2290  0.3471  0.0205
 2812SOL    HW120069   3.944   1.680   9.305 -3.0397 -0.8811  0.7396
 2812SOL    HW220070   3.936   1.805   9.392 -0.9611  0.1762 -0.9540
 2813SOL     OW20071   3.274   3.492  15.781  0.2592  0.0424  0.5688
 2813SOL    HW120072   3.337   3.557  15.751  2.5386 -1.7030  1.5178
 2813SOL    HW220073   3.293   3.426  15.714  0.4619  0.1566  0.5120
 2814SOL     OW20074   1.929   1.268   0.152  0.1036 -0.0866  0.6244
 2814SOL    HW120075   1.939   1.186   0.200  1.6785 -0.9352 -1.1583
 2814SOL    HW220076   1.913   1.248   0.060  2.5773 -1.5788  0.5318
 2815SOL     OW20077   3.135   4.233  14.896 -0.0822 -0.1861 -0.1365
 2815SOL    HW120078   3.077   4.180  14.951  1.1541  0.8842  2.1781
 2815SOL    HW220079   3.183   4.282  14.962 -1.6140  0.8402  0.2315
 2816SOL     OW20080   4.204   4.248   1.355 -0.2148 -0.0581  0.3537
 2816SOL    HW120081   4.297   4.225   1.348 -0.0976  1.3751 -2.7274
 2816SOL    HW220082   4.180   4.296   1.276 -1.7259 -1.2165  0.1179
 2817SOL     OW20083   2.242   0.657   3.806 -0.2332  0.0403 -0.1590
 2817SOL    HW120084   2.224   0.631   3.896  0.5274 -1.2088 -0.3733
 2817SOL    HW220085   2.234   0.572   3.763  0.0690  0.4392 -1.0080
 2818SOL     OW20086   3.812   2.281   5.863 -0.0242 -0.3915  0.3057
 2818SOL    HW120087   3.764   2.268   5.781  1.7858 -2.3799 -0.4695
 2818SOL    HW220088   3.808   2.192   5.899 -2.7717 -1.1738 -1.9959
 2819SOL     OW20089   2.793   1.946   5.446  0.3392 -0.0930  0.3583
 2819SOL    HW120090   2.843   1.954   5.527 -1.4565 -2.4446  1.6813
 2819SOL    HW220091   2.860   1.951   5.377 -0.8670 -0.1436 -0.8042
 2820SOL     OW20092   3.939   3.164   3.724 -0.1166 -0.5400 -0.0268
 2820SOL    HW120093   4.028   3.197   3.713  0.4192 -2.1823 -0.5916
 2820SOL    HW220094   3.939   3.090   3.663 -1.6038  0.5991 -1.4173
 2821SOL     OW20095   3.035   3.921   3.719 -0.1611 -0.4052  0.6053
 2821SOL    HW120096   2.943   3.932   3.743  0.0138 -0.3769  1.2787
 2821SOL    HW220097   3.076   3.920   3.806 -0.0505  0.3915  0.5626
 2822SOL     OW20098   0.677   4.340  16.070  0.1569 -0.1515 -0.2418
 2822SOL    HW120099   0.665   4.430  16.099 -0.0395 -0.2540 -0.0011
 2822SOL    HW220100   0.632   4.289  16.138  1.0571  1.2037  1.3649
 2823SOL     OW20101   1.500   3.978   2.363  0.1659 -0.0316  0.6217
 2823SOL    HW120102   1.466   3.997   2.451 -1.9376  3.0063 -0.8502
 2823SOL    HW220103   1.437   3.909   2.342 -0.2035  0.1362  1.1598
 2824SOL     OW20104   2.534   2.398   1.893  0.6553 -0.3581  0.2805
 2824SOL    HW120105   2.561   2.406   1.984  3.5603  0.1591 -0.6382
 2824SOL    HW220106   2.610   2.383   1.837  0.0304 -1.1354 -0.3721
 2825SOL     OW20107   3.019   3.393   7.450 -0.3647 -0.1653  0.5546
 2825SOL    HW120108   3.017   3.399   7.546 -0.0683 -0.5054  0.5846
 2825SOL    HW220109   3.089   3.328   7.440 -0.5269 -0.4094  1.0046
 2826SOL     OW20110   2.582   4.531  16.488 -0.0669  0.9352  0.1310
 2826SOL    HW120111   2.564   4.546  16.396  0.5489 -3.0065 -0.6250
 2826SOL    HW220112   2.650   4.464  16.478 -1.3240 -0.3961  0.5672
 2827SOL     OW20113   2.135   4.566   1.658 -0.3539  0.7084  0.2633
 2827SOL    HW120114   2.097   4.628   1.597  1.0462 -1.0958 -2.4243
 2827SOL    HW220115   2.229   4.582   1.650  0.1170 -0.9738  2.2483
 2828SOL     OW20116   3.646   3.010   6.146  0.1829 -0.7310  0.1807
 2828SOL    HW120117   3.559   3.050   6.139  0.3890 -0.6239 -1.8161
 2828SOL    HW220118   3.633   2.937   6.085  0.0640 -2.3715  2.1608
 2829SOL     OW20119   0.482   4.099  10.006  0.4546 -0.0956  0.5431
 2829SOL    HW120120   0.410   4.147   9.965  2.2176  1.7314 -0.4298
 2829SOL    HW220121   0.532   4.173  10.041  0.9163  0.8598 -2.1147
 2830SOL     OW20122   1.569   0.117   9.449  0.1330 -0.3429  0.0196
 2830SOL    HW120123   1.550   0.043   9.391  4.3982 -2.7297  1.7451
 2830SOL    HW220124   1.480   0.131   9.482 -0.8890 -1.2925 -2.3522
 2831SOL     OW20125   2.474   2.997   9.147  0.3285  0.0522  0.4113
 2831SOL    HW120126   2.407   2.986   9.080  1.5865 -1.0069 -0.6795
 2831SOL    HW220127   2.470   3.089   9.171  0.2037 -0.3112  1.7816
 2832SOL     OW20128   1.339   0.040   7.834 -0.3531  0.4824 -0.5442
 2832SOL    HW120129   1.268   0.020   7.895  0.4765  1.9679  0.9025
 2832SOL    HW220130   1.326   0.135   7.828  0.7866  0.6430 -0.5289
 2833SOL     OW20131   0.438   2.371  10.475 -0.1829  0.4678  0.0388
 2833SOL    HW120132   0.488   2.289  10.481  0.6103  0.9555  0.0998
 2833SOL    HW220133   0.351   2.339  10.453 -0.1513 -0.5225  1.3188
 2834SOL     OW20134   3.886   2.431   6.641  0.9559 -0.8952  0.1150
 2834SOL    HW120135   3.960   2.456   6.696 -1.4510  1.6232  2.2026
 2834SOL    HW220136   3.926   2.430   6.554  0.7472 -0.3124  0.0145
 2835SOL     OW20137   0.336   0.202   5.237  0.1532 -0.5898  0.4268
 2835SOL    HW120138   0.341   0.111   5.208  0.5182 -0.8829  1.4421
 2835SOL    HW220139   0.253   0.199   5.284  0.0175 -1.1806  0.1430
 2836SOL     OW20140   0.191   2.290   5.355  0.1284  0.0603  0.1470
 2836SOL    HW120141   0.142   2.370   5.334 -2.5434 -1.2858  1.2448
 2836SOL    HW220142   0.122   2.225   5.342 -0.8718  1.1189  0.1762
 2837SOL     OW20143   1.871   4.366   2.479  0.4814 -0.2242  0.2057
 2837SOL    HW120144   1.861   4.431   2.410 -0.7278 -1.6777 -1.0001
 2837SOL    HW220145   1.784   4.325   2.473  1.0211 -1.7641  2.8144
 2838SOL     OW20146   0.527   4.207  17.218 -0.1977 -0.0346  0.2420
 2838SOL    HW120147   0.566   4.122  17.199  0.2620  0.4412 -0.8926
 2838SOL    HW220148   0.507   4.234  17.128  1.5760  0.6175  0.0598
 2839SOL     OW20149   0.578   4.113   2.441  0.4285  0.0157 -0.0251
 2839SOL    HW120150   0.518   4.038   2.448 -0.0868  0.4700  0.4081
 2839SOL    HW220151   0.550   4.149   2.526  2.2435 -1.0408  1.0316
 2840SOL     OW20152   3.205   3.032   7.708 -0.1475 -0.0014  0.2668
 2840SOL    HW120153   3.123   3.065   7.672  1.0393  1.1244 -1.4097
 2840SOL    HW220154   3.213   3.086   7.786 -0.1953  0.0040  0.2678
 2841SOL     OW20155   1.270   1.413   5.535 -0.4569  0.2571  0.2350
 2841SOL    HW120156   1.341   1.426   5.472  1.2512 -0.2964  2.0527
 2841SOL    HW220157   1.249   1.321   5.518 -2.3679  0.7232  0.0502
 2842SOL     OW20158   3.059   1.144  15.580 -0.2961  0.7305 -0.1029
 2842SOL    HW120159   3.015   1.153  15.496  0.9369  2.2683 -0.5880
 2842SOL    HW220160   3.098   1.058  15.565 -0.9498  0.2826  0.7400
 2843SOL     OW20161   0.591   4.238   7.093  0.0534 -0.4520  0.6086
 2843SOL    HW120162   0.567   4.266   7.004  3.2318  0.2314 -0.0132
 2843SOL    HW220163   0.683   4.264   7.096  0.3053 -1.2572 -0.1348
 2844SOL     OW20164   1.595   3.691   4.056 -0.5320  0.3030 -0.0399
 2844SOL    HW120165   1.518   3.710   4.003  0.4961  0.5133 -1.4718
 2844SOL    HW220166   1.601   3.596   4.044 -1.7658  0.4762 -2.0355
 2845SOL     OW20167   3.717   3.590   2.473 -0.3388  0.0438 -0.5267
 2845SOL    HW120168   3.764   3.673   2.480 -1.1455  0.4209  0.6037
 2845SOL    HW220169   3.626   3.615   2.490 -0.3150 -0.9465  1.1440
 2846SOL     OW20170   1.161   0.818   7.943 -0.0836  0.2857 -0.1621
 2846SOL    HW120171   1.146   0.893   7.885 -1.2300 -2.2474 -3.1564
 2846SOL    HW220172   1.224   0.762   7.898  1.2165  1.2657  0.4478
 2847SOL     OW20173   3.962   1.735   7.217 -0.1733  0.6130  0.3155
 2847SOL    HW120174   3.915   1.819   7.211 -1.7861 -0.2326  1.1703
 2847SOL    HW220175   4.009   1.743   7.300 -1.0970 -0.7677  0.9639
 2848SOL     OW20176   0.448   3.959   1.724  0.5550  0.8867 -0.1900
 2848SOL    HW120177   0.412   3.875   1.752  1.4906 -0.3189 -2.6264
 2848SOL    HW220178   0.447   3.945   1.629 -0.0488  2.9949 -0.4933
 2849SOL     OW20179   0.260   2.888  16.684 -0.1446  0.4487  0.8212
 2849SOL    HW120180   0.167   2.868  16.683  0.0959 -0.6253 -0.1688
 2849SOL    HW220181   0.273   2.884  16.779 -0.7632 -1.6193  0.8136
 2850SOL     OW20182   3.540   3.479   8.474 -0.1512  0.0417 -0.5113
 2850SOL    HW120183   3.578   3.391   8.470  1.8899  0.8641  0.4757
 2850SOL    HW220184   3.496   3.470   8.558  3.1371  1.4863  1.3559
 2851SOL     OW20185   3.780   2.235   4.830  0.0533 -0.7596 -0.3794
 2851SOL    HW120186   3.685   2.242   4.818 -0.0864  1.9199  2.3892
 2851SOL    HW220187   3.801   2.326   4.847 -1.0675 -0.9363  1.9341
 2852SOL     OW20188   1.389   4.610   1.806  0.0078 -0.5163 -0.0137
 2852SOL    HW120189   1.318   4.553   1.776 -1.1251 -0.0963  1.8642
 2852SOL    HW220190   1.376   4.695   1.763 -2.5573 -0.2737  1.2533
 2853SOL     OW20191   1.423   1.180   9.442  0.3463 -0.9440 -0.1460
 2853SOL    HW120192   1.423   1.235   9.363 -0.0588 -0.7137  0.0162
 2853SOL    HW220193   1.495   1.227   9.483  0.1144  0.3763 -1.2394
 2854SOL     OW20194   3.170   1.213   5.530 -0.2020  0.4458 -0.1491
 2854SOL    HW120195   3.241   1.255   5.578 -1.6664  1.0365  1.5211
 2854SOL    HW220196   3.188   1.123   5.555 -1.5960  0.1198 -0.2782
 2855SOL     OW20197   2.766   2.437   6.966  0.3470 -0.0697  0.5217
 2855SOL    HW120198   2.724   2.462   6.883  2.4173  0.5316 -0.3416
 2855SOL    HW220199   2.858   2.452   6.945  0.1444  0.2776 -0.1401
 2856SOL     OW20200   3.090   0.452  16.001 -0.9437  0.0479 -0.3395
 2856SOL    HW120201   3.033   0.379  15.978 -0.5233  0.3234 -2.2562
 2856SOL    HW220202   3.098   0.497  15.917 -0.1043  1.2844  0.3999
 2857SOL     OW20203   0.772   2.753   4.797  0.7480 -0.0650  0.9616
 2857SOL    HW120204   0.852   2.701   4.802  0.7215 -0.1824  0.1881
 2857SOL    HW220205   0.717   2.680   4.768 -3.4638  2.9154  1.5133
 2858SOL     OW20206   1.975   3.427  11.671 -0.1581 -0.1645  0.0739
 2858SOL    HW120207   1.889   3.415  11.710 -0.2357  1.8917  0.5813
 2858SOL    HW220208   2.019   3.355  11.715  0.9534 -0.9983 -2.4052
 2859SOL     OW20209   1.694   1.344   8.653  0.0770 -0.2193  0.2974
 2859SOL    HW120210   1.723   1.266   8.700  0.1720 -1.5246 -1.9273
 2859SOL    HW220211   1.653   1.295   8.582 -1.0180  2.4123 -0.8708
 2860SOL     OW20212   1.634   3.033   5.515  0.3755  0.2320  0.2614
 2860SOL    HW120213   1.720   3.071   5.534 -0.0375  1.1101  0.3624
 2860SOL    HW220214   1.606   3.084   5.440  1.4421 -2.2881 -1.8636
 2861SOL     OW20215   0.721   2.542   2.291  0.3721  0.0132 -0.6526
 2861SOL    HW120216   0.792   2.500   2.339  0.2152 -0.5402 -0.9043
 2861SOL    HW220217   0.709   2.470   2.230 -0.3232 -1.0546  0.7550
 2862SOL     OW20218   2.533   1.180   5.689 -0.3723  0.2924 -0.5156
 2862SOL    HW120219   2.440   1.199   5.695 -0.3001 -0.2831  2.5675
 2862SOL    HW220220   2.534   1.100   5.742  0.6049  0.1265 -0.7781
 2863SOL     OW20221   4.716   0.868   5.515  0.4322 -0.3903 -0.1558
 2863SOL    HW120222   4.725   0.896   5.424  0.2774  0.5649  0.1168
 2863SOL    HW220223   0.072   0.853   5.536 -0.0660 -0.7206  1.7994
 2864SOL     OW20224   1.226   4.684   7.195  0.6078  0.2657 -0.0524
 2864SOL    HW120225   1.320   4.692   7.183  0.5415  0.5350 -0.3825
 2864SOL    HW220226   1.198   4.675   7.104 -0.5395  0.3568  0.2848
 2865SOL     OW20227   4.455   1.693   9.017  0.1737  0.0669  0.4539
 2865SOL    HW120228   4.410   1.709   8.935 -0.1769  1.4835  0.9275
 2865SOL    HW220229   4.387   1.733   9.072 -0.4420 -0.8119  0.3212
 2866SOL     OW20230   1.838   3.175   3.258 -0.0730 -0.0133 -0.5594
 2866SOL    HW120231   1.867   3.254   3.212 -0.7751  1.4152  1.4179
 2866SOL    HW220232   1.743   3.186   3.259 -0.3782 -2.9011  0.6448
 2867SOL     OW20233   4.187   4.596   5.073  0.3200 -0.2877 -0.5083
 2867SOL    HW120234   4.113   4.578   5.015 -1.0181  2.7313  0.1955
 2867SOL    HW220235   4.161   4.549   5.152 -1.7110  2.2566  0.3883
 2868SOL     OW20236   2.747   2.455  14.162 -0.0073 -0.1627  0.0757
 2868SOL    HW120237   2.757   2.550  14.152 -0.2485 -0.1326  0.1086
 2868SOL    HW220238   2.653   2.446  14.179  0.4369 -0.8697  2.1547
 2869SOL     OW20239   1.680   0.489  13.035 -0.1703 -0.5864 -0.2367
 2869SOL    HW120240   1.642   0.508  12.950 -0.2744 -1.9849 -0.5137
 2869SOL    HW220241   1.708   0.400  13.013 -0.4953  0.3834 -4.4092
 2870SOL     OW20242   2.238   3.905   6.430 -0.2736  0.5385  0.4229
 2870SOL    HW120243   2.233   3.825   6.377 -1.0142  0.0657  1.2089
 2870SOL    HW220244   2.313   3.895   6.488  1.3968  0.5171 -1.7183
 2871SOL     OW20245   0.456   4.089  11.855  0.0608  0.1712  0.0840
 2871SOL    HW120246   0.447   4.077  11.761 -0.3650 -0.6103  0.2310
 2871SOL    HW220247   0.371   4.051  11.878 -0.3132  0.6889 -0.4295
 2872SOL     OW20248   4.342   1.051   3.278 -0.0325 -0.3182  0.0177
 2872SOL    HW120249   4.304   1.034   3.192 -0.4535  0.2533  0.0971
 2872SOL    HW220250   4.262   1.053   3.330  0.3816  2.3335  0.5389
 2873SOL     OW20251   3.060   3.097   3.821  0.1848 -0.7206  0.8990
 2873SOL    HW120252   3.105   3.180   3.802  0.4036 -0.9278  0.5191
 2873SOL    HW220253   3.060   3.107   3.917  1.5853  0.0289  0.8241
 2874SOL     OW20254   3.813   0.413   4.110 -0.3269 -0.1366  0.0352
 2874SOL    HW120255   3.866   0.444   4.183 -1.2434  0.9826  0.2326
 2874SOL    HW220256   3.722   0.428   4.137 -0.4449 -2.5486  0.9315
 2875SOL     OW20257   4.605   4.578   9.402  0.1744  0.3282 -0.2159
 2875SOL    HW120258   4.650   4.595   9.319  0.5883  3.3205  0.6200
 2875SOL    HW220259   4.666   4.630   9.454 -0.0274  1.8908 -1.5491
 2876SOL     OW20260   3.319   3.975   9.487 -0.1864  0.1554 -0.3836
 2876SOL    HW120261   3.225   3.971   9.469  0.3499 -0.8677 -2.9104
 2876SOL    HW220262   3.323   3.992   9.581 -2.8667 -0.6901 -0.1113
 2877SOL     OW20263   4.541   4.105   6.830 -0.3959 -0.0028  0.2965
 2877SOL    HW120264   4.505   4.087   6.917 -0.6084  0.7411  0.3594
 2877SOL    HW220265   4.585   4.022   6.812 -0.7603 -0.0590 -0.3481
 2878SOL     OW20266   1.453   3.639   2.435  0.2208 -0.5684  0.0197
 2878SOL    HW120267   1.388   3.602   2.376  0.2560 -1.5262  0.5755
 2878SOL    HW220268   1.521   3.632   2.368  0.4196 -2.5914  0.4144
 2879SOL     OW20269   4.560   3.348   3.939  0.3217  0.0811 -0.4710
 2879SOL    HW120270   4.618   3.423   3.955 -1.2727  1.4043 -0.9874
 2879SOL    HW220271   4.573   3.289   4.014  0.3197 -1.1882 -1.4815
 2880SOL     OW20272   3.916   2.069   8.956  0.0903  0.0037 -0.8476
 2880SOL    HW120273   3.833   2.084   9.000  0.7897  0.4570  0.3194
 2880SOL    HW220274   3.885   2.025   8.877 -1.9012  1.2250 -0.7233
 2881SOL     OW20275   4.443   3.832   8.040 -0.5621  0.0723 -0.2747
 2881SOL    HW120276   4.366   3.834   8.096  0.4175  1.7207  1.0126
 2881SOL    HW220277   4.494   3.910   8.061  2.8283 -2.3985  0.8300
 2882SOL     OW20278   4.231   4.672   5.494 -0.2998  0.0218  0.3214
 2882SOL    HW120279   4.297   4.603   5.504 -1.8475 -1.2043  1.8657
 2882SOL    HW220280   4.288   0.014   5.492 -0.5488  0.2265  1.2859
 2883SOL     OW20281   3.607   3.160  10.596  0.0978  0.0405  0.1099
 2883SOL    HW120282   3.592   3.217  10.521  0.1793 -2.0933 -1.5200
 2883SOL    HW220283   3.700   3.138  10.596  0.0664 -0.1359  2.0557
 2884SOL     OW20284   1.913   3.263  14.579  0.1799 -0.0068 -0.1890
 2884SOL    HW120285   1.822   3.235  14.570 -0.2190  1.2031 -0.0063
 2884SOL    HW220286   1.920   3.294  14.669  2.4680 -2.2219  0.3748
 2885SOL     OW20287   3.217   2.267  11.261  0.0486 -0.5763 -0.3739
 2885SOL    HW120288   3.174   2.182  11.261  3.3675 -2.2212 -3.4298
 2885SOL    HW220289   3.162   2.310  11.327  0.2722 -1.3317  0.3041
 2886SOL     OW20290   3.385   0.737   4.224 -0.2798 -0.0158  0.2792
 2886SOL    HW120291   3.303   0.773   4.191  0.1264  0.0307 -0.6781
 2886SOL    HW220292   3.363   0.685   4.301 -2.5084  1.7515  0.8284
 2887SOL     OW20293   4.651   4.731   8.594 -0.1358 -0.0498  0.1996
 2887SOL    HW120294   4.626   4.642   8.616  3.2595 -0.1715  3.4625
 2887SOL    HW220295   4.567   0.042   8.592  1.5134  2.8419 -2.7237
 2888SOL     OW20296   3.200   1.711  16.216 -0.7539  0.0748  0.2607
 2888SOL    HW120297   3.292   1.687  16.228 -0.5937  1.5110  1.9466
 2888SOL    HW220298   3.215   1.785  16.158 -0.3555  0.9551  1.4789
 2889SOL     OW20299   3.506   0.856   8.933  0.5023 -0.1428 -0.5263
 2889SOL    HW120300   3.588   0.820   8.899 -0.6330 -1.5832 -1.7552
 2889SOL    HW220301   3.446   0.782   8.922 -0.9105  0.7038  1.5607
 2890SOL     OW20302   2.398   1.475   6.120  0.3291 -0.1446 -0.1021
 2890SOL    HW120303   2.351   1.401   6.081  2.5242 -0.6901 -1.6950
 2890SOL    HW220304   2.327   1.506   6.177  0.2701  0.7172 -0.6490
 2891SOL     OW20305   2.840   4.476  11.016 -0.0222 -0.4936  0.2665
 2891SOL    HW120306   2.902   4.406  11.038 -0.4367 -1.5988 -1.9907
 2891SOL    HW220307   2.871   4.526  10.940 -0.3402  1.5284  1.4878
 2892SOL     OW20308   3.946   3.603   9.004 -0.1274 -0.1748 -0.0742
 2892SOL    HW120309   3.883   3.657   9.052 -0.0751  0.0152 -0.2203
 2892SOL    HW220310   4.019   3.664   9.006  2.2642 -3.0735  0.1437
 2893SOL     OW20311   3.362   3.860  14.132 -0.0083 -0.9629 -0.2232
 2893SOL    HW120312   3.275   3.897  14.120 -0.3827 -1.4062  1.1196
 2893SOL    HW220313   3.412   3.941  14.117 -0.7326 -0.6038 -0.6726
 2894SOL     OW20314   2.670   4.380   1.166  0.0856 -0.1352  0.5686
 2894SOL    HW120315   2.612   4.347   1.097 -0.1854  0.2209  0.6315
 2894SOL    HW220316   2.746   4.398   1.110  1.0390  1.8627  2.5540
 2895SOL     OW20317   0.952   4.133   4.877  0.0001 -0.1134  0.1816
 2895SOL    HW120318   0.971   4.101   4.965 -1.7105  1.2369  1.0268
 2895SOL    HW220319   0.993   4.217   4.896 -0.6815  0.0608  0.8713
 2896SOL     OW20320   1.554   2.416   4.659  0.4456  0.0957 -0.2362
 2896SOL    HW120321   1.640   2.445   4.629  0.4532 -0.5985 -0.8811
 2896SOL    HW220322   1.496   2.483   4.622  2.6390  1.0261 -1.9551
 2897SOL     OW20323   0.023   4.720   6.490  0.5653 -0.7365 -0.7376
 2897SOL    HW120324   0.037   4.648   6.552 -0.5871  0.1040  0.4944
 2897SOL    HW220325   0.106   0.029   6.507  0.0723 -1.7409  4.4073
 2898SOL     OW20326   1.650   3.347   1.455 -0.1234 -0.5847 -0.9258
 2898SOL    HW120327   1.698   3.291   1.394 -1.8602 -1.7448 -1.2505
 2898SOL    HW220328   1.720   3.385   1.508  0.4313 -1.7977 -0.7898
 2899SOL     OW20329   4.364   3.659  16.770  0.4340 -0.9184  0.1199
 2899SOL    HW120330   4.291   3.597  16.780 -0.8839  0.9258  1.9996
 2899SOL    HW220331   4.370   3.655  16.674 -0.8794  2.3422 -0.0924
 2900SOL     OW20332   4.310   1.948  17.306  0.0997  0.1700  0.2542
 2900SOL    HW120333   4.267   2.034  17.304  0.0759  0.1473 -0.3856
 2900SOL    HW220334   4.382   1.966  17.365  0.2007  0.0109  0.1776
 2901SOL     OW20335   2.523   3.300   1.432  0.3458 -0.0648  0.0585
 2901SOL    HW120336   2.616   3.306   1.411  0.2470  1.9348  0.1826
 2901SOL    HW220337   2.526   3.280   1.526 -1.0893 -1.2319 -0.1418
 2902SOL     OW20338   4.480   0.275   1.920 -0.1510 -0.0359  0.0889
 2902SOL    HW120339   4.438   0.336   1.861  0.2070 -0.7686 -0.9167
 2902SOL    HW220340   4.562   0.317   1.947 -1.5138  1.3236  2.1016
 2903SOL     OW20341   3.426   3.216  13.849 -0.1892  0.0084  0.2512
 2903SOL    HW120342   3.483   3.257  13.785 -0.2476  1.0076  0.8346
 2903SOL    HW220343   3.349   3.193  13.797  1.2561  1.4376 -2.4715
 2904SOL     OW20344   3.013   2.278   4.046  0.3410 -0.1568  0.7615
 2904SOL    HW120345   2.974   2.191   4.054 -0.4700 -0.0074 -1.6375
 2904SOL    HW220346   2.985   2.316   3.962  0.6984 -0.0513  0.6894
 2905SOL     OW20347   4.135   3.460   3.663 -0.4949  0.1728 -0.1201
 2905SOL    HW120348   4.138   3.503   3.748 -0.3371 -1.4489  0.6926
 2905SOL    HW220349   4.068   3.519   3.630 -1.5351 -1.5171 -1.0040
 2906SOL     OW20350   2.243   4.584   2.434 -0.1049 -0.1480  0.3186
 2906SOL    HW120351   2.320   4.605   2.487  1.1213 -0.6804 -1.2550
 2906SOL    HW220352   2.270   4.505   2.388  0.4874 -0.2233  0.7888
 2907SOL     OW20353   1.928   4.562  11.117 -0.3447  0.2076 -0.6501
 2907SOL    HW120354   1.969   4.571  11.031  0.4207 -3.5846 -0.7140
 2907SOL    HW220355   1.979   4.497  11.166 -0.4171  0.4481 -0.2604
 2908SOL     OW20356   4.451   2.691  13.938 -0.5020 -0.2170 -0.2155
 2908SOL    HW120357   4.443   2.708  13.844  1.6070 -0.5494 -0.4583
 2908SOL    HW220358   4.539   2.721  13.959  0.1213 -1.8994 -0.4023
 2909SOL     OW20359   4.134   0.312   4.124 -0.5060 -0.8149 -0.0206
 2909SOL    HW120360   4.089   0.315   4.208  1.5023 -1.8638  1.0998
 2909SOL    HW220361   4.207   0.254   4.146  1.0865  1.5646  1.0063
 2910SOL     OW20362   0.689   2.854   6.276 -0.0801  0.0697  0.2749
 2910SOL    HW120363   0.702   2.947   6.295  1.3876  0.0555 -0.6994
 2910SOL    HW220364   0.615   2.831   6.332 -0.6011 -0.9982 -0.8539
 2911SOL     OW20365   1.446   0.612   7.436 -0.4020  0.2768  0.4146
 2911SOL    HW120366   1.386   0.554   7.389  0.3317 -0.4863  0.4173
 2911SOL    HW220367   1.448   0.697   7.392  1.7279  0.6481  1.2000
 2912SOL     OW20368   2.395   0.068   1.728 -0.3597  0.0241 -0.1119
 2912SOL    HW120369   2.317   0.121   1.712 -0.1482  0.4687  0.3124
 2912SOL    HW220370   2.410   0.022   1.645  2.6013 -2.3038  1.7308
 2913SOL     OW20371   0.634   2.951   2.815 -0.1138  0.2673 -0.4193
 2913SOL    HW120372   0.623   3.012   2.888  0.8555 -0.1015  0.0354
 2913SOL    HW220373   0.730   2.951   2.805  0.0137 -1.7107  0.6842
 2914SOL     OW20374   4.654   3.152   4.118 -0.0549  0.9145  0.3018
 2914SOL    HW120375   4.705   3.071   4.122 -0.3302  0.7288  0.0188
 2914SOL    HW220376   4.719   3.203   4.167 -0.1574  0.6134  0.7543
 2915SOL     OW20377   1.659   3.030   9.884  0.4543 -0.4501  0.4130
 2915SOL    HW120378   1.570   3.043   9.853  0.3142  1.1437  1.4986
 2915SOL    HW220379   1.641   3.013   9.977  1.6659  1.3326  0.9822
 2916SOL     OW20380   1.636   2.056   5.715  0.6382  0.3020  0.0169
 2916SOL    HW120381   1.568   2.033   5.652  0.9892 -1.2239  0.1762
 2916SOL    HW220382   1.666   1.971   5.748 -0.7922 -0.0682  0.3659
 2917SOL     OW20383   4.563   0.403   4.364 -0.1297  0.0073  0.2718
 2917SOL    HW120384   4.597   0.480   4.409  1.0575 -0.2087 -0.2392
 2917SOL    HW220385   4.605   0.408   4.277 -4.3612 -0.3219 -1.7788
 2918SOL     OW20386   1.664   3.392   2.743 -0.0823  0.0571 -0.0651
 2918SOL    HW120387   1.756   3.371   2.729 -0.2006 -0.5874  0.0956
 2918SOL    HW220388   1.627   3.328   2.805 -1.8442 -0.2472 -1.4254
 2919SOL     OW20389   4.669   4.695   3.886  0.0529 -0.1694  0.3584
 2919SOL    HW120390   0.015   4.689   3.837 -1.0210 -0.9154 -1.3273
 2919SOL    HW220391   4.644   4.603   3.896 -0.3055  0.1276  2.2936
 2920SOL     OW20392   3.716   3.201   3.452 -0.1206 -0.0887  0.0201
 2920SOL    HW120393   3.722   3.229   3.543 -1.8403 -1.8498  0.6947
 2920SOL    HW220394   3.652   3.129   3.458  1.3497 -1.4610 -0.8274
 2921SOL     OW20395   0.712   0.279   2.298 -0.1688 -0.7481 -0.4249
 2921SOL    HW120396   0.706   0.235   2.382  1.6065  0.9369  0.5816
 2921SOL    HW220397   0.691   0.371   2.312 -0.3245 -0.7930 -0.3637
 2922SOL     OW20398   4.248   2.305  12.046  0.7854  0.3456  0.2062
 2922SOL    HW120399   4.272   2.231  12.102  1.0263  0.0274 -0.3254
 2922SOL    HW220400   4.315   2.365  12.079 -0.2789  0.1144  2.7742
 2923SOL     OW20401   1.240   1.179   1.584  0.3825  0.5306  0.3480
 2923SOL    HW120402   1.252   1.134   1.668 -1.0367 -1.1636 -0.3436
 2923SOL    HW220403   1.202   1.261   1.613  1.5576  0.7550  1.2912
 2924SOL     OW20404   1.443   0.914  10.378  0.2330  0.1699 -0.0790
 2924SOL    HW120405   1.411   0.988  10.327 -1.1701 -0.7991 -0.5993
 2924SOL    HW220406   1.488   0.875  10.303 -0.6930 -2.0241  0.5080
 2925SOL     OW20407   2.674   2.374   2.136 -0.0643 -0.1543  0.4682
 2925SOL    HW120408   2.639   2.335   2.217 -2.0346 -0.0007 -0.2985
 2925SOL    HW220409   2.768   2.366   2.154  0.2020 -0.6716 -1.1678
 2926SOL     OW20410   2.699   4.716   5.550  0.4058  0.3419 -0.1709
 2926SOL    HW120411   2.785   4.700   5.589 -0.4535  0.3773  1.7386
 2926SOL    HW220412   2.682   0.073   5.567  0.5907 -0.1361  2.6906
 2927SOL     OW20413   3.564   0.518   5.376 -0.0824  0.4436 -0.1478
 2927SOL    HW120414   3.566   0.524   5.471 -1.4223 -2.5866  0.0550
 2927SOL    HW220415   3.562   0.607   5.340 -0.7053  0.3751 -0.2855
 2928SOL     OW20416   0.451   2.964   4.454 -0.1601  0.2919 -0.1518
 2928SOL    HW120417   0.463   2.890   4.514 -2.4406  1.0858  1.2761
 2928SOL    HW220418   0.363   2.943   4.422 -0.2703  2.3568 -1.1631
 2929SOL     OW20419   0.025   1.063   6.682  0.5107  0.0824 -0.4357
 2929SOL    HW120420   0.033   1.017   6.598  1.3783 -1.2257  0.3641
 2929SOL    HW220421   4.669   1.080   6.703  0.1466  0.6304 -2.5055
 2930SOL     OW20422   0.627   1.050  15.035 -0.0406  0.6646  0.4991
 2930SOL    HW120423   0.639   0.989  15.108  0.9408 -0.2485 -0.4272
 2930SOL    HW220424   0.680   1.009  14.966 -1.0441  0.3754 -0.1139
 2931SOL     OW20425   3.433   0.411   8.188  0.4629  0.4947  0.5326
 2931SOL    HW120426   3.350   0.381   8.224  0.0560  0.8240 -0.1287
 2931SOL    HW220427   3.446   0.344   8.120 -3.4972 -1.2882  1.5112
 2932SOL     OW20428   2.413   1.425  10.168  0.2480 -0.2710  0.2587
 2932SOL    HW120429   2.318   1.437  10.173  0.2310 -1.1647  2.0651
 2932SOL    HW220430   2.409   1.388  10.080 -0.4935  2.7666 -0.9872
 2933SOL     OW20431   4.359   3.214   4.181  0.5599 -0.1584  0.2015
 2933SOL    HW120432   4.359   3.305   4.210  2.0952  1.0403 -3.4925
 2933SOL    HW220433   4.449   3.205   4.149  0.8550 -0.2287  1.0590
 2934SOL     OW20434   0.061   0.967   9.254  0.1290 -0.5147 -0.4813
 2934SOL    HW120435   0.019   1.011   9.180  1.1005  2.5707  0.7753
 2934SOL    HW220436   0.098   1.041   9.303  1.1976 -1.9823  0.9138
 2935SOL     OW20437   1.445   2.387   8.720 -0.6648  0.2385  0.4348
 2935SOL    HW120438   1.481   2.392   8.631 -2.3754 -0.6543 -0.3270
 2935SOL    HW220439   1.378   2.454   8.705  0.1689  0.5860 -1.7670
 2936SOL     OW20440   1.130   0.169   2.010 -0.1060 -0.1021  0.0754
 2936SOL    HW120441   1.156   0.169   2.103 -0.7995 -1.3474  0.2559
 2936SOL    HW220442   1.090   0.256   2.002  0.1372  0.1255  1.2075
 2937SOL     OW20443   2.351   1.327   3.832 -0.3687  0.2591  0.2740
 2937SOL    HW120444   2.374   1.245   3.789 -0.9641 -0.0399  0.5226
 2937SOL    HW220445   2.417   1.314   3.899 -0.0678 -1.5225 -0.3671
 2938SOL     OW20446   1.841   1.428   6.965  0.0587 -0.8369 -0.0558
 2938SOL    HW120447   1.876   1.516   6.967 -2.3943  0.0963  1.7133
 2938SOL    HW220448   1.863   1.395   7.052  1.4634 -0.3340 -0.2254
 2939SOL     OW20449   0.017   2.179  12.456 -0.1905  0.4216  1.0492
 2939SOL    HW120450   4.711   2.203  12.538 -1.3935  1.9452  0.0009
 2939SOL    HW220451   4.691   2.111  12.429 -0.0501 -0.3855  2.7671
 2940SOL     OW20452   2.615   3.373   9.739 -0.1646 -0.2637 -0.0262
 2940SOL    HW120453   2.536   3.405   9.782 -0.0240  0.4876 -0.3375
 2940SOL    HW220454   2.662   3.326   9.808  1.0544  0.9922  0.0131
 2941SOL     OW20455   2.547   0.858   3.237 -0.3388  0.3688 -0.1297
 2941SOL    HW120456   2.583   0.946   3.248  0.2587  0.2482 -1.1654
 2941SOL    HW220457   2.588   0.830   3.155 -0.4091 -2.1684  0.6786
 2942SOL     OW20458   0.626   4.544  15.765 -0.1567  0.2628 -0.3989
 2942SOL    HW120459   0.567   4.619  15.752  1.6942  1.7416 -0.2960
 2942SOL    HW220460   0.562   4.479  15.795 -0.4957  2.0530  2.7438
 2943SOL     OW20461   0.670   3.389   7.472 -0.3104 -0.0812  0.1070
 2943SOL    HW120462   0.622   3.471   7.485 -0.5736 -0.1534 -0.3989
 2943SOL    HW220463   0.610   3.341   7.414  1.0975 -1.0595 -0.5487
 2944SOL     OW20464   2.476   1.716   7.176  0.2848 -0.6259 -0.3373
 2944SOL    HW120465   2.558   1.732   7.222 -1.0170  0.7004  1.5130
 2944SOL    HW220466   2.520   1.643   7.131  1.0062 -0.4984  0.1691
 2945SOL     OW20467   0.660   0.458  11.566 -0.0874  0.6645 -0.1212
 2945SOL    HW120468   0.676   0.382  11.621 -0.4017  1.7152  1.4222
 2945SOL    HW220469   0.564   0.458  11.565 -0.0714 -1.3579 -1.6573
 2946SOL     OW20470   1.150   1.420   3.338  0.2296 -0.0747 -0.2518
 2946SOL    HW120471   1.172   1.501   3.291  1.3840  0.3199  0.9915
 2946SOL    HW220472   1.062   1.405   3.304  0.1961  2.7157 -1.4633
 2947SOL     OW20473   3.863   0.608   2.459  0.1228 -0.0834  0.4442
 2947SOL    HW120474   3.866   0.678   2.394  0.9746 -1.5612 -1.0957
 2947SOL    HW220475   3.776   0.578   2.432 -0.3760  1.0129  0.8401
 2948SOL     OW20476   1.013   2.474   9.796 -0.3277  0.2968 -0.1904
 2948SOL    HW120477   1.045   2.447   9.710  2.4558  0.6300  0.7432
 2948SOL    HW220478   1.014   2.390   9.841 -0.3464  0.1732 -0.4254
 2949SOL     OW20479   3.617   2.592   5.035  0.7412 -0.1780 -0.2801
 2949SOL    HW120480   3.699   2.625   5.071 -0.5689 -0.3692  2.8257
 2949SOL    HW220481   3.602   2.509   5.079  0.9958 -0.1732 -0.1835
 2950SOL     OW20482   4.180   3.996  15.052 -0.5594  0.0933 -0.0221
 2950SOL    HW120483   4.157   4.013  14.961 -1.2610  4.1291  0.8871
 2950SOL    HW220484   4.116   3.927  15.072 -1.2103  0.4993 -0.7271
 2951SOL     OW20485   3.113   1.610   7.981  0.5343 -0.1094 -0.8051
 2951SOL    HW120486   3.070   1.564   8.052  1.5663  2.2712  1.3685
 2951SOL    HW220487   3.179   1.544   7.957 -2.4286 -2.3215 -2.8645
 2952SOL     OW20488   0.709   0.077   0.414 -0.3732  0.4903  0.1826
 2952SOL    HW120489   0.780   0.051   0.354 -2.7091 -1.5141 -1.7164
 2952SOL    HW220490   0.658   4.733   0.424  0.7647 -0.1132  1.2638
 2953SOL     OW20491   0.306   3.132  10.195 -0.0596 -0.2780  0.1542
 2953SOL    HW120492   0.256   3.070  10.248  0.5336  0.6435  1.7918
 2953SOL    HW220493   0.238   3.169  10.139 -0.1276  0.6047  0.8259
 2954SOL     OW20494   2.541   2.598   2.491  0.4197  0.0508 -0.5655
 2954SOL    HW120495   2.540   2.660   2.417 -0.1272 -0.7403 -1.2153
 2954SOL    HW220496   2.606   2.537   2.454  0.9283  0.2346  0.0177
 2955SOL     OW20497   1.828   4.411   5.422  0.2090 -0.0985 -0.2940
 2955SOL    HW120498   1.888   4.348   5.464  0.5509  0.1715 -0.3770
 2955SOL    HW220499   1.743   4.381   5.454  1.0427 -0.7957  1.2475
 2956SOL     OW20500   3.018   1.342   2.849 -0.2753 -0.0475  0.6031
 2956SOL    HW120501   3.016   1.431   2.813  0.7537 -0.5338 -0.6160
 2956SOL    HW220502   2.939   1.311   2.804  0.1282 -0.5247  0.2309
 2957SOL     OW20503   3.273   3.527   7.332 -0.3330  0.0778  0.1257
 2957SOL    HW120504   3.305   3.481   7.410  0.0918 -0.6966 -0.5160
 2957SOL    HW220505   3.192   3.563   7.369 -1.2895 -0.2228 -1.6654
 2958SOL     OW20506   1.528   2.283   3.281 -0.1127  0.1784 -0.1800
 2958SOL    HW120507   1.613   2.282   3.236  0.8493 -1.3085  1.6426
 2958SOL    HW220508   1.562   2.278   3.371  0.8730  2.4421 -0.4259
 2959SOL     OW20509   0.349   2.658   7.558  0.7878 -0.1613  0.1035
 2959SOL    HW120510   0.268   2.703   7.533 -0.1707 -0.8824  1.8610
 2959SOL    HW220511   0.322   2.622   7.643  0.5407 -1.4931 -0.5364
 2960SOL     OW20512   1.991   0.084  12.148  0.7083  0.0398  0.0868
 2960SOL    HW120513   1.906   0.125  12.159  0.1230 -0.8377 -1.1769
 2960SOL    HW220514   2.001   0.079  12.053  2.7396 -0.7246  0.3494
 2961SOL     OW20515   1.456   0.805  12.699 -0.6105 -0.2274 -0.4121
 2961SOL    HW120516   1.429   0.741  12.632  0.7658 -1.3586  0.1148
 2961SOL    HW220517   1.530   0.757  12.737  0.7260  1.4051 -0.9451
 2962SOL     OW20518   3.120   3.612  11.867  0.8541  0.2840  1.0188
 2962SOL    HW120519   3.134   3.517  11.872 -1.6588 -0.0945  1.0647
 2962SOL    HW220520   3.025   3.617  11.851  1.0257 -0.8618 -0.2769
 2963SOL     OW20521   2.877   2.393  11.218 -0.3555  0.3299  0.2111
 2963SOL    HW120522   2.853   2.302  11.239  2.1185 -0.3019  0.2869
 2963SOL    HW220523   2.943   2.409  11.285  0.0865  0.5754 -0.2859
 2964SOL     OW20524   3.591   0.515   3.125 -0.9116 -0.2413 -0.2051
 2964SOL    HW120525   3.570   0.528   3.217  1.4108  3.2149 -0.1662
 2964SOL    HW220526   3.661   0.578   3.112 -0.2224 -0.9674 -0.0436
 2965SOL     OW20527   0.766   4.597   2.389  0.2083  0.1652 -0.8068
 2965SOL    HW120528   0.830   4.650   2.342 -0.7376  0.8532 -1.3124
 2965SOL    HW220529   0.734   4.545   2.316  2.4929 -2.5831  0.1516
 2966SOL     OW20530   1.979   0.930   6.094  0.3164  0.1291 -0.2822
 2966SOL    HW120531   1.886   0.957   6.096  0.5428  0.8199  1.1827
 2966SOL    HW220532   2.010   0.997   6.033  1.3982  0.6215  0.8189
 2967SOL     OW20533   3.120   2.306   0.159 -0.2288 -0.6437  0.2768
 2967SOL    HW120534   3.053   2.361   0.198  0.0774  0.0552 -0.1770
 2967SOL    HW220535   3.093   2.216   0.176  0.4427 -0.2749  3.2597
 2968SOL     OW20536   3.978   1.674  14.219  0.6329  0.2450 -0.3037
 2968SOL    HW120537   3.943   1.674  14.130  2.8978  0.5595 -1.1996
 2968SOL    HW220538   4.072   1.682  14.200  0.3084 -2.1097 -2.7403
 2969SOL     OW20539   2.927   0.793  16.542 -0.1134  0.3717  0.2968
 2969SOL    HW120540   2.963   0.775  16.628  0.2950 -1.4468 -0.2469
 2969SOL    HW220541   3.010   0.816  16.499  0.4528  1.7900  2.1724
 2970SOL     OW20542   0.177   0.597   9.976  0.5302 -0.2323  0.3084
 2970SOL    HW120543   0.098   0.549   9.951 -1.0517  1.2913  2.4020
 2970SOL    HW220544   0.222   0.530  10.028  0.1274 -0.3689  0.4872
 2971SOL     OW20545   4.573   2.608   6.852  0.0459 -0.5573  0.3172
 2971SOL    HW120546   4.666   2.627   6.844 -0.1726  0.9709  1.3703
 2971SOL    HW220547   4.553   2.670   6.922  0.5515  1.7462 -1.5626
 2972SOL     OW20548   0.899   2.564   8.332  1.0156  0.2636  0.7598
 2972SOL    HW120549   0.875   2.651   8.364 -0.3106  0.6774 -1.3619
 2972SOL    HW220550   0.938   2.581   8.247 -2.5162  2.2776 -0.4890
 2973SOL     OW20551   4.085   4.552  12.578  0.6262 -0.1187  0.1867
 2973SOL    HW120552   4.002   4.560  12.624  0.4584  1.1871 -0.3513
 2973SOL    HW220553   4.068   4.554  12.484 -2.1969 -0.8531  0.6682
 2974SOL     OW20554   1.921   0.047  14.965 -0.7023 -0.4435 -0.1261
 2974SOL    HW120555   1.889   0.067  15.053  2.0443  0.1783  0.7301
 2974SOL    HW220556   1.981   0.119  14.946 -1.3174 -0.0009 -0.3950
 2975SOL     OW20557   0.544   0.168  13.967  0.0121  0.4530 -0.2664
 2975SOL    HW120558   0.568   0.245  14.019  1.1095 -0.3572  0.4399
 2975SOL    HW220559   0.623   0.116  13.980  1.1653  2.7515  1.8829
 2976SOL     OW20560   4.385   0.279  17.211  0.1627 -0.9253  0.3283
 2976SOL    HW120561   4.422   0.199  17.174  1.4790  0.6181 -1.6870
 2976SOL    HW220562   4.463   0.329  17.235  1.0441 -1.0390 -2.3446
 2977SOL     OW20563   0.612   1.297  13.876  0.3460  0.3622 -0.2147
 2977SOL    HW120564   0.664   1.344  13.810  0.2780  1.6446  0.6641
 2977SOL    HW220565   0.546   1.251  13.824  0.2583 -0.3401  0.5215
 2978SOL     OW20566   2.978   3.614   3.117  0.4650  0.2383 -0.0444
 2978SOL    HW120567   3.045   3.659   3.066 -0.1523  1.1014 -0.0945
 2978SOL    HW220568   3.022   3.530   3.134 -0.4868 -0.5444 -1.5104
 2979SOL     OW20569   1.610   3.238   5.097 -0.0229 -0.1127  0.4680
 2979SOL    HW120570   1.680   3.181   5.130 -1.5681 -0.9515  2.3273
 2979SOL    HW220571   1.560   3.175   5.045  1.0946 -0.0666 -0.6849
 2980SOL     OW20572   3.017   1.300  15.796 -0.2621  0.4922 -0.0400
 2980SOL    HW120573   3.023   1.235  15.725 -1.2120 -0.2251  0.5367
 2980SOL    HW220574   2.945   1.256  15.841 -0.6216 -1.0827 -2.1204
 2981SOL     OW20575   2.289   4.601   6.289 -0.1228 -0.2138 -0.2924
 2981SOL    HW120576   2.346   4.633   6.359  0.2470 -0.1230 -0.6382
 2981SOL    HW220577   2.306   4.658   6.214 -1.0496  0.7098  0.1846
 2982SOL     OW20578   2.171   2.431   4.017 -0.0208  0.1124 -0.0931
 2982SOL    HW120579   2.165   2.405   3.925  1.3784  3.4788 -1.1577
 2982SOL    HW220580   2.118   2.358   4.048  0.8063 -1.3984 -2.2001
 2983SOL     OW20581   1.480   1.300  15.640  0.2071 -0.1268 -0.0133
 2983SOL    HW120582   1.435   1.344  15.568 -2.0525 -0.7961  0.9535
 2983SOL    HW220583   1.507   1.370  15.700  2.1619 -1.0552  0.1791
 2984SOL     OW20584   3.402   3.728  10.527 -0.1131 -0.6472  0.0957
 2984SOL    HW120585   3.469   3.773  10.476 -0.9293 -0.3278 -0.7015
 2984SOL    HW220586   3.375   3.660  10.466 -0.1013  0.4423 -1.1377
 2985SOL     OW20587   2.801   2.739   5.587 -0.4930  0.6242 -0.3007
 2985SOL    HW120588   2.890   2.740   5.622 -1.3968  0.8411  2.0622
 2985SOL    HW220589   2.753   2.764   5.666 -1.3459 -1.2078 -0.2363
 2986SOL     OW20590   0.680   1.423  17.660  0.1404 -0.3774  0.3326
 2986SOL    HW120591   0.695   1.375  17.579  1.5616  1.5409 -0.5159
 2986SOL    HW220592   0.602   1.371  17.684  0.7777 -1.8591 -0.8543
 2987SOL     OW20593   3.092   3.037   8.148 -0.0942  0.5699  0.3282
 2987SOL    HW120594   3.017   3.079   8.189  0.2944 -0.0727  1.7025
 2987SOL    HW220595   3.052   2.985   8.078  2.6230 -2.5872  1.1319
 2988SOL     OW20596   3.543   0.035   6.486 -0.2716  0.3238  0.1375
 2988SOL    HW120597   3.470   4.711   6.500 -1.0980  1.2273 -0.3403
 2988SOL    HW220598   3.581   0.010   6.402  0.7022 -1.9747  1.2461
 2989SOL     OW20599   3.899   0.983   2.525  0.1975 -0.4433 -0.2763
 2989SOL    HW120600   3.866   0.941   2.446  2.0889 -1.5131 -0.4968
 2989SOL    HW220601   3.992   0.962   2.516  0.2212 -1.2418  1.8467
 2990SOL     OW20602   4.584   2.380  11.542  0.2113 -0.1081 -0.3937
 2990SOL    HW120603   4.642   2.455  11.558  0.2236  0.6505 -4.1513
 2990SOL    HW220604   4.636   2.308  11.577 -0.5218 -0.3823  0.1369
 2991SOL     OW20605   1.448   1.674   5.409  0.0927  0.0137 -0.1873
 2991SOL    HW120606   1.357   1.703   5.419  0.5639  1.6014 -0.4191
 2991SOL    HW220607   1.426   1.593   5.364  1.2720  0.1380 -0.9748
 2992SOL     OW20608   0.247   2.291   2.788  0.1303  0.3817 -0.1109
 2992SOL    HW120609   0.243   2.276   2.693  1.4223 -3.8674  0.4923
 2992SOL    HW220610   0.326   2.243   2.812  0.2033  1.3398  1.5464
 2993SOL     OW20611   3.742   4.489  16.013 -0.2231  0.7188 -0.3034
 2993SOL    HW120612   3.740   4.467  15.920  0.2758 -0.7131  0.0124
 2993SOL    HW220613   3.667   4.547  16.008 -0.7502  0.0272 -0.3609
 2994SOL     OW20614   3.087   1.462  16.252  0.3892 -0.5701  0.4235
 2994SOL    HW120615   3.115   1.554  16.252 -1.3604 -0.0240  0.9190
 2994SOL    HW220616   3.053   1.451  16.341 -1.1965  2.3125  0.1864
 2995SOL     OW20617   1.187   1.411   0.334 -0.2680  0.7879 -0.1905
 2995SOL    HW120618   1.274   1.449   0.333 -0.1462  0.5000 -0.4833
 2995SOL    HW220619   1.199   1.328   0.288  0.6052 -1.6278  4.3393
 2996SOL     OW20620   1.885   4.634   8.928  1.0473 -0.2852 -0.3058
 2996SOL    HW120621   1.805   4.659   8.973  0.6443 -2.9525  0.4180
 2996SOL    HW220622   1.889   4.541   8.950  1.0307  0.0896  1.2760
 2997SOL     OW20623   0.582   1.224  15.390 -0.2007 -0.6701 -0.3047
 2997SOL    HW120624   0.561   1.293  15.454 -0.1968 -0.1392 -0.8767
 2997SOL    HW220625   0.675   1.240  15.375  0.2863 -0.2533  3.2631
 2998SOL     OW20626   0.841   2.390   5.498 -0.5050  0.2151  0.2105
 2998SOL    HW120627   0.751   2.399   5.530 -0.4421 -0.0695  0.4636
 2998SOL    HW220628   0.866   2.298   5.498  0.3345  0.4618  1.9070
 2999SOL     OW20629   0.777   2.939   5.967 -0.2827  0.3260 -0.0692
 2999SOL    HW120630   0.780   2.964   5.875  0.9664 -0.8743 -0.3589
 2999SOL    HW220631   0.847   2.874   5.968  0.1180  0.7616  0.0669
 3000SOL     OW20632   4.160   1.606   7.854 -0.7965 -0.4572 -0.8371
 3000SOL    HW120633   4.123   1.520   7.873 -0.0146 -0.9629 -1.5881
 3000SOL    HW220634   4.083   1.662   7.861  0.9260  1.8885 -0.7639
 3001SOL     OW20635   4.104   1.617   8.577  0.0617  0.2556 -0.3530
 3001SOL    HW120636   4.183   1.609   8.631  0.2449 -1.6933 -0.9172
 3001SOL    HW220637   4.063   1.692   8.619 -1.0229 -1.1761  1.1559
 3002SOL     OW20638   2.929   4.394   1.907 -0.0252  0.1878  0.3055
 3002SOL    HW120639   2.876   4.473   1.899  2.1337  1.6563  0.3518
 3002SOL    HW220640   3.012   4.437   1.929 -0.1950  1.1537 -0.9731
 3003SOL     OW20641   2.092   0.141   1.216 -0.2192  0.5631 -0.1168
 3003SOL    HW120642   2.148   0.093   1.155 -2.8329 -0.9335 -1.2907
 3003SOL    HW220643   2.031   0.175   1.151  0.4973 -2.3208 -2.3108
 3004SOL     OW20644   3.650   2.484  11.632 -0.0007 -0.4206 -0.3836
 3004SOL    HW120645   3.585   2.437  11.579  0.3280  1.1051 -2.1256
 3004SOL    HW220646   3.734   2.461  11.592  1.2025  0.7461  1.4979
 3005SOL     OW20647   0.687   1.614   5.715  0.0902  0.2241 -0.4462
 3005SOL    HW120648   0.626   1.688   5.718  0.8333  0.7961  0.6018
 3005SOL    HW220649   0.762   1.666   5.744  1.4834 -1.5659 -0.7942
 3006SOL     OW20650   0.141   1.905   2.539 -0.2291 -0.6413  0.6902
 3006SOL    HW120651   0.173   1.888   2.628  0.1184  0.1429  0.7193
 3006SOL    HW220652   0.216   1.881   2.484 -0.5313  1.1546 -0.5081
 3007SOL     OW20653   4.644   3.091   4.919 -0.0044  0.2124 -0.0658
 3007SOL    HW120654   4.702   3.033   4.969  1.4022  1.6402 -0.0171
 3007SOL    HW220655   4.677   3.076   4.831  2.8917 -1.5137  1.2919
 3008SOL     OW20656   3.767   3.970   7.431  0.0353  0.3687 -0.7168
 3008SOL    HW120657   3.837   3.917   7.393 -1.1834 -2.1578  0.5590
 3008SOL    HW220658   3.688   3.930   7.395  0.1899  1.1282 -1.9074
 3009SOL     OW20659   0.867   2.062   8.211  0.0526 -0.9054  0.4557
 3009SOL    HW120660   0.844   2.120   8.284 -0.5466 -1.6402  0.8486
 3009SOL    HW220661   0.839   2.123   8.143 -0.0076  0.2754  1.5398
 3010SOL     OW20662   0.045   0.354   7.536 -0.7632 -0.6910  0.5884
 3010SOL    HW120663   0.011   0.275   7.494  1.4897  0.0161 -2.5497
 3010SOL    HW220664   0.002   0.348   7.621 -1.2519  0.2326  0.4083
 3011SOL     OW20665   1.229   2.451   2.969 -0.2962  0.0874 -0.4402
 3011SOL    HW120666   1.251   2.372   3.018 -1.4024  1.3992  2.1881
 3011SOL    HW220667   1.211   2.515   3.038 -2.7843 -1.1592  0.0921
 3012SOL     OW20668   1.132   1.214   8.628 -0.0633 -0.2330 -0.7558
 3012SOL    HW120669   1.076   1.219   8.706  0.2456  0.1458 -0.5565
 3012SOL    HW220670   1.217   1.199   8.669 -0.3608  0.8296  0.2482
 3013SOL     OW20671   4.038   2.768   2.196 -0.0868 -0.2009 -0.0087
 3013SOL    HW120672   4.007   2.849   2.156 -0.5780 -0.2671  0.2371
 3013SOL    HW220673   4.131   2.781   2.174 -0.4404 -1.8358 -2.4574
 3014SOL     OW20674   3.570   3.338  13.648 -0.2493  0.2608  0.0528
 3014SOL    HW120675   3.509   3.409  13.627  0.2705  0.7825  0.3356
 3014SOL    HW220676   3.646   3.361  13.596  0.3891 -1.3609  0.2614
 3015SOL     OW20677   1.876   4.467   5.164 -0.2624  0.4963 -0.4695
 3015SOL    HW120678   1.961   4.437   5.132 -0.5620  0.4140 -1.1986
 3015SOL    HW220679   1.886   4.437   5.254 -0.0681  1.7170 -0.0899
 3016SOL     OW20680   1.813   1.588  14.458 -0.6128  0.1737  0.1065
 3016SOL    HW120681   1.720   1.605  14.442 -0.2718 -0.4630 -2.5226
 3016SOL    HW220682   1.800   1.500  14.492  1.3928 -0.1579 -0.0053
 3017SOL     OW20683   3.551   2.849  16.973  0.2416 -0.9023  0.0127
 3017SOL    HW120684   3.582   2.770  16.928  4.0495  0.3551  0.4824
 3017SOL    HW220685   3.497   2.898  16.910  1.4532  2.2484  1.4398
 3018SOL     OW20686   4.486   1.024   7.343 -0.3331 -0.5794 -0.0023
 3018SOL    HW120687   4.514   1.074   7.266  1.2422 -1.6996 -0.1636
 3018SOL    HW220688   4.473   1.093   7.408  0.6837 -1.1680  0.8255
 3019SOL     OW20689   4.090   1.285  10.302  0.3026 -0.0214 -0.2424
 3019SOL    HW120690   4.088   1.275  10.207  0.7077 -0.4255 -0.2091
 3019SOL    HW220691   4.158   1.224  10.331  0.6513  0.0267 -0.9547
 3020SOL     OW20692   4.130   1.743  17.387 -0.4465 -0.1115  0.1979
 3020SOL    HW120693   4.196   1.810  17.368 -0.0818  0.0037  1.9058
 3020SOL    HW220694   4.171   1.668  17.342  1.7534  0.3443  1.4359
 3021SOL     OW20695   0.204   4.180  10.189  0.5036  0.1547  0.1236
 3021SOL    HW120696   0.191   4.238  10.114  0.2282 -2.4850 -1.8478
 3021SOL    HW220697   0.262   4.238  10.239  1.8616  0.0210 -1.3227
 3022SOL     OW20698   3.773   4.065   9.226  0.5255 -0.0024 -0.1620
 3022SOL    HW120699   3.808   4.055   9.138 -0.0983  1.5741 -0.5901
 3022SOL    HW220700   3.678   4.064   9.211  0.5533 -1.1205 -0.3009
 3023SOL     OW20701   0.891   3.843   2.982  0.3913  0.1162 -0.0254
 3023SOL    HW120702   0.845   3.915   2.937  0.5437 -0.4611 -1.0950
 3023SOL    HW220703   0.978   3.839   2.942  0.0802 -2.1804 -0.4626
 3024SOL     OW20704   3.377   4.032   1.670 -0.3350 -0.2787  0.0336
 3024SOL    HW120705   3.292   4.012   1.711 -0.6583  1.4057  0.1659
 3024SOL    HW220706   3.431   3.979   1.729  1.0627 -0.0742 -1.0957
 3025SOL     OW20707   1.948   3.117   7.291  0.0730 -0.5867 -0.8423
 3025SOL    HW120708   2.038   3.095   7.315  0.3168  0.9339 -0.3387
 3025SOL    HW220709   1.950   3.209   7.317  1.9024 -0.9887  0.4095
 3026SOL     OW20710   0.863   0.598   3.643  0.0006  0.2189 -0.1471
 3026SOL    HW120711   0.879   0.644   3.560  0.6920 -2.2612 -1.3936
 3026SOL    HW220712   0.851   0.675   3.699 -1.4926  0.1991 -0.4444
 3027SOL     OW20713   2.515   0.284   5.857 -0.1109 -0.0810 -0.2689
 3027SOL    HW120714   2.430   0.240   5.859  1.1496 -2.5846 -1.3117
 3027SOL    HW220715   2.566   0.227   5.915 -1.1005  2.0233  2.6948
 3028SOL     OW20716   4.577   1.758   4.569 -0.3886 -0.6766  1.0149
 3028SOL    HW120717   4.516   1.791   4.634 -0.6986  2.5864 -0.9230
 3028SOL    HW220718   4.550   1.667   4.583  1.1870 -1.3102 -0.0022
 3029SOL     OW20719   0.172   2.304   0.366  0.2524  0.0577 -0.3079
 3029SOL    HW120720   0.141   2.394   0.374 -2.7673 -1.0434  0.4582
 3029SOL    HW220721   0.157   2.290   0.273 -2.8303 -1.3793  0.3897
 3030SOL     OW20722   0.592   3.685   9.967  0.3141 -0.0783  0.0831
 3030SOL    HW120723   0.547   3.666   9.885  0.9977 -2.2371  0.2044
 3030SOL    HW220724   0.519   3.705  10.026  1.8597  1.0038  1.6232
 3031SOL     OW20725   0.278   3.361   8.911 -0.2001  0.0036  0.5066
 3031SOL    HW120726   0.217   3.434   8.915 -0.8026 -0.5156  0.7911
 3031SOL    HW220727   0.285   3.333   9.002  0.7394  0.2597  0.5134
 3032SOL     OW20728   0.261   2.917  16.961  0.1112 -0.0808 -0.5366
 3032SOL    HW120729   0.285   2.852  17.026  3.1169 -0.4683 -2.0492
 3032SOL    HW220730   0.175   2.936  17.000 -0.0459 -1.9688  0.0168
 3033SOL     OW20731   4.622   0.776   7.051  0.6240  0.2196  0.8770
 3033SOL    HW120732   4.646   0.685   7.033  0.9013  0.9709 -2.6553
 3033SOL    HW220733   4.657   0.819   6.973  1.6284 -0.9156  0.7106
 3034SOL     OW20734   4.536   3.459  13.294  0.3683 -0.2257  0.0480
 3034SOL    HW120735   4.512   3.530  13.353 -1.3967 -0.8834  0.1341
 3034SOL    HW220736   4.466   3.398  13.320  1.5965 -2.0663 -0.9218
 3035SOL     OW20737   1.633   1.420   9.410 -0.5573 -0.3823 -0.8507
 3035SOL    HW120738   1.694   1.494   9.410 -0.3249 -0.5678 -1.4976
 3035SOL    HW220739   1.660   1.379   9.492 -1.1065 -0.5143 -0.7391
 3036SOL     OW20740   2.999   1.399  16.517  0.5699 -0.6188 -0.7310
 3036SOL    HW120741   3.014   1.305  16.517 -2.9556 -1.1806  1.0225
 3036SOL    HW220742   3.023   1.412  16.609 -0.5845  0.0037 -0.5191
 3037SOL     OW20743   2.283   2.408   1.982  0.0025 -0.2915  0.2199
 3037SOL    HW120744   2.214   2.383   1.921  1.2744  0.5778 -1.5686
 3037SOL    HW220745   2.360   2.400   1.926  0.2115  2.3392  0.1157
 3038SOL     OW20746   1.163   0.482   2.400 -0.0106  0.2729 -0.2144
 3038SOL    HW120747   1.125   0.446   2.480  1.1546  1.5468  0.8842
 3038SOL    HW220748   1.251   0.511   2.420  0.0496  0.4716 -0.7552
 3039SOL     OW20749   2.229   4.197   0.736 -0.1470 -0.2627  0.1702
 3039SOL    HW120750   2.245   4.197   0.830 -1.0298  0.6604  0.3252
 3039SOL    HW220751   2.254   4.286   0.709 -0.2074  0.3988  2.3086
 3040SOL     OW20752   4.288   3.783   7.007  0.1406 -0.0794  0.3611
 3040SOL    HW120753   4.311   3.785   6.914 -0.4965 -0.1790  0.1997
 3040SOL    HW220754   4.220   3.717   6.999  0.6298 -0.6565  1.0410
 3041SOL     OW20755   2.697   0.029   0.578  0.8928  0.5382  0.1654
 3041SOL    HW120756   2.657   4.688   0.618 -0.4773  1.6614  0.9583
 3041SOL    HW220757   2.733   0.081   0.649  1.6491  0.2438 -0.0036
 3042SOL     OW20758   0.216   1.416  12.609 -1.3756  0.2446  0.1567
 3042SOL    HW120759   0.235   1.498  12.562  2.0788  0.3424  1.7609
 3042SOL    HW220760   0.122   1.427  12.625 -1.0797  1.4215  1.0773
 3043SOL     OW20761   0.178   0.175   3.977  0.1402 -0.1533 -0.1674
 3043SOL    HW120762   0.257   0.221   4.008 -0.6407 -0.2470  1.8934
 3043SOL    HW220763   0.151   0.130   4.056  1.8845 -0.9767 -0.0280
 3044SOL     OW20764   0.323   3.117  12.520  0.6044 -0.2280 -0.1343
 3044SOL    HW120765   0.312   3.112  12.615 -1.0473  1.0780 -0.2463
 3044SOL    HW220766   0.393   3.053  12.514  0.6834 -0.0551 -1.0163
 3045SOL     OW20767   0.369   0.146   5.986  0.2796  0.3319 -0.0747
 3045SOL    HW120768   0.369   0.242   5.987 -2.0656  0.3771 -2.5661
 3045SOL    HW220769   0.288   0.137   5.935  0.1742  1.0502 -0.0377
 3046SOL     OW20770   1.550   2.776   3.677  0.0344 -0.3984  0.3066
 3046SOL    HW120771   1.525   2.865   3.651  2.5920 -0.0471 -0.9102
 3046SOL    HW220772   1.638   2.781   3.639 -1.2820  0.2773 -2.6551
 3047SOL     OW20773   4.576   1.857   5.871 -0.0876  0.5535  0.1525
 3047SOL    HW120774   4.538   1.795   5.808  0.8569 -0.0966  0.2122
 3047SOL    HW220775   4.557   1.815   5.955 -1.0939 -1.8178 -1.2586
 3048SOL     OW20776   1.103   0.849   7.218  0.5870 -0.8748  0.1153
 3048SOL    HW120777   1.150   0.913   7.272 -0.2896  0.5001 -0.7712
 3048SOL    HW220778   1.040   0.810   7.279  1.4784 -0.4126  1.3322
 3049SOL     OW20779   4.298   2.148   3.473  0.2333  0.2649  0.2044
 3049SOL    HW120780   4.266   2.206   3.542 -1.6638  0.0617 -0.5114
 3049SOL    HW220781   4.260   2.065   3.501  1.4015 -1.5547 -3.5386
 3050SOL     OW20782   1.001   4.473  12.851  0.3762  0.4291  0.3904
 3050SOL    HW120783   1.037   4.438  12.932 -0.7252  0.7613  1.0213
 3050SOL    HW220784   1.083   4.463  12.802  0.8075  0.6055  1.0770
 3051SOL     OW20785   2.086   1.215   4.222  0.4976  0.2266 -0.0377
 3051SOL    HW120786   2.001   1.229   4.180  1.3450  1.0034 -1.4903
 3051SOL    HW220787   2.122   1.162   4.151  1.6614  2.3597 -1.0479
 3052SOL     OW20788   1.815   1.841   2.743 -0.4247  0.1174  0.0418
 3052SOL    HW120789   1.767   1.886   2.812  2.3178  0.8285  1.4747
 3052SOL    HW220790   1.763   1.761   2.736 -0.3731 -0.0280  1.2825
 3053SOL     OW20791   2.838   0.457  15.665  0.2417  0.5466 -0.5625
 3053SOL    HW120792   2.789   0.502  15.734  0.1492  1.7975 -1.4464
 3053SOL    HW220793   2.763   0.437  15.609 -1.3237 -1.0442  2.1167
 3054SOL     OW20794   4.032   1.664   1.818  0.1481  0.2660 -0.2694
 3054SOL    HW120795   3.956   1.644   1.871  1.5651  1.1112  2.0625
 3054SOL    HW220796   4.074   1.579   1.831  1.2297  0.6928 -0.9503
 3055SOL     OW20797   1.242   3.663  14.523  0.4845 -0.3336  0.0545
 3055SOL    HW120798   1.315   3.628  14.471 -0.3133 -1.9704  0.0454
 3055SOL    HW220799   1.264   3.661  14.616 -0.2716  1.0929  0.2623
 3056SOL     OW20800   1.424   2.756   3.944  0.3421  0.4063  0.4057
 3056SOL    HW120801   1.401   2.838   3.987  2.6313  1.0457  0.4057
 3056SOL    HW220802   1.393   2.764   3.854 -1.0654 -0.6059  0.8055
 3057SOL     OW20803   4.495   4.117   7.116 -0.5042  0.4873 -0.0058
 3057SOL    HW120804   4.553   4.168   7.171 -0.5041  2.1792 -1.5921
 3057SOL    HW220805   4.417   4.172   7.122 -0.6518  0.2800  0.0033
 3058SOL     OW20806   3.536   2.311  16.520  0.1273  0.0137  0.3725
 3058SOL    HW120807   3.598   2.384  16.515  0.0995 -0.0985 -1.3030
 3058SOL    HW220808   3.470   2.329  16.454 -0.2524 -0.6303  0.5728
 3059SOL     OW20809   4.638   4.181   8.732  0.0295 -0.1059  0.0830
 3059SOL    HW120810   4.626   4.089   8.757  1.9343 -0.1643  0.8002
 3059SOL    HW220811   4.584   4.225   8.798 -0.6505  1.4564 -1.5189
 3060SOL     OW20812   2.844   0.182  14.882  0.6793  0.2066 -0.0725
 3060SOL    HW120813   2.787   0.228  14.821  2.4712 -0.8202 -2.5053
 3060SOL    HW220814   2.797   0.188  14.966  0.6885  1.4626 -0.1645
 3061SOL     OW20815   2.501   4.579  16.204 -0.2567 -0.0865 -0.3963
 3061SOL    HW120816   2.586   4.541  16.181  0.3407  0.1313  1.4207
 3061SOL    HW220817   2.457   4.576  16.119 -1.1605  0.3698  0.0479
 3062SOL     OW20818   2.885   4.105   9.410 -0.1402 -0.4860  0.0383
 3062SOL    HW120819   2.897   4.200   9.410  0.3149 -0.5395  1.2969
 3062SOL    HW220820   2.828   4.086   9.335 -2.5106  1.2663  1.3984
 3063SOL     OW20821   4.622   1.654  15.529  0.0873 -0.1477 -0.4329
 3063SOL    HW120822   4.650   1.566  15.504  0.5744 -0.6767  1.9304
 3063SOL    HW220823   4.565   1.672  15.454  2.6220 -1.0852 -2.6007
 3064SOL     OW20824   4.426   0.830   6.726  0.1005 -0.8157 -0.2981
 3064SOL    HW120825   4.421   0.925   6.715  0.8462 -0.4483  2.5118
 3064SOL    HW220826   4.350   0.811   6.781 -1.4087 -0.9420 -2.4296
 3065SOL     OW20827   0.397   0.034   3.457  0.2406 -0.2598  0.1239
 3065SOL    HW120828   0.384   4.675   3.460 -0.3025 -0.1397  1.7143
 3065SOL    HW220829   0.428   0.038   3.548  0.4581 -0.9627  0.0796
 3066SOL     OW20830   0.835   1.899   3.107  0.1176 -0.5032 -0.4620
 3066SOL    HW120831   0.894   1.972   3.089  0.1011 -0.6493 -1.1022
 3066SOL    HW220832   0.826   1.904   3.203  1.6538  1.0467 -0.4004
 3067SOL     OW20833   0.334   2.258   5.078  0.0432  0.0919 -0.6683
 3067SOL    HW120834   0.254   2.206   5.062 -0.8503  1.8600 -1.9802
 3067SOL    HW220835   0.290   2.321   5.134  2.8652 -0.1558  1.7922
 3068SOL     OW20836   0.411   3.389   8.396  0.2933 -0.2331  0.8816
 3068SOL    HW120837   0.414   3.351   8.483 -0.3306 -3.0394 -0.3033
 3068SOL    HW220838   0.340   3.452   8.413 -0.1021 -0.6101  0.6425
 3069SOL     OW20839   2.043   4.230   2.659 -0.2343  0.4175 -0.4205
 3069SOL    HW120840   2.132   4.243   2.627  0.6465  0.9238  2.2190
 3069SOL    HW220841   1.999   4.283   2.592  0.9845  3.5923  1.2719
 3070SOL     OW20842   2.394   4.561  10.657  0.0193  0.5787  0.1375
 3070SOL    HW120843   2.362   4.526  10.740  1.2636  0.5304  0.5964
 3070SOL    HW220844   2.482   4.584  10.684  0.1672  0.6720 -0.4133
 3071SOL     OW20845   0.204   0.710   7.598  0.6373  0.1110  0.1049
 3071SOL    HW120846   0.209   0.805   7.600 -0.2900  0.1630  0.2329
 3071SOL    HW220847   0.137   0.694   7.665  1.2874  0.0249  0.7370
 3072SOL     OW20848   2.396   4.114   5.004  0.0575 -0.0549 -0.5060
 3072SOL    HW120849   2.468   4.051   4.999 -0.8902 -0.9473 -2.9402
 3072SOL    HW220850   2.389   4.149   4.915 -1.8724 -0.3312 -0.4640
 3073SOL     OW20851   0.813   1.414   3.556 -0.2296 -0.6381 -0.1405
 3073SOL    HW120852   0.835   1.388   3.466 -2.3172  1.4590 -1.2550
 3073SOL    HW220853   0.780   1.335   3.599  0.1075 -0.3632  0.6139
 3074SOL     OW20854   3.688   1.929   6.267 -0.1516  0.0627  1.1739
 3074SOL    HW120855   3.744   1.989   6.317  1.9010  0.4731 -1.6525
 3074SOL    HW220856   3.750   1.891   6.204 -0.2056 -1.2439  1.8990
 3075SOL     OW20857   3.583   0.419   3.818  0.1031  0.1027  0.3398
 3075SOL    HW120858   3.605   0.333   3.854 -0.9528 -0.3137 -0.0138
 3075SOL    HW220859   3.635   0.444   3.742  0.5772  3.5745  1.7822
 3076SOL     OW20860   2.278   0.688   5.958  0.6937  0.0761  0.6236
 3076SOL    HW120861   2.328   0.653   5.884  1.7161  0.3005  1.2076
 3076SOL    HW220862   2.228   0.755   5.911  0.8376 -0.5577 -0.4330
 3077SOL     OW20863   2.146   2.703   2.642  0.2294  0.5417 -0.4562
 3077SOL    HW120864   2.148   2.653   2.724 -1.2249 -1.5020 -1.6898
 3077SOL    HW220865   2.058   2.689   2.607 -0.2949 -1.7969  1.7540
 3078SOL     OW20866   4.138   3.846   2.215  0.1433 -0.2327 -0.1649
 3078SOL    HW120867   4.175   3.896   2.142  0.5238 -3.2500 -2.0403
 3078SOL    HW220868   4.061   3.902   2.223 -1.4323 -2.3278 -0.4190
 3079SOL     OW20869   0.031   2.527  10.755  0.1550 -0.5667 -0.1607
 3079SOL    HW120870   4.725   2.495  10.675 -1.4285  0.7487  0.1476
 3079SOL    HW220871   4.710   2.495  10.825  0.2794 -3.4424 -1.3860
 3080SOL     OW20872   3.587   4.418   6.553  0.4404 -0.5514 -0.2944
 3080SOL    HW120873   3.530   4.425   6.476 -0.1154  0.5023  0.2024
 3080SOL    HW220874   3.601   4.324   6.545 -0.6728 -0.7235 -0.2657
 3081SOL     OW20875   4.456   4.622   5.168  0.5258 -0.4489  0.4680
 3081SOL    HW120876   4.372   4.578   5.177  1.4856 -2.1044  1.2958
 3081SOL    HW220877   4.510   4.545   5.154 -0.1625 -0.7109 -0.7474
 3082SOL     OW20878   1.780   3.917   4.153  0.0492 -0.0312 -0.5725
 3082SOL    HW120879   1.742   4.004   4.166 -1.0920 -0.6367  0.2300
 3082SOL    HW220880   1.706   3.870   4.115 -1.2298  1.3440  0.1958
 3083SOL     OW20881   3.686   3.034  13.503 -0.1180  0.0903  0.1644
 3083SOL    HW120882   3.643   2.951  13.522  1.2825 -0.9360 -1.1429
 3083SOL    HW220883   3.606   3.076  13.472  0.6593  0.7706 -0.9245
 3084SOL     OW20884   4.665   0.646   9.513 -0.0031  0.3408  0.3305
 3084SOL    HW120885   4.599   0.614   9.451 -1.5257  0.2344  1.9993
 3084SOL    HW220886   0.001   0.585   9.494  2.1207  2.7869  0.5495
 3085SOL     OW20887   2.050   2.172   3.124 -0.0578  0.0314  0.1142
 3085SOL    HW120888   2.075   2.090   3.082 -0.3500  0.2291 -0.4502
 3085SOL    HW220889   2.135   2.215   3.115  0.2006 -0.0516  2.2472
 3086SOL     OW20890   0.074   2.322  13.509 -0.2651  0.5709 -0.7141
 3086SOL    HW120891   0.075   2.358  13.597 -0.6057  2.7166 -1.5881
 3086SOL    HW220892   4.717   2.332  13.491 -0.5768 -0.4504  0.3915
 3087SOL     OW20893   3.033   3.604   6.065  0.3652  0.4981  0.3607
 3087SOL    HW120894   3.068   3.690   6.089 -1.0774  1.8216 -2.1539
 3087SOL    HW220895   3.099   3.554   6.112 -0.1800 -1.1957 -0.6922
 3088SOL     OW20896   1.158   1.166   9.943  0.4845  0.0795 -0.3161
 3088SOL    HW120897   1.209   1.245   9.925  0.8579 -0.4001 -1.3457
 3088SOL    HW220898   1.224   1.099   9.930  1.1601  1.2168 -2.7181
 3089SOL     OW20899   1.614   2.136  15.225 -0.1474  0.5037  0.1560
 3089SOL    HW120900   1.633   2.207  15.286 -0.1254 -0.1616  0.9142
 3089SOL    HW220901   1.635   2.060  15.279  0.0081  0.0146 -0.5929
 3090SOL     OW20902   2.075   2.460  11.367 -0.2828  0.1223 -0.4314
 3090SOL    HW120903   1.990   2.493  11.339 -0.2469  0.0705 -0.6016
 3090SOL    HW220904   2.131   2.525  11.324 -0.8969  0.4431 -0.7405
 3091SOL     OW20905   0.928   2.178   2.291 -0.0430 -0.4147  0.3013
 3091SOL    HW120906   0.869   2.214   2.226 -0.1661 -1.6200 -0.2574
 3091SOL    HW220907   1.009   2.223   2.267 -1.6467  1.5052 -1.5290
 3092SOL     OW20908   3.644   2.268  12.998 -0.0180 -0.2055 -0.1517
 3092SOL    HW120909   3.727   2.315  12.990 -1.1805  1.9004  0.3297
 3092SOL    HW220910   3.661   2.230  13.084 -0.1800  1.5875  0.6819
 3093SOL     OW20911   3.217   0.605   2.132 -0.2423 -0.2061 -0.4869
 3093SOL    HW120912   3.230   0.689   2.177 -0.3016 -0.4965  0.0765
 3093SOL    HW220913   3.269   0.547   2.188  0.6187 -0.6590 -1.7515
 3094SOL     OW20914   3.122   3.338   3.072 -0.5408  0.0779 -0.6083
 3094SOL    HW120915   3.157   3.299   3.151 -2.6391 -0.1580  0.2233
 3094SOL    HW220916   3.204   3.346   3.023 -1.2073  0.6808 -1.6293
 3095SOL     OW20917   0.793   0.998   9.137  0.0917  0.0605  0.0393
 3095SOL    HW120918   0.885   0.972   9.130 -0.5605 -2.4697  1.0066
 3095SOL    HW220919   0.752   0.917   9.107 -1.1129  0.1855  1.3251
 3096SOL     OW20920   4.509   0.015  12.202  0.2812  0.5380 -0.1236
 3096SOL    HW120921   4.569   0.059  12.262  0.7699 -1.1232  0.6003
 3096SOL    HW220922   4.423   0.025  12.244  0.2871  1.3702 -0.3003
 3097SOL     OW20923   1.826   4.218  13.626  0.5216  0.3867  0.1714
 3097SOL    HW120924   1.814   4.192  13.534  0.4730 -1.1693  0.6118
 3097SOL    HW220925   1.833   4.130  13.665 -0.2337  1.4813  2.7496
 3098SOL     OW20926   1.294   3.694   1.949  0.2199 -0.1365 -0.2673
 3098SOL    HW120927   1.276   3.768   1.891 -2.4370  1.1221  2.1508
 3098SOL    HW220928   1.250   3.618   1.910  0.4533 -0.5884  0.3613
 3099SOL     OW20929   0.012   3.966   9.070 -0.6471 -0.3839 -0.0859
 3099SOL    HW120930   0.022   3.902   9.140 -1.7410  0.1692  0.5849
 3099SOL    HW220931   4.662   3.937   9.038  0.5889 -2.1135 -1.7908
 3100SOL     OW20932   1.909   4.579   7.813 -0.4687 -0.1965 -0.3395
 3100SOL    HW120933   1.905   4.496   7.859  1.2366  0.7023  1.4232
 3100SOL    HW220934   1.937   4.643   7.878  2.1584 -1.4727 -0.2508
 3101SOL     OW20935   2.417   4.461   6.584 -0.0481  1.0190 -0.2011
 3101SOL    HW120936   2.391   4.374   6.556 -0.6906  0.7914  1.1038
 3101SOL    HW220937   2.506   4.435   6.608 -0.4018 -0.3323 -0.3610
 3102SOL     OW20938   0.112   2.987   8.899 -0.0655 -0.1535 -0.1316
 3102SOL    HW120939   0.078   2.922   8.960 -2.2724  1.5672  0.4635
 3102SOL    HW220940   0.167   3.040   8.957 -0.2778 -1.2125  1.0358
 3103SOL     OW20941   3.772   4.156   3.890  0.1709  0.3069  0.3332
 3103SOL    HW120942   3.823   4.162   3.809 -0.3074 -0.5663 -0.0287
 3103SOL    HW220943   3.837   4.183   3.955  2.5667  2.1486 -2.8567
 3104SOL     OW20944   2.401   1.231   7.290 -0.0239  0.8792 -0.1578
 3104SOL    HW120945   2.458   1.155   7.295 -1.3150 -0.1329 -0.9365
 3104SOL    HW220946   2.470   1.297   7.276 -1.0771  1.5257 -2.3402
 3105SOL     OW20947   1.163   4.642   2.528  0.3637 -0.2306  0.0438
 3105SOL    HW120948   1.160   4.612   2.437  0.4468 -1.0096  0.3012
 3105SOL    HW220949   1.159   4.566   2.586  2.2123  0.1125  0.6416
 3106SOL     OW20950   2.466   1.426  11.085  0.1218  0.4034 -0.0170
 3106SOL    HW120951   2.416   1.393  11.010 -0.5266 -0.5780  0.8592
 3106SOL    HW220952   2.400   1.423  11.154 -0.5438 -1.7759 -0.7530
 3107SOL     OW20953   3.266   3.384   0.761 -0.1285  0.0508  0.7515
 3107SOL    HW120954   3.186   3.375   0.709  0.5200 -0.3085 -0.2041
 3107SOL    HW220955   3.329   3.373   0.690  0.0342  1.5696  0.6705
 3108SOL     OW20956   3.415   0.815  17.299  0.3124 -0.6284 -0.3789
 3108SOL    HW120957   3.354   0.751  17.336  1.9581 -1.3157  1.1948
 3108SOL    HW220958   3.445   0.766  17.222 -0.7049 -1.2196 -0.3915
 3109SOL     OW20959   0.355   2.577   1.623 -0.0660  0.1495 -0.1154
 3109SOL    HW120960   0.306   2.528   1.556 -0.2242  0.0774  0.0552
 3109SOL    HW220961   0.300   2.565   1.700 -1.4792 -0.1935 -1.1755
 3110SOL     OW20962   0.486   0.987   8.062 -0.2141 -0.4558  0.0094
 3110SOL    HW120963   0.402   1.003   8.019  0.6713  1.3685 -1.0407
 3110SOL    HW220964   0.482   0.893   8.042  2.7022  0.0111 -2.8692
 3111SOL     OW20965   3.505   3.349   4.538 -0.1846 -0.2347 -0.0322
 3111SOL    HW120966   3.503   3.379   4.628  2.0954  1.0224 -0.3838
 3111SOL    HW220967   3.411   3.358   4.523 -0.0275  0.9623 -0.2880
 3112SOL     OW20968   2.416   2.009   6.631 -0.1999 -0.0181 -0.4177
 3112SOL    HW120969   2.361   1.995   6.554  0.0149 -0.8383 -0.4340
 3112SOL    HW220970   2.364   2.072   6.679  0.6845 -0.5247  1.2021
 3113SOL     OW20971   3.698   1.601   8.885  0.5214 -0.0761  0.3032
 3113SOL    HW120972   3.609   1.582   8.855  0.6322  0.5575 -0.4282
 3113SOL    HW220973   3.749   1.547   8.825 -0.2549 -1.0382  0.5266
 3114SOL     OW20974   4.240   1.071   1.549  0.6136 -0.0751 -0.5515
 3114SOL    HW120975   4.155   1.032   1.573  1.2319  0.3602  2.4334
 3114SOL    HW220976   4.300   1.002   1.577 -2.0565 -1.9076  0.6635
 3115SOL     OW20977   1.321   3.863   1.740 -0.5860  0.0576 -0.4143
 3115SOL    HW120978   1.302   3.862   1.646 -5.1873  1.6029  0.4806
 3115SOL    HW220979   1.270   3.937   1.774 -1.5227 -1.2836  1.1277
 3116SOL     OW20980   0.762   2.314   9.603 -0.3750 -0.3235  0.3294
 3116SOL    HW120981   0.672   2.282   9.609 -0.3173 -0.5389 -0.0057
 3116SOL    HW220982   0.797   2.300   9.691  0.4648 -2.9225 -0.4239
 3117SOL     OW20983   2.116   2.015   4.797 -0.7436 -0.6273  0.2948
 3117SOL    HW120984   2.121   2.088   4.735 -0.4446  0.7955  1.9923
 3117SOL    HW220985   2.081   2.072   4.866  0.2256 -0.4817  0.6784
 3118SOL     OW20986   4.373   3.035  10.685 -0.3981 -0.1884 -0.2487
 3118SOL    HW120987   4.324   2.970  10.635  1.1097 -1.9797  0.6149
 3118SOL    HW220988   4.428   3.059  10.611 -2.3373 -1.7115 -2.1808
 3119SOL     OW20989   1.621   2.745   2.808 -0.3515 -0.3486  0.4105
 3119SOL    HW120990   1.570   2.693   2.746  0.4273 -0.1400 -0.4061
 3119SOL    HW220991   1.666   2.680   2.863 -1.0327 -2.6381 -1.7254
 3120SOL     OW20992   0.950   1.170  15.591 -0.1835  0.2682  0.5691
 3120SOL    HW120993   0.858   1.162  15.619 -1.3480  0.3022 -3.2967
 3120SOL    HW220994   0.945   1.250  15.538 -0.7804  0.6025  1.1245
 3121SOL     OW20995   1.190   2.270   2.189  0.0479 -0.3127 -0.2981
 3121SOL    HW120996   1.214   2.362   2.177  0.0381 -0.0742  1.4740
 3121SOL    HW220997   1.273   2.227   2.212 -0.0633 -0.2485  0.2354
 3122SOL     OW20998   3.478   4.664  15.696 -0.2136 -0.3022  0.3037
 3122SOL    HW120999   3.383   4.655  15.680 -0.1272  1.9031 -1.3980
 3122SOL    HW221000   3.495   4.579  15.654 -0.7697 -0.2940  0.0583
 3123SOL     OW21001   3.465   1.455   8.784 -0.2116 -0.1786  0.2776
 3123SOL    HW121002   3.371   1.471   8.785  0.0819  1.7431 -1.1777
 3123SOL    HW221003   3.465   1.381   8.723 -0.5232  0.3723 -0.3913
 3124SOL     OW21004   1.460   0.243   6.914 -0.8081  0.1045  0.4880
 3124SOL    HW121005   1.544   0.274   6.948  1.1103 -2.0995 -2.1775
 3124SOL    HW221006   1.415   0.327   6.911  1.1044  1.0555 -2.4540
 3125SOL     OW21007   4.126   2.699   5.095  0.2324  0.9219 -0.1935
 3125SOL    HW121008   4.152   2.785   5.064 -0.9795  0.8871 -1.2875
 3125SOL    HW221009   4.184   2.643   5.044 -0.0300 -1.5246  2.1471
 3126SOL     OW21010   2.346   0.623   3.104  0.5258 -0.1072  0.0822
 3126SOL    HW121011   2.439   0.608   3.122 -0.0283  0.5585  3.4140
 3126SOL    HW221012   2.321   0.594   3.191 -2.4137 -0.3545 -0.8451
 3127SOL     OW21013   1.288   0.544  10.167 -0.0247  0.7384  0.1290
 3127SOL    HW121014   1.322   0.457  10.188  0.9933  0.9197 -0.7676
 3127SOL    HW221015   1.195   0.530  10.151 -0.1180  2.4733 -0.8850
 3128SOL     OW21016   3.448   2.928   5.593 -0.4002  0.7588 -0.3086
 3128SOL    HW121017   3.504   2.852   5.609 -2.6872 -1.3714 -2.4207
 3128SOL    HW221018   3.514   2.996   5.602 -0.1052  0.3101  1.0122
 3129SOL     OW21019   2.873   1.585  15.255 -0.0515  0.3074  0.2751
 3129SOL    HW121020   2.910   1.670  15.233 -1.7382  0.4952 -1.8199
 3129SOL    HW221021   2.852   1.552  15.168  1.3641  1.1309 -0.3725
 3130SOL     OW21022   4.462   0.029   4.935 -0.2768 -0.0293 -0.0639
 3130SOL    HW121023   4.531   4.701   4.916  0.0154  0.3779 -0.3833
 3130SOL    HW221024   4.445   0.012   5.027  1.8590 -0.7992  0.1949
 3131SOL     OW21025   0.118   3.355  15.878  0.3211  0.1804  0.4103
 3131SOL    HW121026   0.099   3.422  15.943  1.1519  1.4193 -0.6038
 3131SOL    HW221027   0.214   3.354  15.874  0.2320 -0.7172 -1.5063
 3132SOL     OW21028   4.606   1.306   4.245  0.0975 -0.5612  0.2868
 3132SOL    HW121029   4.515   1.276   4.245  0.0593 -0.4151  1.2430
 3132SOL    HW221030   4.643   1.255   4.172  1.7053  0.8232  0.1176
 3133SOL     OW21031   2.556   1.066   4.885 -0.2803 -0.4682  0.3071
 3133SOL    HW121032   2.467   1.097   4.871 -0.1928 -0.2978  0.1325
 3133SOL    HW221033   2.606   1.120   4.824 -1.2760 -0.2256 -0.2839
 3134SOL     OW21034   2.890   1.259   4.365 -0.1815 -0.8922  0.0569
 3134SOL    HW121035   2.932   1.288   4.446  0.5889  0.7148 -0.9248
 3134SOL    HW221036   2.835   1.193   4.408 -0.9652 -1.1078 -1.2951
 3135SOL     OW21037   0.640   0.470   6.432  0.5840  0.0218  1.1433
 3135SOL    HW121038   0.692   0.448   6.509  0.3506 -0.9407  1.0357
 3135SOL    HW221039   0.631   0.383   6.391  0.0435  0.2298  0.8188
 3136SOL     OW21040   3.855   1.414   2.335 -0.6856 -0.3974 -0.4441
 3136SOL    HW121041   3.867   1.469   2.413 -0.8873 -2.7883  1.2567
 3136SOL    HW221042   3.884   1.487   2.279 -0.4707 -1.3725 -1.6066
 3137SOL     OW21043   0.246   3.770  11.291  0.2068  0.6091  0.4293
 3137SOL    HW121044   0.192   3.697  11.261  1.2036  0.2566 -0.4824
 3137SOL    HW221045   0.324   3.729  11.328  0.1129 -0.1059 -0.1804
 3138SOL     OW21046   2.741   0.919  11.645  0.4595 -0.1770  0.4146
 3138SOL    HW121047   2.725   0.990  11.582  0.1357 -0.2726  0.3914
 3138SOL    HW221048   2.687   0.954  11.716 -0.2213  1.1702 -0.7539
 3139SOL     OW21049   1.364   3.951   4.071  0.2950 -0.2658 -0.2072
 3139SOL    HW121050   1.415   4.023   4.033 -0.6644  0.1504 -0.7268
 3139SOL    HW221051   1.420   3.913   4.139 -0.2070  0.9387  0.8814
 3140SOL     OW21052   0.244   1.785   5.267 -0.1454 -0.4209 -0.1601
 3140SOL    HW121053   0.172   1.838   5.232  0.7678  1.6315  1.0345
 3140SOL    HW221054   0.312   1.849   5.246 -0.7493  0.6062  0.9739
 3141SOL     OW21055   2.946   3.981   2.007 -0.0934 -0.5082  0.2280
 3141SOL    HW121056   2.990   4.047   2.061 -0.3860  1.6256 -2.1420
 3141SOL    HW221057   2.991   3.899   2.027  1.2107  0.3158  0.7095
 3142SOL     OW21058   1.618   1.907  15.944  0.1750 -0.6747  0.0623
 3142SOL    HW121059   1.567   1.956  16.009  1.3687 -0.7429  1.0446
 3142SOL    HW221060   1.566   1.827  15.948  0.6297 -0.9450  0.6179
 3143SOL     OW21061   2.404   0.759   4.315  0.1884  0.0708  0.1449
 3143SOL    HW121062   2.357   0.832   4.355  0.4999  0.5433 -0.3387
 3143SOL    HW221063   2.386   0.687   4.375  1.4032  0.4932  1.0066
 3144SOL     OW21064   4.424   3.035   9.326 -0.2087  0.6043 -0.2844
 3144SOL    HW121065   4.419   3.128   9.305  1.2837  1.3651  2.6064
 3144SOL    HW221066   4.411   3.038   9.421 -0.1580 -1.7131 -0.1853
 3145SOL     OW21067   2.005   2.641   9.370  0.5549 -0.0101  0.4204
 3145SOL    HW121068   2.093   2.621   9.337  0.8013  1.8973 -0.0990
 3145SOL    HW221069   2.015   2.710   9.435  1.2064 -0.3973  0.7276
 3146SOL     OW21070   4.492   1.928   9.569  0.1480  0.6008  0.8431
 3146SOL    HW121071   4.479   2.022   9.571  1.0827  0.7944 -2.0413
 3146SOL    HW221072   4.404   1.893   9.555  0.6318 -0.0503 -0.6532
 3147SOL     OW21073   3.666   2.268   3.617 -0.6035 -0.5420  0.4897
 3147SOL    HW121074   3.645   2.216   3.695 -1.2535  0.6139  1.0757
 3147SOL    HW221075   3.761   2.275   3.616 -0.5778 -1.1076 -1.7420
 3148SOL     OW21076   0.839   0.243   4.209  0.7632 -0.0340 -0.0705
 3148SOL    HW121077   0.816   0.188   4.134  0.1836  3.8591 -2.7018
 3148SOL    HW221078   0.757   0.287   4.232  2.5256  1.5025  3.1899
 3149SOL     OW21079   2.970   2.916   2.704  0.3361  0.4579  0.3765
 3149SOL    HW121080   2.883   2.883   2.682  0.8539 -0.6143 -0.0633
 3149SOL    HW221081   2.976   2.905   2.799  0.9767 -0.2893  0.2531
 3150SOL     OW21082   3.191   4.598  10.021  0.0650  0.0728 -0.3577
 3150SOL    HW121083   3.250   4.648   9.965  0.8043 -0.1897  0.1904
 3150SOL    HW221084   3.177   4.516   9.974  0.8014 -0.6676  0.7423
 3151SOL     OW21085   2.890   0.921  11.259  0.0337  0.0295  0.0524
 3151SOL    HW121086   2.940   0.959  11.187  0.3633  1.2540  0.9304
 3151SOL    HW221087   2.888   0.833  11.221 -0.9250  0.2077 -0.2917
 3152SOL     OW21088   4.595   3.335  10.751  0.2429 -0.2638  0.5998
 3152SOL    HW121089   4.689   3.354  10.743  0.4027 -1.4738 -0.4290
 3152SOL    HW221090   4.570   3.419  10.789 -1.2091 -1.0511  1.3713
 3153SOL     OW21091   0.206   1.442   0.863  0.2878 -0.7111  0.0867
 3153SOL    HW121092   0.128   1.390   0.844  0.2039 -0.5038 -0.1326
 3153SOL    HW221093   0.258   1.435   0.783  1.5971 -2.8781  1.1033
 3154SOL     OW21094   3.741   0.722  16.246  0.4100 -0.5513 -0.8427
 3154SOL    HW121095   3.724   0.634  16.279  1.8620 -0.1753  0.8768
 3154SOL    HW221096   3.801   0.761  16.310 -0.5043 -2.1366  0.9764
 3155SOL     OW21097   4.148   4.082  13.474 -0.3078  0.2199 -0.3406
 3155SOL    HW121098   4.121   4.096  13.383  1.5869  1.3694 -0.7188
 3155SOL    HW221099   4.099   4.156  13.511 -1.6533 -1.1921  0.6738
 3156SOL     OW21100   1.969   1.181   5.744 -0.1602 -0.4403 -0.2807
 3156SOL    HW121101   2.057   1.204   5.714  0.4036 -3.2637 -0.8223
 3156SOL    HW221102   1.916   1.202   5.668 -0.8646 -0.7530  0.1154
 3157SOL     OW21103   4.061   3.965   5.739  0.1403  0.0808  0.1843
 3157SOL    HW121104   4.084   4.028   5.807  1.4429 -0.5506  0.3393
 3157SOL    HW221105   4.133   3.971   5.676  0.6633 -0.1346  0.7686
 3158SOL     OW21106   1.764   3.855  15.495  0.1472  0.0990  0.4573
 3158SOL    HW121107   1.767   3.826  15.403  0.7664  1.7846 -0.0567
 3158SOL    HW221108   1.718   3.779  15.531 -0.4164  1.7501  3.1491
 3159SOL     OW21109   1.242   1.920  14.172 -0.3521  0.3203 -0.3732
 3159SOL    HW121110   1.184   1.845  14.160 -0.1524 -0.2845  2.3944
 3159SOL    HW221111   1.270   1.926  14.264  0.3651  0.4277 -0.5999
 3160SOL     OW21112   2.204   3.455   6.226 -0.4255 -0.0034 -0.7033
 3160SOL    HW121113   2.188   3.410   6.309 -1.6824  1.7075 -0.0204
 3160SOL    HW221114   2.224   3.385   6.164 -0.5613 -1.1111  0.5197
 3161SOL     OW21115   3.507   3.497   9.669 -0.5280 -0.0276 -0.1703
 3161SOL    HW121116   3.502   3.531   9.759 -0.1078  0.3777 -0.3015
 3161SOL    HW221117   3.475   3.407   9.677 -1.8465  0.4310 -0.2183
 3162SOL     OW21118   1.838   4.554  16.971 -0.1582  0.6438 -0.3366
 3162SOL    HW121119   1.763   4.613  16.980  0.4190  1.3772 -0.3009
 3162SOL    HW221120   1.893   4.617  16.922 -0.3010  0.0131 -1.3128
 3163SOL     OW21121   3.470   0.405  14.503 -0.0076 -0.3931 -0.0029
 3163SOL    HW121122   3.533   0.434  14.568 -1.3211 -2.0549  2.0185
 3163SOL    HW221123   3.480   0.311  14.521 -3.6355 -0.9189 -0.5508
 3164SOL     OW21124   0.011   2.283  16.974 -0.4192 -0.3207 -0.3257
 3164SOL    HW121125   0.091   2.333  16.964 -0.7859  0.9792  3.1185
 3164SOL    HW221126   0.030   2.208  16.917 -0.6191  0.7897 -1.8597
 3165SOL     OW21127   4.129   4.156   6.160  0.5237 -0.1784 -0.1319
 3165SOL    HW121128   4.095   4.233   6.115  0.8995 -0.6361 -1.2016
 3165SOL    HW221129   4.123   4.175   6.253  3.7359 -0.4092  0.1463
 3166SOL     OW21130   4.414   3.443   1.987  0.3686 -0.1635 -0.5214
 3166SOL    HW121131   4.363   3.509   2.034 -0.9609 -1.1654 -0.5367
 3166SOL    HW221132   4.451   3.387   2.055 -0.0818  0.1940  0.0153
 3167SOL     OW21133   2.634   2.484  14.892  0.2004 -0.1865  0.1808
 3167SOL    HW121134   2.594   2.546  14.952 -0.3555 -0.6872  0.3316
 3167SOL    HW221135   2.556   2.440  14.857  1.0475  0.0658 -2.0224
 3168SOL     OW21136   0.015   1.361  12.079 -0.4298 -0.2404  0.3758
 3168SOL    HW121137   0.075   1.391  12.147  0.9995 -1.4923 -0.3492
 3168SOL    HW221138   4.686   1.320  12.137 -0.0284 -1.1170  0.2003
 3169SOL     OW21139   3.018   0.876  17.238  0.1008  0.0312 -0.4943
 3169SOL    HW121140   3.012   0.969  17.218  1.9075  0.1224 -0.6184
 3169SOL    HW221141   2.940   0.848  17.192  0.0825  1.2440 -1.2041
 3170SOL     OW21142   0.123   0.198   5.872  0.5316  0.4288  0.2217
 3170SOL    HW121143   0.069   0.212   5.795  1.3918 -0.4080 -0.5180
 3170SOL    HW221144   0.068   0.128   5.907  1.6366  0.0558  1.2127
 3171SOL     OW21145   0.238   1.206   1.781 -0.1364  0.2421  0.1640
 3171SOL    HW121146   0.232   1.247   1.867 -2.3296 -0.6537  0.4356
 3171SOL    HW221147   0.310   1.257   1.743 -2.1081  2.0138 -1.2116
 3172SOL     OW21148   4.264   0.393   3.732  0.5024 -0.3072 -0.2561
 3172SOL    HW121149   4.339   0.438   3.691  1.2802  0.5803  2.1451
 3172SOL    HW221150   4.309   0.309   3.738 -0.3457 -0.5611  2.5747
 3173SOL     OW21151   4.592   0.749   3.823  0.1007  0.6333 -0.3389
 3173SOL    HW121152   4.592   0.659   3.857 -2.6841  0.1895 -1.5521
 3173SOL    HW221153   4.648   0.744   3.745  0.7436 -1.9458  0.2856
 3174SOL     OW21154   2.329   1.061  13.681 -0.6147 -0.2259 -0.0530
 3174SOL    HW121155   2.381   1.005  13.739  0.3694 -0.5316 -1.2535
 3174SOL    HW221156   2.394   1.098  13.622  0.3666  0.3632  1.4160
 3175SOL     OW21157   0.433   3.156   5.758 -0.2794 -0.1442  0.0115
 3175SOL    HW121158   0.339   3.176   5.759 -0.2129  0.1294  1.1623
 3175SOL    HW221159   0.457   3.192   5.843 -0.3750 -1.0556  0.4242
 3176SOL     OW21160   0.061   3.863   6.266  0.1508 -0.0120  0.6408
 3176SOL    HW121161   0.040   3.858   6.359 -1.1737  0.6850  0.3787
 3176SOL    HW221162   0.031   3.950   6.238 -3.2853 -0.5236  2.7655
 3177SOL     OW21163   1.477   3.881   9.364  0.8101  0.2681 -0.2405
 3177SOL    HW121164   1.474   3.831   9.445  1.1093 -0.7035 -0.8212
 3177SOL    HW221165   1.533   3.955   9.389  0.7167 -0.0812  0.9881
 3178SOL     OW21166   0.322   3.889   4.953 -0.1065 -0.2017 -0.6267
 3178SOL    HW121167   0.301   3.801   4.921  1.0507 -0.8636  0.4403
 3178SOL    HW221168   0.232   3.921   4.963  0.2218  0.0340  1.5222
 3179SOL     OW21169   2.727   2.037   7.996 -0.1306  0.1790 -0.1012
 3179SOL    HW121170   2.823   2.037   7.998 -0.1383  2.0805  0.9337
 3179SOL    HW221171   2.694   1.949   8.011  2.7998 -0.7111  1.0669
 3180SOL     OW21172   1.591   1.598  16.182 -0.8296 -0.4476 -0.4056
 3180SOL    HW121173   1.644   1.640  16.114  1.3146 -0.7291  1.1004
 3180SOL    HW221174   1.516   1.657  16.188 -1.2259 -0.8194 -1.6125
 3181SOL     OW21175   1.968   4.630   4.880  0.6987 -0.2423  0.3650
 3181SOL    HW121176   1.965   4.554   4.822  0.9996 -0.4514  0.6205
 3181SOL    HW221177   1.931   4.589   4.958 -2.4939 -0.3956 -1.2473
 3182SOL     OW21178   3.276   1.851   8.717 -0.7463 -0.5198 -0.2814
 3182SOL    HW121179   3.345   1.798   8.676  1.4399  0.0712  2.6651
 3182SOL    HW221180   3.239   1.784   8.774 -0.9581  0.1280  0.3406
 3183SOL     OW21181   0.751   0.904  15.480  0.4968  0.0501  0.1088
 3183SOL    HW121182   0.714   0.824  15.517  1.8173 -0.1275  1.0216
 3183SOL    HW221183   0.690   0.970  15.511 -1.0292 -0.1904 -2.3043
 3184SOL     OW21184   0.378   4.630   7.351 -0.7463  0.4163 -0.3021
 3184SOL    HW121185   0.368   4.561   7.287  0.1944  0.2292 -0.2464
 3184SOL    HW221186   0.300   4.682   7.335 -0.6905  1.3774  2.4345
 3185SOL     OW21187   1.635   0.826   2.092  0.1258 -0.9014 -0.0144
 3185SOL    HW121188   1.667   0.780   2.015  1.0005 -1.1512  0.4995
 3185SOL    HW221189   1.714   0.858   2.135 -0.0529 -1.5736  0.8243
 3186SOL     OW21190   0.871   3.949   7.277 -0.1285  0.0972  0.5929
 3186SOL    HW121191   0.915   3.991   7.351  1.2652 -0.6086  0.1559
 3186SOL    HW221192   0.934   3.879   7.261 -1.8020 -1.6806  1.6501
 3187SOL     OW21193   2.958   2.521  12.826  0.0581 -0.0943  0.4635
 3187SOL    HW121194   2.911   2.495  12.905  1.2561 -2.3017  0.4386
 3187SOL    HW221195   3.022   2.450  12.819 -1.0692 -0.8292 -2.1096
 3188SOL     OW21196   2.167   4.390   7.507  0.0498  0.5676 -0.0313
 3188SOL    HW121197   2.189   4.396   7.414  0.2791 -0.2131 -0.0328
 3188SOL    HW221198   2.095   4.452   7.508  0.6704  1.2882 -0.1809
 3189SOL     OW21199   4.290   3.157  14.015  0.0306  0.0563  0.0732
 3189SOL    HW121200   4.380   3.126  14.019  0.5288  1.1600 -2.2984
 3189SOL    HW221201   4.287   3.228  14.080  2.5507 -1.3520  1.6896
 3190SOL     OW21202   4.082   0.610  17.321  0.1557 -0.0393 -0.4960
 3190SOL    HW121203   4.019   0.538  17.318 -0.7026  0.6696  0.1995
 3190SOL    HW221204   4.040   0.675  17.378  1.8571  0.9960 -0.4127
 3191SOL     OW21205   0.094   3.750  17.235 -0.2902  0.0636 -0.9380
 3191SOL    HW121206   0.056   3.823  17.187  0.7721  1.1186 -0.1623
 3191SOL    HW221207   0.174   3.737  17.182 -0.4883 -0.0994 -1.2005
 3192SOL     OW21208   3.845   3.039   8.419  0.2163 -0.4600 -0.2400
 3192SOL    HW121209   3.840   2.944   8.413 -0.5737 -0.5950  2.3315
 3192SOL    HW221210   3.939   3.059   8.425  0.0651  0.2212 -0.1239
 3193SOL     OW21211   3.139   1.684   3.416  0.7909  0.2596 -0.1649
 3193SOL    HW121212   3.188   1.744   3.472  0.4967  0.2091  0.1470
 3193SOL    HW221213   3.056   1.678   3.465 -0.8280 -2.0101 -3.1591
 3194SOL     OW21214   3.737   4.618   4.362 -0.0843  0.2564  0.2835
 3194SOL    HW121215   3.735   4.530   4.323 -0.6644  1.5451 -2.5908
 3194SOL    HW221216   3.747   4.676   4.287 -2.8475  0.0137 -0.2723
 3195SOL     OW21217   2.820   3.453   1.097 -0.1894 -0.2552 -0.0954
 3195SOL    HW121218   2.907   3.425   1.071 -0.0720  1.3069 -1.3717
 3195SOL    HW221219   2.767   3.430   1.021 -0.0337  3.1321 -1.2424
 3196SOL     OW21220   2.948   4.303   2.992  0.5702 -0.2039  0.0231
 3196SOL    HW121221   2.891   4.228   2.979 -0.9243  0.5549  2.1834
 3196SOL    HW221222   2.883   4.374   2.991  0.2497 -0.5498 -2.1465
 3197SOL     OW21223   2.112   1.178   3.243 -0.2863  0.1577 -0.1405
 3197SOL    HW121224   2.092   1.259   3.197 -0.1081  0.0506 -0.4033
 3197SOL    HW221225   2.031   1.127   3.253  1.7801 -3.6293 -2.8010
 3198SOL     OW21226   0.575   4.724   9.177 -0.1421  0.7038 -0.6877
 3198SOL    HW121227   0.541   4.640   9.145  0.0795  0.2977  0.1428
 3198SOL    HW221228   0.666   4.731   9.147  0.2326  0.6640  0.4544
 3199SOL     OW21229   3.645   2.792   5.991  0.1308 -0.6988 -0.8576
 3199SOL    HW121230   3.680   2.741   6.064 -0.2649  0.6266  0.2619
 3199SOL    HW221231   3.682   2.758   5.910  1.5449  2.5130 -1.5490
 3200SOL     OW21232   0.032   2.265   3.472 -0.5216 -0.4830 -0.2515
 3200SOL    HW121233   4.726   2.267   3.558  0.9453 -1.5213  0.4925
 3200SOL    HW221234   0.037   2.178   3.431 -0.3707  0.7439 -2.8422
 3201SOL     OW21235   1.602   4.281   2.715 -0.5605 -0.4445  0.2017
 3201SOL    HW121236   1.636   4.221   2.649  1.0844  1.0944 -0.3536
 3201SOL    HW221237   1.591   4.359   2.661  1.9634  0.8384  1.5564
 3202SOL     OW21238   4.269   2.071  13.309 -0.1991  0.1547  0.4004
 3202SOL    HW121239   4.191   2.026  13.342  0.2774 -0.8522  0.1687
 3202SOL    HW221240   4.221   2.150  13.282  1.3585  1.7733  2.3813
 3203SOL     OW21241   1.090   2.006   5.186 -0.3150  0.0701  0.3928
 3203SOL    HW121242   1.015   2.059   5.159  1.4884  2.7298  0.6020
 3203SOL    HW221243   1.157   2.073   5.203  0.6259 -0.8111  0.1236
 3204SOL     OW21244   4.083   0.317  11.958  0.3785  1.3072 -0.1209
 3204SOL    HW121245   4.118   0.228  11.948  0.8481  1.4399  0.2952
 3204SOL    HW221246   4.022   0.321  11.885  1.1186  2.2431 -0.6910
 3205SOL     OW21247   0.988   0.627   3.025 -0.2333 -0.2143  0.0167
 3205SOL    HW121248   0.991   0.671   3.109 -1.0080  1.6815 -0.9410
 3205SOL    HW221249   0.943   0.548   3.055 -0.3715 -0.6766 -1.4008
 3206SOL     OW21250   2.579   4.724   3.565 -0.1762 -0.2119 -0.3845
 3206SOL    HW121251   2.525   4.690   3.494  0.5214 -1.6160 -0.2459
 3206SOL    HW221252   2.597   4.643   3.611 -1.6552  0.5082  1.4380
 3207SOL     OW21253   2.048   0.104  10.609 -0.1330  0.4138 -0.1794
 3207SOL    HW121254   2.045   0.011  10.630  0.6824  0.5510  0.5361
 3207SOL    HW221255   2.137   0.104  10.573  0.5609 -0.8438  1.5894
 3208SOL     OW21256   3.239   4.087   3.577 -0.8018  0.2957 -0.1925
 3208SOL    HW121257   3.285   4.023   3.631  0.4807 -0.2812 -1.9880
 3208SOL    HW221258   3.167   4.033   3.545 -1.9588  1.2563  0.7962
 3209SOL     OW21259   3.960   4.407   1.799 -0.0359 -0.6473  0.6474
 3209SOL    HW121260   4.031   4.470   1.816  0.4314 -0.9938 -0.0353
 3209SOL    HW221261   4.006   4.369   1.725 -1.0700 -0.5356 -0.0472
 3210SOL     OW21262   2.009   4.252  15.427  0.1659 -0.7202  0.5521
 3210SOL    HW121263   2.103   4.265  15.440  0.1175 -1.1262  1.2784
 3210SOL    HW221264   1.974   4.274  15.514  1.6021 -0.7866  1.1497
 3211SOL     OW21265   4.494   2.312   8.645 -0.4724  0.3145  0.3247
 3211SOL    HW121266   4.587   2.312   8.623 -1.2285 -0.6711 -2.8159
 3211SOL    HW221267   4.496   2.240   8.708  0.5268 -0.8653 -1.0511
 3212SOL     OW21268   4.117   1.253  13.035  0.0656  0.1441 -0.0632
 3212SOL    HW121269   4.212   1.256  13.023 -0.2791  0.5211 -2.7530
 3212SOL    HW221270   4.099   1.199  12.957 -0.6741 -1.1407  1.0080
 3213SOL     OW21271   3.957   4.590   4.795 -0.5944  0.2761 -0.3806
 3213SOL    HW121272   4.035   4.541   4.770 -0.8352  0.0513 -0.6929
 3213SOL    HW221273   3.943   4.556   4.884 -2.9730 -1.2515 -1.3354
 3214SOL     OW21274   4.002   1.579  10.947 -0.2526  0.2068  0.0301
 3214SOL    HW121275   4.012   1.674  10.938  0.6245 -0.0383 -1.6835
 3214SOL    HW221276   4.064   1.545  10.881  2.3825  2.0527  1.5607
 3215SOL     OW21277   4.199   1.936   7.555 -0.0262  0.3615  0.2825
 3215SOL    HW121278   4.254   1.957   7.631 -0.2266  0.0133  0.5236
 3215SOL    HW221279   4.271   1.943   7.493  0.0535 -2.8583  0.0283
 3216SOL     OW21280   0.853   0.940   2.687  0.9190  0.1471 -0.0468
 3216SOL    HW121281   0.938   0.915   2.723  1.8677  2.0928 -0.9050
 3216SOL    HW221282   0.835   0.980   2.772 -1.9706  0.3084 -0.7288
 3217SOL     OW21283   1.697   0.197  15.697 -0.0455 -0.2341  0.1108
 3217SOL    HW121284   1.649   0.222  15.618 -1.7180  0.6822  1.4287
 3217SOL    HW221285   1.765   0.265  15.701  2.0625 -2.2784 -0.5747
 3218SOL     OW21286   4.724   0.435   1.903  0.0797 -0.4493  0.2899
 3218SOL    HW121287   4.703   0.517   1.947 -1.3321  1.5151 -4.0721
 3218SOL    HW221288   0.052   0.464   1.838 -1.5899  1.6151 -0.4014
 3219SOL     OW21289   1.357   0.394   2.684 -0.8035  0.1943 -0.5847
 3219SOL    HW121290   1.368   0.304   2.715  1.0501  0.7091  0.2401
 3219SOL    HW221291   1.278   0.426   2.727  0.6810  2.1820  0.6700
 3220SOL     OW21292   2.061   4.313   4.354  0.5051  0.3371 -0.1538
 3220SOL    HW121293   2.060   4.350   4.266  0.1311  0.5117 -0.0747
 3220SOL    HW221294   2.050   4.218   4.345 -0.4779  0.3288  1.1915
 3221SOL     OW21295   1.399   4.494  17.032  0.2821 -0.2460 -0.3346
 3221SOL    HW121296   1.387   4.507  17.126 -0.7682  0.1696 -0.5217
 3221SOL    HW221297   1.455   4.570  17.014 -2.9626  1.7685 -1.9840
 3222SOL     OW21298   0.308   2.173   2.533  0.7998 -0.2764  0.3486
 3222SOL    HW121299   0.389   2.125   2.515  1.0448  0.3067 -0.0865
 3222SOL    HW221300   0.240   2.106   2.545 -0.3372  0.6999 -0.6653
 3223SOL     OW21301   3.269   2.569  12.303 -0.9012  0.5458  0.0802
 3223SOL    HW121302   3.362   2.557  12.323 -0.7241  2.6026  0.4519
 3223SOL    HW221303   3.254   2.655  12.342 -0.6404 -0.0902  1.5512
 3224SOL     OW21304   1.497   1.903   2.794 -0.3966 -0.3522  0.1616
 3224SOL    HW121305   1.509   1.995   2.817  0.6864 -1.0505  2.3818
 3224SOL    HW221306   1.449   1.898   2.711  1.2368 -0.8937 -0.7454
 3225SOL     OW21307   3.865   3.644   2.160 -0.0062 -0.1462  0.2974
 3225SOL    HW121308   3.914   3.725   2.171 -0.5230  0.0142  1.4029
 3225SOL    HW221309   3.798   3.669   2.224 -0.9319 -0.3390 -0.5893
 3226SOL     OW21310   3.264   0.080   0.616  0.8432 -0.0007 -0.1544
 3226SOL    HW121311   3.315   0.059   0.537  0.8859  0.5956 -0.2874
 3226SOL    HW221312   3.244   4.735   0.662  0.7800  0.4537  0.6274
 3227SOL     OW21313   0.642   1.044   5.751 -0.0721 -0.2659 -0.8020
 3227SOL    HW121314   0.682   1.074   5.833  0.5893 -0.4240 -1.0654
 3227SOL    HW221315   0.702   0.973   5.728  0.8240  0.7647 -1.6126
 3228SOL     OW21316   1.320   1.020  10.927  0.1053  0.0287 -0.3137
 3228SOL    HW121317   1.244   1.063  10.886 -1.5409 -2.7371 -0.1607
 3228SOL    HW221318   1.314   1.055  11.016  0.4575  1.8266 -0.9986
 3229SOL     OW21319   0.584   3.808   8.805 -0.5116 -0.0427  0.3475
 3229SOL    HW121320   0.610   3.796   8.896  0.7622 -1.7437 -0.2301
 3229SOL    HW221321   0.664   3.854   8.778 -1.3532  1.5919  0.6430
 3230SOL     OW21322   2.721   1.449   4.532 -0.1255  0.0544 -0.0226
 3230SOL    HW121323   2.689   1.446   4.442 -0.6691  0.4923  0.1593
 3230SOL    HW221324   2.729   1.543   4.550  0.5494  0.0445 -0.2809
 3231SOL     OW21325   2.089   4.605  11.442 -0.2580 -0.1396  0.1886
 3231SOL    HW121326   2.080   4.670  11.372  1.8770 -0.3914 -0.3089
 3231SOL    HW221327   2.138   4.533  11.403  1.4736 -0.5664  3.1213
 3232SOL     OW21328   3.863   4.223   1.431  0.5154  0.0752 -0.7505
 3232SOL    HW121329   3.910   4.184   1.357  3.2316  2.2416 -0.1625
 3232SOL    HW221330   3.924   4.290   1.460 -1.1344  0.5807  1.5753
 3233SOL     OW21331   0.114   3.064   2.276  0.4681  0.2554 -0.6993
 3233SOL    HW121332   0.131   3.024   2.191  0.5943 -1.4342  0.1115
 3233SOL    HW221333   0.197   3.043   2.319  0.7343  1.1148 -0.7923
 3234SOL     OW21334   3.814   3.333   3.893  0.3495  0.4325 -0.2334
 3234SOL    HW121335   3.854   3.265   3.839 -0.7246  1.1445 -1.9240
 3234SOL    HW221336   3.885   3.351   3.955  0.0982  1.9217 -0.3842
 3235SOL     OW21337   0.960   3.938  15.415  0.7646 -0.0331 -0.2249
 3235SOL    HW121338   0.953   4.031  15.394 -1.4039  0.0897  1.0355
 3235SOL    HW221339   0.981   3.941  15.508 -1.2218 -0.6803  0.2300
 3236SOL     OW21340   2.620   1.591  16.952  0.0298  0.2140 -0.2586
 3236SOL    HW121341   2.610   1.502  16.984 -0.7926  0.3729 -0.0651
 3236SOL    HW221342   2.684   1.622  17.016  2.4638 -1.0300 -2.1045
 3237SOL     OW21343   2.037   1.650   2.699  0.4348  0.2988 -0.1394
 3237SOL    HW121344   2.002   1.736   2.677  3.0456  1.2448 -0.5650
 3237SOL    HW221345   2.110   1.645   2.637  0.6533  1.5997  0.0225
 3238SOL     OW21346   1.677   1.720   6.318  0.2593 -0.1628  0.7660
 3238SOL    HW121347   1.637   1.806   6.312  0.9009  0.2105  1.9329
 3238SOL    HW221348   1.646   1.682   6.400 -0.1934 -1.7916 -0.1500
 3239SOL     OW21349   1.110   4.161   9.255  0.5742  0.4050  0.0583
 3239SOL    HW121350   1.110   4.257   9.255 -3.0584  0.4300 -1.1747
 3239SOL    HW221351   1.033   4.159   9.312 -1.3889 -0.3056 -2.5987
 3240SOL     OW21352   2.704   0.553  12.155  0.5537  0.0608 -0.2196
 3240SOL    HW121353   2.772   0.598  12.105  0.1510 -0.9517 -1.6924
 3240SOL    HW221354   2.664   0.618  12.212  1.8140 -0.7858  1.6495
 3241SOL     OW21355   0.984   0.530  12.266 -0.0654  0.2101  0.7569
 3241SOL    HW121356   0.919   0.557  12.201  0.5178 -0.7209 -0.2213
 3241SOL    HW221357   1.040   0.483  12.204  0.4981  1.9024 -0.0218
 3242SOL     OW21358   0.604   2.215   8.765 -0.1226 -0.3035  0.5358
 3242SOL    HW121359   0.537   2.147   8.773 -0.2006 -0.6088 -2.8966
 3242SOL    HW221360   0.671   2.200   8.832  1.9560 -0.9161 -1.7037
 3243SOL     OW21361   4.299   4.254  12.991  0.1582 -0.0622  0.4152
 3243SOL    HW121362   4.237   4.223  12.925 -0.8872 -2.1599  2.3653
 3243SOL    HW221363   4.314   4.347  12.971 -1.9255  0.5619  1.6174
 3244SOL     OW21364   0.688   4.381  13.589  0.4323  0.0828 -0.0347
 3244SOL    HW121365   0.741   4.320  13.640  1.0868  1.0534  0.4382
 3244SOL    HW221366   0.621   4.321  13.554  0.1814  0.7552 -0.7278
 3245SOL     OW21367   2.239   2.587   1.593 -0.6099 -0.6143  0.2837
 3245SOL    HW121368   2.278   2.502   1.571 -0.8532 -0.8954  0.9351
 3245SOL    HW221369   2.311   2.620   1.646 -0.5518  0.5216 -0.5183
 3246SOL     OW21370   3.959   0.986   6.278  1.0943  0.2580 -0.2642
 3246SOL    HW121371   4.027   0.935   6.321 -1.3143 -1.7010  1.2690
 3246SOL    HW221372   3.906   0.922   6.231  1.4649 -0.3818  0.1961
 3247SOL     OW21373   3.962   1.044  11.597 -0.0041  0.0207  0.1863
 3247SOL    HW121374   4.019   1.062  11.522 -1.1471  0.0507 -0.6641
 3247SOL    HW221375   3.885   1.100  11.592 -0.2158 -0.2723  0.1841
 3248SOL     OW21376   0.510   4.282   6.031  0.1082  0.4375  0.0943
 3248SOL    HW121377   0.567   4.350   6.066 -1.7169  0.9247  2.1629
 3248SOL    HW221378   0.519   4.302   5.938 -3.6061 -2.3248 -0.8783
 3249SOL     OW21379   1.092   0.263   1.690 -0.0796 -0.4547 -0.5410
 3249SOL    HW121380   1.037   0.321   1.637 -0.7845  0.5476  1.3208
 3249SOL    HW221381   1.023   0.200   1.710 -2.0905  2.1554  0.7311
 3250SOL     OW21382   2.218   0.073   4.631  0.3406 -0.1547  0.5256
 3250SOL    HW121383   2.138   0.105   4.673 -1.0416 -1.1787 -1.3268
 3250SOL    HW221384   2.178   4.727   4.599 -2.2961  1.3259  0.0831
 3251SOL     OW21385   1.952   1.720   5.485  0.4313 -0.1051  0.3797
 3251SOL    HW121386   1.921   1.672   5.408 -0.5506  2.2006 -0.6563
 3251SOL    HW221387   1.872   1.736   5.534  0.5045  0.2561  0.3845
 3252SOL     OW21388   1.850   0.752   0.068  0.4686  0.0629 -0.3670
 3252SOL    HW121389   1.826   0.721  17.723 -0.2234  1.2775 -0.6084
 3252SOL    HW221390   1.853   0.669   0.115 -1.8472  0.7731  1.0390
 3253SOL     OW21391   1.721   1.030  14.926 -0.0022 -0.8274  0.3829
 3253SOL    HW121392   1.713   1.023  14.831 -1.4265  0.2467  0.4197
 3253SOL    HW221393   1.676   0.948  14.945  0.8124 -1.0104  1.5324
 3254SOL     OW21394   2.648   1.106  17.698 -0.1514 -0.3221  0.4927
 3254SOL    HW121395   2.560   1.141  17.710 -0.0559  0.2605 -0.5021
 3254SOL    HW221396   2.696   1.161   0.018  1.2392 -0.7103 -0.2492
 3255SOL     OW21397   1.462   0.493   4.801 -0.6749  0.2996  0.1127
 3255SOL    HW121398   1.476   0.438   4.878 -3.3484 -0.7501 -0.1438
 3255SOL    HW221399   1.445   0.418   4.744 -1.7262  1.3112 -0.9090
 3256SOL     OW21400   1.484   4.193   7.002 -0.0618  0.0877 -0.3446
 3256SOL    HW121401   1.501   4.140   6.923 -1.8070 -2.4946  1.0021
 3256SOL    HW221402   1.506   4.134   7.074 -2.8728  1.9576  2.0362
 3257SOL     OW21403   1.438   4.469   7.080 -0.3446 -0.0735  0.2093
 3257SOL    HW121404   1.463   4.443   7.168  2.0617  0.1831 -0.4166
 3257SOL    HW221405   1.449   4.378   7.052 -1.9333 -0.4752  0.8550
 3258SOL     OW21406   0.028   4.451   0.034 -0.1292  0.5215  0.2900
 3258SOL    HW121407   0.002   4.360   0.049  1.7963 -0.2054 -0.7098
 3258SOL    HW221408   4.685   4.502   0.052 -0.1004  0.4987  0.4868
 3259SOL     OW21409   3.755   4.118   7.121 -0.2300  0.3105 -0.2265
 3259SOL    HW121410   3.664   4.088   7.125 -0.1258  0.1286  0.6491
 3259SOL    HW221411   3.741   4.213   7.126  1.4516  0.5663 -0.3206
 3260SOL     OW21412   1.863   3.680   9.063  0.0412 -0.2298  0.4029
 3260SOL    HW121413   1.928   3.612   9.053 -0.3866 -0.5496 -0.1645
 3260SOL    HW221414   1.831   3.655   9.150 -0.3944 -1.8814 -0.2497
 3261SOL     OW21415   0.390   4.724   4.886  0.5537 -0.2028 -0.6074
 3261SOL    HW121416   0.428   0.074   4.905 -0.0029 -0.3955  1.3734
 3261SOL    HW221417   0.444   4.696   4.812  2.0662  0.9810  0.0650
 3262SOL     OW21418   2.222   3.073   7.351 -0.5798  0.1906 -0.0444
 3262SOL    HW121419   2.227   3.000   7.413  0.7192  1.1287  0.9327
 3262SOL    HW221420   2.299   3.121   7.381 -1.3367  0.7178  1.0571
 3263SOL     OW21421   0.672   1.182   2.827 -0.2341  0.4340 -0.4368
 3263SOL    HW121422   0.621   1.101   2.818 -2.1742  1.6605 -0.3842
 3263SOL    HW221423   0.750   1.162   2.774  0.0384  2.5907 -0.8481
 3264SOL     OW21424   2.402   0.400   8.982  0.3324  0.1156  0.0345
 3264SOL    HW121425   2.392   0.495   8.989  1.7910  0.3688 -1.3385
 3264SOL    HW221426   2.341   0.373   8.914  3.7005 -6.0385 -0.5033
 3265SOL     OW21427   0.371   2.596   5.552 -0.0590 -0.0074 -0.2085
 3265SOL    HW121428   0.291   2.634   5.516  0.8673  1.0526 -1.1560
 3265SOL    HW221429   0.420   2.676   5.573  0.3069  0.0534 -1.2919
 3266SOL     OW21430   2.094   1.275  12.550 -0.1760 -0.0019 -0.2927
 3266SOL    HW121431   2.117   1.302  12.461  0.1807  0.2085 -0.1346
 3266SOL    HW221432   2.002   1.253  12.535 -0.6052  1.3661  0.3366
 3267SOL     OW21433   3.210   0.206   7.845 -0.4069 -0.4848 -0.6079
 3267SOL    HW121434   3.291   0.240   7.882 -1.4160  2.3387 -0.9240
 3267SOL    HW221435   3.209   0.112   7.859  2.5799 -0.1394  2.0078
 3268SOL     OW21436   0.305   3.646   9.133 -0.5856  0.0404  0.1596
 3268SOL    HW121437   0.361   3.606   9.200 -1.4593 -1.4247  0.0165
 3268SOL    HW221438   0.250   3.705   9.184 -1.1816 -1.4415  1.2670
 3269SOL     OW21439   2.935   1.323   6.065 -0.4896 -0.3395  0.2399
 3269SOL    HW121440   2.917   1.414   6.040  2.3721  0.3794  0.8015
 3269SOL    HW221441   2.873   1.281   6.005  1.0585  0.2511 -1.7452
 3270SOL     OW21442   1.471   2.930  11.847 -0.2411 -0.1119 -0.5756
 3270SOL    HW121443   1.549   2.894  11.806  0.9480  1.2785  0.4461
 3270SOL    HW221444   1.450   2.859  11.908 -0.4776  0.9889  0.6239
 3271SOL     OW21445   4.124   2.033   6.720 -0.4728  0.0619 -0.1148
 3271SOL    HW121446   4.182   2.006   6.791 -2.1283 -0.0088  1.2140
 3271SOL    HW221447   4.156   2.123   6.713 -1.6174  0.6542  2.1526
 3272SOL     OW21448   1.941   1.704   7.459 -0.1697  0.1316  0.2534
 3272SOL    HW121449   2.001   1.630   7.443  0.0151  0.0306  1.4077
 3272SOL    HW221450   1.885   1.691   7.382 -1.1935  0.3767  0.9741
 3273SOL     OW21451   2.202   2.981   7.096  0.5704 -0.2582 -0.1339
 3273SOL    HW121452   2.125   2.936   7.061  2.2478 -2.1354 -1.4384
 3273SOL    HW221453   2.178   3.005   7.186  1.0484  0.3944 -0.1815
 3274SOL     OW21454   4.586   2.639   4.712  0.2125 -0.9484 -0.1192
 3274SOL    HW121455   4.623   2.623   4.799 -0.7507 -2.3422  0.0242
 3274SOL    HW221456   4.519   2.702   4.737  1.5270  0.4946 -0.2071
 3275SOL     OW21457   1.798   4.433   4.784 -0.1348 -0.3721  0.0580
 3275SOL    HW121458   1.735   4.487   4.832  2.5435  2.0562  0.8158
 3275SOL    HW221459   1.786   4.357   4.842 -1.5893 -0.7576 -0.7482
 3276SOL     OW21460   3.919   1.849   3.949  0.2322 -0.4996 -0.1401
 3276SOL    HW121461   3.834   1.856   3.906  0.8048  0.0735 -1.1729
 3276SOL    HW221462   3.898   1.832   4.041 -1.6136  0.3803 -0.3907
 3277SOL     OW21463   4.211   4.201   4.645  0.2276 -0.2720 -0.0567
 3277SOL    HW121464   4.287   4.146   4.631  1.3908  0.9210  1.4896
 3277SOL    HW221465   4.153   4.140   4.691 -1.7099  0.9588 -0.8252
 3278SOL     OW21466   3.305   4.417   7.818 -0.7543  0.4438 -0.0504
 3278SOL    HW121467   3.296   4.367   7.737 -2.1971  1.7591 -0.6817
 3278SOL    HW221468   3.328   4.350   7.882  0.5601 -0.2862 -1.2875
 3279SOL     OW21469   2.018   3.918   5.541 -0.1865  0.1065 -0.3446
 3279SOL    HW121470   2.103   3.930   5.585  0.4864 -1.3170 -1.2490
 3279SOL    HW221471   2.052   3.906   5.452 -0.6576 -0.5515 -0.4352
 3280SOL     OW21472   0.606   1.855   3.591  0.1307  0.0940 -0.0836
 3280SOL    HW121473   0.664   1.810   3.653  0.7215 -0.7108 -1.1988
 3280SOL    HW221474   0.652   1.847   3.507 -2.8244  1.2434 -1.7820
 3281SOL     OW21475   0.884   3.381  17.049 -0.1607  0.8724  0.7775
 3281SOL    HW121476   0.868   3.427  16.967  0.7069  1.8138  1.1438
 3281SOL    HW221477   0.798   3.346  17.072 -0.2595  0.6112 -0.0059
 3282SOL     OW21478   4.476   2.340   6.934 -0.2232  0.1027 -0.2128
 3282SOL    HW121479   4.488   2.433   6.912 -1.4569  0.3817  0.2776
 3282SOL    HW221480   4.396   2.337   6.986  0.0721 -0.7363  0.1987
 3283SOL     OW21481   4.043   4.084   4.820  0.0962 -0.2591 -0.1294
 3283SOL    HW121482   3.992   4.122   4.892  0.3168 -0.3878  0.0968
 3283SOL    HW221483   4.106   4.031   4.869 -1.2058 -1.3403  0.3682
 3284SOL     OW21484   3.141   4.524   1.646 -0.0086 -0.0371  0.3600
 3284SOL    HW121485   3.181   4.557   1.566 -0.7185  0.4791  0.2260
 3284SOL    HW221486   3.218   4.503   1.699 -0.3703  0.0744  0.9329
 3285SOL     OW21487   3.808   3.441  10.605 -0.3770 -0.5906  0.5324
 3285SOL    HW121488   3.788   3.357  10.646 -2.0408 -0.0822  0.7646
 3285SOL    HW221489   3.723   3.485  10.612  0.2542  0.5778  0.6852
 3286SOL     OW21490   4.194   1.448   4.042 -0.0241 -0.3694 -0.7097
 3286SOL    HW121491   4.099   1.435   4.032  0.1983 -2.5459  0.1520
 3286SOL    HW221492   4.220   1.357   4.028  0.2670 -0.4292  0.2426
 3287SOL     OW21493   2.792   2.439   3.649 -0.1663  0.0395 -0.0654
 3287SOL    HW121494   2.783   2.359   3.701 -1.5199 -0.1424 -0.5849
 3287SOL    HW221495   2.817   2.505   3.714  0.7409 -1.8919  1.5262
 3288SOL     OW21496   3.057   0.033   0.093  0.0444  0.2449  0.0388
 3288SOL    HW121497   3.061   0.128   0.087  1.5634  0.0730 -1.4730
 3288SOL    HW221498   3.035   0.025   0.186 -1.0307 -1.8736 -0.3943
 3289SOL     OW21499   0.653   0.749   6.716  0.0849  0.6723 -0.0404
 3289SOL    HW121500   0.587   0.818   6.707  0.2873  1.1794  2.4177
 3289SOL    HW221501   0.640   0.702   6.634 -1.0016  0.1288  0.4366
 3290SOL     OW21502   0.249   2.572   4.455 -0.2529 -0.4674 -0.3210
 3290SOL    HW121503   0.254   2.492   4.508  1.9880 -0.6864 -0.8375
 3290SOL    HW221504   0.189   2.543   4.386  0.8504  1.9220 -2.3216
 3291SOL     OW21505   0.022   4.726  14.912 -0.1529  0.3776 -0.1035
 3291SOL    HW121506   0.098   0.046  14.897  0.4020 -0.3238  0.1525
 3291SOL    HW221507   4.703   4.725  14.834 -0.3194 -0.5391  0.0258
 3292SOL     OW21508   1.574   0.418   9.340  0.2464  0.5022  0.0712
 3292SOL    HW121509   1.602   0.377   9.422  0.4215  2.0401  0.7761
 3292SOL    HW221510   1.649   0.477   9.332  1.2206 -0.0616  5.0676
 3293SOL     OW21511   1.657   2.057   4.514  0.5054 -0.1900 -0.4060
 3293SOL    HW121512   1.577   2.007   4.500  1.2669 -0.9567 -2.0344
 3293SOL    HW221513   1.708   2.004   4.453  0.1238 -2.1930  1.0087
 3294SOL     OW21514   1.565   0.254   4.134  0.3738 -0.2302  0.6363
 3294SOL    HW121515   1.531   0.332   4.179  0.1867 -0.8418  1.5400
 3294SOL    HW221516   1.578   0.281   4.043 -1.5835 -2.5958 -0.3473
 3295SOL     OW21517   0.206   0.746   4.549  0.8093 -0.7550 -0.3008
 3295SOL    HW121518   0.300   0.729   4.538  0.5813 -1.8846 -0.5837
 3295SOL    HW221519   0.208   0.837   4.576 -0.3412 -0.3937 -1.4171
 3296SOL     OW21520   2.010   4.502   0.964  0.2613 -0.5048 -0.6077
 3296SOL    HW121521   1.938   4.460   1.011  1.8541 -1.1356  1.2588
 3296SOL    HW221522   2.010   4.461   0.878  1.5070  2.4495 -2.0228
 3297SOL     OW21523   2.855   3.074   5.814  0.1698 -0.5228 -0.0711
 3297SOL    HW121524   2.870   3.088   5.721 -0.6113 -0.4240 -0.1873
 3297SOL    HW221525   2.827   2.983   5.810 -0.3933 -0.3800  0.5617
 3298SOL     OW21526   0.172   2.302   5.954  0.0236 -0.7517  0.6401
 3298SOL    HW121527   0.224   2.382   5.941 -0.7050 -0.4226 -0.1729
 3298SOL    HW221528   0.235   2.253   6.008  1.9533  2.7591  1.5832
 3299SOL     OW21529   1.064   4.705   8.962  0.3870 -0.2461  0.0623
 3299SOL    HW121530   1.108   4.647   8.900 -0.9255 -1.5342  0.3297
 3299SOL    HW221531   1.137   0.026   8.987  0.3632  0.8056 -2.2245
 3300SOL     OW21532   4.083   0.517   1.750 -0.3257 -0.1328 -0.6337
 3300SOL    HW121533   4.137   0.470   1.687 -1.9142 -0.7188 -1.5499
 3300SOL    HW221534   4.150   0.550   1.810 -0.6423 -0.4683 -0.0956
 3301SOL     OW21535   1.638   4.037   1.931  0.8745 -0.3115  0.2746
 3301SOL    HW121536   1.618   3.948   1.960 -1.1776  0.0260 -0.0894
 3301SOL    HW221537   1.732   4.027   1.917  1.2988  1.0501  2.2120
 3302SOL     OW21538   3.126   0.629   3.318  0.7725 -0.5801 -0.2284
 3302SOL    HW121539   3.160   0.626   3.408 -0.4402  1.8178  0.2853
 3302SOL    HW221540   3.075   0.709   3.324  1.8153  0.0848 -0.0691
 3303SOL     OW21541   0.259   4.643  15.373 -0.0504 -0.1598  0.0910
 3303SOL    HW121542   0.196   4.714  15.363  1.7791  1.8354  2.6577
 3303SOL    HW221543   0.303   4.649  15.288 -0.4603 -3.4078 -0.3444
 3304SOL     OW21544   3.201   3.638   2.938 -0.1209  0.0543  1.0831
 3304SOL    HW121545   3.260   3.574   2.977  0.1073 -0.7377 -0.5751
 3304SOL    HW221546   3.249   3.716   2.966  0.5994 -0.6738  1.8600
 3305SOL     OW21547   0.439   1.005   1.789  0.1425 -0.0332 -0.2707
 3305SOL    HW121548   0.421   0.931   1.732 -1.5213  0.2354 -0.0835
 3305SOL    HW221549   0.375   1.069   1.759 -0.6876 -0.5527  0.3824
 3306SOL     OW21550   1.607   1.642  15.611 -0.0712  0.3496 -0.2834
 3306SOL    HW121551   1.589   1.592  15.691  0.6511  2.4295  1.1743
 3306SOL    HW221552   1.565   1.576  15.555 -0.5349 -1.2905  1.9656
 3307SOL     OW21553   3.811   4.317   9.369 -0.5224 -0.2198  0.0593
 3307SOL    HW121554   3.882   4.356   9.318 -1.6271  0.2721 -1.1251
 3307SOL    HW221555   3.802   4.231   9.328 -1.8686 -0.3610  0.6373
 3308SOL     OW21556   4.542   4.506   0.472 -0.2805  0.5981  0.3567
 3308SOL    HW121557   4.631   4.483   0.447 -1.3717 -0.2915 -2.6263
 3308SOL    HW221558   4.543   4.601   0.456 -0.3293  0.7032  0.9849
 3309SOL     OW21559   2.317   1.679   4.370  0.5085 -0.5159 -0.2277
 3309SOL    HW121560   2.395   1.732   4.387 -0.2276  0.5935 -0.3236
 3309SOL    HW221561   2.314   1.684   4.275 -1.1713  2.3599  0.0005
 3310SOL     OW21562   4.711   2.285   3.729 -0.2239  0.3739  0.1933
 3310SOL    HW121563   0.000   2.316   3.816  1.2046  1.6085 -0.6706
 3310SOL    HW221564   4.729   2.191   3.737 -1.4672 -0.0074 -1.5991
 3311SOL     OW21565   3.495   2.869   7.721  0.6751 -0.0301  0.6132
 3311SOL    HW121566   3.561   2.799   7.725  0.5384 -0.1165  1.3654
 3311SOL    HW221567   3.548   2.944   7.695 -1.7248 -0.1176 -4.6793
 3312SOL     OW21568   0.240   0.169   3.252  0.9270  0.1216 -0.2311
 3312SOL    HW121569   0.270   0.256   3.278 -0.0315  0.3811  0.0384
 3312SOL    HW221570   0.262   0.119   3.330 -3.1245  0.2392  1.0134
 3313SOL     OW21571   0.979   4.001   9.053  0.5523  0.1022 -0.2615
 3313SOL    HW121572   1.024   4.058   9.115  1.1807 -0.8865  0.1956
 3313SOL    HW221573   1.013   3.914   9.073  0.2505 -0.5330 -2.5698
 3314SOL     OW21574   2.615   0.543   9.838 -0.2105  0.1331  0.1120
 3314SOL    HW121575   2.617   0.540   9.933 -2.9082 -2.0796  0.0941
 3314SOL    HW221576   2.635   0.637   9.832 -2.1785  0.6732  1.8693
 3315SOL     OW21577   0.532   2.242   9.353 -0.0651 -0.3680  0.3757
 3315SOL    HW121578   0.567   2.153   9.360  1.6002  0.3719  1.5291
 3315SOL    HW221579   0.557   2.257   9.262 -0.5719 -2.3759 -0.0975
 3316SOL     OW21580   1.193   3.854   0.111  0.0599  0.4599  0.2188
 3316SOL    HW121581   1.158   3.827   0.196  2.2985 -2.0391  0.3438
 3316SOL    HW221582   1.208   3.945   0.136 -0.5936  0.9390 -1.1202
 3317SOL     OW21583   2.658   0.589   2.362  0.1771  0.3671  0.5056
 3317SOL    HW121584   2.588   0.646   2.394 -1.0155 -0.0476 -1.3603
 3317SOL    HW221585   2.714   0.652   2.316 -0.0183 -0.5619 -1.0084
 3318SOL     OW21586   3.099   2.535   2.311  0.2722 -0.3500 -0.0441
 3318SOL    HW121587   3.172   2.525   2.250 -1.9861 -2.2158 -2.4858
 3318SOL    HW221588   3.134   2.590   2.381 -0.0952 -2.1883  1.5920
 3319SOL     OW21589   2.194   2.004   2.584 -0.1718  0.3193 -0.4618
 3319SOL    HW121590   2.188   2.005   2.489 -0.8617 -1.7095 -0.4434
 3319SOL    HW221591   2.149   2.085   2.608 -0.1878  0.8887 -2.4401
 3320SOL     OW21592   2.226   1.198   5.133 -0.0097  0.0884 -0.2270
 3320SOL    HW121593   2.321   1.202   5.131  0.0980 -2.1481 -0.5750
 3320SOL    HW221594   2.216   1.170   5.042  1.4765 -0.7395 -0.1369
 3321SOL     OW21595   0.730   3.342   5.353  0.3725 -1.0229 -0.0433
 3321SOL    HW121596   0.804   3.391   5.317 -1.5059  2.8562  1.3769
 3321SOL    HW221597   0.664   3.410   5.362  3.8432  2.4523 -1.2085
 3322SOL     OW21598   0.970   0.473  11.312 -0.6560 -0.2323  0.0752
 3322SOL    HW121599   1.027   0.549  11.319  0.1191 -0.6950 -1.4330
 3322SOL    HW221600   1.002   0.434  11.231  0.8541 -0.4174  0.7769
 3323SOL     OW21601   4.617   4.093   8.420 -0.7544  0.0475  0.0692
 3323SOL    HW121602   4.616   4.126   8.510  3.2471  0.6786 -0.1272
 3323SOL    HW221603   4.592   4.001   8.429 -0.2250 -0.3408 -2.5688
 3324SOL     OW21604   3.830   3.999   4.681  0.0232  0.0546 -0.7946
 3324SOL    HW121605   3.906   4.026   4.732 -0.7341 -0.1111  0.4242
 3324SOL    HW221606   3.764   4.030   4.743  0.4396 -0.7042  0.0466
 3325SOL     OW21607   4.248   0.887   7.997  0.3747  0.1853 -0.5340
 3325SOL    HW121608   4.174   0.947   8.006  1.2663  1.0369  1.2085
 3325SOL    HW221609   4.220   0.848   7.915  2.1167 -1.6569 -0.2532
 3326SOL     OW21610   3.875   2.009   6.599 -0.0387  0.7892 -0.5180
 3326SOL    HW121611   3.930   2.039   6.527 -0.4698  0.8439 -0.8214
 3326SOL    HW221612   3.943   1.970   6.654 -1.5164  0.6734  1.2350
 3327SOL     OW21613   1.805   3.757   8.794 -0.2341  0.1141  0.3846
 3327SOL    HW121614   1.873   3.721   8.737  1.0886  1.4540  1.1152
 3327SOL    HW221615   1.834   3.743   8.884  0.9674  3.0104  0.4479
 3328SOL     OW21616   3.291   4.023   6.191  0.1611  0.3774 -0.1216
 3328SOL    HW121617   3.238   4.072   6.128  0.2042 -0.1332 -0.5547
 3328SOL    HW221618   3.326   3.958   6.130  2.2341 -0.1883  1.6946
 3329SOL     OW21619   1.125   4.462  13.106 -0.0845 -0.2351 -0.1430
 3329SOL    HW121620   1.197   4.524  13.094 -1.1791  0.6665 -2.0896
 3329SOL    HW221621   1.061   4.525  13.138  1.0288  0.4652  0.7005
 3330SOL     OW21622   1.996   0.270   0.312  1.0806 -0.6949 -0.4621
 3330SOL    HW121623   2.086   0.237   0.308  1.3482  0.1459 -1.4515
 3330SOL    HW221624   1.998   0.366   0.310  0.1215 -0.6650 -0.0542
 3331SOL     OW21625   3.425   4.530   3.993 -0.0843  0.3468  0.1215
 3331SOL    HW121626   3.502   4.515   3.937 -0.6592 -1.7592 -0.1114
 3331SOL    HW221627   3.460   4.582   4.064 -1.8777  1.5815  0.1069
 3332SOL     OW21628   2.465   3.016   0.591 -0.2625  0.1491  0.3844
 3332SOL    HW121629   2.541   3.019   0.533  0.8556 -1.1898  1.7650
 3332SOL    HW221630   2.408   2.949   0.554  1.4922 -1.2129  0.1493
 3333SOL     OW21631   0.298   3.901   6.451 -0.1466 -0.2261  0.3240
 3333SOL    HW121632   0.263   3.914   6.363  1.9997 -1.2860 -0.6940
 3333SOL    HW221633   0.353   3.979   6.462 -1.8826  0.5054  3.8472
 3334SOL     OW21634   0.127   2.645   4.118 -0.0158 -0.6202  1.0149
 3334SOL    HW121635   0.054   2.590   4.146 -0.0070 -1.6057 -0.9097
 3334SOL    HW221636   0.186   2.576   4.091 -0.5263  0.1600 -2.0768
 3335SOL     OW21637   4.226   1.433   7.340 -0.2368 -0.0784  0.0279
 3335SOL    HW121638   4.176   1.396   7.267 -3.0352  1.4925  1.1260
 3335SOL    HW221639   4.172   1.419   7.418  0.3889  1.9517  0.8070
 3336SOL     OW21640   2.132   1.086   5.367  0.1354 -0.0386  0.3745
 3336SOL    HW121641   2.157   1.147   5.297 -0.8663 -0.1092 -0.0428
 3336SOL    HW221642   2.137   1.001   5.323 -0.2521 -1.9716  4.0701
 3337SOL     OW21643   1.633   2.249   5.373  1.0651 -0.4196  0.3007
 3337SOL    HW121644   1.718   2.269   5.334  0.2979  1.4316 -0.4681
 3337SOL    HW221645   1.584   2.223   5.295  1.7594 -2.7325  0.6440
 3338SOL     OW21646   3.406   2.084   5.191  0.1651  0.1246 -0.2725
 3338SOL    HW121647   3.478   2.071   5.253  1.4453  2.1865 -1.3088
 3338SOL    HW221648   3.396   2.179   5.188  0.5394  0.1715 -0.0695
 3339SOL     OW21649   0.844   4.524   3.417  0.2522 -0.9142 -0.4557
 3339SOL    HW121650   0.842   4.604   3.364  0.6165  0.3680  1.4954
 3339SOL    HW221651   0.858   4.558   3.505 -0.7494 -0.7864 -0.3432
 3340SOL     OW21652   2.102   3.110   1.594  0.3153 -0.1329  0.2140
 3340SOL    HW121653   2.174   3.121   1.655 -0.3958 -1.5012  1.3055
 3340SOL    HW221654   2.032   3.149   1.647  1.7581  1.5525  0.8563
 3341SOL     OW21655   3.292   2.089   7.481 -0.0540 -0.1429 -0.1395
 3341SOL    HW121656   3.311   2.008   7.529  2.2774 -0.3920 -1.5083
 3341SOL    HW221657   3.247   2.043   7.410 -1.1895 -0.8631  1.0299
 3342SOL     OW21658   0.770   1.469   7.455  0.7600 -0.3640  0.0245
 3342SOL    HW121659   0.806   1.487   7.368 -1.0570 -1.4510 -0.9708
 3342SOL    HW221660   0.694   1.526   7.467  2.5849  1.5701  2.1403
 3343SOL     OW21661   0.936   2.777   1.305  0.1386  0.6828 -0.1266
 3343SOL    HW121662   0.946   2.757   1.211  1.7957  0.1857  0.1522
 3343SOL    HW221663   0.848   2.744   1.321 -0.7612  3.1636  0.0146
 3344SOL     OW21664   1.271   0.627   8.313 -0.6003  0.2917  0.2169
 3344SOL    HW121665   1.359   0.647   8.280 -1.1291 -0.2161 -1.4897
 3344SOL    HW221666   1.228   0.711   8.297 -1.9589 -0.4896 -0.2440
 3345SOL     OW21667   3.239   3.255   8.519  0.1402 -0.1125 -0.4820
 3345SOL    HW121668   3.300   3.306   8.572 -2.4419  1.4121  1.0268
 3345SOL    HW221669   3.219   3.181   8.576 -3.1087  1.0019 -0.1338
 3346SOL     OW21670   2.691   1.467  15.527 -0.4558  0.0762 -0.4048
 3346SOL    HW121671   2.620   1.462  15.592 -1.2896  0.6011 -1.2699
 3346SOL    HW221672   2.662   1.539  15.471 -3.1887 -1.2805 -0.7581
 3347SOL     OW21673   3.647   3.129  15.196 -0.2192  0.4818  0.3565
 3347SOL    HW121674   3.587   3.055  15.187  0.8964 -0.1086 -2.0423
 3347SOL    HW221675   3.668   3.134  15.103 -0.8893 -2.0464  0.0660
 3348SOL     OW21676   2.847   2.009   8.332 -0.1480  0.0151  0.1728
 3348SOL    HW121677   2.777   1.960   8.288 -2.0572  2.9742 -0.0876
 3348SOL    HW221678   2.790   2.064   8.385  0.1482 -1.2443  1.7772
 3349SOL     OW21679   0.095   0.777   3.291  0.3167  0.3714  0.8646
 3349SOL    HW121680   0.172   0.767   3.347  0.7968  1.1798  0.3494
 3349SOL    HW221681   0.103   0.871   3.277 -1.5138 -0.0765 -3.3287
 3350SOL     OW21682   2.244   3.162   4.718 -0.1137  0.3582  0.2346
 3350SOL    HW121683   2.225   3.070   4.699  3.0869 -0.0625 -0.9438
 3350SOL    HW221684   2.327   3.156   4.766 -0.3391 -2.9899  0.1650
 3351SOL     OW21685   1.767   4.220   4.960 -0.5453 -0.6879 -0.2157
 3351SOL    HW121686   1.727   4.137   4.936  0.3393 -0.8618 -1.0958
 3351SOL    HW221687   1.854   4.192   4.986 -1.2420  1.7704  4.7821
 3352SOL     OW21688   3.835   2.710  13.948 -0.2255 -0.2638  0.0527
 3352SOL    HW121689   3.838   2.774  13.877 -2.3299 -1.3032 -0.9495
 3352SOL    HW221690   3.880   2.760  14.016 -0.3412 -0.6510  0.4104
 3353SOL     OW21691   1.763   0.742  12.528 -0.2904 -0.2222 -0.0839
 3353SOL    HW121692   1.850   0.756  12.491  0.6423 -0.9876  1.8140
 3353SOL    HW221693   1.750   0.814  12.590 -0.1460  1.7761 -2.3735
 3354SOL     OW21694   3.584   3.191   8.454  0.1146  0.5631  0.7442
 3354SOL    HW121695   3.660   3.136   8.472 -0.3291 -0.0847  0.6340
 3354SOL    HW221696   3.506   3.146   8.487 -0.5919  0.3820 -1.1704
 3355SOL     OW21697   3.306   0.590   7.359  0.2176 -0.7767 -0.0363
 3355SOL    HW121698   3.262   0.671   7.335 -0.2032 -0.8818  0.3872
 3355SOL    HW221699   3.388   0.620   7.400  0.1384 -1.1337  0.3794
 3356SOL     OW21700   2.648   1.820   7.612 -0.2574  0.0599  0.2810
 3356SOL    HW121701   2.572   1.871   7.642  0.0297  2.2364 -2.6932
 3356SOL    HW221702   2.674   1.849   7.525 -0.3835 -0.9219 -0.0865
 3357SOL     OW21703   2.458   0.245   9.212 -0.0932  0.2198  0.2047
 3357SOL    HW121704   2.431   0.154   9.196  1.7230 -0.3821  0.5358
 3357SOL    HW221705   2.433   0.294   9.134  2.7891  0.7815 -0.3562
 3358SOL     OW21706   0.967   0.657   1.039  0.0222 -0.6047 -0.0434
 3358SOL    HW121707   0.899   0.724   1.036  0.4247 -0.1808  0.2831
 3358SOL    HW221708   0.968   0.653   1.135 -0.0348 -1.2375 -0.0713
 3359SOL     OW21709   1.272   4.076   6.209  0.0687  0.7478 -0.5748
 3359SOL    HW121710   1.364   4.090   6.188  0.1883  0.2583 -0.3602
 3359SOL    HW221711   1.239   4.033   6.130 -0.7936  1.0576 -0.3891
 3360SOL     OW21712   2.886   3.223   6.030 -0.0877  0.2844 -0.6046
 3360SOL    HW121713   2.957   3.187   6.083 -0.0472  1.3030  0.0226
 3360SOL    HW221714   2.884   3.164   5.954 -0.5360 -0.1284 -0.2699
 3361SOL     OW21715   2.413   0.928  17.565 -0.3808 -1.4083  0.3913
 3361SOL    HW121716   2.482   0.874  17.604 -1.8545 -1.0321  3.5040
 3361SOL    HW221717   2.463   0.995  17.519 -0.3799 -0.9126  1.1276
 3362SOL     OW21718   0.121   4.628  13.994 -0.8009  0.1457 -0.5205
 3362SOL    HW121719   0.198   4.677  14.023 -1.0414  1.4915 -2.1388
 3362SOL    HW221720   0.152   4.539  14.011 -0.8018  0.5437  1.6250
 3363SOL     OW21721   0.342   3.691   7.925 -0.1866  0.0325 -0.7170
 3363SOL    HW121722   0.390   3.671   7.845  0.9077 -2.3364  0.5343
 3363SOL    HW221723   0.379   3.627   7.986  0.8984  2.2554  0.9712
 3364SOL     OW21724   0.919   1.063   2.228 -0.3327 -0.4848 -0.1503
 3364SOL    HW121725   0.962   1.147   2.217  1.4474 -0.9665  3.2406
 3364SOL    HW221726   0.841   1.090   2.276  1.1174  0.1732  1.7843
 3365SOL     OW21727   0.855   1.497   5.980 -0.0633  0.2335  0.1905
 3365SOL    HW121728   0.761   1.480   5.981 -0.0798  0.3137  0.0234
 3365SOL    HW221729   0.853   1.588   6.010  1.7725  0.4277 -0.2706
 3366SOL     OW21730   1.805   3.360   4.700 -0.4591 -0.1544  0.5289
 3366SOL    HW121731   1.715   3.384   4.724 -0.5998 -1.2077  1.0794
 3366SOL    HW221732   1.812   3.410   4.619  1.3339 -0.4772  0.4876
 3367SOL     OW21733   2.618   4.001   2.527 -0.3942  0.2604 -0.6192
 3367SOL    HW121734   2.635   4.083   2.481  1.4881  0.6090  0.6977
 3367SOL    HW221735   2.588   3.950   2.452  2.6850  0.3338 -1.8737
 3368SOL     OW21736   0.092   4.119   9.848 -0.0019 -0.0778  0.2129
 3368SOL    HW121737   0.129   4.193   9.897  2.7515 -1.0041 -0.4392
 3368SOL    HW221738   0.006   4.157   9.833  0.7366  1.5652  0.0786
 3369SOL     OW21739   2.001   0.354   9.138  0.5822 -1.2171  0.2527
 3369SOL    HW121740   2.042   0.438   9.119  1.3093 -1.3461  1.2880
 3369SOL    HW221741   2.023   0.339   9.230 -2.3793 -0.5071  1.0605
 3370SOL     OW21742   0.320   1.073   9.766 -0.0426  0.2855 -0.6003
 3370SOL    HW121743   0.320   1.046   9.674 -0.0989 -2.8331  0.3311
 3370SOL    HW221744   0.258   1.144   9.749 -1.4689 -1.0779 -0.9997
 3371SOL     OW21745   0.972   0.597   2.264 -0.3143 -0.2179  0.0731
 3371SOL    HW121746   1.049   0.587   2.320  0.6601  3.1873 -0.6454
 3371SOL    HW221747   0.996   0.541   2.190 -0.6452 -1.8730  1.2267
 3372SOL     OW21748   2.781   3.151   6.377  0.7122  0.3045 -0.0143
 3372SOL    HW121749   2.713   3.216   6.357 -0.1670 -0.0877  1.7464
 3372SOL    HW221750   2.739   3.065   6.383 -0.7496  1.0830  0.9299
 3373SOL     OW21751   3.804   4.028   8.952  0.3708 -0.4195  0.1923
 3373SOL    HW121752   3.893   4.022   8.916 -0.0356  0.6271 -1.0167
 3373SOL    HW221753   3.755   4.033   8.870 -0.6945  3.2741  1.0566
 3374SOL     OW21754   0.829   1.783   6.054 -0.4743 -0.3090  0.2150
 3374SOL    HW121755   0.833   1.810   5.962 -0.7367 -1.1426 -0.0398
 3374SOL    HW221756   0.735   1.776   6.072 -0.9458  0.0580 -1.9908
 3375SOL     OW21757   0.039   4.355  10.507  0.0749  0.2327 -0.1492
 3375SOL    HW121758   0.003   4.268  10.525  1.7650 -0.5128 -0.4323
 3375SOL    HW221759   0.123   4.332  10.547 -0.2309 -2.4229 -1.0220
 3376SOL     OW21760   0.127   1.340   7.431  0.2757  0.0772 -0.1510
 3376SOL    HW121761   0.138   1.256   7.387  1.2341 -0.1449  0.5197
 3376SOL    HW221762   0.218   1.367   7.447  0.3026 -0.2044  0.1682
 3377SOL     OW21763   4.011   2.558  13.737 -0.0214  0.2969  0.6123
 3377SOL    HW121764   3.950   2.593  13.802 -0.0866 -0.3179  0.8764
 3377SOL    HW221765   4.093   2.547  13.786  1.1689 -0.8428 -1.6579
 3378SOL     OW21766   1.385   1.336   9.902  0.2694  0.0185  0.6924
 3378SOL    HW121767   1.423   1.257   9.864  0.9208  0.3262  0.7035
 3378SOL    HW221768   1.453   1.361   9.964  1.7711  0.4719 -1.1594
 3379SOL     OW21769   2.338   3.392  14.559 -0.2943 -0.0279  0.1053
 3379SOL    HW121770   2.306   3.312  14.601 -2.8216  0.8454 -0.1652
 3379SOL    HW221771   2.275   3.417  14.491 -1.0850 -2.0491  0.1008
 3380SOL     OW21772   3.378   2.535   2.199  0.4006  0.2420  0.3980
 3380SOL    HW121773   3.391   2.584   2.118 -1.9256 -1.0356 -0.7282
 3380SOL    HW221774   3.401   2.444   2.182 -3.2636 -0.2641 -1.7299
 3381SOL     OW21775   0.481   0.638   2.438 -0.5772  0.0041 -0.1790
 3381SOL    HW121776   0.435   0.555   2.429 -2.0700  0.7369  0.6216
 3381SOL    HW221777   0.571   0.610   2.452 -1.4866 -2.5395  0.5421
 3382SOL     OW21778   3.428   1.287   9.031 -0.0525  0.5826 -0.0573
 3382SOL    HW121779   3.521   1.272   9.016 -0.2170  1.8180 -2.1848
 3382SOL    HW221780   3.405   1.353   8.966  0.8681  0.6377 -0.3213
 3383SOL     OW21781   3.017   0.975   3.126 -0.3552 -1.1201  0.2989
 3383SOL    HW121782   3.013   0.964   3.221 -1.0698 -2.3905  0.1138
 3383SOL    HW221783   3.105   1.012   3.116 -0.5361 -1.4363 -2.6133
 3384SOL     OW21784   4.014   3.469   4.236  0.2066 -0.2064 -0.1742
 3384SOL    HW121785   3.961   3.526   4.292  1.6139 -0.5948  1.5542
 3384SOL    HW221786   4.037   3.534   4.170  0.9995 -0.9174 -0.5914
 3385SOL     OW21787   3.763   1.180   7.481  0.1992  0.3028 -0.1984
 3385SOL    HW121788   3.855   1.157   7.469  0.3793  1.3828 -0.9597
 3385SOL    HW221789   3.719   1.129   7.413  0.4775 -0.3285  0.0954
 3386SOL     OW21790   0.575   0.533   4.765  0.6662 -0.4206  0.3564
 3386SOL    HW121791   0.637   0.462   4.749  2.8784  1.4456  0.5791
 3386SOL    HW221792   0.633   0.590   4.816  0.0013 -1.4278  2.2230
 3387SOL     OW21793   2.849   3.051   0.674 -0.3280 -0.1645 -0.6145
 3387SOL    HW121794   2.805   3.097   0.603  0.6728 -0.0869 -1.1888
 3387SOL    HW221795   2.880   2.971   0.632 -0.6849 -0.3217 -0.5743
 3388SOL     OW21796   4.698   4.061   1.924 -0.3731 -0.1664 -0.7479
 3388SOL    HW121797   4.658   3.979   1.952 -0.6646 -0.5611 -2.2806
 3388SOL    HW221798   0.049   4.023   1.938 -0.0347  1.0663  0.5039
 3389SOL     OW21799   2.834   3.778   0.615 -0.5586 -0.6625 -0.3537
 3389SOL    HW121800   2.872   3.731   0.541 -1.7162 -1.9995 -0.1211
 3389SOL    HW221801   2.876   3.727   0.684  0.6280 -1.0947 -1.3960
 3390SOL     OW21802   2.977   1.551  11.406  0.1270  0.2822 -0.5212
 3390SOL    HW121803   3.036   1.476  11.413  0.9463  1.1185  1.7003
 3390SOL    HW221804   2.922   1.543  11.484 -1.1056 -1.2966 -1.5788
 3391SOL     OW21805   2.470   2.687   7.606  0.3008 -0.0409  0.6095
 3391SOL    HW121806   2.424   2.605   7.588  0.6770 -0.1100 -0.0600
 3391SOL    HW221807   2.563   2.670   7.593 -0.0812 -1.9953  0.3998
 3392SOL     OW21808   4.611   0.673  11.026 -0.2571 -0.3982 -0.1634
 3392SOL    HW121809   4.593   0.764  11.003  0.6871 -0.0461  0.4644
 3392SOL    HW221810   4.551   0.658  11.099  1.5487 -1.4024  1.1405
 3393SOL     OW21811   1.680   1.348  16.286 -0.1609  0.2366  0.5623
 3393SOL    HW121812   1.716   1.350  16.198  0.0359  5.7537  0.7450
 3393SOL    HW221813   1.661   1.440  16.303  0.2063  0.2449  0.9442
 3394SOL     OW21814   2.391   3.950   6.713 -0.2737 -0.0046  0.1282
 3394SOL    HW121815   2.337   3.957   6.792  0.4145 -2.7695  0.8415
 3394SOL    HW221816   2.454   3.881   6.734 -0.8423 -0.0009  1.7859
 3395SOL     OW21817   3.090   2.219   1.166 -0.3993  0.4252  0.3333
 3395SOL    HW121818   3.097   2.199   1.260 -1.7121 -0.0731  0.3141
 3395SOL    HW221819   3.149   2.151   1.133 -1.4426  0.8338 -2.3410
 3396SOL     OW21820   3.889   4.213   7.461  0.1903  0.8704 -0.4811
 3396SOL    HW121821   3.842   4.130   7.453  2.5832 -0.4978 -0.6180
 3396SOL    HW221822   3.830   4.257   7.522 -0.2957  1.5458 -1.4343
 3397SOL     OW21823   4.614   2.871   9.292  0.2457  0.5131  0.2892
 3397SOL    HW121824   4.550   2.942   9.296 -1.6553 -1.1801 -0.0485
 3397SOL    HW221825   4.633   2.859   9.385 -2.5334 -0.9055  0.6847
 3398SOL     OW21826   3.464   0.817   5.341 -0.1937 -0.0777 -0.0236
 3398SOL    HW121827   3.485   0.882   5.274 -0.2252 -1.2456 -1.1672
 3398SOL    HW221828   3.402   0.758   5.299 -0.5373 -0.4780  1.0720
 3399SOL     OW21829   2.888   1.528  12.418  0.6326 -0.3371  0.4031
 3399SOL    HW121830   2.948   1.473  12.466 -1.4690 -2.2748  0.7825
 3399SOL    HW221831   2.860   1.602  12.471  2.4800  1.2648 -0.8407
 3400SOL     OW21832   4.047   0.653  12.151 -0.5088 -0.1954 -0.5383
 3400SOL    HW121833   4.047   0.734  12.101 -0.9817 -0.9068 -1.6876
 3400SOL    HW221834   3.955   0.630  12.159 -0.7988  1.2581  0.4413
 3401SOL     OW21835   1.419   0.704   7.879  0.3779  0.3153  0.2488
 3401SOL    HW121836   1.492   0.745   7.832  0.8657  0.1186  0.8330
 3401SOL    HW221837   1.437   0.734   7.968  0.3460  1.2012 -0.0355
 3402SOL     OW21838   1.883   2.991   8.317 -0.5902 -0.0142 -0.0039
 3402SOL    HW121839   1.908   3.081   8.296  0.2927 -0.4290 -0.7392
 3402SOL    HW221840   1.899   2.987   8.412 -0.0964  0.4502 -0.0641
 3403SOL     OW21841   4.108   2.998  13.150 -0.1123  0.0768  0.0264
 3403SOL    HW121842   4.177   2.962  13.205  0.5652 -0.7319 -1.3617
 3403SOL    HW221843   4.024   2.981  13.192  0.3223  1.4279  1.4373
 3404SOL     OW21844   3.519   4.515   0.684 -0.1434 -0.2157  0.1643
 3404SOL    HW121845   3.427   4.508   0.708 -0.8141  3.0915 -1.4533
 3404SOL    HW221846   3.539   4.606   0.708 -1.5324  0.5830 -1.7277
 3405SOL     OW21847   3.966   3.972  11.665 -0.2563  0.3539 -0.2428
 3405SOL    HW121848   4.024   3.956  11.740 -0.9526  0.1591  0.2519
 3405SOL    HW221849   4.030   3.962  11.594  0.2278 -1.4783  0.4501
 3406SOL     OW21850   0.718   3.429  12.606  0.7413  0.6222 -0.1177
 3406SOL    HW121851   0.632   3.388  12.599 -0.0996  2.1599  1.1820
 3406SOL    HW221852   0.765   3.369  12.549  1.2685 -0.5048  1.5126
 3407SOL     OW21853   0.990   1.086   3.177  0.3040  0.5446  1.3115
 3407SOL    HW121854   0.993   1.157   3.113 -1.2353 -0.0057  0.6231
 3407SOL    HW221855   1.069   1.034   3.164 -1.5713 -2.0716  0.3274
 3408SOL     OW21856   0.160   1.786  10.136 -0.0907  0.4827 -0.0457
 3408SOL    HW121857   0.214   1.779  10.057 -0.1831 -1.4354  0.0551
 3408SOL    HW221858   0.171   1.697  10.170 -1.7467  0.1425 -0.3899
 3409SOL     OW21859   2.658   1.079   4.435 -0.2001 -0.3923  0.2099
 3409SOL    HW121860   2.599   1.150   4.410  0.0926 -0.5302 -0.8573
 3409SOL    HW221861   2.602   1.046   4.504  0.8978 -0.4925  1.0571
 3410SOL     OW21862   2.494   3.158   2.010  0.2684 -0.6482 -0.6302
 3410SOL    HW121863   2.527   3.068   2.006  0.1303 -0.6921 -0.7989
 3410SOL    HW221864   2.454   3.150   1.923 -0.6489 -2.4810 -0.0262
 3411SOL     OW21865   3.860   4.704  16.320 -0.2658 -0.6277  0.0105
 3411SOL    HW121866   3.936   0.010  16.279  0.0060  0.8474  2.0230
 3411SOL    HW221867   3.866   4.616  16.283  1.4611 -0.9559  1.0438
 3412SOL     OW21868   2.231   0.938  17.351  0.3525  0.0154  0.2873
 3412SOL    HW121869   2.170   0.865  17.365  0.9611 -0.2580  1.5945
 3412SOL    HW221870   2.292   0.932  17.425 -0.4529 -0.4635  0.9252
 3413SOL     OW21871   2.986   3.208   6.546 -0.1014  0.1813  0.3939
 3413SOL    HW121872   2.911   3.182   6.493  1.1807  2.1429 -2.3692
 3413SOL    HW221873   2.963   3.184   6.636 -3.5391 -2.1234 -1.1004
 3414SOL     OW21874   2.394   3.271  12.639 -0.0511  0.6810  0.4379
 3414SOL    HW121875   2.396   3.308  12.551 -0.6432 -2.0281 -0.7008
 3414SOL    HW221876   2.310   3.226  12.631  1.0242 -1.6083  2.2862
 3415SOL     OW21877   3.223   3.180   7.949 -0.3480  0.0460  0.4317
 3415SOL    HW121878   3.222   3.132   8.032  1.0566 -1.9842 -0.7280
 3415SOL    HW221879   3.298   3.240   7.947 -1.6985  1.7218  0.1310
 3416SOL     OW21880   2.052   4.071   8.796 -0.0637 -0.3897 -0.9728
 3416SOL    HW121881   2.022   3.987   8.832 -0.5865  0.6950  1.1190
 3416SOL    HW221882   2.091   4.049   8.711 -1.5148 -1.5048 -1.3470
 3417SOL     OW21883   3.932   0.423   4.737 -0.4922 -0.1841  0.1552
 3417SOL    HW121884   3.964   0.334   4.741 -0.9198 -0.4420 -1.8914
 3417SOL    HW221885   4.006   0.476   4.764 -1.3143  0.8969  0.3050
 3418SOL     OW21886   2.009   0.293   6.077 -0.3110  0.8344  0.5512
 3418SOL    HW121887   2.093   0.334   6.060  0.1716 -1.2567 -2.1492
 3418SOL    HW221888   1.975   0.312   5.989  0.6999  2.4094  0.5122
 3419SOL     OW21889   1.570   2.128   7.020  0.2562  0.1305  0.1003
 3419SOL    HW121890   1.606   2.040   7.006  0.8626  0.6644 -1.7049
 3419SOL    HW221891   1.585   2.138   7.114 -0.0004 -1.6156  0.3387
 3420SOL     OW21892   4.103   4.120   7.303 -0.0222 -0.2294 -1.7307
 3420SOL    HW121893   4.067   4.122   7.392  2.3473 -2.7384 -0.6852
 3420SOL    HW221894   4.031   4.080   7.254 -0.2769 -1.4582 -0.3710
 3421SOL     OW21895   3.171   0.678   6.930  0.4851  0.7391  0.0182
 3421SOL    HW121896   3.247   0.651   6.981 -1.3389 -1.5466  1.5138
 3421SOL    HW221897   3.196   0.769   6.922 -4.2600  1.9841 -1.0511
 3422SOL     OW21898   1.402   0.245   0.303 -0.3452  0.5516  0.4199
 3422SOL    HW121899   1.426   0.337   0.309  1.0276  0.3004 -1.5638
 3422SOL    HW221900   1.465   0.220   0.371 -0.8658 -0.5131  0.5088
 3423SOL     OW21901   4.046   2.201   5.446  0.3541 -0.1527  0.0697
 3423SOL    HW121902   4.059   2.143   5.371  0.4321 -0.2316  0.1433
 3423SOL    HW221903   3.956   2.225   5.425  0.7262  1.4716  0.3025
 3424SOL     OW21904   1.358   0.082   8.786 -0.3417 -0.8777 -0.3209
 3424SOL    HW121905   1.349   0.105   8.878  0.4741  1.0022 -0.7071
 3424SOL    HW221906   1.325   4.728   8.790 -0.0395 -0.8659  2.1697
 3425SOL     OW21907   3.930   0.756  17.498  0.3876  0.2417 -0.3641
 3425SOL    HW121908   3.869   0.805  17.552  2.1102  1.4944  0.4530
 3425SOL    HW221909   4.012   0.770  17.545 -0.6573  0.7335  1.2828
 3426SOL     OW21910   3.183   1.204   2.533 -0.0715 -0.8708  0.5677
 3426SOL    HW121911   3.164   1.297   2.519 -0.7755 -0.8384  1.7256
 3426SOL    HW221912   3.158   1.200   2.625 -2.1931 -1.8548 -0.0452
 3427SOL     OW21913   0.112   1.784   7.940 -0.5724 -0.0841 -0.2373
 3427SOL    HW121914   0.117   1.874   7.972 -0.3740  0.0768 -0.7217
 3427SOL    HW221915   0.152   1.746   8.018  0.2203 -0.4799 -0.8337
 3428SOL     OW21916   4.344   0.496   5.815  0.2955 -0.1200 -0.0318
 3428SOL    HW121917   4.382   0.583   5.828  1.7157 -1.2048  2.9677
 3428SOL    HW221918   4.392   0.453   5.744  2.8142  0.4640  1.3456
 3429SOL     OW21919   0.485   4.203  13.544  0.9605  0.6724 -0.1172
 3429SOL    HW121920   0.495   4.120  13.498  1.3694  0.7768 -0.2197
 3429SOL    HW221921   0.392   4.225  13.545  0.3480 -2.1315  2.2362
 3430SOL     OW21922   1.194   0.639   4.405 -0.6532  0.3546 -0.2393
 3430SOL    HW121923   1.239   0.694   4.470 -0.0154  1.4565 -1.6048
 3430SOL    HW221924   1.179   0.706   4.338  1.5088 -2.1362 -3.2415
 3431SOL     OW21925   3.381   1.692   3.654  0.0466  0.6104 -0.1044
 3431SOL    HW121926   3.333   1.770   3.626  2.1472  1.4534 -1.3581
 3431SOL    HW221927   3.336   1.671   3.736  2.0633  0.3295  0.9395
 3432SOL     OW21928   2.011   4.200   6.466  0.1650 -0.8009 -0.1967
 3432SOL    HW121929   1.987   4.186   6.557 -1.9142 -0.0005 -0.6150
 3432SOL    HW221930   2.055   4.285   6.467  1.2296 -1.3126 -3.3680
 3433SOL     OW21931   1.438   0.129   7.406 -0.3626 -0.7252  0.1547
 3433SOL    HW121932   1.363   0.179   7.439 -1.6274 -2.1957 -0.4648
 3433SOL    HW221933   1.444   0.049   7.458  0.3776 -0.4102  0.5458
 3434SOL     OW21934   0.218   3.905   6.999 -0.3496  0.2128  0.5507
 3434SOL    HW121935   0.270   3.830   7.030  3.5200  2.6349 -0.0856
 3434SOL    HW221936   0.266   3.985   7.020 -0.7024  0.2965  1.0386
 3435SOL     OW21937   2.176   0.684   5.155  0.3825 -0.0206  0.1422
 3435SOL    HW121938   2.192   0.589   5.152  0.5471  0.0391 -1.0449
 3435SOL    HW221939   2.097   0.684   5.209  0.7445  2.0530  0.6496
 3436SOL     OW21940   0.007   4.046   5.889 -0.0045  0.1245 -0.9764
 3436SOL    HW121941   0.015   4.047   5.985 -2.0745 -2.0881 -0.7863
 3436SOL    HW221942   0.071   4.115   5.871 -0.6003  0.8819 -0.1991
 3437SOL     OW21943   3.731   3.776   1.285 -0.0037  0.5388 -0.6988
 3437SOL    HW121944   3.790   3.751   1.214 -3.9887 -3.7380 -2.4165
 3437SOL    HW221945   3.650   3.792   1.238 -0.7097 -1.4343 -0.1413
 3438SOL     OW21946   0.782   0.625   4.919  0.0662  0.5187  0.1945
 3438SOL    HW121947   0.788   0.715   4.949  0.0985  0.3010  0.8445
 3438SOL    HW221948   0.864   0.613   4.871 -0.3139 -1.1815 -0.0237
 3439SOL     OW21949   4.351   0.791   5.591 -0.7378 -0.0394  0.2866
 3439SOL    HW121950   4.361   0.875   5.546 -2.1936 -1.0959 -2.0243
 3439SOL    HW221951   4.429   0.753   5.550 -0.7011 -2.1349  2.3164
 3440SOL     OW21952   2.625   3.822   2.317 -0.0493 -0.3898 -0.2156
 3440SOL    HW121953   2.646   3.859   2.231  1.9607  1.4517  1.0557
 3440SOL    HW221954   2.700   3.765   2.330  1.0368  1.2551  0.6655
 3441SOL     OW21955   0.287   3.443   8.662 -0.4132  0.0801  0.5888
 3441SOL    HW121956   0.381   3.446   8.642 -0.3636  0.9041  0.9584
 3441SOL    HW221957   0.280   3.424   8.756  1.5789 -2.6327  0.2008
 3442SOL     OW21958   0.475   3.325  12.664  0.0723 -0.4870 -0.1011
 3442SOL    HW121959   0.442   3.287  12.745  0.3865 -0.6885 -0.0683
 3442SOL    HW221960   0.434   3.411  12.671 -0.0202 -0.4917 -0.5556
 3443SOL     OW21961   4.592   3.371   5.334 -0.2787  0.3318  0.0392
 3443SOL    HW121962   4.634   3.290   5.361 -1.9868  0.0513  1.8876
 3443SOL    HW221963   4.666   3.407   5.285 -0.6162  1.1323  0.1170
 3444SOL     OW21964   4.614   3.562   9.764 -0.5650 -0.3328 -0.3647
 3444SOL    HW121965   4.547   3.588   9.828 -0.7908 -0.8582 -0.3893
 3444SOL    HW221966   4.587   3.580   9.674  0.9234 -0.6451 -0.8728
 3445SOL     OW21967   3.961   3.684   2.713  0.8387  0.6141  0.0959
 3445SOL    HW121968   3.896   3.753   2.702 -0.8896 -1.2927 -1.8365
 3445SOL    HW221969   4.016   3.714   2.785 -0.0770  2.1394  0.1511
 3446SOL     OW21970   4.649   3.444  13.028 -0.3053 -0.4295  0.1395
 3446SOL    HW121971   4.682   3.533  13.015  0.3923 -0.6541  0.3380
 3446SOL    HW221972   4.609   3.460  13.114  0.5908  1.4256  0.2111
 3447SOL     OW21973   4.616   4.397   2.983 -0.1701 -0.0556  0.0640
 3447SOL    HW121974   4.630   4.410   2.890  0.3935 -0.9029  0.0317
 3447SOL    HW221975   4.594   4.485   3.013 -1.0198 -1.3443  3.2443
 3448SOL     OW21976   3.056   1.799   7.801 -0.6297  0.1348  0.1937
 3448SOL    HW121977   3.088   1.737   7.867  1.0449 -0.9628 -1.6584
 3448SOL    HW221978   2.966   1.769   7.791 -0.1584 -0.5618 -1.9801
 3449SOL     OW21979   3.089   1.024   2.006  0.1236 -0.0522  0.0388
 3449SOL    HW121980   3.070   0.940   2.048  0.6677 -1.0163 -1.6806
 3449SOL    HW221981   3.072   1.080   2.083 -0.4005 -0.3337  0.1225
 3450SOL     OW21982   2.686   4.241   2.377  0.2185 -0.1606  0.3677
 3450SOL    HW121983   2.661   4.273   2.290 -1.3999  0.8403  1.2123
 3450SOL    HW221984   2.780   4.245   2.360  0.2891 -0.6022  0.6690
 3451SOL     OW21985   1.937   0.359   3.867  0.6189  0.6660  0.0520
 3451SOL    HW121986   1.950   0.278   3.816 -0.2113 -0.9152  2.3588
 3451SOL    HW221987   1.897   0.418   3.804  0.7461  0.5605 -0.1301
 3452SOL     OW21988   4.618   2.586   5.971  0.2679 -0.3631  0.3637
 3452SOL    HW121989   4.695   2.631   6.004  1.9180 -3.9436  1.3480
 3452SOL    HW221990   4.559   2.598   6.045  0.0474 -2.0707  0.4664
 3453SOL     OW21991   2.456   4.698   2.584  0.2190 -0.1156 -0.5621
 3453SOL    HW121992   2.402   4.706   2.663 -0.2664  0.5758 -0.9606
 3453SOL    HW221993   2.498   0.048   2.589 -0.8249  0.4580 -1.5061
 3454SOL     OW21994   0.551   1.419   9.910  0.0738  0.1972 -0.6605
 3454SOL    HW121995   0.560   1.367   9.831  0.3186 -2.2695  0.9942
 3454SOL    HW221996   0.458   1.444   9.902 -0.5117 -1.3788  1.1641
 3455SOL     OW21997   3.660   0.707   8.199  0.6184  0.2481  0.2947
 3455SOL    HW121998   3.635   0.684   8.109  0.0838  0.7934  0.3059
 3455SOL    HW221999   3.606   0.784   8.216 -1.1593 -1.5729  2.7754
 3456SOL     OW22000   4.474   1.716  16.046  0.5771 -0.1694 -0.2914
 3456SOL    HW122001   4.379   1.713  16.032  0.4209  3.6337 -0.2067
 3456SOL    HW222002   4.506   1.780  15.982 -0.2394  2.6470  2.0987
 3457SOL     OW22003   2.179   2.792   6.088  0.6210  0.4351 -0.0408
 3457SOL    HW122004   2.242   2.824   6.152  0.3973 -0.6793  0.7284
 3457SOL    HW222005   2.107   2.851   6.112  1.7814  1.8707 -0.1303
 3458SOL     OW22006   1.141   3.727   1.067 -0.1899  0.1511 -0.5213
 3458SOL    HW122007   1.152   3.678   1.148  3.1999  1.3013 -0.2842
 3458SOL    HW222008   1.144   3.663   0.996  0.4803 -1.7691  1.2218
 3459SOL     OW22009   2.656   1.205  17.430  0.2939 -0.0760 -0.0277
 3459SOL    HW122010   2.695   1.119  17.441  1.0613  0.2220 -0.3956
 3459SOL    HW222011   2.661   1.241  17.519  2.9919  0.5476 -0.4258
 3460SOL     OW22012   2.185   4.644   1.089  0.3894 -0.3738 -0.0887
 3460SOL    HW122013   2.205   4.592   1.167  1.5655 -1.5190 -1.1685
 3460SOL    HW222014   2.113   4.604   1.041 -0.9237  0.0727  1.4772
 3461SOL     OW22015   1.554   1.892   3.327  0.2590 -0.1972  0.1354
 3461SOL    HW122016   1.470   1.883   3.371 -0.2095  0.3879 -0.6489
 3461SOL    HW222017   1.530   1.895   3.234  0.9034  2.4768  0.0542
 3462SOL     OW22018   1.490   1.630  12.827  0.2786 -0.2180  0.3023
 3462SOL    HW122019   1.397   1.653  12.822 -0.2944 -2.4228  0.5639
 3462SOL    HW222020   1.487   1.583  12.911  3.4084 -0.3493  0.3321
 3463SOL     OW22021   0.272   4.478   6.011  0.1827  0.2598 -0.5101
 3463SOL    HW122022   0.198   4.466   6.071  1.3174  0.8685  1.0185
 3463SOL    HW222023   0.301   4.387   6.010 -1.3054 -0.2215 -0.5919
 3464SOL     OW22024   2.572   0.043   8.463 -0.0712 -0.1332  0.5161
 3464SOL    HW122025   2.527   4.725   8.398  0.2862  1.7421 -1.2932
 3464SOL    HW222026   2.635   0.085   8.405 -1.5393  0.4954 -0.6566
 3465SOL     OW22027   4.108   0.349   7.137  0.0506  0.5267  0.0571
 3465SOL    HW122028   4.150   0.351   7.051  0.4897 -2.5417  0.2023
 3465SOL    HW222029   4.146   0.272   7.179 -1.8087  0.0905  0.9730
 3466SOL     OW22030   2.018   1.980  13.479 -0.0468 -0.1115 -0.3375
 3466SOL    HW122031   2.033   1.918  13.408  0.2242  1.4157 -1.6288
 3466SOL    HW222032   2.079   2.047  13.448 -0.6453  1.0616  0.9866
 3467SOL     OW22033   1.088   0.151   8.709  0.5010  0.2785  0.7292
 3467SOL    HW122034   1.037   0.213   8.761  0.3476  0.2775  0.5810
 3467SOL    HW222035   1.169   0.138   8.759 -0.7819 -1.7432  2.2866
 3468SOL     OW22036   3.718   4.708   4.737  0.0605  0.1415  0.6134
 3468SOL    HW122037   3.805   4.670   4.750 -0.5565 -1.8178 -0.9666
 3468SOL    HW222038   3.735   0.053   4.786  2.9245 -1.4684  2.3014
 3469SOL     OW22039   2.251   4.486   1.301  0.0611 -0.4572 -0.4049
 3469SOL    HW122040   2.175   4.452   1.349 -0.2396  2.4609  1.1479
 3469SOL    HW222041   2.314   4.417   1.320  1.5527  1.0363  0.0308
 3470SOL     OW22042   3.273   3.915   5.802 -0.0897  0.4660 -0.3440
 3470SOL    HW122043   3.364   3.907   5.775  1.2803  4.1570  3.4122
 3470SOL    HW222044   3.281   3.990   5.860 -0.8645  0.6971 -0.5344
 3471SOL     OW22045   3.604   1.321   2.330  0.0024 -0.1073 -0.0401
 3471SOL    HW122046   3.690   1.363   2.327 -0.1719  0.3410  1.0241
 3471SOL    HW222047   3.580   1.337   2.422  0.7149  3.5574 -0.4846
 3472SOL     OW22048   4.231   1.517   2.521 -0.4139 -0.8414  0.3786
 3472SOL    HW122049   4.305   1.497   2.464 -0.0723  0.9717  0.1742
 3472SOL    HW222050   4.268   1.560   2.597 -0.3331  0.3829 -0.3417
 3473SOL     OW22051   2.776   2.029  14.836 -0.0263 -0.2390 -0.4389
 3473SOL    HW122052   2.707   2.096  14.834  0.5609  0.3623 -0.8577
 3473SOL    HW222053   2.764   1.986  14.752 -0.3308  2.6741 -1.9086
 3474SOL     OW22054   1.694   1.273   5.999  0.0283  0.1977 -0.3111
 3474SOL    HW122055   1.654   1.186   6.003  0.8254 -0.2139 -1.2612
 3474SOL    HW222056   1.663   1.300   5.913  0.0594 -1.3087 -0.7897
 3475SOL     OW22057   3.351   4.380   4.511 -0.3283  0.2794  0.0089
 3475SOL    HW122058   3.398   4.354   4.589  0.9794  1.4069 -0.3975
 3475SOL    HW222059   3.391   4.467   4.509 -1.0958  0.6036 -1.6578
 3476SOL     OW22060   1.213   1.825   7.713  0.2444 -0.0684  0.0239
 3476SOL    HW122061   1.142   1.766   7.738  1.2879 -1.6821 -0.8214
 3476SOL    HW222062   1.234   1.802   7.622 -0.1922  0.3820 -0.1917
 3477SOL     OW22063   4.168   1.746   1.024 -0.4049  0.8711  0.2035
 3477SOL    HW122064   4.088   1.766   0.976  0.4607  2.6893 -0.4530
 3477SOL    HW222065   4.217   1.827   1.014  1.4513 -0.1321  1.0605
 3478SOL     OW22066   1.908   0.061  15.914 -0.0170 -0.1305 -0.7108
 3478SOL    HW122067   1.905   0.030  16.005 -0.2705 -1.7146 -1.2538
 3478SOL    HW222068   1.848   0.135  15.918 -0.2401 -0.3397 -0.0900
 3479SOL     OW22069   3.027   3.864   1.417 -0.3857  0.3104  0.1317
 3479SOL    HW122070   3.095   3.931   1.404 -0.7247  0.8156  0.9273
 3479SOL    HW222071   2.957   3.919   1.381 -0.6798  0.5062  1.0138
 3480SOL     OW22072   0.828   1.056  11.227  0.1128 -0.3077 -0.0576
 3480SOL    HW122073   0.807   0.974  11.272 -0.5449  0.7496  1.5729
 3480SOL    HW222074   0.750   1.101  11.258  1.6110  2.4367 -0.2979
 3481SOL     OW22075   0.449   2.203   6.038 -0.3022 -0.7606  0.0388
 3481SOL    HW122076   0.430   2.285   6.084 -1.5430  0.0696 -1.9675
 3481SOL    HW222077   0.532   2.177   6.077 -1.3324  0.1259  2.8161
 3482SOL     OW22078   4.351   3.217  10.873  0.6790  0.7541 -0.1558
 3482SOL    HW122079   4.348   3.151  10.803 -0.2894  0.9527 -0.3063
 3482SOL    HW222080   4.393   3.289  10.826 -0.1766  0.8605 -0.7515
 3483SOL     OW22081   2.675   2.653   4.412 -0.7934  0.2286 -0.1823
 3483SOL    HW122082   2.589   2.688   4.388 -0.0509  0.7787 -2.0763
 3483SOL    HW222083   2.728   2.715   4.362 -0.6915  0.5406  0.3148
 3484SOL     OW22084   4.734   2.034   4.607 -0.4366 -0.1312  0.5171
 3484SOL    HW122085   4.693   2.084   4.677 -3.7925  0.4054 -1.8033
 3484SOL    HW222086   4.710   1.947   4.641 -0.9080  0.7068  2.3351
 3485SOL     OW22087   1.632   3.679   6.927  0.5095 -0.0471 -0.0454
 3485SOL    HW122088   1.662   3.588   6.931 -2.3665 -1.0845 -1.6455
 3485SOL    HW222089   1.699   3.729   6.974  1.2472 -1.3171  0.2469
 3486SOL     OW22090   0.745   4.089  14.304 -0.2294 -0.3504  0.2162
 3486SOL    HW122091   0.694   4.127  14.375  0.3304  0.3925  0.2225
 3486SOL    HW222092   0.745   3.995  14.321 -1.1923 -0.4773 -0.4821
 3487SOL     OW22093   2.682   2.962   4.810 -0.4277  0.2029  0.2692
 3487SOL    HW122094   2.729   3.014   4.744  1.2525 -1.2434  0.3390
 3487SOL    HW222095   2.707   2.874   4.781 -2.2443  1.1571 -4.0800
 3488SOL     OW22096   3.018   0.973   4.414  0.1281 -0.0686  0.3682
 3488SOL    HW122097   2.982   0.922   4.486 -0.8179 -0.3468 -0.2912
 3488SOL    HW222098   3.069   0.915   4.358 -1.7652 -0.7567 -0.6788
 3489SOL     OW22099   3.450   4.425   6.321  0.3987  0.0411  0.1483
 3489SOL    HW122100   3.411   4.497   6.271  0.0288 -0.0777  0.2628
 3489SOL    HW222101   3.375   4.387   6.368 -0.4863 -0.4284 -1.6594
 3490SOL     OW22102   3.815   2.871  15.735  0.4767 -0.6761 -0.1844
 3490SOL    HW122103   3.743   2.813  15.709  0.0782  0.2245 -1.0633
 3490SOL    HW222104   3.891   2.824  15.699  1.8284  1.5295 -0.2079
 3491SOL     OW22105   2.613   2.498   6.747  0.1341  0.4811  0.1993
 3491SOL    HW122106   2.675   2.570   6.756  0.7363  0.0873 -0.7970
 3491SOL    HW222107   2.659   2.451   6.677 -1.7341 -3.8870  1.8972
 3492SOL     OW22108   2.260   2.292   4.915  0.5102 -0.6245 -0.4847
 3492SOL    HW122109   2.295   2.298   4.827  2.5701 -0.4840  0.3459
 3492SOL    HW222110   2.315   2.220   4.946 -1.2398 -1.4501  0.7647
 3493SOL     OW22111   1.342   0.281   1.104 -0.3225 -1.0678 -0.2093
 3493SOL    HW122112   1.426   0.285   1.151 -1.2770 -0.3831  1.4274
 3493SOL    HW222113   1.286   0.285   1.181 -0.5355 -4.6234 -0.2111
 3494SOL     OW22114   2.555   1.758   3.288  0.3084 -0.1195 -0.4731
 3494SOL    HW122115   2.630   1.769   3.346  0.2793  0.5887 -0.5680
 3494SOL    HW222116   2.539   1.668   3.314  1.8698 -1.3074 -3.7025
 3495SOL     OW22117   4.007   2.826   4.725  0.0115 -0.1735 -0.5928
 3495SOL    HW122118   4.020   2.907   4.676  0.5859 -0.1509 -0.4030
 3495SOL    HW222119   3.973   2.873   4.801  0.3412 -0.5702 -0.1986
 3496SOL     OW22120   3.978   1.980   9.389  0.2678  1.2061 -0.3115
 3496SOL    HW122121   3.892   2.020   9.386  1.5465  4.1007  1.8244
 3496SOL    HW222122   4.028   2.056   9.421 -0.5531  1.1695  1.0316
 3497SOL     OW22123   3.258   1.684  14.424  0.7291 -0.2344 -0.1524
 3497SOL    HW122124   3.260   1.597  14.386  0.3193  0.5454 -1.9788
 3497SOL    HW222125   3.295   1.664  14.510  0.7432  1.0475  0.1420
 3498SOL     OW22126   0.938   1.057   4.594  0.5854 -0.4213 -1.0031
 3498SOL    HW122127   0.866   1.116   4.572 -1.3070 -2.2893  0.2107
 3498SOL    HW222128   0.920   0.982   4.537  1.0955 -0.8162 -0.6391
 3499SOL     OW22129   1.417   1.534   0.282  0.2310  0.1724 -0.1046
 3499SOL    HW122130   1.422   1.630   0.282 -0.5307  0.2248  1.7186
 3499SOL    HW222131   1.505   1.504   0.260 -0.0927 -0.3957 -0.6247
 3500SOL     OW22132   1.435   0.618   8.982 -0.2390 -0.8158  0.2819
 3500SOL    HW122133   1.506   0.678   8.960  1.8086 -2.4994  2.3613
 3500SOL    HW222134   1.471   0.532   9.002  0.3360 -0.9010 -1.1231
 3501SOL     OW22135   2.090   1.046  10.238 -0.3922  0.0063 -0.8065
 3501SOL    HW122136   2.004   1.053  10.279  0.3456 -4.0869  1.4307
 3501SOL    HW222137   2.149   1.032  10.313 -1.5188 -0.2199  0.0331
 3502SOL     OW22138   1.709   1.629  14.728 -0.2377 -0.1235 -0.1489
 3502SOL    HW122139   1.724   1.543  14.766  2.2775 -0.6503 -2.3289
 3502SOL    HW222140   1.744   1.625  14.639  0.3115 -0.6472  0.0897
 3503SOL     OW22141   2.207   1.609   3.118 -0.0841 -0.5784 -0.6516
 3503SOL    HW122142   2.212   1.666   3.194 -0.6207  0.3646 -1.3280
 3503SOL    HW222143   2.202   1.667   3.042 -1.2856 -4.0051 -3.1992
 3504SOL     OW22144   4.098   0.153   9.212  0.1375  0.1537 -0.5083
 3504SOL    HW122145   4.119   0.143   9.304 -0.4153  1.4991 -0.2355
 3504SOL    HW222146   4.004   0.170   9.222  0.6182  2.6277 -0.1584
 3505SOL     OW22147   0.168   2.931   1.765  0.2620  0.1004 -0.3437
 3505SOL    HW122148   0.153   2.838   1.749  2.4485 -0.3317  0.0516
 3505SOL    HW222149   0.249   2.938   1.714  1.4367 -2.6385  1.1516
 3506SOL     OW22150   0.457   4.323  10.253 -0.1554 -0.4668 -0.0819
 3506SOL    HW122151   0.543   4.344  10.217 -0.0546 -0.5228  0.1288
 3506SOL    HW222152   0.473   4.265  10.327  0.9639  1.2449  1.0057
 3507SOL     OW22153   2.966   3.178   2.319  0.1060 -0.2858  0.4558
 3507SOL    HW122154   2.897   3.141   2.265  1.0584 -0.3726 -0.6912
 3507SOL    HW222155   2.915   3.206   2.395 -0.5787 -0.7155  0.1507
 3508SOL     OW22156   0.554   4.592  13.832 -0.5581 -0.8306 -0.0082
 3508SOL    HW122157   0.557   4.541  13.750 -2.5758 -1.1751  0.1221
 3508SOL    HW222158   0.625   4.655  13.822 -0.1388 -1.2007  0.6747
 3509SOL     OW22159   3.675   1.199   5.603 -0.0865  0.2479  0.1662
 3509SOL    HW122160   3.766   1.176   5.624 -0.0050 -0.5881 -1.0902
 3509SOL    HW222161   3.657   1.111   5.571 -1.4734  0.3895  0.5779
 3510SOL     OW22162   1.828   3.831   7.049 -0.3940 -0.2476  0.2266
 3510SOL    HW122163   1.923   3.832   7.060 -0.3572 -0.8411 -0.0470
 3510SOL    HW222164   1.796   3.830   7.139 -0.5264  1.3458  0.1955
 3511SOL     OW22165   2.546   1.070  15.448  0.3818 -0.1942 -0.8443
 3511SOL    HW122166   2.634   1.107  15.444 -0.1602  1.4693  2.0862
 3511SOL    HW222167   2.488   1.134  15.490 -1.6337 -2.2443 -0.5047
 3512SOL     OW22168   4.099   3.373   8.146  0.4831 -0.2161 -0.8316
 3512SOL    HW122169   4.096   3.469   8.148 -1.2943 -0.2911 -0.1428
 3512SOL    HW222170   4.029   3.353   8.209 -0.1880  0.7406 -1.2763
 3513SOL     OW22171   1.866   1.332  10.285 -0.0259 -0.3535 -0.5112
 3513SOL    HW122172   1.863   1.315  10.191  0.0368 -0.5299 -0.4810
 3513SOL    HW222173   1.855   1.241  10.311 -0.3147  0.1508  1.1371
 3514SOL     OW22174   0.360   0.961   6.096  0.0410 -0.1134 -0.3322
 3514SOL    HW122175   0.272   0.996   6.080 -1.2298 -3.8921 -1.5845
 3514SOL    HW222176   0.337   0.886   6.150 -0.6275 -0.6371 -1.3367
 3515SOL     OW22177   0.224   0.740   9.246 -0.5057  0.5737  0.0730
 3515SOL    HW122178   0.226   0.769   9.337 -0.0703  1.5911 -0.2728
 3515SOL    HW222179   0.175   0.804   9.194 -3.0553  1.0967  3.1054
 3516SOL     OW22180   1.875   1.912   4.413 -0.5274 -0.3201 -0.3554
 3516SOL    HW122181   1.963   1.946   4.403 -0.2394 -0.8248  0.4447
 3516SOL    HW222182   1.836   1.914   4.326 -0.9273  1.1698 -0.1339
 3517SOL     OW22183   1.214   3.598   6.221 -0.1284  0.5655 -0.4796
 3517SOL    HW122184   1.159   3.677   6.222 -1.9886 -0.7339  0.2763
 3517SOL    HW222185   1.198   3.560   6.135 -0.2189  2.6632 -1.4110
 3518SOL     OW22186   0.796   4.709   2.079 -0.3941 -0.3531  0.0573
 3518SOL    HW122187   0.798   4.615   2.061  1.0325 -0.5982  1.5174
 3518SOL    HW222188   0.875   4.719   2.132  0.4130 -2.3498 -0.7891
 3519SOL     OW22189   3.105   1.726   5.409 -0.2996  0.3646  0.0026
 3519SOL    HW122190   3.074   1.735   5.499 -2.9746 -1.5042 -0.7673
 3519SOL    HW222191   3.198   1.747   5.423 -0.5728 -0.4543  3.1053
 3520SOL     OW22192   2.500   3.687   4.911 -0.0139 -0.4081 -0.3298
 3520SOL    HW122193   2.506   3.630   4.834  3.6019 -1.0700  0.4451
 3520SOL    HW222194   2.429   3.644   4.957  0.2306  2.0948  2.3627
 3521SOL     OW22195   3.638   1.112  12.547 -0.1998 -0.2322  0.6438
 3521SOL    HW122196   3.571   1.057  12.507  0.0395  0.9650 -1.4421
 3521SOL    HW222197   3.580   1.171  12.595 -1.8246 -2.9307  1.9846
 3522SOL     OW22198   0.736   4.002   6.461  0.2322 -0.5370  0.6408
 3522SOL    HW122199   0.790   4.051   6.524  0.4095  2.0273 -1.5001
 3522SOL    HW222200   0.734   3.913   6.494  5.3768 -0.5549  0.8928
 3523SOL     OW22201   2.058   4.401   6.946 -0.0838  0.1783 -0.4056
 3523SOL    HW122202   2.013   4.470   6.898 -1.2135  0.0568  0.4689
 3523SOL    HW222203   2.148   4.405   6.914  1.0328  1.2520  2.7763
 3524SOL     OW22204   2.581   3.268   3.061  0.0558 -0.3844  0.4603
 3524SOL    HW122205   2.627   3.210   3.121  0.6472 -0.3849  0.0093
 3524SOL    HW222206   2.570   3.218   2.980  1.2445  0.0175  0.0552
 3525SOL     OW22207   3.077   1.648  13.686 -0.6715 -0.0431 -0.5151
 3525SOL    HW122208   3.065   1.741  13.664 -0.8691 -0.6245 -2.9164
 3525SOL    HW222209   3.018   1.640  13.760 -1.2572  0.4001 -0.9253
 3526SOL     OW22210   2.516   0.525   6.214  0.3309  0.4061  0.0796
 3526SOL    HW122211   2.582   0.455   6.216  2.2630  2.1885 -1.2147
 3526SOL    HW222212   2.527   0.548   6.306  1.3612 -0.2661  0.1334
 3527SOL     OW22213   0.152   2.339  10.501 -0.0225 -0.4660  0.1365
 3527SOL    HW122214   0.175   2.309  10.589  0.8904  1.4851  0.5770
 3527SOL    HW222215   0.060   2.366  10.501 -0.3092 -1.4453  0.4914
 3528SOL     OW22216   2.943   2.936   4.418 -0.3652  0.3230  0.0724
 3528SOL    HW122217   3.027   2.901   4.389 -0.7889  1.3365 -2.3408
 3528SOL    HW222218   2.896   2.917   4.337  0.3681  0.2369 -0.3371
 3529SOL     OW22219   2.988   4.294   5.269 -0.0662 -0.7322 -0.0488
 3529SOL    HW122220   2.930   4.358   5.312 -0.5377 -1.5539  0.5333
 3529SOL    HW222221   3.020   4.349   5.198 -0.3927 -1.3799 -0.6940
 3530SOL     OW22222   0.200   4.473   9.381 -0.2801  0.8690  0.7265
 3530SOL    HW122223   0.148   4.454   9.303  2.2499 -0.1528 -0.7160
 3530SOL    HW222224   0.237   4.561   9.377  0.6865  0.4091 -0.2593
 3531SOL     OW22225   1.853   1.827  13.718 -0.0813 -0.1961 -0.0959
 3531SOL    HW122226   1.780   1.869  13.764 -1.4666  0.0569 -2.5088
 3531SOL    HW222227   1.824   1.830  13.626 -0.5387  0.8455  0.0764
 3532SOL     OW22228   0.731   3.421   8.674 -0.3777  0.3886 -0.1392
 3532SOL    HW122229   0.672   3.358   8.716  1.8551  0.4725  3.1467
 3532SOL    HW222230   0.679   3.499   8.655 -0.5563  0.1827 -0.4971
 3533SOL     OW22231   3.929   4.083  17.302  0.1456 -0.4492  0.6413
 3533SOL    HW122232   3.992   4.133  17.249 -2.4654  0.4296 -1.6101
 3533SOL    HW222233   3.985   4.071  17.378 -1.5360 -0.4489  1.8824
 3534SOL     OW22234   0.757   3.350   0.667  0.5661  0.4451 -0.5989
 3534SOL    HW122235   0.802   3.299   0.734  1.8108  1.5597 -0.5851
 3534SOL    HW222236   0.673   3.305   0.672  2.4407 -2.8746  1.0206
 3535SOL     OW22237   3.170   2.162   3.186  0.0520  0.5269  0.3797
 3535SOL    HW122238   3.249   2.116   3.214  0.0543 -0.0219 -0.5151
 3535SOL    HW222239   3.199   2.250   3.163 -1.9251  1.3751  1.1596
 3536SOL     OW22240   2.761   3.516   7.039 -0.2957 -0.5928  0.2950
 3536SOL    HW122241   2.850   3.551   7.041 -0.2470 -0.7181  0.2903
 3536SOL    HW222242   2.766   3.427   7.074  0.3928 -0.0441  1.6016
 3537SOL     OW22243   3.731   2.274   0.706  0.0360 -0.0646  0.3805
 3537SOL    HW122244   3.697   2.191   0.672  0.8703  0.5484 -1.9383
 3537SOL    HW222245   3.720   2.257   0.799 -0.5928  1.4299  0.5790
 3538SOL     OW22246   1.713   3.331   6.866 -0.4887 -0.4034  0.3295
 3538SOL    HW122247   1.763   3.318   6.785 -0.8003  0.5966 -0.0256
 3538SOL    HW222248   1.777   3.362   6.930 -1.2745  0.8836  0.4973
 3539SOL     OW22249   3.746   1.300   6.915  0.5099 -0.4246  0.0013
 3539SOL    HW122250   3.707   1.341   6.993 -0.6802 -1.2412 -0.1776
 3539SOL    HW222251   3.797   1.235   6.963 -1.3140 -1.9182 -0.0908
 3540SOL     OW22252   3.868   1.646   5.288 -0.0390 -0.1842 -0.8394
 3540SOL    HW122253   3.917   1.685   5.361  0.0080 -0.8163 -0.5331
 3540SOL    HW222254   3.832   1.575   5.340  0.3386 -0.5935 -1.1390
 3541SOL     OW22255   0.705   3.467  10.096 -0.2310 -0.2708 -0.4359
 3541SOL    HW122256   0.768   3.436  10.031  1.0098  0.9533  0.1988
 3541SOL    HW222257   0.662   3.537  10.047  0.7222  1.9770  1.9263
 3542SOL     OW22258   1.324   2.873  11.628 -0.3357  0.5225  0.2674
 3542SOL    HW122259   1.257   2.936  11.604 -1.1631 -0.9962 -1.4009
 3542SOL    HW222260   1.365   2.898  11.711  0.2917 -0.5360  0.2722
 3543SOL     OW22261   2.934   3.426   0.291 -0.0764 -0.2247 -0.4739
 3543SOL    HW122262   2.931   3.517   0.319  1.4243 -0.8135  1.6193
 3543SOL    HW222263   2.871   3.428   0.219 -1.3432  1.7937  0.7322
 3544SOL     OW22264   3.520   2.724   4.799 -0.2556  0.5856 -0.1874
 3544SOL    HW122265   3.538   2.684   4.884  1.0134  0.7191 -0.3934
 3544SOL    HW222266   3.424   2.731   4.804 -0.3839 -0.0453 -1.8384
 3545SOL     OW22267   0.669   1.508   4.865  0.3178 -0.2408 -0.5211
 3545SOL    HW122268   0.632   1.581   4.816 -1.7665  0.4526  2.1180
 3545SOL    HW222269   0.724   1.544   4.935  0.0524  1.7826 -1.3788
 3546SOL     OW22270   2.585   3.806   5.894  0.4237 -0.2535 -0.1542
 3546SOL    HW122271   2.552   3.892   5.918 -0.3941 -1.1985  2.1656
 3546SOL    HW222272   2.673   3.804   5.932  0.3081  0.3599  0.1486
 3547SOL     OW22273   4.313   2.520  16.768  0.0589 -0.3768  0.0212
 3547SOL    HW122274   4.308   2.482  16.680  4.0382 -0.6865 -0.0634
 3547SOL    HW222275   4.279   2.450  16.823 -0.3538 -1.0272 -1.0634
 3548SOL     OW22276   4.081   0.614   7.220  0.6893 -0.8247  0.0198
 3548SOL    HW122277   4.110   0.547   7.158  0.4793  0.7574 -1.7578
 3548SOL    HW222278   4.115   0.587   7.305  1.7822  1.7683  0.4003
 3549SOL     OW22279   0.898   4.058   6.659  0.0163 -0.1183  0.7691
 3549SOL    HW122280   0.991   4.076   6.673  0.5495 -3.4153  1.4461
 3549SOL    HW222281   0.874   4.032   6.748 -1.5067  0.2579  0.4707
 3550SOL     OW22282   1.984   0.608   4.826  0.0750  0.0012 -0.2766
 3550SOL    HW122283   1.921   0.560   4.881  0.4216 -2.1350 -1.7599
 3550SOL    HW222284   1.929   0.626   4.749  0.6924 -0.4685 -0.8206
 3551SOL     OW22285   2.988   2.850  13.434 -0.0467 -0.2870  0.2413
 3551SOL    HW122286   2.999   2.905  13.356  1.3378 -1.6520 -0.5288
 3551SOL    HW222287   3.081   2.840  13.457  0.0904 -4.7437 -2.1959
 3552SOL     OW22288   2.616   2.224   8.952 -0.8858 -0.7271 -0.2031
 3552SOL    HW122289   2.527   2.216   8.917 -0.8314 -0.0772 -0.4915
 3552SOL    HW222290   2.668   2.235   8.873 -2.0080 -0.7937 -0.9595
 3553SOL     OW22291   1.615   1.643   7.795  0.1646  0.1761  0.5440
 3553SOL    HW122292   1.704   1.615   7.772 -0.2532 -0.8587  0.1897
 3553SOL    HW222293   1.573   1.561   7.770  3.5219 -1.7589  1.2315
 3554SOL     OW22294   3.656   4.735   7.438 -0.3911 -0.4833 -0.1746
 3554SOL    HW122295   3.561   0.008   7.441 -0.3082  0.3618 -0.2097
 3554SOL    HW222296   3.671   4.712   7.530  2.5811  0.7944 -0.3511
 3555SOL     OW22297   0.167   2.779   5.536 -0.3180 -0.1838 -0.3573
 3555SOL    HW122298   0.103   2.719   5.499 -0.1338  0.3650 -1.5609
 3555SOL    HW222299   0.212   2.810   5.457  1.4683  0.1644  0.7817
 3556SOL     OW22300   4.397   1.074  11.548  0.8321 -0.6484 -0.3470
 3556SOL    HW122301   4.347   1.037  11.475 -1.5494  2.4435 -0.2843
 3556SOL    HW222302   4.481   1.028  11.541  1.4376  0.5136 -0.7573
 3557SOL     OW22303   1.987   2.111   5.798 -0.0332  0.2811  0.4149
 3557SOL    HW122304   2.049   2.183   5.792 -0.0472  0.0727 -2.4192
 3557SOL    HW222305   1.962   2.105   5.706  1.1621  0.6864  0.0630
 3558SOL     OW22306   1.695   2.260   8.282 -0.3178  0.0937  0.2540
 3558SOL    HW122307   1.780   2.225   8.256 -0.3372 -0.7186  1.2636
 3558SOL    HW222308   1.643   2.262   8.201 -0.7051  0.8864  0.5194
 3559SOL     OW22309   3.672   0.685   7.376 -0.3242  0.4292 -0.9539
 3559SOL    HW122310   3.674   0.636   7.294 -2.1564 -0.8474 -0.2268
 3559SOL    HW222311   3.691   0.615   7.439 -0.5099 -0.0494 -1.4337
 3560SOL     OW22312   2.382   4.410   4.213 -0.2708  0.2734 -0.9958
 3560SOL    HW122313   2.339   4.325   4.200  0.5048 -0.2807  0.0762
 3560SOL    HW222314   2.475   4.388   4.212 -0.1565  0.7926 -2.3442
 3561SOL     OW22315   1.609   4.313   5.772  0.1240  0.5063 -0.1472
 3561SOL    HW122316   1.608   4.217   5.774  2.9274  0.4876 -0.2820
 3561SOL    HW222317   1.586   4.337   5.861  0.0012  1.6299 -0.4870
 3562SOL     OW22318   1.204   3.797   4.494  0.2118  0.2980  0.7830
 3562SOL    HW122319   1.249   3.714   4.478  0.0116  0.1979  0.7406
 3562SOL    HW222320   1.148   3.760   4.562 -0.6108 -0.3763 -0.2691
 3563SOL     OW22321   1.275   3.021   6.701  1.0414 -0.1887  0.1535
 3563SOL    HW122322   1.235   3.082   6.639 -1.2357 -1.3605  0.4650
 3563SOL    HW222323   1.337   3.076   6.749  1.3913  0.1725 -0.7256
 3564SOL     OW22324   2.537   3.890   3.745 -0.7522 -0.3815 -0.0004
 3564SOL    HW122325   2.507   3.906   3.655 -1.6420 -0.5507  0.2730
 3564SOL    HW222326   2.478   3.822   3.777  2.6501 -4.4636 -2.4590
 3565SOL     OW22327   0.616   0.835   6.181 -0.6966 -0.5089  0.1619
 3565SOL    HW122328   0.533   0.879   6.198  0.1483  0.7800  0.9658
 3565SOL    HW222329   0.665   0.898   6.234 -0.0494 -1.2583  0.4461
 3566SOL     OW22330   2.569   0.742   2.721 -0.0416 -0.2379 -0.2863
 3566SOL    HW122331   2.648   0.688   2.718  0.7556  0.9630 -0.5335
 3566SOL    HW222332   2.540   0.736   2.630 -0.4830 -1.3816 -0.0732
 3567SOL     OW22333   0.527   0.256  15.272  0.2192 -0.0326 -0.0428
 3567SOL    HW122334   0.547   0.164  15.290  2.6999 -0.0592 -3.0131
 3567SOL    HW222335   0.618   0.279  15.253 -0.2055  0.1518 -1.9030
 3568SOL     OW22336   2.947   1.732   8.352 -0.0575 -0.0030  0.1556
 3568SOL    HW122337   2.979   1.784   8.279 -0.3202 -1.6005 -1.0881
 3568SOL    HW222338   2.896   1.801   8.395 -0.3803  0.7190 -1.3753
 3569SOL     OW22339   0.903   2.472   9.432  0.4872  0.2347 -0.6209
 3569SOL    HW122340   0.966   2.407   9.400  0.0911 -0.3197 -0.2541
 3569SOL    HW222341   0.852   2.430   9.501 -0.8576  0.9345 -1.2057
 3570SOL     OW22342   2.296   0.888   7.108 -0.5628  0.0908  0.0855
 3570SOL    HW122343   2.231   0.943   7.063  0.4616  0.1105 -1.3828
 3570SOL    HW222344   2.251   0.804   7.100 -3.7577  1.7500  0.6198
 3571SOL     OW22345   0.891   4.265   8.572  0.1893  0.5753 -0.2774
 3571SOL    HW122346   0.937   4.191   8.610 -1.7060 -0.8881 -0.8702
 3571SOL    HW222347   0.937   4.331   8.624  2.2591 -3.5036  2.9648
 3572SOL     OW22348   1.401   3.300   4.492  0.5747  0.4221  0.1106
 3572SOL    HW122349   1.376   3.391   4.482 -0.1046  0.4314  1.8876
 3572SOL    HW222350   1.469   3.307   4.559 -0.7788  1.3142  1.3895
 3573SOL     OW22351   1.284   4.340  15.046 -0.4262  0.6940 -0.2855
 3573SOL    HW122352   1.294   4.371  15.136 -3.2277 -2.3000  1.0704
 3573SOL    HW222353   1.331   4.412  15.003 -0.0745  0.7967  0.2668
 3574SOL     OW22354   1.314   2.065  15.865  0.1013 -0.4810  0.2252
 3574SOL    HW122355   1.310   1.971  15.849  0.9622 -0.4622 -0.1001
 3574SOL    HW222356   1.398   2.085  15.825  0.3543  0.9613  1.4665
 3575SOL     OW22357   3.277   1.361   7.574  0.4395  0.1186 -0.0485
 3575SOL    HW122358   3.288   1.456   7.583  0.8686 -0.0537  1.1779
 3575SOL    HW222359   3.279   1.336   7.482  0.1533  0.9954 -0.2964
 3576SOL     OW22360   3.661   4.483   7.334  0.5660 -0.2438  0.1516
 3576SOL    HW122361   3.659   4.574   7.363  0.3471 -0.2714  0.2217
 3576SOL    HW222362   3.634   4.435   7.412  0.1087  1.0282  0.7865
 3577SOL     OW22363   4.224   1.793   4.339  0.3161  0.1520  0.3252
 3577SOL    HW122364   4.300   1.815   4.285 -0.5219 -0.7730 -1.2325
 3577SOL    HW222365   4.160   1.778   4.270  0.3430  0.3421  0.2590
 3578SOL     OW22366   4.683   3.776   3.364  0.2026 -0.0162  0.2061
 3578SOL    HW122367   0.016   3.718   3.395  0.2585  0.1284  0.3501
 3578SOL    HW222368   4.720   3.863   3.378 -1.8744  1.2755 -2.2770
 3579SOL     OW22369   3.798   3.897   5.822  0.2869 -0.2562  0.3184
 3579SOL    HW122370   3.888   3.898   5.788  0.8231 -0.1996  1.7149
 3579SOL    HW222371   3.818   3.906   5.916 -0.0196  0.4395  0.3104
 3580SOL     OW22372   0.724   2.684   8.091 -0.0402 -0.7328 -0.3547
 3580SOL    HW122373   0.658   2.701   8.024 -0.4378  4.0249  1.2399
 3580SOL    HW222374   0.796   2.743   8.070 -1.2862  1.1414  0.6544
 3581SOL     OW22375   0.041   2.718   7.042 -0.2070  0.2440 -0.1231
 3581SOL    HW122376   0.011   2.699   7.131  1.3651 -1.0200  0.1420
 3581SOL    HW222377   0.085   2.803   7.055 -1.0991  0.7416 -0.3931
 3582SOL     OW22378   2.963   3.206   3.393  0.3197 -0.6464 -0.0669
 3582SOL    HW122379   3.009   3.290   3.386 -1.2297  0.2629  0.8154
 3582SOL    HW222380   2.877   3.220   3.355  0.0948  0.3384  0.8241
 3583SOL     OW22381   3.356   3.219   8.962  0.1165 -0.3867 -0.1705
 3583SOL    HW122382   3.411   3.296   8.950 -0.1774 -0.5431 -2.5811
 3583SOL    HW222383   3.403   3.164   9.024  2.0715  1.4449 -0.0347
 3584SOL     OW22384   3.730   2.672   1.843 -0.0065 -0.1376 -0.3062
 3584SOL    HW122385   3.721   2.763   1.816 -1.4029 -0.9202 -2.5088
 3584SOL    HW222386   3.746   2.679   1.937 -3.5255  0.0266  0.3048
 3585SOL     OW22387   0.031   0.190   6.241  0.0617 -0.0935  0.2734
 3585SOL    HW122388   0.116   0.231   6.230  0.7200 -1.9702 -1.5191
 3585SOL    HW222389   4.717   0.210   6.162 -0.2191  2.2617  1.0369
 3586SOL     OW22390   3.081   1.591   4.543  0.2035 -0.4608 -0.2299
 3586SOL    HW122391   3.136   1.601   4.621 -2.5745 -2.7428  2.0323
 3586SOL    HW222392   3.064   1.497   4.534  0.6731 -0.3829 -1.9316
 3587SOL     OW22393   1.438   1.155   1.393 -0.3782  0.3395 -0.3251
 3587SOL    HW122394   1.351   1.161   1.433 -0.2403 -0.8494  0.1643
 3587SOL    HW222395   1.458   1.061   1.388 -1.5006 -0.0464  2.2819
 3588SOL     OW22396   2.448   0.981   2.367  0.2729 -0.3323  0.0975
 3588SOL    HW122397   2.465   0.959   2.276 -0.5371  0.2503 -0.2004
 3588SOL    HW222398   2.359   1.017   2.359 -0.2565 -1.1346  2.3324
 3589SOL     OW22399   1.025   2.196   3.236  0.3683  0.1948  0.0284
 3589SOL    HW122400   1.068   2.189   3.151 -1.0687 -1.9953 -0.4983
 3589SOL    HW222401   0.958   2.260   3.212 -1.0669 -1.0937  0.5808
 3590SOL     OW22402   3.014   2.021   3.016  0.1235  0.0135 -0.3591
 3590SOL    HW122403   3.063   2.010   2.934 -0.0097 -2.3112 -0.1364
 3590SOL    HW222404   3.075   2.073   3.067 -0.9842  1.4908 -0.5362
 3591SOL     OW22405   1.056   1.318   5.971 -0.5778  0.4451  0.3142
 3591SOL    HW122406   1.060   1.311   6.066  0.8547  1.4662  0.3307
 3591SOL    HW222407   0.978   1.373   5.967 -1.5774 -0.8912  1.4788
 3592SOL     OW22408   0.342   2.928   2.375 -0.2852  0.0456 -0.5642
 3592SOL    HW122409   0.380   2.949   2.461  2.6313 -0.2558 -1.7675
 3592SOL    HW222410   0.404   2.874   2.327 -1.3174  0.5480 -2.4320
 3593SOL     OW22411   4.218   0.094   7.186  0.8441 -0.0139 -0.0768
 3593SOL    HW122412   4.195   0.007   7.219  2.7532 -0.3378  0.3979
 3593SOL    HW222413   4.300   0.120   7.228  0.4693  0.7834  0.1539
 3594SOL     OW22414   3.397   2.831   2.609  0.4388 -0.2567 -0.2809
 3594SOL    HW122415   3.440   2.817   2.524 -0.1042  0.8969 -0.7383
 3594SOL    HW222416   3.476   2.824   2.663  0.6238 -1.2904 -0.6689
 3595SOL     OW22417   3.749   0.515  13.708 -0.2406 -0.0745 -0.8321
 3595SOL    HW122418   3.736   0.525  13.802 -3.2145  1.9961 -1.4615
 3595SOL    HW222419   3.715   0.427  13.691  1.4240 -1.1114  1.2471
 3596SOL     OW22420   2.441   0.393   8.400  0.1021 -0.3757 -0.3950
 3596SOL    HW122421   2.511   0.458   8.398  0.2866 -0.5943 -1.0166
 3596SOL    HW222422   2.420   0.388   8.307  1.4812 -0.4088 -0.7152
 3597SOL     OW22423   1.040   0.240  10.172 -0.0460 -0.9000 -0.2317
 3597SOL    HW122424   1.134   0.242  10.191  0.0547  2.6926 -1.0422
 3597SOL    HW222425   1.029   0.149  10.145 -0.5500 -1.3560  1.4998
 3598SOL     OW22426   0.229   3.920   0.083 -0.6058  0.3429 -0.2442
 3598SOL    HW122427   0.320   3.892   0.085 -0.8748 -0.6458 -2.2018
 3598SOL    HW222428   0.197   3.868   0.010 -0.8499 -0.9361  0.7658
 3599SOL     OW22429   2.370   2.079  11.718 -0.0714 -0.5910 -0.3248
 3599SOL    HW122430   2.399   1.988  11.712  0.6908 -0.4500  1.1071
 3599SOL    HW222431   2.275   2.075  11.703 -0.0944 -1.3337  0.0072
 3600SOL     OW22432   3.714   0.015  17.712  0.2977  0.5212 -0.4489
 3600SOL    HW122433   3.662   0.017  17.631 -0.8483 -2.2810  0.2174
 3600SOL    HW222434   3.737   0.108  17.719 -0.5040  0.5486  1.6273
 3601SOL     OW22435   3.198   0.667  17.340 -0.0402 -0.3880 -0.2331
 3601SOL    HW122436   3.153   0.681  17.424  0.9607 -0.0041  0.2378
 3601SOL    HW222437   3.150   0.722  17.278  0.6326 -1.4383 -1.6598
 3602SOL     OW22438   0.851   4.524   1.848  0.2451  0.3853 -0.7424
 3602SOL    HW122439   0.870   4.537   1.755  2.4573  1.3394 -0.1647
 3602SOL    HW222440   0.816   4.435   1.857  0.5943  0.4677  1.3616
 3603SOL     OW22441   1.418   3.488   2.683  1.0094 -0.1940 -0.0130
 3603SOL    HW122442   1.506   3.471   2.717  1.8747  1.5541 -1.4290
 3603SOL    HW222443   1.437   3.535   2.603 -3.0202  0.2731 -0.7269
 3604SOL     OW22444   2.349   4.550  10.987 -0.0004 -0.2286  0.1371
 3604SOL    HW122445   2.421   4.488  10.974  2.3464  2.6779 -0.6893
 3604SOL    HW222446   2.342   4.560  11.082 -0.0649 -1.3533  0.2541
 3605SOL     OW22447   2.271   4.419   3.613 -0.5620  0.2584  0.2488
 3605SOL    HW122448   2.205   4.440   3.678  1.1783  1.3755  1.6599
 3605SOL    HW222449   2.249   4.330   3.585  0.8806  0.0892 -0.3840
 3606SOL     OW22450   0.333   4.186   1.475 -0.5395  0.3869 -0.1942
 3606SOL    HW122451   0.396   4.257   1.482  0.0788 -0.2764  1.0011
 3606SOL    HW222452   0.263   4.234   1.432  1.3172  0.7598 -2.8516
 3607SOL     OW22453   3.666   0.095   3.345 -0.7018 -0.7618 -0.3113
 3607SOL    HW122454   3.612   0.125   3.273 -1.7029 -2.2459 -0.1923
 3607SOL    HW222455   3.639   0.003   3.348 -0.3264 -0.8227  1.3271
 3608SOL     OW22456   3.526   3.875   1.837 -0.1473 -0.2165 -0.1353
 3608SOL    HW122457   3.472   3.807   1.878  1.8323 -1.5209  0.2953
 3608SOL    HW222458   3.589   3.823   1.786 -2.6437 -0.1852 -3.2763
 3609SOL     OW22459   0.979   3.209  13.253 -0.4932  0.1278  0.5254
 3609SOL    HW122460   1.041   3.281  13.261 -1.2707  1.0471 -2.0008
 3609SOL    HW222461   1.033   3.138  13.287 -0.2355 -0.3315 -0.8741
 3610SOL     OW22462   0.318   3.106   6.581 -0.4484 -0.0102  0.3280
 3610SOL    HW122463   0.397   3.134   6.536  0.7629  0.8600  3.0055
 3610SOL    HW222464   0.349   3.097   6.671  0.1298  0.6130  0.1917
 3611SOL     OW22465   4.215   0.163   8.711  0.2624 -0.2024 -0.1809
 3611SOL    HW122466   4.127   0.127   8.711  0.1240  0.1584 -1.6154
 3611SOL    HW222467   4.205   0.251   8.748 -2.2106 -0.0754 -1.2118
 3612SOL     OW22468   3.489   3.802   4.722 -0.3911 -0.2283 -0.2502
 3612SOL    HW122469   3.407   3.759   4.697  0.5031 -1.8195 -0.5192
 3612SOL    HW222470   3.456   3.891   4.734 -0.9695 -0.2468 -1.7143
 3613SOL     OW22471   0.500   2.897   7.557  0.0675  0.0957 -0.1921
 3613SOL    HW122472   0.595   2.892   7.546  0.0241 -1.7090  0.2894
 3613SOL    HW222473   0.478   2.804   7.554  0.3135  0.0262  0.3435
 3614SOL     OW22474   3.820   2.876   0.341 -0.0233 -0.3573  0.3563
 3614SOL    HW122475   3.768   2.945   0.382 -0.9339 -0.9871  0.2472
 3614SOL    HW222476   3.777   2.795   0.369  0.0112 -0.2283  0.7858
 3615SOL     OW22477   4.220   4.724   2.441  0.0017  0.3136  0.1228
 3615SOL    HW122478   4.156   0.057   2.456  0.1050  0.2372  0.9359
 3615SOL    HW222479   4.220   4.719   2.345  1.0489 -1.2430  0.2129
 3616SOL     OW22480   1.502   1.583   3.049 -0.3146  0.5360  0.7820
 3616SOL    HW122481   1.535   1.545   3.131 -2.0962 -1.3398  0.6276
 3616SOL    HW222482   1.501   1.511   2.986 -1.0272  0.1832  1.1945
 3617SOL     OW22483   4.206   0.791   4.466  0.5104 -0.1438  0.4877
 3617SOL    HW122484   4.136   0.787   4.401  0.2829 -0.5391  0.7583
 3617SOL    HW222485   4.237   0.701   4.457  0.9470  0.1046 -0.4908
 3618SOL     OW22486   0.835   2.732   5.485  0.5315  0.3558  0.4193
 3618SOL    HW122487   0.837   2.645   5.524  1.4978 -0.4106 -1.3908
 3618SOL    HW222488   0.912   2.768   5.529  1.7077 -1.4266 -0.2180
 3619SOL     OW22489   3.073   4.137   3.180 -0.1861 -0.0293 -0.3255
 3619SOL    HW122490   3.029   4.203   3.126 -1.0975  0.0073  0.4511
 3619SOL    HW222491   3.140   4.191   3.221  0.4119 -1.0488  0.0463
 3620SOL     OW22492   3.252   1.432   5.001 -0.0331 -0.6745 -0.1888
 3620SOL    HW122493   3.184   1.435   5.068  0.3134 -2.9896  0.2491
 3620SOL    HW222494   3.272   1.339   5.008  1.7465 -0.2827 -0.0337
 3621SOL     OW22495   0.729   2.080   5.682  0.1252  0.2518 -0.1538
 3621SOL    HW122496   0.777   2.147   5.732  0.4973 -0.6636  0.7196
 3621SOL    HW222497   0.642   2.109   5.708  0.4117  0.8753  0.1255
 3622SOL     OW22498   3.609   2.741  15.069  0.7316 -0.0367 -0.1290
 3622SOL    HW122499   3.604   2.832  15.041 -0.1858 -0.4500 -1.3196
 3622SOL    HW222500   3.697   2.725  15.035  1.6138  0.3943  1.9829
 3623SOL     OW22501   4.379   0.301   8.147  0.8663  0.0367 -0.7604
 3623SOL    HW122502   4.320   0.317   8.220  0.3774 -1.3369 -0.8494
 3623SOL    HW222503   4.329   0.246   8.087 -0.4271 -1.2289  1.4744
 3624SOL     OW22504   4.220   2.182   2.973 -0.2599  0.4068 -0.0650
 3624SOL    HW122505   4.280   2.107   2.966 -1.2896 -0.5302  1.1094
 3624SOL    HW222506   4.217   2.206   3.065  0.7401  1.5989 -0.3529
 3625SOL     OW22507   4.416   1.211   3.572  0.3363 -0.5662  0.1299
 3625SOL    HW122508   4.387   1.129   3.613  0.3968 -1.6208 -1.9558
 3625SOL    HW222509   4.372   1.211   3.487 -0.1965 -1.4222  0.4011
 3626SOL     OW22510   4.296   1.094   2.126 -0.4736  0.4478 -0.3003
 3626SOL    HW122511   4.369   1.156   2.131  0.4292 -0.4827 -1.9892
 3626SOL    HW222512   4.221   1.142   2.092  0.8246  1.6153 -1.5188
 3627SOL     OW22513   0.466   2.101   4.253  0.0288 -0.0459  0.4427
 3627SOL    HW122514   0.518   2.048   4.192 -2.1116 -0.4291 -1.0559
 3627SOL    HW222515   0.458   2.184   4.205  2.8003 -0.0472 -0.0446
 3628SOL     OW22516   1.698   2.660  13.914  0.0919 -0.4359  0.8454
 3628SOL    HW122517   1.689   2.612  13.997  1.8281 -0.4649  1.0192
 3628SOL    HW222518   1.701   2.748  13.951  3.4103 -0.2617  0.1970
 3629SOL     OW22519   1.792   0.205   9.060 -0.2043 -0.2876  0.6242
 3629SOL    HW122520   1.866   0.259   9.089  0.2847 -1.5631  1.7803
 3629SOL    HW222521   1.806   0.121   9.103  0.8812 -0.4156  0.0178
 3630SOL     OW22522   1.454   3.021   8.803 -0.0479 -0.3922 -0.2932
 3630SOL    HW122523   1.397   3.055   8.734 -0.1997  0.5998  0.3134
 3630SOL    HW222524   1.402   3.056   8.876  2.6566 -0.8664  1.8768
 3631SOL     OW22525   4.587   3.893   9.774  0.0839 -0.1362 -0.6014
 3631SOL    HW122526   4.528   3.817   9.775  0.7703 -0.6774 -1.0921
 3631SOL    HW222527   4.543   3.959   9.828 -0.1210 -0.8573  0.0998
 3632SOL     OW22528   4.053   4.579  11.917  0.0399 -0.5842 -0.6813
 3632SOL    HW122529   4.112   4.653  11.926 -1.5461  0.6128 -0.0328
 3632SOL    HW222530   3.979   4.602  11.974 -0.0837  0.2316 -1.1769
 3633SOL     OW22531   1.964   0.328   7.891 -0.6053 -0.0515 -0.2754
 3633SOL    HW122532   1.956   0.424   7.894 -0.1310 -0.0833  2.2649
 3633SOL    HW222533   1.872   0.305   7.878 -0.6888  1.3935 -2.2222
 3634SOL     OW22534   3.045   1.502   9.850 -0.3599 -0.0088 -0.2429
 3634SOL    HW122535   3.114   1.567   9.834  0.9941 -1.5503 -0.5961
 3634SOL    HW222536   3.009   1.555   9.922 -1.5406  0.8646 -1.4704
 3635SOL     OW22537   3.693   3.745   4.970 -0.0119  0.0631  0.3468
 3635SOL    HW122538   3.660   3.778   4.886 -2.5440  0.2474  1.3968
 3635SOL    HW222539   3.788   3.748   4.958 -0.2468  0.3090 -1.3999
 3636SOL     OW22540   4.250   3.823   7.278  0.4499  0.4833  0.0310
 3636SOL    HW122541   4.272   3.731   7.292 -1.7612  0.2266  2.0077
 3636SOL    HW222542   4.271   3.839   7.186 -0.0247  0.0462 -0.1533
 3637SOL     OW22543   3.514   1.224   4.821  0.3562 -0.0211 -0.2975
 3637SOL    HW122544   3.478   1.176   4.747  0.1271  0.3944 -0.4507
 3637SOL    HW222545   3.443   1.213   4.884  1.5535 -1.4070  0.8033
 3638SOL     OW22546   0.757   3.730   6.552  0.0696 -0.3072  0.3986
 3638SOL    HW122547   0.669   3.705   6.525  0.1501 -0.8773  0.6798
 3638SOL    HW222548   0.808   3.687   6.483  2.2504  0.4325  1.5560
 3639SOL     OW22549   1.461   1.597  15.098 -0.1027 -1.0499  0.3494
 3639SOL    HW122550   1.507   1.680  15.109 -0.9316 -0.4809 -0.5041
 3639SOL    HW222551   1.507   1.557  15.024 -1.3658 -0.4509 -0.7587
 3640SOL     OW22552   0.265   1.825   4.207  0.4362  0.1274  0.2175
 3640SOL    HW122553   0.218   1.903   4.237 -0.9269 -0.8545  0.6402
 3640SOL    HW222554   0.312   1.851   4.128  0.2887  2.1241  0.7654
 3641SOL     OW22555   3.861   0.567   5.423  0.1148 -0.5130  0.0190
 3641SOL    HW122556   3.828   0.614   5.346  1.1011 -1.2555 -0.8421
 3641SOL    HW222557   3.798   0.593   5.491 -0.0951 -0.9179 -0.0185
 3642SOL     OW22558   3.216   3.794   0.667 -0.1973  0.2755  0.6723
 3642SOL    HW122559   3.167   3.744   0.732 -0.5022 -0.6450 -0.2738
 3642SOL    HW222560   3.177   3.760   0.586  0.2036 -0.3680  0.7463
 3643SOL     OW22561   0.836   1.995   3.339  0.2530 -0.2556 -0.0377
 3643SOL    HW122562   0.747   2.028   3.332 -0.2087 -1.8086 -1.4809
 3643SOL    HW222563   0.891   2.073   3.330  1.3401 -1.3109 -2.5632
 3644SOL     OW22564   0.568   2.153   3.575 -0.2331 -0.0338 -0.3047
 3644SOL    HW122565   0.630   2.082   3.562 -1.2328 -0.9885  0.1753
 3644SOL    HW222566   0.523   2.156   3.491  0.7477 -0.7878 -0.8569
 3645SOL     OW22567   1.446   1.629   1.697  0.4099 -0.1575  0.1245
 3645SOL    HW122568   1.464   1.573   1.622 -0.2354  0.3025 -0.3763
 3645SOL    HW222569   1.417   1.566   1.762 -0.7879  0.6239  0.3527
 3646SOL     OW22570   3.735   2.987   7.421 -0.3667  1.1713 -0.3156
 3646SOL    HW122571   3.822   2.968   7.385 -0.2476  0.4842  0.3316
 3646SOL    HW222572   3.683   2.957   7.347  0.0516 -0.4523  0.0484
 3647SOL     OW22573   0.169   4.573   8.825  0.1202 -0.2138 -0.2138
 3647SOL    HW122574   0.210   4.583   8.739  0.3595 -0.7436 -0.1611
 3647SOL    HW222575   0.150   4.480   8.812  1.2722 -0.3067 -1.2525
 3648SOL     OW22576   0.434   2.983   2.637  0.7043  0.1140  0.4919
 3648SOL    HW122577   0.517   2.985   2.685  0.8019 -1.3559  0.3721
 3648SOL    HW222578   0.404   3.074   2.631 -1.0962 -0.5394 -0.3961
 3649SOL     OW22579   3.739   1.156   1.169 -0.2152 -0.4252 -0.1226
 3649SOL    HW122580   3.707   1.235   1.125  1.9445  0.9990  0.8694
 3649SOL    HW222581   3.795   1.111   1.105  1.0989  3.0339 -1.3902
 3650SOL     OW22582   3.717   4.334   2.947  0.5849  0.2237  0.6954
 3650SOL    HW122583   3.812   4.349   2.954  0.4380  1.9364 -0.9809
 3650SOL    HW222584   3.684   4.401   3.007 -1.7116 -1.4608  1.2907
 3651SOL     OW22585   2.162   0.683   8.751 -0.1310  0.4416 -0.4803
 3651SOL    HW122586   2.252   0.685   8.719  0.6737 -0.4349  1.7593
 3651SOL    HW222587   2.117   0.633   8.682 -0.2056 -0.3964  0.1787
 3652SOL     OW22588   1.466   4.664   2.773  0.1842  0.0614  0.2811
 3652SOL    HW122589   1.522   4.674   2.849  1.4006 -0.8278 -0.4853
 3652SOL    HW222590   1.507   4.581   2.748 -0.3397 -0.8545  2.5101
 3653SOL     OW22591   2.828   1.485   5.769  0.5078 -0.0945 -0.7009
 3653SOL    HW122592   2.821   1.479   5.674  2.0016 -0.2831 -0.7947
 3653SOL    HW222593   2.734   1.485   5.787  0.2406 -0.1964 -2.1295
 3654SOL     OW22594   3.059   0.227   4.317 -0.2098  0.3597  0.2031
 3654SOL    HW122595   3.148   0.191   4.319 -0.1080  0.5843 -0.2826
 3654SOL    HW222596   3.014   0.154   4.274  0.0360  0.7700 -0.7356
 3655SOL     OW22597   1.223   2.900   0.997 -0.2863  0.2013  0.1432
 3655SOL    HW122598   1.227   2.902   0.902  1.0575  1.2601  0.2246
 3655SOL    HW222599   1.292   2.833   1.003 -0.7860 -0.5524 -2.5323
 3656SOL     OW22600   3.417   4.162   7.191 -0.1719 -0.5097  0.0815
 3656SOL    HW122601   3.331   4.120   7.194 -0.3185 -0.1021  1.6355
 3656SOL    HW222602   3.397   4.243   7.144  1.8571 -0.6690 -1.0558
 3657SOL     OW22603   2.783   2.688   6.784 -0.0885 -0.1358 -0.5893
 3657SOL    HW122604   2.703   2.735   6.758  0.7512  0.5183 -1.9900
 3657SOL    HW222605   2.825   2.766   6.821 -2.8770  1.9021 -1.6927
 3658SOL     OW22606   3.709   4.594  14.286  0.6785  0.1964  0.1649
 3658SOL    HW122607   3.759   4.675  14.284 -0.8017  1.1652  1.8780
 3658SOL    HW222608   3.628   4.629  14.323  0.8830  0.9386 -0.0966
 3659SOL     OW22609   2.379   4.263   5.811  0.0894 -0.2557 -0.0682
 3659SOL    HW122610   2.318   4.337   5.807  1.1887  0.6345 -0.7884
 3659SOL    HW222611   2.448   4.307   5.861 -1.7498  1.2824  1.1074
 3660SOL     OW22612   1.317   3.772   9.126 -0.2306  0.2973 -0.4294
 3660SOL    HW122613   1.363   3.688   9.117 -2.0866 -0.7259 -0.4092
 3660SOL    HW222614   1.381   3.828   9.169 -1.6128  0.0061  2.0121
 3661SOL     OW22615   0.889   2.031   8.645  0.4697 -0.6203 -0.4395
 3661SOL    HW122616   0.866   1.974   8.571  1.2736  0.6966 -1.6943
 3661SOL    HW222617   0.969   1.994   8.681 -1.1658 -1.3437  2.5006
 3662SOL     OW22618   1.685   1.230   9.198 -0.1408  0.0908 -0.2918
 3662SOL    HW122619   1.665   1.300   9.260 -0.4103  0.0690 -0.3539
 3662SOL    HW222620   1.780   1.230   9.193 -0.0375 -0.5837  1.7087
 3663SOL     OW22621   3.403   2.578   2.800 -0.0447 -0.0905 -0.1439
 3663SOL    HW122622   3.439   2.506   2.748 -0.0888 -1.0902  1.2250
 3663SOL    HW222623   3.407   2.637   2.724  0.3382  2.3639  1.7977
 3664SOL     OW22624   3.342   3.146   0.906 -0.2236  0.1487 -0.3111
 3664SOL    HW122625   3.304   3.191   0.831 -2.4554 -0.2873  0.5829
 3664SOL    HW222626   3.262   3.120   0.951  0.5479 -1.8413 -0.0675
 3665SOL     OW22627   0.523   1.193   2.426 -0.1379 -0.2434  0.0088
 3665SOL    HW122628   0.483   1.212   2.511 -1.9709  0.8748 -1.0872
 3665SOL    HW222629   0.445   1.191   2.371 -0.7341  1.1874  0.7939
 3666SOL     OW22630   0.475   0.026   3.975  0.2460 -0.2714  0.5182
 3666SOL    HW122631   0.438   4.681   3.940  2.9876 -0.3307 -2.2451
 3666SOL    HW222632   0.443   0.028   4.065  1.0228 -0.5485  0.8066
 3667SOL     OW22633   3.119   2.855   6.876 -0.3486 -0.4051 -0.0677
 3667SOL    HW122634   3.159   2.937   6.906 -0.9293 -0.7678  1.6763
 3667SOL    HW222635   3.026   2.877   6.877 -0.8332 -2.3564 -1.0398
 3668SOL     OW22636   3.642   3.381  15.295  0.0117  0.4113  0.1981
 3668SOL    HW122637   3.583   3.400  15.367 -1.3662 -2.2027 -0.2460
 3668SOL    HW222638   3.623   3.290  15.273 -0.2877  0.0226  2.0871
 3669SOL     OW22639   3.279   0.638   5.243 -0.3083 -0.0927 -0.3544
 3669SOL    HW122640   3.265   0.545   5.227  3.4336 -0.6838 -0.2224
 3669SOL    HW222641   3.206   0.659   5.302 -0.7097  1.0686 -1.2544
 3670SOL     OW22642   1.205   1.508   7.974 -0.1732 -0.2001  0.1886
 3670SOL    HW122643   1.232   1.580   8.031 -0.5034 -0.1584  0.2957
 3670SOL    HW222644   1.135   1.479   8.032  0.6924 -1.1643  0.7484
 3671SOL     OW22645   2.017   0.003  16.868  0.2635 -0.2143  0.5446
 3671SOL    HW122646   2.057   0.081  16.829  1.6382 -2.0718 -1.7355
 3671SOL    HW222647   2.064   4.674  16.816  0.6097  0.1074  0.4556
 3672SOL     OW22648   0.868   2.645   4.054 -0.5943 -0.1024 -0.6149
 3672SOL    HW122649   0.872   2.703   3.979  1.2023 -1.3797 -1.5166
 3672SOL    HW222650   0.801   2.577   4.041 -1.1305  0.1306  0.9299
 3673SOL     OW22651   4.400   1.609   3.991 -0.1405 -0.5482 -0.0124
 3673SOL    HW122652   4.352   1.534   4.026 -0.0455 -0.1272  1.0266
 3673SOL    HW222653   4.490   1.577   3.980 -0.9242 -2.0451 -2.0600
 3674SOL     OW22654   3.017   3.959   5.694  0.7786  0.2770  0.2664
 3674SOL    HW122655   3.104   3.942   5.730  0.0104 -2.2946  0.9022
 3674SOL    HW222656   2.985   3.875   5.662 -0.4242  0.4140  1.1215
 3675SOL     OW22657   0.923   1.036   3.713 -0.2469 -0.0053 -0.5453
 3675SOL    HW122658   0.927   1.090   3.633  2.2568  0.2544 -0.2348
 3675SOL    HW222659   0.997   0.977   3.703  0.8780  1.3314 -0.0279
 3676SOL     OW22660   3.689   0.659   6.740 -0.8862 -0.0584 -0.4208
 3676SOL    HW122661   3.720   0.701   6.820 -1.8598  2.2782 -1.2554
 3676SOL    HW222662   3.734   0.711   6.674 -2.4726  0.8618 -0.7726
 3677SOL     OW22663   2.607   3.193   5.282  0.2851  0.2689  0.0500
 3677SOL    HW122664   2.625   3.100   5.290 -1.4475 -0.1104 -0.4918
 3677SOL    HW222665   2.587   3.193   5.188  1.2657  1.1325 -0.1614
 3678SOL     OW22666   2.872   1.283   7.300 -0.2372 -0.3049  1.0273
 3678SOL    HW122667   2.908   1.213   7.355 -1.2445 -1.2564  0.4723
 3678SOL    HW222668   2.933   1.346   7.339  0.9349  0.4129 -1.9128
 3679SOL     OW22669   1.890   1.315   2.516  0.4279  0.2123 -0.7180
 3679SOL    HW122670   1.981   1.323   2.547  0.3028  1.4278 -0.6503
 3679SOL    HW222671   1.851   1.399   2.540  1.0062  0.0651  0.7320
 3680SOL     OW22672   2.117   0.235   0.685  0.0638 -0.6222 -0.0420
 3680SOL    HW122673   2.174   0.312   0.692  0.5577 -0.8563 -1.5325
 3680SOL    HW222674   2.082   0.222   0.773  0.6585  1.8063  0.5496
 3681SOL     OW22675   4.699   3.637   0.387 -0.0895 -0.1278 -0.0082
 3681SOL    HW122676   4.623   3.661   0.440 -0.4998  0.0054 -0.6654
 3681SOL    HW222677   4.720   3.717   0.339 -0.0749 -1.0787 -1.5689
 3682SOL     OW22678   1.623   2.380  14.565 -0.3067 -0.6546  0.0593
 3682SOL    HW122679   1.634   2.346  14.476 -2.4479  0.1109 -0.4947
 3682SOL    HW222680   1.714   2.396  14.592  0.4778 -0.9571 -2.3438
 3683SOL     OW22681   4.175   2.199  17.675 -0.0634 -0.1081  0.2625
 3683SOL    HW122682   4.151   2.124  17.728 -1.0491 -0.2864 -0.4293
 3683SOL    HW222683   4.171   2.272  17.737  0.5970 -0.1359  0.3299
 3684SOL     OW22684   3.005   1.152   5.768 -0.1042  0.1294 -0.0422
 3684SOL    HW122685   2.932   1.180   5.823 -0.4762  0.2080 -0.5783
 3684SOL    HW222686   3.057   1.231   5.754 -0.1186 -0.1286 -1.5662
 3685SOL     OW22687   3.195   4.045   3.969 -0.2927  0.5866 -0.4498
 3685SOL    HW122688   3.249   3.968   3.956 -0.9401  0.0932 -0.2066
 3685SOL    HW222689   3.249   4.099   4.026 -0.1261  0.5637 -0.5876
 3686SOL     OW22690   4.522   0.140   9.007 -0.2592 -0.0380 -0.3060
 3686SOL    HW122691   4.562   0.061   8.969 -0.5399 -0.8837  1.1687
 3686SOL    HW222692   4.547   0.213   8.951 -0.1981 -0.9637 -1.4987
 3687SOL     OW22693   0.559   1.034   5.293 -0.3086  0.6121  0.4167
 3687SOL    HW122694   0.597   1.068   5.374  2.3617 -1.2265 -0.0376
 3687SOL    HW222695   0.472   1.071   5.302 -1.3391 -1.1419 -2.2252
 3688SOL     OW22696   1.620   2.838  12.742 -0.0913  0.1610 -0.5142
 3688SOL    HW122697   1.532   2.799  12.745  0.4190 -1.0690 -1.4380
 3688SOL    HW222698   1.618   2.901  12.670 -0.5198  1.7841  0.9050
 3689SOL     OW22699   0.748   2.455  17.741 -0.2374  0.7156  0.3681
 3689SOL    HW122700   0.731   2.431   0.091  2.6480 -3.1656 -0.1100
 3689SOL    HW222701   0.727   2.548  17.740 -0.0504  0.7643  1.0978
 3690SOL     OW22702   3.887   3.144   2.832  0.0165  0.0582 -0.0404
 3690SOL    HW122703   3.902   3.209   2.901  0.8835 -0.6999  0.4872
 3690SOL    HW222704   3.880   3.189   2.748 -0.1608 -2.3698 -1.2990
 3691SOL     OW22705   0.530   3.420   2.763 -0.5092 -0.6617  0.1344
 3691SOL    HW122706   0.585   3.476   2.818  0.1623 -2.5109  1.3534
 3691SOL    HW222707   0.544   3.449   2.673 -0.3151  0.6013  0.5657
 3692SOL     OW22708   1.748   1.830   2.031 -0.3350 -0.2457  0.5596
 3692SOL    HW122709   1.686   1.837   1.959  1.9039 -0.1777 -1.3473
 3692SOL    HW222710   1.794   1.750   2.004  0.9536  0.6022  0.2392
 3693SOL     OW22711   3.740   2.306   7.460  0.1028  0.2118 -0.2481
 3693SOL    HW122712   3.662   2.267   7.500  0.3080 -0.1305 -0.1852
 3693SOL    HW222713   3.737   2.275   7.370 -0.4225 -1.2183  0.2516
 3694SOL     OW22714   0.309   4.724   9.610  0.5283 -0.4370  0.1019
 3694SOL    HW122715   0.375   4.730   9.541  0.3738  1.0011  0.0898
 3694SOL    HW222716   0.359   0.008   9.688  1.7921 -3.5044  0.0933
 3695SOL     OW22717   1.655   1.815   9.176 -0.3209 -0.2242  0.0397
 3695SOL    HW122718   1.702   1.750   9.124  0.7838  1.3884 -0.9831
 3695SOL    HW222719   1.723   1.882   9.178  0.2827 -0.8362 -0.2372
 3696SOL     OW22720   0.297   1.108   2.818 -0.0569  0.3830  0.8701
 3696SOL    HW122721   0.244   1.056   2.757  0.6140 -0.3973  0.9552
 3696SOL    HW222722   0.374   1.056   2.839 -0.2655 -0.9562 -1.6774
 3697SOL     OW22723   4.554   1.673   9.756  0.1348  0.5086  0.4288
 3697SOL    HW122724   4.595   1.755   9.729  2.4350 -0.0703  2.0903
 3697SOL    HW222725   4.510   1.698   9.837 -0.6338 -0.5879  0.3498
 3698SOL     OW22726   2.098   3.961  14.830 -0.5934 -0.0850  0.3250
 3698SOL    HW122727   2.171   3.932  14.886  0.7850 -1.6489 -2.2837
 3698SOL    HW222728   2.033   3.997  14.891 -0.1021 -0.0092  0.8134
 3699SOL     OW22729   2.146   1.302  10.148 -0.2410 -0.4442 -0.1751
 3699SOL    HW122730   2.075   1.303  10.084 -0.9719 -1.3085  0.6079
 3699SOL    HW222731   2.131   1.218  10.191  0.7481 -1.2471 -1.3976
 3700SOL     OW22732   0.701   4.053   4.345 -0.1916  0.2669 -0.0995
 3700SOL    HW122733   0.704   3.972   4.293 -0.4783  0.1578  0.0509
 3700SOL    HW222734   0.700   4.119   4.276  0.9838 -0.1557 -0.5408
 3701SOL     OW22735   2.564   2.998   8.157  0.0226  0.5477  0.3987
 3701SOL    HW122736   2.588   2.968   8.245  2.8739 -2.0763 -1.3080
 3701SOL    HW222737   2.576   2.917   8.108 -1.7019  2.0761 -2.5467
 3702SOL     OW22738   4.625   3.308   6.146 -0.5276 -0.3508 -0.2007
 3702SOL    HW122739   4.692   3.263   6.094 -1.8000 -1.0156 -1.2618
 3702SOL    HW222740   4.611   3.247   6.219  0.8647  1.6092  1.7086
 3703SOL     OW22741   3.721   4.424   3.623 -0.0866 -0.7958 -0.0882
 3703SOL    HW122742   3.796   4.454   3.675 -1.9730  2.4208  0.7830
 3703SOL    HW222743   3.688   4.346   3.667  0.0619 -1.1232 -0.5618
 3704SOL     OW22744   4.480   0.008  17.142  0.2307  0.6338 -0.0975
 3704SOL    HW122745   4.573   0.006  17.119  0.4967 -1.4454  1.1694
 3704SOL    HW222746   4.453   4.652  17.149 -1.5503  1.0278 -1.6442
 3705SOL     OW22747   1.516   0.389   5.281 -0.1291  0.2738 -0.0305
 3705SOL    HW122748   1.443   0.429   5.330 -0.4474 -0.1552 -0.1585
 3705SOL    HW222749   1.567   0.466   5.256  1.7449 -1.0472 -0.2261
 3706SOL     OW22750   1.041   2.065   1.935  0.1652  0.2209  0.5013
 3706SOL    HW122751   0.962   2.013   1.951 -0.2341  0.7672  0.3057
 3706SOL    HW222752   1.100   2.052   2.009 -0.5741 -0.8402  0.9097
 3707SOL     OW22753   4.172   4.110  12.820  0.5650  0.0745  0.0668
 3707SOL    HW122754   4.211   4.033  12.860  0.4075 -0.3286 -0.5525
 3707SOL    HW222755   4.087   4.074  12.792  0.1649  1.7156 -0.8086
 3708SOL     OW22756   3.854   1.414   7.617  0.2145  0.9653  0.0426
 3708SOL    HW122757   3.776   1.447   7.662  1.1507  2.8706  0.2895
 3708SOL    HW222758   3.816   1.348   7.560 -0.0670  1.5743 -0.4758
 3709SOL     OW22759   1.776   2.658   0.163  0.8079  0.3936 -0.1388
 3709SOL    HW122760   1.748   2.703   0.083  0.7836 -0.5442 -0.6651
 3709SOL    HW222761   1.861   2.619   0.143  0.5683  0.2217 -0.8464
 3710SOL     OW22762   0.145   4.455  15.197 -0.0683 -0.0803  0.0166
 3710SOL    HW122763   0.064   4.497  15.226 -0.3370 -1.4335  1.2554
 3710SOL    HW222764   0.197   4.458  15.277  1.8954 -0.9991 -1.2240
 3711SOL     OW22765   0.157   3.026   8.251  0.2760 -0.2712  0.2266
 3711SOL    HW122766   0.169   3.104   8.305  0.8511 -0.7134  0.7403
 3711SOL    HW222767   0.080   3.051   8.200 -0.4611  1.7877  2.2831
 3712SOL     OW22768   3.845   1.182   3.459 -0.0305  0.2644 -0.3518
 3712SOL    HW122769   3.811   1.202   3.372 -1.6726  0.0307  0.2466
 3712SOL    HW222770   3.778   1.127   3.499  1.5106 -0.4115  1.3396
 3713SOL     OW22771   3.472   3.250   9.351 -0.2755 -0.0260  0.2902
 3713SOL    HW122772   3.541   3.312   9.326  0.4130 -1.7072 -1.8908
 3713SOL    HW222773   3.456   3.211   9.265  1.1424  1.3376 -0.5900
 3714SOL     OW22774   1.049   3.413   1.528  0.6506  0.1460  0.3138
 3714SOL    HW122775   1.001   3.339   1.491  1.9024  0.7257 -2.4759
 3714SOL    HW222776   1.077   3.463   1.451  0.3977 -0.3576 -0.1071
 3715SOL     OW22777   2.803   0.213  14.573  0.0454 -0.9074 -0.6280
 3715SOL    HW122778   2.715   0.248  14.582 -0.1490 -1.7573  0.6760
 3715SOL    HW222779   2.855   0.292  14.558 -1.0130 -0.0539  0.2908
 3716SOL     OW22780   2.635   2.412   0.973 -0.0659 -0.4037 -0.1364
 3716SOL    HW122781   2.636   2.345   1.042  0.2014 -1.6968 -1.3964
 3716SOL    HW222782   2.548   2.432   0.937 -0.7157 -0.7633  1.2265
 3717SOL     OW22783   2.974   1.390   6.330 -0.4444  0.3260  0.6211
 3717SOL    HW122784   2.886   1.359   6.352 -0.4199  0.4532  0.8960
 3717SOL    HW222785   2.971   1.381   6.235  0.3038  0.5590  0.5736
 3718SOL     OW22786   1.641   3.369   8.378 -0.4613 -0.2640  0.2973
 3718SOL    HW122787   1.607   3.282   8.397 -3.3395  0.2686 -2.3001
 3718SOL    HW222788   1.701   3.365   8.304 -0.6613 -0.7090  0.1651
 3719SOL     OW22789   2.603   2.679   4.687 -0.4341  0.4669 -0.1707
 3719SOL    HW122790   2.508   2.691   4.684 -0.4642  0.4729  1.0031
 3719SOL    HW222791   2.618   2.659   4.594 -0.5950  0.8534 -0.2784
 3720SOL     OW22792   0.482   4.407   7.906 -0.1403  0.4272 -0.4742
 3720SOL    HW122793   0.445   4.337   7.852 -0.7400 -0.0093  0.5005
 3720SOL    HW222794   0.416   4.475   7.918 -0.6049 -0.2664  0.8750
 3721SOL     OW22795   0.771   0.636   1.329 -0.0728 -0.1222  0.1629
 3721SOL    HW122796   0.847   0.693   1.322  1.1181 -1.7168  0.0640
 3721SOL    HW222797   0.771   0.616   1.423  2.7346  0.3215  0.2513
 3722SOL     OW22798   3.404   4.409  13.336 -0.1872  0.5825  0.2801
 3722SOL    HW122799   3.461   4.342  13.375 -0.3850 -0.0609 -0.5630
 3722SOL    HW222800   3.470   4.473  13.308 -0.0204  0.6084  0.7257
 3723SOL     OW22801   2.357   1.016   6.310 -0.0060 -0.0758  0.6094
 3723SOL    HW122802   2.416   0.965   6.256  0.6658  0.1178  1.1543
 3723SOL    HW222803   2.274   0.970   6.320 -1.2908  2.0487 -0.3368
 3724SOL     OW22804   1.636   1.191   8.907  0.0651  0.0494 -0.6218
 3724SOL    HW122805   1.724   1.178   8.872  0.3260 -0.0747  0.0899
 3724SOL    HW222806   1.656   1.200   9.000  1.0465  0.3988 -0.8653
 3725SOL     OW22807   1.272   2.594   4.835 -0.4685  0.4259 -0.1131
 3725SOL    HW122808   1.350   2.641   4.865  0.1315  0.4199 -1.6910
 3725SOL    HW222809   1.281   2.608   4.741 -1.4593  0.9704 -0.1259
 3726SOL     OW22810   4.556   3.503   7.493 -0.5575 -0.5698  0.4027
 3726SOL    HW122811   4.582   3.520   7.402  1.3599  2.8681  1.5784
 3726SOL    HW222812   4.620   3.549   7.547  1.4560  0.6151 -2.9560
 3727SOL     OW22813   1.172   1.074  11.214  0.0729  0.1196  0.7136
 3727SOL    HW122814   1.209   1.032  11.292 -1.2776  1.8034  2.2412
 3727SOL    HW222815   1.138   1.157  11.247 -0.1887  0.5011 -0.5048
 3728SOL     OW22816   2.213   2.549  16.159 -0.0500 -0.0412 -0.5105
 3728SOL    HW122817   2.205   2.579  16.068  0.9126  1.5155 -0.0842
 3728SOL    HW222818   2.152   2.476  16.155  0.7781 -0.7720  0.6057
 3729SOL     OW22819   3.303   4.604   6.514 -0.5591  0.4452  0.6237
 3729SOL    HW122820   3.268   4.523   6.478  0.1535  0.1865  0.5081
 3729SOL    HW222821   3.265   4.620   6.600 -1.7754 -1.8706  0.4952
 3730SOL     OW22822   2.246   0.512  13.010 -0.0251 -0.2542 -0.2802
 3730SOL    HW122823   2.214   0.581  13.067  0.9190 -0.0745  0.0375
 3730SOL    HW222824   2.232   0.561  12.929 -0.5022 -1.8124 -1.1389
 3731SOL     OW22825   0.459   3.139   5.448 -0.2134 -0.2231 -0.1991
 3731SOL    HW122826   0.550   3.152   5.421 -0.1249  0.6178  0.4753
 3731SOL    HW222827   0.452   3.159   5.542 -1.0994  0.5973 -0.4500
 3732SOL     OW22828   2.692   4.258   6.314  0.1986  0.2226 -0.1035
 3732SOL    HW122829   2.600   4.283   6.303  0.3440  0.4225 -0.8620
 3732SOL    HW222830   2.688   4.187   6.379 -0.9052  0.0943 -0.3092
 3733SOL     OW22831   1.396   4.591   4.608  0.6629 -0.3726  0.3088
 3733SOL    HW122832   1.402   4.555   4.697  0.5429 -0.0176  0.4599
 3733SOL    HW222833   1.338   4.662   4.636  1.2249 -0.0038  0.5377
 3734SOL     OW22834   1.974   1.155  15.653 -0.5565 -0.4108 -0.3938
 3734SOL    HW122835   1.879   1.155  15.663 -0.4204 -1.9719  0.8353
 3734SOL    HW222836   1.978   1.232  15.597 -1.1808 -0.2035 -0.1503
 3735SOL     OW22837   3.511   3.010   5.222  0.2234 -0.0583  0.0766
 3735SOL    HW122838   3.499   3.046   5.134 -0.5656  0.1152  0.2558
 3735SOL    HW222839   3.471   2.924   5.213  1.7974 -0.8432  0.5506
 3736SOL     OW22840   3.187   2.349   6.148  0.5080  0.1101 -0.0268
 3736SOL    HW122841   3.188   2.332   6.054  2.8325  0.8941 -0.1332
 3736SOL    HW222842   3.196   2.258   6.178  0.1751 -0.6092 -2.1323
 3737SOL     OW22843   2.237   0.196   5.847  0.1691 -0.6274  0.6609
 3737SOL    HW122844   2.235   0.207   5.752 -0.3511 -1.5528  0.5650
 3737SOL    HW222845   2.164   0.253   5.870 -1.6258 -2.9369  0.7592
 3738SOL     OW22846   3.621   2.573   3.570 -0.0386 -0.0148 -0.6617
 3738SOL    HW122847   3.630   2.478   3.580 -0.1917  0.1353  0.8991
 3738SOL    HW222848   3.528   2.592   3.586  0.7106  4.0764 -1.1449
 3739SOL     OW22849   0.783   0.950   4.819  0.8307 -0.3914  0.1196
 3739SOL    HW122850   0.869   0.968   4.858  0.6628  0.2597  0.1854
 3739SOL    HW222851   0.803   0.977   4.729  2.2306 -0.0217  0.5294
 3740SOL     OW22852   2.164   3.336   5.061 -0.1917  0.2602 -0.1688
 3740SOL    HW122853   2.184   3.243   5.072  0.4135  0.4273  0.1651
 3740SOL    HW222854   2.085   3.343   5.008  0.8981  0.4524 -1.8002
 3741SOL     OW22855   0.823   1.335  10.998  0.5355 -0.0761 -0.4087
 3741SOL    HW122856   0.806   1.293  10.914 -2.4372 -1.6144  0.9563
 3741SOL    HW222857   0.875   1.264  11.035 -0.6877 -0.7769 -0.0754
 3742SOL     OW22858   3.326   3.473   5.779  0.4062  0.1446  0.3111
 3742SOL    HW122859   3.405   3.447   5.825  0.4285  0.0108  0.1972
 3742SOL    HW222860   3.347   3.543   5.717  2.7315 -0.5196  0.3727
 3743SOL     OW22861   1.790   1.609   4.211  0.3580 -0.0016  0.6107
 3743SOL    HW122862   1.739   1.630   4.289  0.4068  1.0069  0.3730
 3743SOL    HW222863   1.727   1.562   4.156  1.1319 -2.2429  1.6831
 3744SOL     OW22864   2.738   2.911  15.734 -0.2621  0.4154 -0.1240
 3744SOL    HW122865   2.814   2.955  15.770  0.0345 -0.4881  0.3638
 3744SOL    HW222866   2.705   2.978  15.674 -1.4013 -0.1351 -0.1278
 3745SOL     OW22867   1.438   3.936  12.632  0.0656  0.0029 -0.8665
 3745SOL    HW122868   1.526   3.901  12.643  0.3525  1.1970  0.6841
 3745SOL    HW222869   1.427   3.960  12.724  0.1857  0.5569 -0.9923
 3746SOL     OW22870   2.814   3.150  10.177  0.1180  0.0943 -0.2632
 3746SOL    HW122871   2.793   3.208  10.250 -1.3835 -1.0182  0.2064
 3746SOL    HW222872   2.804   3.068  10.225 -0.6999  1.1960  1.4599
 3747SOL     OW22873   4.231   0.036  16.515 -0.2091 -0.0995  0.2726
 3747SOL    HW122874   4.186   4.688  16.515 -1.9427  0.8484  1.3257
 3747SOL    HW222875   4.214   0.053  16.422 -1.8901 -1.0837  0.4094
 3748SOL     OW22876   1.046   2.145  11.316 -0.6575 -0.5240 -0.3687
 3748SOL    HW122877   1.094   2.111  11.391 -0.6698  1.3581  0.5082
 3748SOL    HW222878   1.053   2.240  11.330 -2.5334 -0.5064  0.4620
 3749SOL     OW22879   0.854   1.881   7.661  0.0788  0.1188  0.5151
 3749SOL    HW122880   0.833   1.926   7.743 -0.0154  0.0228  0.5435
 3749SOL    HW222881   0.879   1.799   7.703 -0.4077 -0.8076 -0.9923
 3750SOL     OW22882   2.023   3.321   2.778  0.0053 -0.2396 -0.2424
 3750SOL    HW122883   1.982   3.241   2.811 -0.1606 -0.1372 -0.2040
 3750SOL    HW222884   2.029   3.298   2.685 -1.6823 -0.1324 -0.3721
 3751SOL     OW22885   3.745   2.111   2.705 -0.3547 -0.4586 -0.0537
 3751SOL    HW122886   3.723   2.203   2.722  0.1259 -0.6657  1.6773
 3751SOL    HW222887   3.841   2.118   2.712 -0.4652 -0.1772  1.2598
 3752SOL     OW22888   4.449   2.225   5.362  0.1117 -0.2380 -0.5218
 3752SOL    HW122889   4.417   2.296   5.306 -0.3673 -0.3603 -0.4084
 3752SOL    HW222890   4.434   2.261   5.449  0.0058 -0.2201 -0.5471
 3753SOL     OW22891   4.026   1.662   5.042  0.1832 -0.0428 -0.1157
 3753SOL    HW122892   4.042   1.755   5.058  2.8487 -0.8439  2.0457
 3753SOL    HW222893   3.978   1.639   5.121 -1.5720 -1.5764 -1.6191
 3754SOL     OW22894   2.420   0.592   5.727 -0.1512 -0.1522 -0.1517
 3754SOL    HW122895   2.478   0.582   5.652 -1.4276  0.3239 -1.1938
 3754SOL    HW222896   2.427   0.512   5.779  0.3485  0.1434  0.2438
 3755SOL     OW22897   1.208   4.592   6.503 -0.4289  0.5291 -0.1725
 3755SOL    HW122898   1.266   4.648   6.554 -0.3238  0.6218 -0.3955
 3755SOL    HW222899   1.265   4.515   6.514  0.6961  1.0198 -2.5555
 3756SOL     OW22900   2.765   2.802   2.550  0.0566 -0.0214  0.3854
 3756SOL    HW122901   2.692   2.862   2.534  0.0396 -0.3799 -0.8340
 3756SOL    HW222902   2.790   2.773   2.462 -2.8191 -2.2383  0.3192
 3757SOL     OW22903   3.691   0.719   9.253  0.7735  0.5231  0.3666
 3757SOL    HW122904   3.750   0.656   9.213  1.6532  0.7225  1.3433
 3757SOL    HW222905   3.717   0.802   9.211  0.6845 -0.3925 -1.5203
 3758SOL     OW22906   2.976   1.040  16.939  0.3011 -0.2394 -0.4198
 3758SOL    HW122907   2.913   1.096  16.894 -0.8306 -1.4725 -0.3426
 3758SOL    HW222908   2.972   1.089  17.021 -0.1640 -1.3125  0.1947
 3759SOL     OW22909   0.763   1.639   6.468 -0.1339  0.1503  0.2085
 3759SOL    HW122910   0.694   1.621   6.405 -0.4336 -1.2876  0.9667
 3759SOL    HW222911   0.822   1.702   6.425  1.9182 -0.1799  2.5060
 3760SOL     OW22912   1.959   4.303   6.159  0.0544  0.3737 -0.4737
 3760SOL    HW122913   1.954   4.396   6.138  1.5130  0.5729  0.1147
 3760SOL    HW222914   1.975   4.297   6.254 -1.2343  2.4740 -0.1255
 3761SOL     OW22915   2.660   1.068  14.057 -0.4011 -0.3134  0.1853
 3761SOL    HW122916   2.651   1.007  13.984 -0.5155  1.5156 -1.3279
 3761SOL    HW222917   2.573   1.107  14.049 -0.7519 -1.8682 -3.5308
 3762SOL     OW22918   2.203   1.246  16.015 -0.1530 -0.7692 -0.2696
 3762SOL    HW122919   2.118   1.215  16.046 -0.0397 -2.7968 -1.9606
 3762SOL    HW222920   2.255   1.226  16.093 -1.6230 -0.8044  0.6930
 3763SOL     OW22921   0.244   2.641   2.169 -0.4860 -0.7456 -0.5114
 3763SOL    HW122922   0.255   2.590   2.088 -1.1657  0.8792 -1.6255
 3763SOL    HW222923   0.305   2.594   2.226 -0.4264  0.0813  0.1042
 3764SOL     OW22924   2.072   0.363   4.550  0.5446  0.0439 -0.3022
 3764SOL    HW122925   1.993   0.332   4.595  0.8850  1.0637  0.9791
 3764SOL    HW222926   2.063   0.331   4.460  1.2774 -1.9695  0.3439
 3765SOL     OW22927   3.434   4.082   0.435  0.2903  0.2109  0.4721
 3765SOL    HW122928   3.359   4.026   0.456 -0.8024  2.3955  2.4265
 3765SOL    HW222929   3.488   4.076   0.513 -0.5334 -1.2910  0.9323
 3766SOL     OW22930   2.758   0.250   0.113 -0.7323 -0.2272  0.6851
 3766SOL    HW122931   2.763   0.189   0.186 -0.2399 -0.1307  0.7372
 3766SOL    HW222932   2.852   0.253   0.091 -1.3897 -1.4342 -2.2822
 3767SOL     OW22933   1.798   0.488   2.128  0.0624 -0.3287 -0.9492
 3767SOL    HW122934   1.711   0.474   2.166  1.0663 -1.3852  0.9398
 3767SOL    HW222935   1.835   0.544   2.196  1.6658  2.0730 -3.7742
 3768SOL     OW22936   1.573   2.324  16.426  0.3638  0.2201  0.2672
 3768SOL    HW122937   1.494   2.300  16.379  0.7748  2.0656 -1.3469
 3768SOL    HW222938   1.525   2.360  16.500 -1.1953 -0.9854 -0.1488
 3769SOL     OW22939   1.771   1.895  15.690 -0.5930  0.1601 -0.0733
 3769SOL    HW122940   1.754   1.812  15.645  2.2571 -0.5723  0.2231
 3769SOL    HW222941   1.741   1.878  15.779  1.6580 -1.1015  0.4229
 3770SOL     OW22942   4.030   0.069  12.391 -0.1834  0.1432 -0.6651
 3770SOL    HW122943   4.075   0.087  12.474 -2.0790  1.6462  0.0516
 3770SOL    HW222944   3.944   0.046  12.428 -0.1515  2.4198  0.7942
 3771SOL     OW22945   1.140   3.296  16.558 -0.3436 -0.1862  0.6854
 3771SOL    HW122946   1.083   3.352  16.507  0.0317 -0.0878  0.3765
 3771SOL    HW222947   1.222   3.290  16.509 -1.6026  0.0967 -1.4613
 3772SOL     OW22948   1.714   1.894  15.328 -0.4448 -0.1699 -0.0980
 3772SOL    HW122949   1.796   1.846  15.319 -1.0791 -1.2519 -0.1291
 3772SOL    HW222950   1.737   1.957  15.397  1.4130  0.4203 -1.2832
 3773SOL     OW22951   0.813   0.626   5.927  0.3192 -0.3968 -0.1048
 3773SOL    HW122952   0.896   0.580   5.939 -0.0070 -0.8871  0.2372
 3773SOL    HW222953   0.778   0.613   6.015  0.7513  1.4652  0.3484
 3774SOL     OW22954   3.567   0.164   3.102 -0.6401 -0.7183  0.1737
 3774SOL    HW122955   3.621   0.125   3.033  1.5873  0.4869  1.2187
 3774SOL    HW222956   3.481   0.178   3.064 -0.1473  1.2680 -0.1864
 3775SOL     OW22957   2.121   2.158   5.435 -0.2942  0.1340 -0.3273
 3775SOL    HW122958   2.135   2.146   5.341  0.6393 -0.8372 -0.0576
 3775SOL    HW222959   2.038   2.110   5.446 -0.3452  0.1846 -0.4793
 3776SOL     OW22960   0.340   3.500  15.585 -0.1784 -0.0616  0.3122
 3776SOL    HW122961   0.246   3.516  15.577 -0.1061  0.0656 -0.3307
 3776SOL    HW222962   0.372   3.579  15.541 -2.8469  0.4341 -0.7350
 3777SOL     OW22963   1.150   0.358   7.879  0.0528 -0.4580  0.3122
 3777SOL    HW122964   1.136   0.364   7.973 -0.9143  1.7973  0.0220
 3777SOL    HW222965   1.245   0.370   7.877 -0.1542  0.8353 -1.5401
 3778SOL     OW22966   2.779   4.334   3.742  0.3599  0.2094 -0.4695
 3778SOL    HW122967   2.864   4.298   3.715  1.3472  3.1436 -1.2395
 3778SOL    HW222968   2.786   4.337   3.837  0.8848 -0.6609 -0.4760
 3779SOL     OW22969   3.232   4.662   7.750 -0.8798 -0.1006 -0.0067
 3779SOL    HW122970   3.260   4.677   7.659 -1.4559  2.7050  0.2633
 3779SOL    HW222971   3.267   4.576   7.769 -0.2966  0.8025  2.9523
 3780SOL     OW22972   2.082   2.659  11.048 -0.3665 -0.2005 -0.3796
 3780SOL    HW122973   2.156   2.700  11.093  0.0970  0.6358 -1.9130
 3780SOL    HW222974   2.028   2.644  11.126 -0.0365 -1.3039 -0.3552
 3781SOL     OW22975   3.561   4.162   1.913  0.4177  0.5140 -0.4278
 3781SOL    HW122976   3.564   4.075   1.874  0.5638 -0.2750  1.3139
 3781SOL    HW222977   3.479   4.146   1.960  1.8520  0.8856  2.2541
 3782SOL     OW22978   3.932   3.453  11.594 -0.2284 -0.2754 -0.2240
 3782SOL    HW122979   4.020   3.474  11.561  0.7609 -0.8122  2.0763
 3782SOL    HW222980   3.888   3.533  11.564 -0.7312 -0.6201 -0.3902
 3783SOL     OW22981   1.851   0.132   3.681  0.0019 -1.0289  0.2039
 3783SOL    HW122982   1.853   0.046   3.640  0.3064 -1.6832  1.6129
 3783SOL    HW222983   1.771   0.174   3.647  0.4159  1.1547  1.8776
 3784SOL     OW22984   2.885   1.728  16.869 -0.2499  0.4424  0.0380
 3784SOL    HW122985   2.858   1.725  16.960 -2.8575 -2.8022 -0.8337
 3784SOL    HW222986   2.820   1.776  16.818  1.3374  1.5689 -0.8999
 3785SOL     OW22987   3.112   3.780   5.021 -0.2753  0.2307  0.2183
 3785SOL    HW122988   3.150   3.694   5.041  1.3161  0.8630 -0.1636
 3785SOL    HW222989   3.139   3.824   5.101  0.0357  2.8698 -1.3504
 3786SOL     OW22990   4.487   1.838   6.800  0.1098 -0.0567  0.2647
 3786SOL    HW122991   4.560   1.788   6.836 -0.4563 -2.7155 -2.3176
 3786SOL    HW222992   4.413   1.802   6.848 -0.7705 -0.3299 -1.2805
 3787SOL     OW22993   0.659   0.555   2.126  0.0056  0.5760 -0.5322
 3787SOL    HW122994   0.609   0.624   2.170 -0.2240  1.5245 -2.3034
 3787SOL    HW222995   0.588   0.492   2.110  1.0528 -0.5074 -0.9109
 3788SOL     OW22996   2.133   2.014   3.857  0.1234 -0.1180 -0.1455
 3788SOL    HW122997   2.053   2.065   3.868  0.7457  0.8356 -0.0287
 3788SOL    HW222998   2.114   1.970   3.775  0.3453  0.6713 -0.6164
 3789SOL     OW22999   4.122   0.206   1.918  0.3871 -0.2432  0.1882
 3789SOL    HW123000   4.211   0.204   1.952  1.0718  0.9255 -1.5573
 3789SOL    HW223001   4.122   0.163   1.833  0.9337 -2.3661  1.2593
 3790SOL     OW23002   2.677   4.225   2.830 -0.0003  0.8130 -0.3156
 3790SOL    HW123003   2.705   4.313   2.807  2.3587  0.2852  0.4637
 3790SOL    HW223004   2.583   4.223   2.814 -0.3441  0.7147  1.7122
 3791SOL     OW23005   2.488   4.679   5.384  0.2676  0.6545  0.4074
 3791SOL    HW123006   2.551   4.710   5.320  0.3848 -2.0806 -0.8188
 3791SOL    HW223007   2.529   4.689   5.470  1.4870 -0.1863 -0.0797
 3792SOL     OW23008   3.251   2.795   7.250  0.2314 -0.3709  0.3962
 3792SOL    HW123009   3.317   2.806   7.319  0.2012  3.3451 -0.1705
 3792SOL    HW223010   3.290   2.716   7.213  1.1579  0.5383 -0.5676
 3793SOL     OW23011   3.609   2.004   4.200  0.2289 -0.0664  0.1113
 3793SOL    HW123012   3.638   2.039   4.285  3.9611 -0.5794 -0.9437
 3793SOL    HW223013   3.655   1.920   4.200 -0.8187 -0.6434  0.8871
 3794SOL     OW23014   0.274   1.559   9.012 -0.4049 -0.4851  0.6760
 3794SOL    HW123015   0.224   1.641   9.009  1.6154  0.7458  1.2836
 3794SOL    HW223016   0.209   1.493   9.036 -3.6531  2.7130  0.7465
 3795SOL     OW23017   0.217   2.017   3.364  0.3967  0.6404 -0.1778
 3795SOL    HW123018   0.277   1.945   3.383 -0.0761  0.0528 -0.9247
 3795SOL    HW223019   0.141   1.965   3.341  1.4074 -1.2394  0.7549
 3796SOL     OW23020   3.104   3.010   2.509 -0.3015  0.4399  0.7149
 3796SOL    HW123021   3.030   3.044   2.458  0.8143 -0.6406 -1.6068
 3796SOL    HW223022   3.063   2.973   2.587 -0.6353 -0.4284  0.1372
 3797SOL     OW23023   1.220   2.086   7.098 -0.1440  0.4701 -0.1034
 3797SOL    HW123024   1.170   2.057   7.174 -1.0973 -0.8869 -1.2496
 3797SOL    HW223025   1.234   2.176   7.128 -2.0671  0.3207  1.2755
 3798SOL     OW23026   4.727   4.687   5.516  0.4874  0.1504 -0.2741
 3798SOL    HW123027   4.729   4.599   5.479 -1.4163  0.5926 -1.4204
 3798SOL    HW223028   0.078   4.691   5.556  0.8044 -0.0548 -0.9363
 3799SOL     OW23029   4.538   0.150   4.443 -0.4517  0.5342 -0.2738
 3799SOL    HW123030   4.549   0.236   4.403  0.7294 -0.5964 -2.3554
 3799SOL    HW223031   4.470   0.177   4.505 -1.9209 -2.8397 -0.4149
 3800SOL     OW23032   2.772   2.239   5.816  0.1528  0.6242 -0.1766
 3800SOL    HW123033   2.776   2.330   5.784 -0.3835 -0.0296 -2.1231
 3800SOL    HW223034   2.781   2.244   5.911 -0.6758 -1.4199 -0.0135
 3801SOL     OW23035   4.028   0.305   5.434  0.0383 -0.0201 -0.2686
 3801SOL    HW123036   3.944   0.341   5.461 -0.3058 -0.9895 -0.0380
 3801SOL    HW223037   4.007   0.254   5.355 -2.3573 -0.1464  0.4610
 3802SOL     OW23038   2.484   3.730  10.128 -0.7046 -0.5565 -0.3976
 3802SOL    HW123039   2.434   3.701  10.206 -2.8146  2.5277 -0.6247
 3802SOL    HW223040   2.576   3.721  10.152 -0.5588 -1.0263 -1.1202
 3803SOL     OW23041   0.755   3.075   8.043  0.4387 -0.5154  0.3308
 3803SOL    HW123042   0.712   3.140   8.099 -0.1089 -1.5141  1.0622
 3803SOL    HW223043   0.680   3.025   8.013  0.3621 -1.7627  2.5849
 3804SOL     OW23044   0.915   1.689   7.845 -0.6615  0.2164  0.2905
 3804SOL    HW123045   0.862   1.622   7.888 -1.3279  0.5925  0.0527
 3804SOL    HW223046   0.976   1.704   7.917  1.6495  0.6094 -1.7243
 3805SOL     OW23047   0.474   1.218   6.652  0.2344 -0.3222  0.0466
 3805SOL    HW123048   0.569   1.206   6.654 -0.0826 -2.8971 -0.1748
 3805SOL    HW223049   0.454   1.175   6.735  1.0913 -1.3884 -0.2976
 3806SOL     OW23050   3.886   4.397   6.858 -0.0698  0.7563 -0.0828
 3806SOL    HW123051   3.819   4.401   6.926 -1.1731 -0.5406 -1.1042
 3806SOL    HW223052   3.956   4.451   6.895  0.9111 -0.4472 -0.1653
 3807SOL     OW23053   4.284   2.614   8.693 -0.4988  0.6018 -0.8240
 3807SOL    HW123054   4.218   2.629   8.626 -0.4583 -1.3722 -1.3262
 3807SOL    HW223055   4.340   2.691   8.704 -0.3406  0.5864 -1.5080
 3808SOL     OW23056   4.282   1.838   9.206 -0.4128  0.1371  0.6298
 3808SOL    HW123057   4.250   1.928   9.194 -0.8265 -0.0352  0.4326
 3808SOL    HW223058   4.257   1.820   9.297  0.0368 -0.9506  0.5351
 3809SOL     OW23059   0.585   2.287   2.728  0.1066  0.1867  0.4314
 3809SOL    HW123060   0.551   2.240   2.652 -0.4942 -0.0869  0.8621
 3809SOL    HW223061   0.587   2.378   2.698  0.3335  0.2842  0.7404
 3810SOL     OW23062   1.216   3.200   3.664  0.3741  0.2608  0.0575
 3810SOL    HW123063   1.195   3.226   3.574 -0.2622 -0.0812  0.1063
 3810SOL    HW223064   1.245   3.113   3.638 -2.0655 -0.7113  0.6273
 3811SOL     OW23065   0.860   2.368  11.414 -0.0443  0.7922  0.4278
 3811SOL    HW123066   0.817   2.452  11.431  0.7502  0.4584  3.8920
 3811SOL    HW223067   0.851   2.331  11.501 -0.5707 -0.3398 -0.1175
 3812SOL     OW23068   2.462   1.196  14.315 -0.0905  0.7515 -0.1896
 3812SOL    HW123069   2.442   1.186  14.222  0.6292 -0.3635 -0.2204
 3812SOL    HW223070   2.555   1.218  14.323  0.3962 -0.9999 -1.0107
 3813SOL     OW23071   4.387   2.916   2.500  0.4081  0.0401 -0.0098
 3813SOL    HW123072   4.462   2.962   2.538 -0.5871  1.1623  0.5886
 3813SOL    HW223073   4.327   2.990   2.496  0.0615 -0.1316  1.6816
 3814SOL     OW23074   3.947   1.129   5.700 -0.0824  0.4606  0.0664
 3814SOL    HW123075   3.952   1.069   5.626 -2.5225 -0.4195  0.6163
 3814SOL    HW223076   4.019   1.088   5.748 -0.1047  1.9682  1.3772
 3815SOL     OW23077   0.051   0.771   8.996  0.2743  0.1007 -0.0485
 3815SOL    HW123078   0.124   0.709   8.986  0.9266  1.0932 -1.5000
 3815SOL    HW223079   4.730   0.725   9.058 -0.2990 -1.1673 -1.4926
 3816SOL     OW23080   1.787   0.349   5.459 -0.3567 -0.1188  0.1102
 3816SOL    HW123081   1.825   0.398   5.386 -0.5581 -0.7939 -0.4593
 3816SOL    HW223082   1.725   0.288   5.418 -0.0197 -0.1275 -0.3861
 3817SOL     OW23083   2.445   2.773   5.097  0.0893 -0.0681 -0.5391
 3817SOL    HW123084   2.541   2.768   5.097 -0.1233 -4.2090 -0.7870
 3817SOL    HW223085   2.429   2.800   5.187 -1.2919  1.4181 -1.2383
 3818SOL     OW23086   2.059   4.706  13.113 -0.5009  0.6829  0.5783
 3818SOL    HW123087   1.964   4.716  13.113 -0.4346  1.2643 -1.1459
 3818SOL    HW223088   2.063   4.616  13.145 -1.6955  0.0858 -0.9952
 3819SOL     OW23089   4.256   3.371   4.466 -0.5720 -0.0710  0.0466
 3819SOL    HW123090   4.174   3.367   4.417  0.5482 -0.0054 -1.8209
 3819SOL    HW223091   4.303   3.404   4.390 -0.7923  0.9569  0.3520
 3820SOL     OW23092   2.196   0.454   3.639 -0.0594 -0.3105  0.3649
 3820SOL    HW123093   2.113   0.461   3.592 -1.1216 -0.5499  2.2223
 3820SOL    HW223094   2.212   0.359   3.632 -2.4854 -0.5476 -2.0426
 3821SOL     OW23095   2.889   1.937   8.665 -0.6555 -0.4868 -0.5229
 3821SOL    HW123096   2.905   2.000   8.736  1.2857  0.9279 -2.2061
 3821SOL    HW223097   2.890   1.997   8.590 -2.5757  2.3435  1.7156
 3822SOL     OW23098   4.656   3.164  16.997  0.3385  0.1470 -0.2236
 3822SOL    HW123099   4.645   3.253  16.964 -0.0713 -0.4686 -1.7438
 3822SOL    HW223100   4.589   3.121  16.944  1.0748  0.0230 -1.0524
 3823SOL     OW23101   4.346   3.912  12.909  0.1870 -0.0578 -0.5925
 3823SOL    HW123102   4.401   3.876  12.840  0.1251 -1.6607  0.2129
 3823SOL    HW223103   4.352   3.845  12.977 -3.2768  0.1578 -0.0818
 3824SOL     OW23104   0.064   3.608   2.197 -0.0498 -0.2419  0.3173
 3824SOL    HW123105   4.735   3.575   2.260 -0.2845  0.1214  0.2661
 3824SOL    HW223106   0.128   3.651   2.253 -0.2972  0.3541  0.1494
 3825SOL     OW23107   0.641   0.239   7.000 -0.0875 -0.0390 -0.1271
 3825SOL    HW123108   0.629   0.252   6.906  0.7434  1.2991 -0.0475
 3825SOL    HW223109   0.581   0.302   7.041  0.1484  0.1960 -0.1462
 3826SOL     OW23110   3.305   3.300   6.701  0.6363  0.1996  0.1190
 3826SOL    HW123111   3.399   3.306   6.719  0.4553 -0.1347  1.1283
 3826SOL    HW223112   3.305   3.251   6.618 -0.1452 -1.0659  0.8789
 3827SOL     OW23113   2.662   4.131   7.694  0.7599 -0.2620 -0.1659
 3827SOL    HW123114   2.676   4.225   7.680  1.4331 -0.3746 -0.2409
 3827SOL    HW223115   2.749   4.093   7.683  0.0377 -2.0695  0.3349
 3828SOL     OW23116   3.088   4.130   2.173 -0.6991 -0.3132 -0.4816
 3828SOL    HW123117   3.148   4.071   2.221 -0.0371  0.2913 -0.5685
 3828SOL    HW223118   3.022   4.153   2.237 -0.4636  0.3122 -0.4686
 3829SOL     OW23119   0.437   2.984   1.413 -0.2626  0.1168  1.0409
 3829SOL    HW123120   0.359   2.936   1.385 -0.9073  1.7507  0.0184
 3829SOL    HW223121   0.412   3.015   1.500  0.2356  3.3822  0.0319
 3830SOL     OW23122   2.254   2.611   3.774 -0.1719 -0.1108 -0.0403
 3830SOL    HW123123   2.337   2.573   3.805 -0.8042  0.7630  2.7226
 3830SOL    HW223124   2.196   2.535   3.778  1.3214 -1.2344  0.4817
 3831SOL     OW23125   2.754   0.539   6.089 -0.1756  0.0224 -0.3311
 3831SOL    HW123126   2.678   0.591   6.117 -0.7399 -0.7034 -0.5045
 3831SOL    HW223127   2.775   0.495   6.171 -1.0918  0.9414  0.3911
 3832SOL     OW23128   1.574   3.566  10.184  0.4678  0.2129  0.3319
 3832SOL    HW123129   1.552   3.474  10.199 -0.8790  0.2189 -1.5573
 3832SOL    HW223130   1.615   3.558  10.098 -1.5788 -1.9544 -0.4577
 3833SOL     OW23131   0.441   2.584   2.524  0.2143  0.1300  0.3831
 3833SOL    HW123132   0.490   2.618   2.599 -0.0018  1.4395 -0.0686
 3833SOL    HW223133   0.352   2.608   2.551 -0.1911 -1.0372  0.1149
 3834SOL     OW23134   2.522   4.615   1.219 -0.4222  0.1362  0.0250
 3834SOL    HW123135   2.435   4.586   1.192 -0.4545 -0.7651  1.1248
 3834SOL    HW223136   2.566   4.530   1.218 -1.9778 -0.7168  3.7339
 3835SOL     OW23137   3.017   3.024  13.684  0.3685 -0.4375 -0.2201
 3835SOL    HW123138   2.962   3.095  13.717  1.2555  0.4817 -0.7119
 3835SOL    HW223139   2.958   2.981  13.621 -1.3692  1.5708  0.0522
 3836SOL     OW23140   3.760   0.278  17.658 -0.1912 -0.8494  0.4329
 3836SOL    HW123141   3.808   0.351  17.619 -0.9935 -0.2675  0.5443
 3836SOL    HW223142   3.683   0.284  17.601 -0.2193 -1.0505  0.4492
 3837SOL     OW23143   2.634   1.620   2.655  0.5435  0.5237 -0.7044
 3837SOL    HW123144   2.581   1.692   2.688  1.1808  1.4877 -1.7803
 3837SOL    HW223145   2.586   1.591   2.577  0.1387  1.5804 -0.8490
 3838SOL     OW23146   4.415   3.941  11.016  0.0758  0.0311  0.4158
 3838SOL    HW123147   4.469   3.967  11.091  0.7858 -1.3188  0.3704
 3838SOL    HW223148   4.332   3.969  11.055  0.2909  2.1631 -0.6464
 3839SOL     OW23149   3.454   0.039  16.345  0.2398 -0.1440  0.0644
 3839SOL    HW123150   3.432   4.717  16.272 -0.0184  0.2652 -0.1847
 3839SOL    HW223151   3.492   4.717  16.412  2.5834 -1.9257 -2.8469
 3840SOL     OW23152   0.214   0.337   5.028 -0.0356  0.5470 -0.3132
 3840SOL    HW123153   0.256   0.421   5.010 -1.6155  1.2347 -0.7603
 3840SOL    HW223154   0.290   0.288   5.057 -0.3823  0.4286  0.4016
 3841SOL     OW23155   1.688   0.044  10.577 -0.5392  0.0904 -0.3015
 3841SOL    HW123156   1.728   0.061  10.663 -0.8021 -2.4260  0.3069
 3841SOL    HW223157   1.744   0.081  10.509  0.9196  1.7811  1.7930
 3842SOL     OW23158   1.930   3.791  12.527 -0.1982 -0.2157 -0.0710
 3842SOL    HW123159   1.982   3.860  12.567 -0.0279  0.1671 -0.9436
 3842SOL    HW223160   1.919   3.825  12.438 -0.4593  1.7237  0.7258
 3843SOL     OW23161   1.753   1.710   3.394  0.2731  0.2003 -0.4408
 3843SOL    HW123162   1.840   1.747   3.376 -0.3535  1.8049 -0.2147
 3843SOL    HW223163   1.701   1.782   3.359 -0.1260  0.2483  0.2572
 3844SOL     OW23164   3.194   3.289   3.605  0.5535  0.2118 -0.0499
 3844SOL    HW123165   3.273   3.339   3.588 -1.6131  2.9293 -1.9769
 3844SOL    HW223166   3.158   3.281   3.517 -1.4329 -0.5728  0.8246
 3845SOL     OW23167   3.997   3.263   3.185  0.0361  0.0741  0.8245
 3845SOL    HW123168   3.977   3.302   3.100 -2.2167 -0.6413  1.0184
 3845SOL    HW223169   3.934   3.307   3.243 -0.8239 -1.1503  0.8208
 3846SOL     OW23170   0.008   4.507   6.691  0.0189 -0.1048 -0.2679
 3846SOL    HW123171   4.703   4.519   6.777 -0.0117  0.7878 -0.4064
 3846SOL    HW223172   0.053   4.422   6.698 -0.4511 -0.2812  0.5293
 3847SOL     OW23173   1.593   0.019   6.263  0.5693  0.5013 -0.3339
 3847SOL    HW123174   1.647   0.079   6.210 -0.0379  2.5342  1.3364
 3847SOL    HW223175   1.645   0.001   6.340 -0.6042  1.3971  0.6756
 3848SOL     OW23176   0.503   3.399   1.345  0.5724 -0.0669 -0.3636
 3848SOL    HW123177   0.465   3.484   1.326 -2.5985 -1.0778  1.4710
 3848SOL    HW223178   0.483   3.389   1.438  0.9236 -1.7992 -0.4638
 3849SOL     OW23179   2.248   4.463  17.505 -0.3447  0.2175  0.5612
 3849SOL    HW123180   2.288   4.376  17.511  2.9409  1.7147  0.5994
 3849SOL    HW223181   2.240   4.479  17.411  1.0644  1.2382  0.6222
 3850SOL     OW23182   0.394   0.110   2.326 -0.2239 -0.1553  0.0470
 3850SOL    HW123183   0.314   0.085   2.280 -0.3633  0.2517  0.0751
 3850SOL    HW223184   0.447   0.119   2.247  0.3279 -0.8428  0.3292
 3851SOL     OW23185   3.792   1.658   1.978  0.0521 -0.2834  0.0334
 3851SOL    HW123186   3.725   1.628   2.040 -1.5102  2.8339 -0.1527
 3851SOL    HW223187   3.776   1.590   1.914 -4.0153  0.0060  0.7639
 3852SOL     OW23188   0.985   2.698   4.577  0.4537 -0.0178 -0.3107
 3852SOL    HW123189   0.952   2.634   4.514  1.2301  0.3453 -1.0718
 3852SOL    HW223190   0.989   2.647   4.658 -0.0183  1.7344  0.8193
 3853SOL     OW23191   0.623   2.461   3.933  0.2031  0.1310  0.2528
 3853SOL    HW123192   0.674   2.381   3.922 -0.6081 -0.4729  0.8511
 3853SOL    HW223193   0.550   2.445   3.873  2.0782 -0.2413 -1.9359
 3854SOL     OW23194   1.082   3.938   6.853 -0.4031 -0.7681  0.2983
 3854SOL    HW123195   1.009   3.879   6.870 -0.1159 -0.6235  1.9764
 3854SOL    HW223196   1.100   3.980   6.937  2.1660  0.2133 -0.7432
 3855SOL     OW23197   4.728   4.060   4.343 -0.0397  0.1145 -0.0935
 3855SOL    HW123198   4.693   4.127   4.403  0.2672 -0.6193  0.9046
 3855SOL    HW223199   4.673   3.983   4.353 -0.2848  0.3670  0.5526
 3856SOL     OW23200   0.363   4.214   1.838  0.5295  0.0064  0.1492
 3856SOL    HW123201   0.288   4.214   1.778  0.5847  0.0212  0.0806
 3856SOL    HW223202   0.420   4.145   1.805  2.1350  1.0092  0.8470
 3857SOL     OW23203   1.060   3.181   3.896  0.6482  0.3044  0.0580
 3857SOL    HW123204   1.132   3.163   3.956 -0.2336  0.2709  1.1151
 3857SOL    HW223205   1.102   3.171   3.811 -0.2888  0.2290 -0.3970
 3858SOL     OW23206   0.293   3.565   7.617 -0.2572 -0.1906 -0.1040
 3858SOL    HW123207   0.335   3.484   7.647 -1.4828 -0.5052  0.7804
 3858SOL    HW223208   0.206   3.524   7.619  0.0464 -0.7981  0.8584
 3859SOL     OW23209   2.259   4.083   0.190 -0.5602  0.4021 -0.2788
 3859SOL    HW123210   2.251   4.083   0.285 -0.6494  2.0016 -0.2959
 3859SOL    HW223211   2.175   4.123   0.169 -1.1972  0.1655  1.8626
 3860SOL     OW23212   1.304   0.266  10.263 -0.8207  0.8414 -0.1069
 3860SOL    HW123213   1.308   0.207  10.339 -1.4290  0.8927 -0.0360
 3860SOL    HW223214   1.391   0.270  10.225 -0.5372  0.7763  0.5278
 3861SOL     OW23215   0.749   2.618  15.593  0.1764  0.7225 -0.4035
 3861SOL    HW123216   0.769   2.604  15.685  0.9374 -1.2749 -0.8871
 3861SOL    HW223217   0.709   2.533  15.576  0.0426  0.4694  1.2287
 3862SOL     OW23218   3.533   0.596   2.127 -0.5112  0.0395 -0.0992
 3862SOL    HW123219   3.574   0.682   2.124  1.3129 -0.8360 -0.5554
 3862SOL    HW223220   3.497   0.579   2.040 -1.5496 -0.1927  0.3842
 3863SOL     OW23221   3.513   0.475   4.124 -0.0052  0.1906  0.0834
 3863SOL    HW123222   3.504   0.547   4.186  1.1571  2.1161 -2.0015
 3863SOL    HW223223   3.422   0.447   4.116  0.0593  0.2284 -0.7942
 3864SOL     OW23224   1.782   0.395   0.779 -0.3934 -0.5430  0.1840
 3864SOL    HW123225   1.825   0.471   0.738  0.0734 -0.4533  0.8528
 3864SOL    HW223226   1.823   0.330   0.722 -1.5743  1.4932 -3.0548
 3865SOL     OW23227   0.876   3.082   9.419  0.2074 -0.1172  0.2658
 3865SOL    HW123228   0.854   3.115   9.332  0.5681  1.3406  0.7267
 3865SOL    HW223229   0.902   2.994   9.390 -1.9017 -0.5215 -0.4189
 3866SOL     OW23230   1.407   2.469  14.690 -0.0040 -0.1883  0.7430
 3866SOL    HW123231   1.361   2.392  14.724 -0.5249 -1.0544 -1.8574
 3866SOL    HW223232   1.493   2.437  14.665  0.5995  1.8480  0.1849
 3867SOL     OW23233   0.353   4.327   6.702 -0.2923 -0.5494 -0.1798
 3867SOL    HW123234   0.427   4.386   6.692  0.5281 -1.2089  2.1738
 3867SOL    HW223235   0.385   4.247   6.744  4.0826 -0.4484 -3.3149
 3868SOL     OW23236   4.689   1.928   9.057  0.0285 -0.1855 -0.2589
 3868SOL    HW123237   4.616   1.870   9.076  1.6008 -1.5839  1.5398
 3868SOL    HW223238   4.682   1.993   9.127  0.8369 -1.8052  1.3385
 3869SOL     OW23239   3.412   3.723   2.428  0.3529  0.2966  0.0018
 3869SOL    HW123240   3.345   3.656   2.436  0.2702  0.2940 -0.7875
 3869SOL    HW223241   3.407   3.773   2.510  1.1336 -0.9966  0.8345
 3870SOL     OW23242   3.121   1.053   8.128  0.0876  0.1085 -0.0962
 3870SOL    HW123243   3.098   1.028   8.218  1.5627  1.9907  0.8087
 3870SOL    HW223244   3.087   0.979   8.079  2.1502  0.2822 -1.7681
 3871SOL     OW23245   0.780   2.109  14.304  0.6700  0.4277 -0.3964
 3871SOL    HW123246   0.777   2.023  14.346  1.9987  1.0643  0.9997
 3871SOL    HW223247   0.874   2.127  14.314  1.0171 -0.5180 -1.9368
 3872SOL     OW23248   2.966   0.420   6.557 -0.3033  0.0907  0.4404
 3872SOL    HW123249   2.965   0.486   6.625 -0.1839  2.3011 -1.6883
 3872SOL    HW223250   3.059   0.402   6.546  0.5232  4.6494  0.2161
 3873SOL     OW23251   0.017   2.028   2.346 -0.0851 -0.0831  0.3919
 3873SOL    HW123252   0.037   1.973   2.422 -0.8031  0.8328  1.2532
 3873SOL    HW223253   4.687   2.083   2.389 -1.4586 -0.9202 -0.6496
 3874SOL     OW23254   2.062   4.110   5.783 -0.2537  0.6130 -0.3828
 3874SOL    HW123255   2.093   4.028   5.821  0.8534  1.4036  0.4168
 3874SOL    HW223256   2.125   4.173   5.819  0.0662  0.0343  0.0647
 3875SOL     OW23257   3.450   1.108   2.763 -0.0097 -0.3297  0.1740
 3875SOL    HW123258   3.496   1.176   2.812  1.9262 -1.6932  0.2651
 3875SOL    HW223259   3.358   1.117   2.788 -0.4603 -0.1871 -1.5269
 3876SOL     OW23260   4.545   3.250   3.551 -0.0398 -0.0564 -0.5853
 3876SOL    HW123261   4.512   3.195   3.622  0.4520  1.9849  1.2271
 3876SOL    HW223262   4.537   3.182   3.484 -1.4255 -0.1058 -0.3718
 3877SOL     OW23263   1.885   2.433   6.007 -0.3177  0.4329 -0.2243
 3877SOL    HW123264   1.958   2.491   6.031  0.2205 -0.5498  0.5347
 3877SOL    HW223265   1.896   2.424   5.913  2.3087  0.8813  0.0275
 3878SOL     OW23266   0.014   3.964  11.453  0.0832  0.7081 -0.4157
 3878SOL    HW123267   0.101   4.000  11.434  0.4701  1.3579  2.5792
 3878SOL    HW223268   0.010   3.997  11.543  0.8133 -0.1504 -0.0793
 3879SOL     OW23269   3.292   1.052   3.100 -0.4947 -0.4920 -0.0202
 3879SOL    HW123270   3.379   1.015   3.110 -0.7778 -1.1167  0.1328
 3879SOL    HW223271   3.301   1.101   3.019  0.5189  0.1791  0.4996
 3880SOL     OW23272   2.071   2.386   1.817 -0.0023  0.3787  0.4368
 3880SOL    HW123273   2.096   2.478   1.806 -1.5391  0.6843 -0.5531
 3880SOL    HW223274   2.054   2.357   1.728  0.6180 -2.2064  1.1756
 3881SOL     OW23275   2.471   0.380   7.094 -0.5168 -0.5032  0.1110
 3881SOL    HW123276   2.509   0.440   7.029  0.0519 -1.1672 -0.1691
 3881SOL    HW223277   2.513   0.408   7.175 -1.4532 -2.3968  1.2418
 3882SOL     OW23278   2.787   2.608  12.642 -0.2899 -0.3023 -0.5532
 3882SOL    HW123279   2.867   2.572  12.679  0.6899  1.4844 -0.9294
 3882SOL    HW223280   2.751   2.651  12.719 -0.0897 -2.1904  0.5968
 3883SOL     OW23281   4.084   3.718   5.324  0.7500 -0.5931  0.3514
 3883SOL    HW123282   4.115   3.630   5.344  0.8411 -0.2361  1.7329
 3883SOL    HW223283   4.164   3.759   5.291  0.7528 -1.3420 -0.5771
 3884SOL     OW23284   3.787   1.958   5.595 -0.0712  0.2775 -0.1697
 3884SOL    HW123285   3.873   1.969   5.635  0.5670 -0.0064 -1.4765
 3884SOL    HW223286   3.739   1.951   5.677 -1.5438 -0.8299 -1.1204
 3885SOL     OW23287   0.607   3.073  12.615 -0.0642 -0.5318 -0.2103
 3885SOL    HW123288   0.570   3.158  12.636  1.6613 -0.1576  1.2358
 3885SOL    HW223289   0.683   3.061  12.671 -1.1413  0.1968  1.4128
 3886SOL     OW23290   2.929   0.407   8.372  0.0363  0.0876 -0.0704
 3886SOL    HW123291   2.851   0.362   8.339 -0.1307 -0.7755  1.4868
 3886SOL    HW223292   2.929   0.488   8.322  2.1066 -0.3882 -0.8168
 3887SOL     OW23293   0.025   2.863   2.893  0.7127 -0.5379  0.2771
 3887SOL    HW123294   0.120   2.861   2.884  0.7512  1.6684  0.1719
 3887SOL    HW223295   0.009   2.781   2.941 -0.0215 -1.5748 -1.7349
 3888SOL     OW23296   1.914   2.862  12.458  0.0721 -0.3713  0.2264
 3888SOL    HW123297   1.954   2.911  12.386 -0.1951  0.5451  0.6997
 3888SOL    HW223298   1.841   2.919  12.481  0.9375  0.8194  0.0266
 3889SOL     OW23299   0.657   1.536   3.193 -0.3378  0.0088 -0.2029
 3889SOL    HW123300   0.615   1.462   3.148  1.1613 -0.8116 -0.2655
 3889SOL    HW223301   0.682   1.598   3.124  1.8121 -0.5631  0.0382
 3890SOL     OW23302   4.704   3.583   6.113 -0.1850  0.0131 -0.0473
 3890SOL    HW123303   4.675   3.497   6.081 -0.0024 -0.4586  1.0486
 3890SOL    HW223304   4.645   3.603   6.186 -1.4843 -1.1959 -0.7459
 3891SOL     OW23305   2.179   4.691   7.220  0.3001 -0.4362 -0.2033
 3891SOL    HW123306   2.087   4.720   7.218  0.3775 -0.1508  0.4910
 3891SOL    HW223307   2.173   4.596   7.209 -1.3109 -0.4441  0.7409
 3892SOL     OW23308   1.286   3.796   3.447 -0.0565  0.0389  0.1745
 3892SOL    HW123309   1.291   3.866   3.512  1.6871  0.0281  0.0443
 3892SOL    HW223310   1.235   3.832   3.374  1.1886  3.1932  0.8849
 3893SOL     OW23311   1.298   2.161   5.661 -0.1509  0.1066 -0.0178
 3893SOL    HW123312   1.354   2.209   5.722  0.3568  1.8219 -1.8506
 3893SOL    HW223313   1.307   2.213   5.581  0.2362 -0.7690 -0.5430
 3894SOL     OW23314   2.136   3.733  12.745  0.3783  0.3079 -0.5595
 3894SOL    HW123315   2.129   3.661  12.682  2.5175 -0.4360  0.0267
 3894SOL    HW223316   2.063   3.703  12.799  2.3801 -2.4218  0.6219
 3895SOL     OW23317   0.358   4.416   4.947  0.0650  0.1761 -0.3435
 3895SOL    HW123318   0.438   4.452   4.985  0.8667 -1.1359 -0.7834
 3895SOL    HW223319   0.392   4.331   4.919 -1.0770 -0.9294  1.5624
 3896SOL     OW23320   1.526   0.471   4.268 -0.0048  0.2924  0.3567
 3896SOL    HW123321   1.566   0.557   4.280  2.1863 -0.7869  0.6681
 3896SOL    HW223322   1.484   0.449   4.351 -2.8900  1.9286 -0.6649
 3897SOL     OW23323   3.795   0.682   1.502  0.1537 -0.9234 -0.5163
 3897SOL    HW123324   3.878   0.729   1.502  0.4869 -1.5112  1.5067
 3897SOL    HW223325   3.820   0.590   1.515  0.6326 -0.7000  0.1044
 3898SOL     OW23326   0.210   4.612   8.570  0.1667 -0.1761 -0.0332
 3898SOL    HW123327   0.171   4.532   8.534 -2.5029  0.9951  0.2230
 3898SOL    HW223328   0.129   4.664   8.571 -1.4306 -2.6288 -0.3218
 3899SOL     OW23329   4.071   2.352   5.849 -0.4091  0.4446  0.2395
 3899SOL    HW123330   4.115   2.272   5.876 -1.0145 -0.0351 -0.1708
 3899SOL    HW223331   3.978   2.329   5.848 -0.8527  2.1999  1.7054
 3900SOL     OW23332   3.740   0.239   4.477  0.0903  0.1106  0.5273
 3900SOL    HW123333   3.766   0.164   4.531 -0.4722  0.3031  1.0605
 3900SOL    HW223334   3.666   0.209   4.425  0.2825  1.2639 -0.4170
 3901SOL     OW23335   3.604   0.999   8.630  0.0205  0.4023  0.5778
 3901SOL    HW123336   3.629   0.909   8.651  1.1693 -0.1328 -3.2127
 3901SOL    HW223337   3.692   1.030   8.612 -1.0144  3.4425  0.6103
 3902SOL     OW23338   1.685   4.513  10.420  0.3920  0.0746 -0.3670
 3902SOL    HW123339   1.614   4.574  10.438 -0.2545 -1.0932  1.0599
 3902SOL    HW223340   1.753   4.563  10.374  1.5874  0.2521  1.5956
 3903SOL     OW23341   4.483   3.720  13.381  0.1061 -0.5901  0.4168
 3903SOL    HW123342   4.508   3.812  13.376 -0.2099 -0.5358 -0.2832
 3903SOL    HW223343   4.428   3.730  13.458 -2.2627  0.9357 -1.4648
 3904SOL     OW23344   2.587   4.680   0.214  0.2984  0.1839 -0.4845
 3904SOL    HW123345   2.556   4.735   0.285 -1.4122 -1.0835 -0.2608
 3904SOL    HW223346   2.669   4.723   0.192 -0.0621  0.7434 -0.7437
 3905SOL     OW23347   3.361   1.972   3.251 -0.3070  0.7105  0.2322
 3905SOL    HW123348   3.348   2.000   3.341  0.6909 -0.1931  0.6517
 3905SOL    HW223349   3.311   1.891   3.246  0.0114  0.5146  0.2507
 3906SOL     OW23350   0.536   0.323   0.319  0.0601 -0.0072  0.4346
 3906SOL    HW123351   0.505   0.401   0.273  0.1962  0.8840  1.8583
 3906SOL    HW223352   0.609   0.285   0.271 -0.4651 -1.0107  0.4330
 3907SOL     OW23353   3.126   3.009   5.913  0.1512  0.3262  0.2352
 3907SOL    HW123354   3.038   2.988   5.885  1.6382 -1.2564 -3.1617
 3907SOL    HW223355   3.169   2.924   5.910  0.7820  0.7085 -1.7435
 3908SOL     OW23356   2.335   4.183   6.522 -0.3841  0.2054 -0.4121
 3908SOL    HW123357   2.358   4.121   6.591  0.2564 -0.1072 -0.9027
 3908SOL    HW223358   2.250   4.164   6.482 -0.1428  0.6012 -1.1181
 3909SOL     OW23359   2.308   3.538   3.483 -0.0538  0.0256 -0.5469
 3909SOL    HW123360   2.284   3.599   3.414 -0.4565  0.3005 -0.1617
 3909SOL    HW223361   2.403   3.532   3.472  0.1286  0.9697  0.4775
 3910SOL     OW23362   4.261   4.379   7.957  0.6091 -0.5025  0.0777
 3910SOL    HW123363   4.308   4.347   8.034 -0.5067  1.1424  1.4103
 3910SOL    HW223364   4.254   4.305   7.896  0.9084 -0.5947  0.1519
 3911SOL     OW23365   0.340   4.622   7.935 -0.2279  0.2072 -0.3854
 3911SOL    HW123366   0.279   4.667   7.877 -2.8166 -0.4557  1.8486
 3911SOL    HW223367   0.311   4.650   8.022  0.3286 -0.7205  0.0914
 3912SOL     OW23368   2.060   0.153   5.344  0.2964 -0.6280  0.1922
 3912SOL    HW123369   2.109   0.071   5.337 -0.3079 -0.9159 -0.7103
 3912SOL    HW223370   1.972   0.116   5.354  0.0764  0.2056  1.2731
 3913SOL     OW23371   0.011   4.120   6.200 -0.1361 -0.3088  0.1940
 3913SOL    HW123372   4.685   4.137   6.270  1.2266  0.1852  1.2760
 3913SOL    HW223373   0.037   4.212   6.196  0.3676 -0.4099  1.1499
 3914SOL     OW23374   0.208   3.719   6.062  0.0384  0.6454  0.1001
 3914SOL    HW123375   0.164   3.770   6.130 -0.8168  1.2482 -0.8949
 3914SOL    HW223376   0.130   3.666   6.042 -0.4165  1.0588  0.7823
 3915SOL     OW23377   0.948   2.010  11.105  0.2645 -0.4645  0.2597
 3915SOL    HW123378   0.974   2.054  11.186  1.7358 -0.4218 -0.2417
 3915SOL    HW223379   0.879   1.946  11.124  0.6032 -1.3658 -1.5855
 3916SOL     OW23380   3.008   0.775   2.627 -0.2272 -0.3489 -0.1114
 3916SOL    HW123381   3.101   0.772   2.605 -0.3266  2.5809 -0.8320
 3916SOL    HW223382   3.016   0.775   2.722  0.7240  2.9087 -0.1973
 3917SOL     OW23383   1.945   2.422   6.740  0.0469  0.5370 -0.0139
 3917SOL    HW123384   1.860   2.412   6.695  0.4621  2.2479 -1.2095
 3917SOL    HW223385   1.955   2.331   6.766  0.0503  1.2083  2.3562
 3918SOL     OW23386   0.278   3.649   4.811 -0.2553  0.5565 -0.3474
 3918SOL    HW123387   0.296   3.557   4.832  0.0158  0.5840 -0.4553
 3918SOL    HW223388   0.325   3.647   4.727  0.9237 -0.8297  0.3310
 3919SOL     OW23389   1.570   0.679   9.532  0.0771  0.8418  1.0009
 3919SOL    HW123390   1.576   0.682   9.437 -0.6430 -1.9259  0.8643
 3919SOL    HW223391   1.657   0.663   9.570  0.6408 -1.4350 -1.2284
 3920SOL     OW23392   0.220   3.566   0.278  0.0210  0.7045 -0.4254
 3920SOL    HW123393   0.141   3.588   0.326  1.4628 -1.6035  3.0080
 3920SOL    HW223394   0.209   3.472   0.291 -1.7141  0.9587 -0.1017
 3921SOL     OW23395   4.027   4.597  14.457 -0.1037  0.8584  0.0734
 3921SOL    HW123396   4.044   4.588  14.364  0.9065 -3.7116  0.7055
 3921SOL    HW223397   4.081   4.670  14.487  0.4217 -0.7318  3.0523
 3922SOL     OW23398   2.599   1.073   0.927 -0.0462 -0.0279 -0.0970
 3922SOL    HW123399   2.614   1.088   1.021 -0.1616 -1.7901  0.1999
 3922SOL    HW223400   2.686   1.091   0.890  0.0117 -0.8327 -0.3466
 3923SOL     OW23401   3.032   2.349   5.723  0.3688 -0.2812 -0.1491
 3923SOL    HW123402   3.077   2.276   5.765  1.8316 -0.4091 -1.9507
 3923SOL    HW223403   3.096   2.413   5.693  0.9307 -0.6248  0.3147
 3924SOL     OW23404   0.164   1.065   7.362  0.4183  0.1623  0.7148
 3924SOL    HW123405   0.126   1.043   7.447  0.9407 -0.8292  0.6874
 3924SOL    HW223406   0.255   1.046   7.384  0.0108 -0.6516  1.6891
 3925SOL     OW23407   4.611   3.906   8.752 -0.3889  0.1425  0.1779
 3925SOL    HW123408   4.537   3.872   8.802 -0.3543  2.0239  1.4715
 3925SOL    HW223409   4.682   3.855   8.791  1.3544  2.4289  0.0100
 3926SOL     OW23410   4.671   3.530  17.235  0.4035  0.0317  0.0453
 3926SOL    HW123411   4.647   3.566  17.150 -0.2462 -2.1380 -0.7025
 3926SOL    HW223412   4.730   3.596  17.271  1.7466 -0.2462 -1.6302
 3927SOL     OW23413   3.014   4.587   2.347 -0.0711 -0.0811 -0.1319
 3927SOL    HW123414   3.036   4.668   2.301 -1.6296  1.3797  1.6824
 3927SOL    HW223415   2.938   4.612   2.400 -1.0341  1.5250 -2.2756
 3928SOL     OW23416   0.044   4.174   0.093 -0.4574 -0.5296  0.1088
 3928SOL    HW123417   0.118   4.115   0.104  0.0401  0.2494  0.9514
 3928SOL    HW223418   4.726   4.173   0.172  0.7832  2.1398  0.9659
 3929SOL     OW23419   4.315   4.338   8.598 -0.3911 -0.0856 -0.1509
 3929SOL    HW123420   4.234   4.329   8.547 -1.4178  1.5753  1.1843
 3929SOL    HW223421   4.340   4.425   8.567  4.1496 -0.7924  1.5010
 3930SOL     OW23422   1.529   2.264  11.067 -0.0133  0.7961 -0.2091
 3930SOL    HW123423   1.488   2.258  10.981  1.6656  0.8404 -1.0126
 3930SOL    HW223424   1.586   2.341  11.062  0.0348  0.9753  2.7064
 3931SOL     OW23425   4.537   2.034   3.802 -0.2572  0.0770  0.2574
 3931SOL    HW123426   4.545   2.030   3.707 -0.9972 -0.2639  0.2125
 3931SOL    HW223427   4.461   1.979   3.821  1.5375 -1.7619  2.1197
 3932SOL     OW23428   2.557   1.530   5.862 -0.3880  0.5034  0.2996
 3932SOL    HW123429   2.474   1.482   5.857  0.0772  0.0020 -2.4378
 3932SOL    HW223430   2.526   1.611   5.820 -1.3527 -0.4850 -0.9284
 3933SOL     OW23431   2.463   1.833   0.169  0.6051  0.2950 -0.7667
 3933SOL    HW123432   2.412   1.764   0.128  0.8083 -0.2205 -0.1367
 3933SOL    HW223433   2.408   1.846   0.246  1.1436 -0.4581 -0.2659
 3934SOL     OW23434   3.992   2.711   1.460 -0.0590  0.1187  0.3955
 3934SOL    HW123435   3.899   2.698   1.478 -0.3894  0.6619 -0.8649
 3934SOL    HW223436   4.027   2.711   1.549  0.0081 -1.3875  0.3759
 3935SOL     OW23437   0.084   0.140  12.167 -0.5281  0.1593 -0.3933
 3935SOL    HW123438   0.167   0.112  12.206  0.3127  1.0835 -1.5452
 3935SOL    HW223439   0.023   0.142  12.241 -0.3731 -0.0323 -0.2588
 3936SOL     OW23440   3.760   4.406   2.307  0.0069 -0.5338  0.2267
 3936SOL    HW123441   3.688   4.402   2.244  1.4539 -0.6296 -1.4297
 3936SOL    HW223442   3.829   4.422   2.243  1.0002 -1.0445  1.1698
 3937SOL     OW23443   2.110   2.725   4.049 -0.2354  0.6398  0.2732
 3937SOL    HW123444   2.148   2.688   3.970  2.0345  1.6278  0.8971
 3937SOL    HW223445   2.069   2.652   4.094  2.6377 -1.4517 -0.5566
 3938SOL     OW23446   1.155   1.397   1.957 -0.1254 -0.4665  0.0008
 3938SOL    HW123447   1.118   1.338   2.023 -0.7819 -1.9649 -1.6889
 3938SOL    HW223448   1.113   1.481   1.975 -1.0296 -0.8506 -0.3098
 3939SOL     OW23449   1.562   4.072   6.211  0.5590  0.5737  0.4466
 3939SOL    HW123450   1.518   4.013   6.150  2.3198  0.8487 -1.1005
 3939SOL    HW223451   1.651   4.070   6.177  1.9521  1.7486  4.0331
 3940SOL     OW23452   2.348   1.741   5.993  0.9545 -0.4255 -0.0467
 3940SOL    HW123453   2.347   1.653   6.033 -1.5616 -1.2840 -2.0296
 3940SOL    HW223454   2.271   1.789   6.022  0.7260 -1.9585  1.9528
 3941SOL     OW23455   2.781   2.826   3.626 -0.1038 -0.4118 -0.1221
 3941SOL    HW123456   2.841   2.873   3.569 -1.0178 -1.9738 -2.3414
 3941SOL    HW223457   2.717   2.802   3.559 -1.2397  0.2054  0.7317
 3942SOL     OW23458   0.234   1.836   6.987 -0.3849 -0.0890  0.3664
 3942SOL    HW123459   0.272   1.752   7.011 -0.2050 -0.8071 -2.4337
 3942SOL    HW223460   0.256   1.844   6.894 -0.3558  1.3626  0.4950
 3943SOL     OW23461   2.467   3.473   1.991 -0.6304 -0.0301  0.6472
 3943SOL    HW123462   2.447   3.379   1.994  0.2532 -0.1589  2.6595
 3943SOL    HW223463   2.448   3.493   2.083 -1.7857 -0.6026  0.5344
 3944SOL     OW23464   3.271   2.792   8.663  0.1376  0.8972  0.5655
 3944SOL    HW123465   3.335   2.812   8.731 -0.7969  2.0215  1.1124
 3944SOL    HW223466   3.200   2.768   8.722 -0.4866 -0.4925 -0.7474
 3945SOL     OW23467   2.638   1.997  16.516 -1.0259 -0.0777 -0.0725
 3945SOL    HW123468   2.553   2.036  16.496 -0.5068 -1.1117 -4.2682
 3945SOL    HW223469   2.680   1.999  16.430  1.3496  0.1217  1.0940
 3946SOL     OW23470   4.115   4.208  13.228 -0.2290 -0.1757  0.4350
 3946SOL    HW123471   4.174   4.214  13.152  0.2856  1.2320  0.9427
 3946SOL    HW223472   4.114   4.301  13.250 -1.3772 -0.6212  2.2853
 3947SOL     OW23473   3.131   4.149  10.122 -0.3265  0.4263  0.2087
 3947SOL    HW123474   3.169   4.204  10.053  0.5173 -1.9107 -1.1663
 3947SOL    HW223475   3.199   4.082  10.129  1.3386  2.1263  0.3504
 3948SOL     OW23476   3.905   0.301   7.710  0.4079 -0.4304 -0.0125
 3948SOL    HW123477   3.945   0.304   7.623 -0.7989 -1.7140 -0.6010
 3948SOL    HW223478   3.978   0.320   7.769  1.9954 -1.8614 -1.5178
 3949SOL     OW23479   0.722   0.983   2.422 -0.3129  0.5601  0.1328
 3949SOL    HW123480   0.659   1.054   2.434 -1.0106 -0.2268  1.1759
 3949SOL    HW223481   0.779   0.979   2.498 -0.2408  0.1827  0.0576
 3950SOL     OW23482   2.917   2.406   6.157 -0.1486 -0.3125 -0.4062
 3950SOL    HW123483   2.997   2.454   6.181 -0.0554 -0.7058  0.0805
 3950SOL    HW223484   2.920   2.435   6.066 -0.9205 -0.3992 -0.4600
 3951SOL     OW23485   0.020   0.051  15.425 -0.2873  0.1072  0.1551
 3951SOL    HW123486   4.692   4.736  15.373  0.5012 -0.2094 -0.5009
 3951SOL    HW223487   4.724   0.036  15.514 -2.2607 -1.1812 -0.7547
 3952SOL     OW23488   0.301   4.710  16.133 -0.1824  0.1378 -0.3210
 3952SOL    HW123489   0.274   4.725  16.042  1.1177 -3.0982 -1.2597
 3952SOL    HW223490   0.228   4.663  16.174 -0.5674  0.8263 -0.2247
 3953SOL     OW23491   2.041   3.871   9.014 -0.2428 -0.3715  0.1631
 3953SOL    HW123492   1.970   3.812   9.039  0.3817 -0.3306  2.0532
 3953SOL    HW223493   2.086   3.823   8.945 -2.3510  1.2574 -2.3212
 3954SOL     OW23494   4.623   2.603   6.473 -0.0715  0.1778  0.0032
 3954SOL    HW123495   4.654   2.531   6.418 -3.3964 -0.8562 -0.5183
 3954SOL    HW223496   4.672   2.580   6.552  2.5321  0.4317 -1.5358
 3955SOL     OW23497   0.813   1.259   8.026 -0.0328 -0.4764 -0.3599
 3955SOL    HW123498   0.850   1.181   7.986 -1.8210 -1.0037 -1.0049
 3955SOL    HW223499   0.758   1.217   8.092  0.9605 -0.5587  0.4189
 3956SOL     OW23500   1.120   0.514   3.900 -0.0433 -0.2944 -0.2675
 3956SOL    HW123501   1.181   0.546   3.967 -1.7365  0.2705  1.0195
 3956SOL    HW223502   1.057   0.469   3.956  0.7394 -1.0287  0.0360
 3957SOL     OW23503   4.676   4.293   7.271  0.5104 -0.0976  0.2297
 3957SOL    HW123504   0.035   4.298   7.265  0.3834  1.6297 -0.3385
 3957SOL    HW223505   4.653   4.386   7.269 -0.4727 -0.3753 -1.2651
 3958SOL     OW23506   1.713   2.971   8.858 -0.5629  0.4132  0.1434
 3958SOL    HW123507   1.625   3.004   8.843 -0.9763 -0.9706 -0.3998
 3958SOL    HW223508   1.758   3.043   8.814  3.3858 -1.6412  0.8052
 3959SOL     OW23509   2.828   4.169   6.827 -0.0522  0.2321  0.5426
 3959SOL    HW123510   2.806   4.077   6.840 -1.6974  0.9640  2.9297
 3959SOL    HW223511   2.913   4.189   6.865  1.0662 -1.7284 -0.9364
 3960SOL     OW23512   0.878   0.829   4.451  0.0999 -0.3551 -0.4832
 3960SOL    HW123513   0.888   0.766   4.380 -0.3407  0.0701 -0.9206
 3960SOL    HW223514   0.813   0.789   4.509 -1.6292 -0.2113 -2.2980
 3961SOL     OW23515   0.249   2.595   2.750 -0.3215 -0.6125  0.2929
 3961SOL    HW123516   0.154   2.606   2.755 -0.4220 -1.5132  0.4365
 3961SOL    HW223517   0.253   2.511   2.795 -1.1824 -1.7683 -1.7917
 3962SOL     OW23518   1.063   3.013   3.115  0.3512 -0.0750  0.0687
 3962SOL    HW123519   1.065   2.918   3.124  0.1759 -0.1203 -0.4167
 3962SOL    HW223520   1.038   3.014   3.023 -5.3200  1.4782  1.6153
 3963SOL     OW23521   4.209   0.040   4.365  0.2152 -0.2312 -1.0659
 3963SOL    HW123522   4.132   0.020   4.312 -0.6994 -0.5957  0.3798
 3963SOL    HW223523   4.247   4.690   4.380  3.5328  1.3775 -0.3254
 3964SOL     OW23524   0.611   3.922   2.861  0.1915 -0.0403 -0.5048
 3964SOL    HW123525   0.638   4.009   2.832  0.3362  0.1115  0.0795
 3964SOL    HW223526   0.563   3.946   2.940  2.7798  0.9124  0.8002
 3965SOL     OW23527   4.233   0.788   6.910  0.0202 -0.0132  0.2520
 3965SOL    HW123528   4.159   0.731   6.891  0.2491  0.6423 -2.6569
 3965SOL    HW223529   4.188   0.873   6.909 -0.7881 -0.4571 -0.3880
 3966SOL     OW23530   0.872   1.802   2.824 -0.1155  0.3609 -0.4100
 3966SOL    HW123531   0.946   1.860   2.843 -0.7960  0.7936  0.9365
 3966SOL    HW223532   0.822   1.852   2.759 -0.9456  2.2915  1.7112
 3967SOL     OW23533   3.014   0.090  12.333  0.1800 -0.2161 -0.1435
 3967SOL    HW123534   3.012   0.185  12.344 -2.6540 -0.2698 -0.2623
 3967SOL    HW223535   3.086   0.059  12.388  0.1141  0.7642  0.4905
 3968SOL     OW23536   4.537   2.726   2.707 -0.2867 -0.0849  0.1622
 3968SOL    HW123537   4.498   2.751   2.791 -0.8631  1.4976 -0.5846
 3968SOL    HW223538   4.479   2.761   2.639  0.9112  1.3867 -0.1015
 3969SOL     OW23539   1.496   2.685   3.120  0.3082  0.3528 -0.0139
 3969SOL    HW123540   1.440   2.622   3.167 -1.2993  1.9327  0.1640
 3969SOL    HW223541   1.540   2.629   3.056 -0.7201  0.5294 -0.8869
 3970SOL     OW23542   1.702   0.508   2.960  0.0624 -0.4707 -0.1494
 3970SOL    HW123543   1.726   0.573   3.027 -2.1433 -0.4506  0.6146
 3970SOL    HW223544   1.781   0.518   2.906  0.5334 -1.3130  0.3785
 3971SOL     OW23545   0.687   4.708   6.408  0.2794  0.7071 -0.0259
 3971SOL    HW123546   0.661   0.006   6.493  0.6653 -0.2820  0.4876
 3971SOL    HW223547   0.778   4.687   6.426  1.3635  3.0419 -2.7662
 3972SOL     OW23548   0.418   1.463   4.292 -0.3080  0.1903 -0.2127
 3972SOL    HW123549   0.435   1.436   4.383  0.6569  0.1281 -0.4077
 3972SOL    HW223550   0.344   1.406   4.273  0.9339 -0.9802 -1.4963
 3973SOL     OW23551   1.291   0.282  11.222 -0.1703 -0.1609  0.1994
 3973SOL    HW123552   1.197   0.266  11.211 -0.1638 -0.2829  0.3229
 3973SOL    HW223553   1.303   0.370  11.185  0.6696 -0.3470  0.0113
 3974SOL     OW23554   3.139   1.368  11.496 -0.1696 -0.3043  0.5145
 3974SOL    HW123555   3.221   1.372  11.448 -0.0893 -1.4952  0.5415
 3974SOL    HW223556   3.137   1.453  11.540  0.3522 -0.1671  0.2687
 3975SOL     OW23557   4.674   1.731   7.470 -0.2034  0.4286  0.0975
 3975SOL    HW123558   4.583   1.709   7.449  0.3223 -1.8599  0.2058
 3975SOL    HW223559   4.689   1.692   7.556 -1.1331 -0.5909 -0.2132
 3976SOL     OW23560   0.591   3.110  17.259 -0.7267 -0.1711 -0.4730
 3976SOL    HW123561   0.641   3.029  17.258 -0.8203 -0.2397  0.0753
 3976SOL    HW223562   0.653   3.151  17.320 -0.0958  0.3319 -1.4460
 3977SOL     OW23563   2.650   0.049  11.359  0.4121  0.0034 -0.1877
 3977SOL    HW123564   2.659   0.109  11.433  0.1305  0.4489 -0.5215
 3977SOL    HW223565   2.745   0.040  11.347  0.3902 -0.6457  0.0976
 3978SOL     OW23566   2.324   3.543   5.057 -0.9795  0.4204 -0.1340
 3978SOL    HW123567   2.299   3.453   5.036 -1.0070  0.5411 -0.6169
 3978SOL    HW223568   2.240   3.577   5.090 -1.0936  1.2647 -1.3148
 3979SOL     OW23569   4.597   0.722  10.573  0.1856  0.3859  0.1530
 3979SOL    HW123570   4.683   0.751  10.604  0.8323 -1.2244 -0.1641
 3979SOL    HW223571   4.613   0.631  10.596 -2.0364  0.1611  0.7907
 3980SOL     OW23572   4.585   2.589  16.510 -0.1505 -0.0191 -0.0841
 3980SOL    HW123573   4.552   2.673  16.480  1.3070 -0.4390 -2.8459
 3980SOL    HW223574   4.628   2.616  16.592 -0.8692  1.0950 -0.0765
 3981SOL     OW23575   0.329   4.291   9.902  0.1996  0.0274  0.3046
 3981SOL    HW123576   0.405   4.334   9.865 -0.4124 -0.8787 -2.0064
 3981SOL    HW223577   0.277   4.362   9.940 -0.2556  0.9929 -2.1515
 3982SOL     OW23578   1.910   4.054   8.250 -0.1831 -0.3342 -0.2151
 3982SOL    HW123579   1.861   4.123   8.206  2.5621  1.2148 -0.8336
 3982SOL    HW223580   1.932   4.003   8.172  0.5262 -1.0839  0.4694
 3983SOL     OW23581   3.466   1.451   6.740 -0.0538 -0.2852 -1.4018
 3983SOL    HW123582   3.427   1.363   6.737  1.8638 -1.1817  0.0887
 3983SOL    HW223583   3.522   1.449   6.818  0.7477  1.1280 -1.9591
 3984SOL     OW23584   2.444   0.341   7.474  0.6479 -0.3870 -0.3288
 3984SOL    HW123585   2.405   0.411   7.422  1.3563  0.7515  0.6610
 3984SOL    HW223586   2.538   0.358   7.473  0.7826 -1.0784  0.0792
 3985SOL     OW23587   2.553   4.166   0.574  0.1032  0.0233  1.1826
 3985SOL    HW123588   2.596   4.140   0.655  0.3225 -0.7823  0.8126
 3985SOL    HW223589   2.631   4.158   0.519  1.6740  0.2800  3.4140
 3986SOL     OW23590   3.544   2.201  15.735  0.4862  0.1290  0.6450
 3986SOL    HW123591   3.523   2.294  15.734  0.5757  0.1255 -1.8145
 3986SOL    HW223592   3.640   2.199  15.733  0.4034 -2.7781 -0.0051
 3987SOL     OW23593   2.384   4.403   1.638  0.1163 -0.1662 -0.2767
 3987SOL    HW123594   2.461   4.456   1.619  0.4682 -0.6094 -0.0793
 3987SOL    HW223595   2.391   4.398   1.734  0.8960  1.8417 -0.2247
 3988SOL     OW23596   0.391   1.770  10.010  0.0359  0.0517 -0.2108
 3988SOL    HW123597   0.457   1.702  10.000 -0.8578 -0.9088  0.3955
 3988SOL    HW223598   0.434   1.815  10.082 -2.3093  0.0225  1.2225
 3989SOL     OW23599   4.595   2.880   7.489  0.3052  0.1276 -0.1118
 3989SOL    HW123600   4.538   2.878   7.566  1.4747 -1.3584  0.7047
 3989SOL    HW223601   4.528   2.908   7.426 -0.4436 -1.2909  0.0580
 3990SOL     OW23602   4.372   3.730  13.113 -0.0868 -0.3098 -0.6601
 3990SOL    HW123603   4.438   3.712  13.180  0.3009 -1.3166 -1.3106
 3990SOL    HW223604   4.350   3.640  13.091  1.0017 -0.0389 -2.8174
 3991SOL     OW23605   2.835   1.708   0.280  0.0168  0.0092 -0.2635
 3991SOL    HW123606   2.792   1.679   0.199 -0.0086  0.6363 -0.4716
 3991SOL    HW223607   2.922   1.670   0.269 -1.3910 -3.0484 -0.8203
 3992SOL     OW23608   2.470   2.285   5.567  0.9663  0.1972  0.7093
 3992SOL    HW123609   2.412   2.307   5.494  2.1835 -1.0406 -0.6203
 3992SOL    HW223610   2.547   2.341   5.561  0.5973  0.8819  2.3935
 3993SOL     OW23611   4.198   2.901   7.574 -0.0844 -0.3757  0.7569
 3993SOL    HW123612   4.242   2.817   7.587  1.9197  0.9085  2.1966
 3993SOL    HW223613   4.178   2.924   7.665 -3.1150 -1.5993  0.3904
 3994SOL     OW23614   0.978   0.155   6.579 -0.2100  0.1807 -0.8667
 3994SOL    HW123615   1.022   0.103   6.512  0.8278  1.1473 -0.9509
 3994SOL    HW223616   0.947   0.091   6.642  0.4473  1.1006  0.3993
 3995SOL     OW23617   0.171   2.001   8.165  0.1532  0.0260  0.1824
 3995SOL    HW123618   0.256   1.975   8.202 -0.0594 -1.5717 -0.4561
 3995SOL    HW223619   0.111   1.954   8.223 -1.6083  0.9397 -0.9037
 3996SOL     OW23620   2.694   1.057  13.788 -0.9628 -0.1111 -0.2022
 3996SOL    HW123621   2.779   1.014  13.778  0.9207  3.4528  0.3130
 3996SOL    HW223622   2.677   1.086  13.699 -0.6110  4.4179  1.1937
 3997SOL     OW23623   0.076   0.718   2.545  0.2469 -0.1744 -0.0067
 3997SOL    HW123624   4.725   0.721   2.504  0.5378  1.2429 -0.5284
 3997SOL    HW223625   0.136   0.760   2.483 -0.4236  0.7616 -0.0290
 3998SOL     OW23626   4.373   3.692   8.748 -0.1992  0.0824 -1.0731
 3998SOL    HW123627   4.394   3.653   8.663  1.0833 -0.1713 -0.6435
 3998SOL    HW223628   4.403   3.620   8.803 -0.6974  0.3738 -0.4310
 3999SOL     OW23629   2.718   2.833   5.834  0.0817  0.9388  0.3023
 3999SOL    HW123630   2.744   2.777   5.907  0.2658 -2.6271 -2.5090
 3999SOL    HW223631   2.624   2.838   5.855  0.1507  0.6720  0.6826
 4000SOL     OW23632   1.282   0.784   5.250 -0.9056 -0.4133 -0.2168
 4000SOL    HW123633   1.291   0.879   5.263 -0.2649 -0.4672 -0.2365
 4000SOL    HW223634   1.317   0.765   5.337 -3.2643  2.4371  1.3282
 4001SOL     OW23635   3.913   0.031   3.682  0.0763  0.4384 -0.7803
 4001SOL    HW123636   3.901   0.065   3.594 -0.5826  1.5925 -0.2497
 4001SOL    HW223637   3.978   0.087   3.725  0.4041  0.8568 -1.8354
 4002SOL     OW23638   1.127   3.072   5.135 -0.1437  0.0153 -0.0049
 4002SOL    HW123639   1.212   3.107   5.160  1.6295 -2.5786 -2.4126
 4002SOL    HW223640   1.102   3.138   5.071  0.4640 -1.3498 -1.6495
 4003SOL     OW23641   4.022   1.868   2.020 -0.0005 -0.5913  0.1945
 4003SOL    HW123642   4.054   1.810   1.951 -0.3665 -3.8670  2.7610
 4003SOL    HW223643   4.063   1.950   1.993 -0.6712 -0.3360 -0.0494
 4004SOL     OW23644   1.912   3.121   5.637  0.0686  0.0627 -0.0256
 4004SOL    HW123645   1.978   3.057   5.666  1.7665  2.0231  0.4749
 4004SOL    HW223646   1.961   3.202   5.617  0.6584 -0.1775  0.4429
 4005SOL     OW23647   4.642   4.395   5.134 -0.5237 -0.4657 -0.2847
 4005SOL    HW123648   4.661   4.319   5.188 -0.3562  0.7566  1.3760
 4005SOL    HW223649   4.720   4.443   5.159 -2.1181  0.5122  2.8076
 4006SOL     OW23650   4.453   2.718   5.033  0.3339  0.2025 -0.3332
 4006SOL    HW123651   4.397   2.648   5.000 -0.7864  1.5320 -1.2301
 4006SOL    HW223652   4.425   2.785   4.971  0.4214  1.0809  0.5718
 4007SOL     OW23653   1.621   3.522   1.199 -0.1731 -0.8501  0.1380
 4007SOL    HW123654   1.574   3.478   1.270 -0.9029  0.1450  0.2818
 4007SOL    HW223655   1.678   3.574   1.255  0.0346 -1.9577  0.9514
 4008SOL     OW23656   2.198   0.578   6.852 -0.2653 -0.3636 -0.0532
 4008SOL    HW123657   2.197   0.485   6.877 -1.1247 -0.1696  0.6218
 4008SOL    HW223658   2.289   0.606   6.839 -0.9736  2.3127  0.7828
 4009SOL     OW23659   1.191   3.644   2.726 -0.3508 -0.3788  0.2040
 4009SOL    HW123660   1.262   3.582   2.713 -0.4987 -0.3714 -0.6217
 4009SOL    HW223661   1.113   3.594   2.701 -0.3111  0.4175 -1.4424
 4010SOL     OW23662   1.054   1.475  10.997 -0.1780 -0.1168 -0.2740
 4010SOL    HW123663   1.026   1.566  11.013  0.8637  0.2097 -0.3130
 4010SOL    HW223664   0.972   1.433  10.972 -0.5258  0.2734  0.2000
 4011SOL     OW23665   0.543   0.499   5.457  0.4376  0.2898 -0.3161
 4011SOL    HW123666   0.550   0.490   5.362 -2.5391 -0.1818 -0.5117
 4011SOL    HW223667   0.475   0.567   5.456  1.2212  1.0811  0.4645
 4012SOL     OW23668   2.649   1.576   6.994  0.0316  0.2449  0.0119
 4012SOL    HW123669   2.726   1.565   6.939 -0.5309  1.5623 -1.0254
 4012SOL    HW223670   2.607   1.492   6.974 -1.7990 -0.2782  6.1061
 4013SOL     OW23671   1.565   3.558  12.632 -0.0534 -0.0647 -0.4656
 4013SOL    HW123672   1.574   3.653  12.646  0.3401 -0.0133 -1.0457
 4013SOL    HW223673   1.644   3.552  12.579  0.0915  1.6616 -0.4696
 4014SOL     OW23674   0.985   4.324   2.367 -0.1515 -0.1302  0.6946
 4014SOL    HW123675   1.072   4.337   2.330 -0.2337 -0.2229  0.4657
 4014SOL    HW223676   0.927   4.326   2.290  1.1435  0.8533 -0.2501
 4015SOL     OW23677   1.964   2.738  12.681  0.2596 -0.2898 -0.5855
 4015SOL    HW123678   1.977   2.825  12.718 -0.0932 -0.1550 -0.7838
 4015SOL    HW223679   1.954   2.756  12.588 -2.0864  0.8369 -0.1127
 4016SOL     OW23680   1.732   2.138   3.652 -1.1111 -0.3287 -0.8418
 4016SOL    HW123681   1.738   2.070   3.585 -0.4620 -0.7078 -0.3987
 4016SOL    HW223682   1.717   2.214   3.595  1.0158  1.9622  1.6267
 4017SOL     OW23683   2.869   4.422   4.478  0.5699  0.0907  0.2179
 4017SOL    HW123684   2.908   4.486   4.538 -1.6119  0.4896  1.2087
 4017SOL    HW223685   2.830   4.485   4.418  1.2155  1.4693  1.2454
 4018SOL     OW23686   2.225   2.008   2.910 -0.4373 -0.2838 -0.3362
 4018SOL    HW123687   2.319   2.013   2.923 -0.6034  2.0801  0.0615
 4018SOL    HW223688   2.212   2.051   2.825 -2.9818 -0.4609 -0.0399
 4019SOL     OW23689   2.532   2.028   4.249 -0.3893 -0.2565 -0.1613
 4019SOL    HW123690   2.478   2.063   4.320  0.0569  0.4781 -0.1941
 4019SOL    HW223691   2.600   2.095   4.256 -0.0047 -0.5716 -0.9338
 4020SOL     OW23692   1.695   3.409   9.107 -0.7591 -0.4593 -0.0328
 4020SOL    HW123693   1.763   3.345   9.128  0.9465  1.4291  0.1684
 4020SOL    HW223694   1.730   3.431   9.021 -0.1214 -0.0787  0.3280
 4021SOL     OW23695   1.365   0.474   1.727  0.4101  0.1553  0.1847
 4021SOL    HW123696   1.333   0.545   1.782 -1.9722 -0.9495  0.2336
 4021SOL    HW223697   1.312   0.399   1.756 -0.3458  1.0128  0.9927
 4022SOL     OW23698   0.795   3.224   6.617  0.2465  0.1024 -0.0770
 4022SOL    HW123699   0.738   3.252   6.690  1.8971 -1.3378  1.7339
 4022SOL    HW223700   0.855   3.299   6.613  0.5830 -0.0516  2.3391
 4023SOL     OW23701   3.023   2.268   6.911 -0.1569  0.0872 -0.3942
 4023SOL    HW123702   3.071   2.251   6.830 -2.4808  0.1479 -1.7712
 4023SOL    HW223703   2.942   2.218   6.913  1.2385 -2.1286  0.0047
 4024SOL     OW23704   3.346   3.476   7.070  0.0076 -0.0176  0.2217
 4024SOL    HW123705   3.440   3.460   7.081 -0.1785  0.0806  1.9705
 4024SOL    HW223706   3.330   3.505   7.159 -1.0821 -0.2949  0.1069
 4025SOL     OW23707   1.612   2.289  14.307 -0.0981 -0.0742  0.1857
 4025SOL    HW123708   1.579   2.293  14.218  0.7611  0.7442 -0.0962
 4025SOL    HW223709   1.557   2.221  14.345 -0.9992  0.7192  0.3015
 4026SOL     OW23710   1.561   2.289  17.349 -0.2395  0.2664 -0.3930
 4026SOL    HW123711   1.471   2.278  17.380 -0.3884  0.5626 -0.7184
 4026SOL    HW223712   1.546   2.259  17.259 -0.5549 -0.0983 -0.2223
 4027SOL     OW23713   1.972   2.815   6.940 -0.2513  0.0522  0.4066
 4027SOL    HW123714   1.976   2.876   6.866  0.9873 -0.0581  0.3754
 4027SOL    HW223715   1.918   2.752   6.891  1.1196  0.0552 -1.1440
 4028SOL     OW23716   1.290   0.753   3.595  0.2551 -0.0784 -0.3555
 4028SOL    HW123717   1.283   0.659   3.609  1.0333 -0.0132  0.4595
 4028SOL    HW223718   1.386   0.757   3.585  0.1804  1.7083 -0.3695
 4029SOL     OW23719   1.982   4.110   6.731  0.2498  0.1236 -0.5161
 4029SOL    HW123720   2.043   4.124   6.803 -0.6512 -1.4973  0.5646
 4029SOL    HW223721   1.996   4.018   6.708 -1.4414  0.1067 -1.4891
 4030SOL     OW23722   1.459   1.066  12.673 -0.5698 -0.1707  0.0320
 4030SOL    HW123723   1.448   0.972  12.666  1.6188 -0.3850 -0.7721
 4030SOL    HW223724   1.449   1.099  12.584  0.2663 -1.1817 -0.4325
 4031SOL     OW23725   2.847   0.174   5.263 -0.2996 -0.2102 -0.7193
 4031SOL    HW123726   2.923   0.169   5.204 -0.4194  1.4295 -1.0145
 4031SOL    HW223727   2.792   0.242   5.223 -0.9146 -1.4953 -2.0975
 4032SOL     OW23728   1.331   1.477   7.094 -0.7884  0.4227 -0.8600
 4032SOL    HW123729   1.262   1.505   7.034 -0.8479 -0.5965 -1.2569
 4032SOL    HW223730   1.370   1.561   7.119 -0.2452 -0.5326  1.5004
 4033SOL     OW23731   1.986   3.627   3.453  0.2495  0.3485 -0.4319
 4033SOL    HW123732   2.055   3.661   3.396  1.3891  0.8179  1.2330
 4033SOL    HW223733   1.929   3.703   3.465  0.0458  0.0780  0.3012
 4034SOL     OW23734   3.485   4.338   4.749  0.0594  0.5535 -0.2775
 4034SOL    HW123735   3.504   4.285   4.826  0.3602 -0.9159 -1.3722
 4034SOL    HW223736   3.471   4.426   4.784 -0.8060 -0.2983  1.5177
 4035SOL     OW23737   3.117   1.545   1.978  0.3099  0.7390 -0.3121
 4035SOL    HW123738   3.050   1.527   2.043  0.4613 -1.1989 -0.7110
 4035SOL    HW223739   3.075   1.611   1.923  0.0930  0.3279 -0.6324
 4036SOL     OW23740   2.361   4.154   1.775  0.0436 -0.1099 -0.2230
 4036SOL    HW123741   2.366   4.087   1.843 -1.0407 -0.4161 -0.4495
 4036SOL    HW223742   2.289   4.112   1.727  0.1481 -0.4344 -0.0904
 4037SOL     OW23743   2.926   1.719   2.190  0.0716  0.0947  0.2688
 4037SOL    HW123744   2.915   1.718   2.285 -1.7196  0.5024  0.0674
 4037SOL    HW223745   2.902   1.632   2.158 -1.4089  0.1664  1.1875
 4038SOL     OW23746   2.882   0.091  16.974  0.7049 -0.4073 -0.1416
 4038SOL    HW123747   2.903   0.092  17.067 -0.0992 -3.2372  0.0605
 4038SOL    HW223748   2.964   0.094  16.924  0.8448 -1.6807  0.0208
 4039SOL     OW23749   4.436   4.363   9.403  0.0196  0.2652  0.2581
 4039SOL    HW123750   4.471   4.319   9.325  1.6871  1.8994  0.0987
 4039SOL    HW223751   4.491   4.441   9.395  0.8499 -0.0615  3.1984
 4040SOL     OW23752   2.687   3.970   4.773 -0.2491  0.0994 -0.4233
 4040SOL    HW123753   2.648   3.933   4.694 -2.4570  0.8151  0.3151
 4040SOL    HW223754   2.774   3.931   4.775 -0.7421 -0.9680  0.4664
 4041SOL     OW23755   3.290   0.259   6.189  0.4517  0.5112  0.3066
 4041SOL    HW123756   3.221   0.325   6.198 -1.0635 -1.2439  1.5586
 4041SOL    HW223757   3.250   0.184   6.232 -3.1181  1.0733 -2.0356
 4042SOL     OW23758   2.584   1.376   1.615  0.1024  0.1363 -1.1077
 4042SOL    HW123759   2.524   1.348   1.545  1.3810 -1.0629 -1.7121
 4042SOL    HW223760   2.544   1.340   1.694 -1.1905 -0.6323 -2.1131
 4043SOL     OW23761   4.619   1.116   5.419  0.4310 -0.1096 -0.6996
 4043SOL    HW123762   4.695   1.071   5.453 -0.9180 -4.0951 -2.9166
 4043SOL    HW223763   4.670   1.178   5.365  0.2522  0.1850 -0.5326
 4044SOL     OW23764   3.520   3.062   8.078  0.0684 -0.1927  0.1123
 4044SOL    HW123765   3.451   3.090   8.138  0.8388  1.7062  0.1076
 4044SOL    HW223766   3.469   2.997   8.029 -1.0413 -0.3336  1.4401
 4045SOL     OW23767   3.281   0.894   4.723 -0.0825 -0.4029 -0.0504
 4045SOL    HW123768   3.199   0.931   4.755  0.2058  0.2695 -0.1004
 4045SOL    HW223769   3.254   0.804   4.705  1.2211 -0.5570 -1.2350
 4046SOL     OW23770   3.744   4.372   5.136  0.1960  0.0229  0.0807
 4046SOL    HW123771   3.696   4.378   5.219 -1.4824 -0.2874 -0.8586
 4046SOL    HW223772   3.781   4.460   5.132 -1.8276  0.9490  1.7287
 4047SOL     OW23773   1.352   2.819   8.538  0.1592  0.0365  0.1711
 4047SOL    HW123774   1.436   2.831   8.582  2.0378 -0.5125 -3.1890
 4047SOL    HW223775   1.303   2.760   8.595 -1.6588  0.9426 -0.4430
 4048SOL     OW23776   3.617   4.688   5.670  0.2011 -0.4532 -0.0313
 4048SOL    HW123777   3.695   4.634   5.664  0.7542  0.2289  1.0033
 4048SOL    HW223778   3.655   0.040   5.674  0.5465 -0.6264  0.4394
 4049SOL     OW23779   3.987   2.802   8.457 -0.4036  0.6439 -0.3774
 4049SOL    HW123780   3.959   2.720   8.498  0.1801 -0.0310 -1.3202
 4049SOL    HW223781   4.041   2.844   8.524 -0.8949 -0.2929  0.6114
 4050SOL     OW23782   1.407   1.327   4.102  0.6676  0.3827 -0.5698
 4050SOL    HW123783   1.374   1.238   4.092  1.9155  0.0536 -1.8585
 4050SOL    HW223784   1.321   1.367   4.099  0.3724 -0.1445  0.9889
 4051SOL     OW23785   0.877   4.607  17.576  0.5647 -0.7963 -0.6563
 4051SOL    HW123786   0.841   4.521  17.553  2.3945 -1.1643 -2.0902
 4051SOL    HW223787   0.830   4.641  17.652  2.6869  0.1601  0.2201
 4052SOL     OW23788   3.476   3.983   7.716 -0.3884 -0.5727 -0.3283
 4052SOL    HW123789   3.487   4.062   7.767  1.8928 -2.4376  2.0437
 4052SOL    HW223790   3.414   3.997   7.644  1.6058 -0.8528 -2.1291
 4053SOL     OW23791   2.320   4.151   7.478 -0.3093  0.2070 -0.1224
 4053SOL    HW123792   2.353   4.143   7.568  0.2638  0.1460 -0.3358
 4053SOL    HW223793   2.251   4.216   7.488 -0.4850  0.1590 -1.0705
 4054SOL     OW23794   4.468   2.469   2.320 -0.1817  0.6802 -0.4619
 4054SOL    HW123795   4.384   2.424   2.323  1.5657 -2.5339  1.0063
 4054SOL    HW223796   4.492   2.468   2.412  0.4531 -0.6284 -0.6392
 4055SOL     OW23797   4.405   0.431   4.063 -0.3710 -0.0922  0.7816
 4055SOL    HW123798   4.494   0.408   4.037 -0.9287 -1.6599  0.2542
 4055SOL    HW223799   4.387   0.348   4.107 -0.9701 -0.4567 -0.1510
 4056SOL     OW23800   1.144   2.110   3.645  0.0306 -0.4402  0.4327
 4056SOL    HW123801   1.055   2.073   3.645 -0.3422  0.4416 -0.4496
 4056SOL    HW223802   1.167   2.123   3.736  0.1852  0.6933  0.2243
 4057SOL     OW23803   4.506   3.151   7.914 -0.0198  0.3265 -0.0706
 4057SOL    HW123804   4.481   3.116   7.829  2.9085  0.8774 -1.1490
 4057SOL    HW223805   4.420   3.166   7.954  0.2504 -1.3247  1.1218
 4058SOL     OW23806   2.013   1.105  13.612  0.1951 -0.3383 -0.2290
 4058SOL    HW123807   1.948   1.087  13.680  2.0810  2.5146  2.3157
 4058SOL    HW223808   2.096   1.091  13.657 -0.4000 -1.6763  0.4749
 4059SOL     OW23809   4.394   2.439   5.190 -0.3214  0.0192  0.2322
 4059SOL    HW123810   4.383   2.410   5.099  1.6391 -0.0883  0.0363
 4059SOL    HW223811   4.426   2.529   5.183  2.6013 -1.1687 -1.6119
 4060SOL     OW23812   4.072   0.566   2.683 -0.0107  0.1786  0.4758
 4060SOL    HW123813   4.115   0.650   2.701 -0.4229  0.3282  0.7482
 4060SOL    HW223814   3.992   0.592   2.638  0.7265  2.0205  0.1810
 4061SOL     OW23815   3.159   3.631   0.438 -0.1524 -0.1269 -0.0734
 4061SOL    HW123816   3.103   3.671   0.372  1.2596 -2.0914 -2.4878
 4061SOL    HW223817   3.104   3.553   0.450  2.2530 -2.0979 -1.8601
 4062SOL     OW23818   2.054   1.726   6.736 -0.2344 -0.3055  0.3942
 4062SOL    HW123819   2.116   1.780   6.785  0.9666 -0.4453 -0.9738
 4062SOL    HW223820   1.976   1.780   6.749 -1.1903 -1.5101 -0.3665
 4063SOL     OW23821   2.655   0.557   5.245 -0.5111 -0.3183 -0.1734
 4063SOL    HW123822   2.582   0.617   5.232 -0.9428 -1.1841 -1.7653
 4063SOL    HW223823   2.740   0.601   5.248 -0.3947 -0.6917  2.0922
 4064SOL     OW23824   3.056   3.511   7.716 -0.0113  0.6395 -0.0471
 4064SOL    HW123825   3.148   3.485   7.718  0.0598  0.7489 -1.9957
 4064SOL    HW223826   3.025   3.466   7.795  0.3604  3.2355  1.5719
 4065SOL     OW23827   2.647   1.958   2.298 -0.0502 -0.2821 -0.2588
 4065SOL    HW123828   2.667   1.998   2.382 -2.1201 -1.4160  0.7669
 4065SOL    HW223829   2.565   2.002   2.272  1.2536  1.5455 -1.3172
 4066SOL     OW23830   3.146   1.208   8.730  0.1360  0.1676 -0.3632
 4066SOL    HW123831   3.225   1.167   8.765  0.0647 -0.6861 -1.2074
 4066SOL    HW223832   3.162   1.295   8.766 -0.5604 -0.2650  1.0120
 4067SOL     OW23833   3.588   0.714  15.252  0.5222  0.0784  0.5437
 4067SOL    HW123834   3.650   0.645  15.231  1.4656  1.0900 -0.0347
 4067SOL    HW223835   3.527   0.727  15.179  1.1676 -2.3124 -0.4312
 4068SOL     OW23836   1.502   0.939   1.740  0.7597 -0.1545 -0.3172
 4068SOL    HW123837   1.567   0.880   1.701  1.5726  0.3142  0.3170
 4068SOL    HW223838   1.423   0.903   1.700 -0.5687  1.8231  0.5120
 4069SOL     OW23839   3.413   1.026   2.504  0.2212  0.1421  0.2050
 4069SOL    HW123840   3.334   1.077   2.486  0.9857  0.6430 -1.7203
 4069SOL    HW223841   3.440   1.060   2.589 -0.1439 -2.1329  1.2352
 4070SOL     OW23842   2.990   3.423   3.727  0.0109 -0.6007  1.1432
 4070SOL    HW123843   2.918   3.455   3.673  1.5886  0.7695 -0.1441
 4070SOL    HW223844   3.058   3.393   3.667 -1.2996 -1.1763 -0.0672
 4071SOL     OW23845   0.977   3.915   8.302 -0.0265 -0.7403 -0.1340
 4071SOL    HW123846   0.936   3.856   8.238 -2.1603 -1.3007  1.7451
 4071SOL    HW223847   0.910   3.983   8.298  1.9024  1.1127 -0.5727
 4072SOL     OW23848   0.332   2.825  13.021  0.5352 -0.1647 -0.2319
 4072SOL    HW123849   0.255   2.777  12.992 -0.4629  1.9310 -1.0469
 4072SOL    HW223850   0.385   2.751  13.051 -1.0460 -2.1934 -2.4247
 4073SOL     OW23851   3.623   3.784   2.822 -0.4021  0.2720  0.1157
 4073SOL    HW123852   3.638   3.798   2.915 -0.4117 -1.4312  0.3619
 4073SOL    HW223853   3.680   3.707   2.812 -0.1743  0.7322 -2.1262
 4074SOL     OW23854   2.784   0.821   6.207 -0.2091  0.7437 -0.0192
 4074SOL    HW123855   2.805   0.803   6.299  0.5311  0.2295 -0.2926
 4074SOL    HW223856   2.813   0.912   6.205 -2.8685  1.5975 -0.6639
 4075SOL     OW23857   4.100   1.029   3.425 -0.1357  0.9148 -0.2867
 4075SOL    HW123858   4.028   1.092   3.437 -1.4330 -0.8066  1.0168
 4075SOL    HW223859   4.040   0.959   3.398 -0.3878  1.4297 -1.0959
 4076SOL     OW23860   2.930   3.066   1.917  0.1390  0.6074 -0.3731
 4076SOL    HW123861   3.020   3.033   1.917 -0.5590 -1.2799  0.7588
 4076SOL    HW223862   2.891   3.011   1.850  1.3228  0.7609 -1.1940
 4077SOL     OW23863   1.317   0.451   2.070  0.2740  0.2220  0.5860
 4077SOL    HW123864   1.226   0.479   2.061  0.6638  0.3991 -2.5818
 4077SOL    HW223865   1.300   0.362   2.037 -0.8175  0.5494  0.2710
 4078SOL     OW23866   1.374   1.998  10.845 -0.4203 -0.5609 -0.2256
 4078SOL    HW123867   1.460   2.001  10.887 -0.0368  2.2729 -1.1872
 4078SOL    HW223868   1.382   2.041  10.760  0.5529  0.6674  0.4872
 4079SOL     OW23869   3.270   2.266   3.955 -0.4495 -0.1797  0.0592
 4079SOL    HW123870   3.273   2.248   3.861 -1.8907 -0.3516  0.0490
 4079SOL    HW223871   3.178   2.280   3.978 -0.6429 -0.4270 -0.5576
 4080SOL     OW23872   2.766   4.151   0.412  0.2026  0.5692  0.0154
 4080SOL    HW123873   2.812   4.233   0.397 -0.6404  0.8947 -0.8022
 4080SOL    HW223874   2.783   4.114   0.325 -3.8954 -0.1798 -0.4640
 4081SOL     OW23875   1.171   4.081   7.999 -0.5619 -0.6929 -0.8390
 4081SOL    HW123876   1.181   4.083   7.904  0.0789  2.3225 -0.7210
 4081SOL    HW223877   1.076   4.070   7.999 -0.8172  1.5216  0.5463
 4082SOL     OW23878   3.578   3.808  17.002 -0.7446  0.0032 -0.0040
 4082SOL    HW123879   3.604   3.891  16.962  3.1242 -1.8088 -1.2170
 4082SOL    HW223880   3.492   3.789  16.964 -0.8387  0.7447 -0.1581
 4083SOL     OW23881   2.623   0.596  11.832 -0.0137 -0.6572  0.0976
 4083SOL    HW123882   2.695   0.641  11.876  0.4127 -0.0424 -1.2206
 4083SOL    HW223883   2.553   0.658  11.854  0.2185  0.2481 -1.7405
 4084SOL     OW23884   1.587   1.689   5.180  0.3063  0.0406 -0.0963
 4084SOL    HW123885   1.498   1.682   5.147 -0.7836  1.7174  2.4367
 4084SOL    HW223886   1.562   1.689   5.273 -0.1631  1.9376 -0.2098
 4085SOL     OW23887   2.782   1.233   2.536  0.2541  0.0372  0.1063
 4085SOL    HW123888   2.688   1.230   2.551  0.1909  0.4883 -0.2077
 4085SOL    HW223889   2.778   1.288   2.458  2.7809  0.7846  0.5040
 4086SOL     OW23890   2.004   1.410   2.238 -0.1010  0.5910  0.6137
 4086SOL    HW123891   2.001   1.337   2.300 -1.7782  1.4117  1.4992
 4086SOL    HW223892   1.953   1.383   2.161  1.5347 -0.1314 -0.2028
 4087SOL     OW23893   4.116   3.000   7.815 -0.0995 -0.4942 -0.0189
 4087SOL    HW123894   4.091   3.091   7.831  1.0545 -0.3640  1.0074
 4087SOL    HW223895   4.154   2.973   7.898 -0.8685 -1.2273  0.0902
 4088SOL     OW23896   3.957   3.867   4.238  0.1218 -0.1042  0.2158
 4088SOL    HW123897   3.896   3.823   4.297  1.0254 -2.8148 -0.8522
 4088SOL    HW223898   4.027   3.869   4.303  2.1620  1.3730 -2.0491
 4089SOL     OW23899   1.493   1.925   8.694  0.1004 -0.1687 -0.9203
 4089SOL    HW123900   1.509   1.984   8.620 -0.9552  2.0753  0.6294
 4089SOL    HW223901   1.405   1.956   8.716 -0.2959 -2.8236  1.2068
 4090SOL     OW23902   1.029   4.093   5.154  0.5045 -0.5851  0.5024
 4090SOL    HW123903   0.977   4.017   5.129  0.2183 -0.5311  0.9242
 4090SOL    HW223904   1.051   4.071   5.245 -2.1210 -1.4129  0.9437
 4091SOL     OW23905   1.120   2.905   6.918  0.0832  0.4679  0.4215
 4091SOL    HW123906   1.099   2.827   6.867  1.4599  0.7122 -0.5107
 4091SOL    HW223907   1.183   2.950   6.862  1.6876 -2.2249  0.1312
 4092SOL     OW23908   1.376   1.544   5.033  0.2556  0.2209  0.1619
 4092SOL    HW123909   1.320   1.602   4.982 -0.5059  0.6574  1.4964
 4092SOL    HW223910   1.430   1.496   4.970  0.3083 -0.5178  0.7594
 4093SOL     OW23911   1.137   0.472   3.417  0.1146  0.0510  0.1946
 4093SOL    HW123912   1.212   0.462   3.358  1.0823 -4.4619  2.2507
 4093SOL    HW223913   1.178   0.483   3.503 -1.7869  0.8413  1.0023
 4094SOL     OW23914   2.074   0.501   5.437 -0.3145  0.0701 -0.7405
 4094SOL    HW123915   2.061   0.407   5.421 -0.5647  0.0226 -0.2337
 4094SOL    HW223916   2.169   0.507   5.429 -0.4400 -0.0538 -2.3328
 4095SOL     OW23917   0.263   4.322  10.626  0.4724 -0.2085  0.0466
 4095SOL    HW123918   0.311   4.357  10.702  0.0536  1.0008 -0.2655
 4095SOL    HW223919   0.335   4.302  10.566 -0.0052  1.8205 -1.1784
 4096SOL     OW23920   1.766   1.671   4.578  0.0304  0.4057 -0.3686
 4096SOL    HW123921   1.813   1.748   4.546  0.3299  0.2231 -0.3627
 4096SOL    HW223922   1.816   1.661   4.659 -0.0279 -0.0226 -0.3847
 4097SOL     OW23923   0.387   4.640  11.723 -0.0897 -0.6475  0.3266
 4097SOL    HW123924   0.481   4.651  11.709 -0.3070 -0.4532 -0.9670
 4097SOL    HW223925   0.371   4.557  11.678  1.0044 -1.1991  0.9597
 4098SOL     OW23926   3.338   4.323   3.171 -0.3998  0.6026  0.1577
 4098SOL    HW123927   3.280   4.306   3.096 -0.4515 -1.6495  0.7219
 4098SOL    HW223928   3.367   4.408   3.139  0.1772 -0.5574 -2.3978
 4099SOL     OW23929   2.502   4.415   4.738  0.2613 -0.1105 -0.0804
 4099SOL    HW123930   2.573   4.364   4.698 -0.7173  0.4502 -2.5302
 4099SOL    HW223931   2.542   4.502   4.739  0.7210 -0.3079 -0.9288
 4100SOL     OW23932   3.482   0.907  12.450 -0.2496 -0.1341  0.0918
 4100SOL    HW123933   3.500   0.818  12.422 -1.3132 -0.4661  0.4604
 4100SOL    HW223934   3.418   0.928  12.381  3.1374 -0.7224 -3.2171
 4101SOL     OW23935   4.265   3.330   4.996  0.5129  0.2507  0.1701
 4101SOL    HW123936   4.297   3.246   4.963 -0.2184 -0.1142  0.3827
 4101SOL    HW223937   4.306   3.329   5.082 -1.5102  1.5919  1.1441
 4102SOL     OW23938   0.121   1.864   2.131  0.1302  0.3133  0.8770
 4102SOL    HW123939   0.087   1.788   2.177 -1.6609  0.5416 -0.0774
 4102SOL    HW223940   0.088   1.929   2.193  0.4428  1.2104  0.1157
 4103SOL     OW23941   1.351   1.991   4.430  0.0134  0.2059  0.0510
 4103SOL    HW123942   1.283   1.925   4.436 -0.8100  1.1005  0.5770
 4103SOL    HW223943   1.331   2.051   4.502  2.3584  0.6704  0.3341
 4104SOL     OW23944   3.473   3.977   8.074 -0.3607 -0.2473  0.0020
 4104SOL    HW123945   3.387   3.976   8.114 -0.3030  0.1218  0.1389
 4104SOL    HW223946   3.536   3.989   8.146  0.0257 -1.3352 -0.1526
 4105SOL     OW23947   1.537   3.205   9.614 -0.1077 -0.5997  0.0748
 4105SOL    HW123948   1.519   3.134   9.552 -1.3215 -0.0496 -0.2137
 4105SOL    HW223949   1.505   3.286   9.574 -0.3139 -1.4567 -1.4628
 4106SOL     OW23950   4.157   2.062   4.890 -0.2676  0.1749  0.2544
 4106SOL    HW123951   4.107   2.030   4.965 -0.3342  3.3584  1.5365
 4106SOL    HW223952   4.121   2.014   4.815  1.1836 -1.3749  0.5447
 4107SOL     OW23953   2.851   4.479  12.408 -0.1582 -0.3345  0.0614
 4107SOL    HW123954   2.777   4.470  12.468  1.8676 -0.4643  2.5368
 4107SOL    HW223955   2.920   4.485  12.474  1.1576 -2.9028 -1.0443
 4108SOL     OW23956   4.612   4.124   0.326  0.0103  0.5159 -0.3585
 4108SOL    HW123957   4.663   4.195   0.364 -1.0517  1.4816 -0.7466
 4108SOL    HW223958   4.525   4.158   0.343 -0.2345 -0.5844  0.5288
 4109SOL     OW23959   4.735   2.668  11.597 -0.1137  0.6651  0.2412
 4109SOL    HW123960   0.028   2.757  11.618 -0.1691  0.8608 -0.5160
 4109SOL    HW223961   0.017   2.666  11.503 -1.0797 -2.2311  0.1098
 4110SOL     OW23962   0.228   1.330  15.121  0.0254 -0.3111 -0.4399
 4110SOL    HW123963   0.312   1.286  15.128 -1.5336 -3.4840 -1.4723
 4110SOL    HW223964   0.170   1.254  15.116  0.0673 -0.4606  1.3869
 4111SOL     OW23965   4.103   4.309   1.585 -0.3648  0.1864 -0.1361
 4111SOL    HW123966   4.190   4.288   1.619 -0.7777 -0.9987  0.2071
 4111SOL    HW223967   4.119   4.285   1.493  1.6032 -4.2072  1.3685
 4112SOL     OW23968   3.443   4.307   8.326 -0.3612 -0.1752 -0.3107
 4112SOL    HW123969   3.386   4.236   8.355  1.6019 -2.2993 -1.6449
 4112SOL    HW223970   3.479   4.342   8.408  1.8549 -0.8239 -0.9995
 4113SOL     OW23971   1.776   2.172  17.495 -0.0916  0.1745 -0.4260
 4113SOL    HW123972   1.730   2.233  17.438  0.1667  1.7725  1.0734
 4113SOL    HW223973   1.872   2.182  17.491  0.1456 -1.8791 -0.2549
 4114SOL     OW23974   3.891   4.207  11.419 -0.6752 -0.4943 -0.0228
 4114SOL    HW123975   3.947   4.201  11.496 -1.0195  0.2157  0.2748
 4114SOL    HW223976   3.876   4.301  11.425 -1.3502 -0.5850 -0.2544
 4115SOL     OW23977   4.252   0.041  14.531 -0.4358 -0.6021  0.0447
 4115SOL    HW123978   4.324   0.103  14.543 -0.3919 -0.2590 -2.1002
 4115SOL    HW223979   4.247   4.724  14.611  2.3326 -0.9535 -0.0316
 4116SOL     OW23980   4.318   1.584   5.000 -0.3772  0.3584 -0.9101
 4116SOL    HW123981   4.333   1.501   4.955  1.4133 -0.5948  1.4613
 4116SOL    HW223982   4.223   1.597   5.005 -0.1981  1.0207  0.8368
 4117SOL     OW23983   3.663   1.861   8.454  0.6231  0.1297 -0.0070
 4117SOL    HW123984   3.584   1.835   8.406  1.5328  0.5357 -1.7205
 4117SOL    HW223985   3.634   1.905   8.534  0.5498  0.4436 -0.2041
 4118SOL     OW23986   2.689   4.689  16.846  0.6058 -0.1362  0.2120
 4118SOL    HW123987   2.760   4.728  16.897  0.9626 -1.0725  0.4233
 4118SOL    HW223988   2.689   4.606  16.893 -0.2167 -1.0552 -1.4194
 4119SOL     OW23989   0.555   0.517  10.115  0.3568 -0.0361  0.2161
 4119SOL    HW123990   0.619   0.456  10.150 -0.3853 -0.9874 -0.1000
 4119SOL    HW223991   0.517   0.551  10.195  2.3839 -0.4308  1.3436
 4120SOL     OW23992   2.822   0.694   5.659 -0.5528 -0.7055  0.1676
 4120SOL    HW123993   2.811   0.707   5.754 -4.3045  1.4445 -0.5571
 4120SOL    HW223994   2.888   0.755   5.625 -0.9875 -0.2399  0.1681
 4121SOL     OW23995   2.451   0.285  13.376 -0.0430  0.0177  0.3795
 4121SOL    HW123996   2.371   0.236  13.356  0.2570 -0.7217  0.9832
 4121SOL    HW223997   2.424   0.360  13.429 -1.8554 -0.4704  0.1227
 4122SOL     OW23998   0.282   3.573   2.768 -0.6901  0.2977  0.2782
 4122SOL    HW123999   0.373   3.561   2.794 -0.7330  2.5379  1.4526
 4122SOL    HW224000   0.275   3.667   2.755 -0.0194  0.3511  0.3201
 4123SOL     OW24001   3.844   4.015   5.177  1.3571 -0.1183 -0.0198
 4123SOL    HW124002   3.832   3.921   5.189  0.7518 -0.2314 -1.5515
 4123SOL    HW224003   3.774   4.053   5.231  0.0419 -0.1705 -1.7011
 4124SOL     OW24004   2.257   3.970  12.859  0.2212 -0.2145 -0.1961
 4124SOL    HW124005   2.348   3.954  12.883  0.6866 -1.6682 -2.9293
 4124SOL    HW224006   2.259   3.891  12.805  1.4743  0.0729 -0.5612
 4125SOL     OW24007   4.104   2.403   7.846 -0.0855  0.2189 -0.0709
 4125SOL    HW124008   4.041   2.475   7.852  0.2253  0.7819 -3.7655
 4125SOL    HW224009   4.053   2.355   7.781 -0.5382 -0.9688  1.1551
 4126SOL     OW24010   4.311   3.343  13.367 -0.0885 -0.1307  0.1702
 4126SOL    HW124011   4.290   3.276  13.303 -1.3281 -0.1697  0.6087
 4126SOL    HW224012   4.262   3.325  13.447 -1.3022  1.1374 -0.2801
 4127SOL     OW24013   4.324   4.605   9.424  0.2326 -0.2752  0.2936
 4127SOL    HW124014   4.335   4.511   9.439 -2.3414 -0.1229  3.2936
 4127SOL    HW224015   4.416   4.628   9.428  0.5599 -1.5605  0.2467
 4128SOL     OW24016   2.352   1.427   6.620  0.5399  0.3220  0.0193
 4128SOL    HW124017   2.339   1.354   6.560  1.0757  0.0688  0.2150
 4128SOL    HW224018   2.434   1.472   6.599 -0.4313  0.9357 -2.5287
 4129SOL     OW24019   2.564   3.511  14.434  0.7719  0.5299 -0.1960
 4129SOL    HW124020   2.506   3.467  14.496 -0.3591 -0.2873 -1.8522
 4129SOL    HW224021   2.649   3.487  14.471  0.9185 -1.1599 -1.6502
 4130SOL     OW24022   0.196   2.896  13.998 -0.5575  0.3315  0.0185
 4130SOL    HW124023   0.180   2.987  13.975 -3.8075 -0.3410 -0.3118
 4130SOL    HW224024   0.281   2.909  14.040  0.2783 -0.8848 -1.2701
 4131SOL     OW24025   4.513   4.722  12.765 -0.0382 -0.1383  0.2435
 4131SOL    HW124026   4.548   0.053  12.706 -1.8835  0.3881 -0.2664
 4131SOL    HW224027   4.452   0.042  12.813  2.8162  2.1524  1.2050
 4132SOL     OW24028   3.859   2.105   7.774  0.1835  0.1626 -0.0630
 4132SOL    HW124029   3.880   2.053   7.697  0.9963 -0.3187  0.4859
 4132SOL    HW224030   3.786   2.162   7.750  0.3697  0.9694  1.2699
 4133SOL     OW24031   1.703   4.285  11.796 -0.0130  0.2509 -0.2511
 4133SOL    HW124032   1.782   4.240  11.767 -1.3837 -1.8927 -0.6114
 4133SOL    HW224033   1.731   4.377  11.794  0.0779  0.2104 -0.8307
 4134SOL     OW24034   4.469   2.733  14.860 -0.4821 -0.0405 -0.0031
 4134SOL    HW124035   4.558   2.726  14.894 -0.2253 -2.6818 -1.2275
 4134SOL    HW224036   4.438   2.766  14.945 -2.0871 -1.1562 -0.1549
 4135SOL     OW24037   2.916   3.337   1.865 -0.4147  0.5063 -0.1681
 4135SOL    HW124038   2.919   3.241   1.874 -2.5172  0.7526  2.7571
 4135SOL    HW224039   3.003   3.364   1.892 -0.3096  0.3340 -0.3273
 4136SOL     OW24040   1.524   3.907  11.054  0.0572  0.9277  0.4860
 4136SOL    HW124041   1.470   3.986  11.050  1.6326  1.9903  0.5966
 4136SOL    HW224042   1.519   3.907  11.150 -0.9341 -1.3901  0.4592
 4137SOL     OW24043   1.833   3.297   9.581 -0.4436  0.7297 -0.1396
 4137SOL    HW124044   1.808   3.234   9.514 -3.5256  1.4901  0.2948
 4137SOL    HW224045   1.749   3.340   9.601 -0.4117  0.5710  0.3283
 4138SOL     OW24046   3.538   1.281   2.930 -0.3100  0.2529  0.5512
 4138SOL    HW124047   3.524   1.375   2.934  2.0182  0.5340  1.6800
 4138SOL    HW224048   3.537   1.265   3.024  0.0128 -1.3575  0.2777
 4139SOL     OW24049   0.977   1.806   6.850  0.4416  0.5271  0.5046
 4139SOL    HW124050   1.027   1.886   6.834  0.3668  0.2236 -1.3305
 4139SOL    HW224051   0.912   1.801   6.779  0.9420  1.4520 -0.0219
 4140SOL     OW24052   0.182   3.916   9.682  0.2334 -0.0629 -0.1833
 4140SOL    HW124053   0.166   3.985   9.746  0.8815 -1.2894  1.3127
 4140SOL    HW224054   0.093   3.895   9.654 -0.2245  1.9813 -0.2797
 4141SOL     OW24055   3.854   3.222   4.393  0.1494  0.0701 -0.1153
 4141SOL    HW124056   3.901   3.220   4.310  1.2931 -3.3180  0.6406
 4141SOL    HW224057   3.845   3.317   4.404  3.1087  0.5064 -1.5038
 4142SOL     OW24058   1.562   0.560   9.822 -0.2599  0.0139 -0.1056
 4142SOL    HW124059   1.479   0.554   9.775 -0.3012  0.8484 -0.1455
 4142SOL    HW224060   1.602   0.475   9.807 -1.1310 -0.8663  2.6157
 4143SOL     OW24061   1.434   4.027  12.882  0.1461 -0.0390 -0.5627
 4143SOL    HW124062   1.525   4.020  12.910 -0.5337  1.3225  1.9319
 4143SOL    HW224063   1.396   3.954  12.931  0.4177  2.0142  2.7039
 4144SOL     OW24064   0.735   0.068   9.827  0.6040  0.0007 -0.2454
 4144SOL    HW124065   0.828   0.089   9.831  0.7385 -1.0754  2.5654
 4144SOL    HW224066   0.701   0.140   9.880 -1.3384  1.1360 -3.0443
 4145SOL     OW24067   1.802   1.244  17.349 -0.2054 -0.4080  0.0924
 4145SOL    HW124068   1.741   1.313  17.377  0.8879  0.8417 -0.5938
 4145SOL    HW224069   1.887   1.287  17.347 -1.3801  1.8470 -2.0273
 4146SOL     OW24070   2.106   1.724  11.648  0.5747  0.2894 -0.2913
 4146SOL    HW124071   2.153   1.761  11.574 -0.2365 -0.7962 -1.3532
 4146SOL    HW224072   2.016   1.723  11.615  0.5795  1.5090 -0.3529
 4147SOL     OW24073   1.154   4.597  16.656 -0.3376 -0.2719 -0.0359
 4147SOL    HW124074   1.154   4.516  16.707  0.9631  1.4205  2.6198
 4147SOL    HW224075   1.238   4.590  16.611  0.2097  0.5273  0.8810
 4148SOL     OW24076   1.535   0.995   6.378  0.1957 -0.5693 -0.5455
 4148SOL    HW124077   1.595   0.968   6.308  0.1024 -0.1495 -0.7892
 4148SOL    HW224078   1.523   1.090   6.367 -1.3674 -0.8298 -1.0864
 4149SOL     OW24079   4.378   3.810   4.931 -0.0508  0.0699 -0.3616
 4149SOL    HW124080   4.349   3.786   4.843  1.2530 -0.9419 -0.5078
 4149SOL    HW224081   4.433   3.738   4.961  1.3533  0.5684 -1.7381
 4150SOL     OW24082   3.466   1.105   4.561 -0.5789 -0.9355 -0.0241
 4150SOL    HW124083   3.421   1.026   4.591 -1.3669 -1.0552 -1.5333
 4150SOL    HW224084   3.505   1.061   4.485 -1.8513 -0.3656 -1.0159
 4151SOL     OW24085   1.558   1.459  14.891 -0.0360  0.2078  0.3167
 4151SOL    HW124086   1.567   1.376  14.844  1.8810  0.5655  0.0283
 4151SOL    HW224087   1.519   1.521  14.829 -0.9530  1.1118  1.7883
 4152SOL     OW24088   1.402   3.711  17.347 -0.2259 -0.1212  0.0553
 4152SOL    HW124089   1.416   3.737  17.438 -0.1433 -1.4481  0.4346
 4152SOL    HW224090   1.366   3.788  17.304  0.4272  0.9228  1.3796
 4153SOL     OW24091   3.668   4.487   0.995  0.1477 -0.6551  0.8675
 4153SOL    HW124092   3.657   4.555   0.929  2.3687 -0.1230  1.0657
 4153SOL    HW224093   3.690   4.414   0.936  0.3827 -0.3968  0.6385
 4154SOL     OW24094   4.549   0.716   1.691 -0.4330 -0.4448 -0.2781
 4154SOL    HW124095   4.520   0.801   1.658  1.0205  0.3340  0.4748
 4154SOL    HW224096   4.611   0.692   1.622  1.4470  0.3517  1.1297
 4155SOL     OW24097   2.149   2.174   3.587  0.0563  0.4089 -0.1370
 4155SOL    HW124098   2.213   2.113   3.550 -0.5275  0.1688 -0.7418
 4155SOL    HW224099   2.064   2.130   3.593 -1.1338  2.4733 -1.8346
 4156SOL     OW24100   2.915   4.409   6.258  0.1860  0.5067  0.3525
 4156SOL    HW124101   2.881   4.499   6.259 -1.0435  0.0496 -0.4806
 4156SOL    HW224102   2.838   4.357   6.281  0.1844 -0.3438 -1.5798
 4157SOL     OW24103   0.479   2.282   7.098 -0.1398  0.3349  0.4314
 4157SOL    HW124104   0.453   2.190   7.100  1.3295 -0.0423  2.3431
 4157SOL    HW224105   0.414   2.323   7.155 -1.1367 -0.4874 -0.1153
 4158SOL     OW24106   0.865   4.705  16.352 -0.4125  0.0574 -0.2374
 4158SOL    HW124107   0.815   0.043  16.387  2.7125  1.4750  1.3241
 4158SOL    HW224108   0.869   4.725  16.259 -1.7102 -0.7808 -0.4726
 4159SOL     OW24109   3.006   0.155   2.806  0.1968 -0.6776 -0.3690
 4159SOL    HW124110   3.100   0.170   2.817 -0.2900  2.4207 -0.4305
 4159SOL    HW224111   2.994   0.119   2.894 -1.3763  0.4085 -0.1538
 4160SOL     OW24112   3.147   2.851  15.125  0.1256 -0.0138  0.5159
 4160SOL    HW124113   3.205   2.792  15.174  0.9680 -0.2285 -0.7233
 4160SOL    HW224114   3.155   2.815  15.037  0.5840  2.8922 -0.6310
 4161SOL     OW24115   0.184   1.777   9.255  0.4269 -0.3608 -0.2788
 4161SOL    HW124116   0.104   1.730   9.275  0.3297  0.0841  0.3750
 4161SOL    HW224117   0.163   1.868   9.274  1.2983 -0.1304 -0.3903
 4162SOL     OW24118   2.586   4.308   5.212  0.3047 -0.1605 -0.2434
 4162SOL    HW124119   2.590   4.259   5.130 -2.4568 -0.5141 -0.1561
 4162SOL    HW224120   2.576   4.239   5.278 -0.6749 -0.3751 -0.6172
 4163SOL     OW24121   4.657   3.635   4.191  0.1841  0.0932 -0.2432
 4163SOL    HW124122   0.010   3.663   4.213 -0.3468  2.3014 -0.8987
 4163SOL    HW224123   4.656   3.604   4.101 -0.5513 -0.6201  0.0094
 4164SOL     OW24124   2.534   3.348  14.785 -0.1457 -0.1587 -0.1119
 4164SOL    HW124125   2.467   3.343  14.716 -0.6332 -1.1817  0.4430
 4164SOL    HW224126   2.619   3.337  14.742  0.1647 -0.3345  0.5549
 4165SOL     OW24127   3.383   2.247  16.281  0.2174  0.3779 -0.4097
 4165SOL    HW124128   3.373   2.233  16.187 -0.5098 -3.0731  0.1712
 4165SOL    HW224129   3.309   2.192  16.306  0.4389 -0.0670 -0.7466
 4166SOL     OW24130   4.022   3.810   8.362  0.5747  0.3661  0.2366
 4166SOL    HW124131   4.014   3.904   8.378 -0.2919  0.2190  0.6714
 4166SOL    HW224132   4.006   3.766   8.446  3.9527  0.1674  0.7742
 4167SOL     OW24133   1.675   3.683   1.411  0.5809  0.1484 -0.0670
 4167SOL    HW124134   1.603   3.669   1.473 -1.1464 -0.7597 -2.2754
 4167SOL    HW224135   1.669   3.777   1.393  3.0820 -0.0383 -1.9215
 4168SOL     OW24136   4.018   3.361   2.940  0.3340  0.5350  0.2896
 4168SOL    HW124137   4.110   3.385   2.953  1.4315 -2.1454 -2.4509
 4168SOL    HW224138   4.004   3.391   2.850  0.4833 -1.0425 -0.2554
 4169SOL     OW24139   0.872   3.406   1.929 -0.0673 -0.3121 -0.2709
 4169SOL    HW124140   0.778   3.408   1.948 -0.1056  1.7176 -0.7324
 4169SOL    HW224141   0.869   3.349   1.852  0.7861  0.0865 -0.5896
 4170SOL     OW24142   2.901   3.207   7.290  0.2957 -0.0165  0.6922
 4170SOL    HW124143   2.973   3.144   7.283  2.0224  2.2431 -1.6586
 4170SOL    HW224144   2.945   3.275   7.340 -1.3033 -0.6795  3.0339
 4171SOL     OW24145   1.800   1.250  12.532  0.3825  0.2455 -0.0690
 4171SOL    HW124146   1.783   1.163  12.567  0.8642 -0.7682 -2.3775
 4171SOL    HW224147   1.730   1.309  12.563 -0.3639 -0.1059 -1.0744
 4172SOL     OW24148   3.977   0.676  12.485 -0.3112 -0.7022  0.5181
 4172SOL    HW124149   3.904   0.655  12.427 -0.2740  0.5901 -0.0040
 4172SOL    HW224150   3.966   0.606  12.550 -0.6791  2.1231  3.5484
 4173SOL     OW24151   3.466   0.233   7.949  0.5462 -0.1360 -0.0803
 4173SOL    HW124152   3.449   0.139   7.939  1.8434 -0.3297 -0.4865
 4173SOL    HW224153   3.560   0.234   7.930  0.7536  0.5937  1.0134
 4174SOL     OW24154   3.388   4.713   4.240  0.2567  0.6824 -0.7891
 4174SOL    HW124155   3.353   4.672   4.320  1.1572  1.8666  0.2247
 4174SOL    HW224156   3.421   0.062   4.270  0.4823  0.4664 -0.4233
 4175SOL     OW24157   4.286   3.844  13.557 -0.4734  0.2491  0.1656
 4175SOL    HW124158   4.224   3.771  13.551 -0.6299  0.1153  3.6908
 4175SOL    HW224159   4.231   3.921  13.543 -1.2508 -0.1355  1.0887
 4176SOL     OW24160   3.022   4.270   3.684  0.5797 -0.3081  0.2651
 4176SOL    HW124161   3.054   4.359   3.699 -0.6625  0.2203 -0.2650
 4176SOL    HW224162   3.104   4.220   3.680  0.1370 -0.9243 -1.1402
 4177SOL     OW24163   1.322   3.643  16.778  0.3122 -0.3105 -0.4203
 4177SOL    HW124164   1.280   3.563  16.809  0.9360  0.1614  1.6773
 4177SOL    HW224165   1.388   3.608  16.718  0.7973  0.4760 -0.3473
 4178SOL     OW24166   0.023   1.485   5.519 -0.1025 -0.3504 -0.0269
 4178SOL    HW124167   0.075   1.473   5.598  0.3014 -4.1887 -0.8703
 4178SOL    HW224168   4.677   1.448   5.552  0.4302 -0.2894  1.3450
 4179SOL     OW24169   1.308   3.131   3.241 -0.3647  0.2734  0.0532
 4179SOL    HW124170   1.356   3.179   3.173  1.3803  1.0069  1.8080
 4179SOL    HW224171   1.238   3.090   3.191 -1.1283  0.6803  0.8067
 4180SOL     OW24172   3.214   2.095   6.207 -0.1676 -0.5166 -0.1270
 4180SOL    HW124173   3.135   2.056   6.245  0.2372 -2.1314 -0.9102
 4180SOL    HW224174   3.281   2.028   6.222  1.5582  1.3971  0.5979
 4181SOL     OW24175   3.978   2.444   3.416  0.1224 -0.3171 -0.2300
 4181SOL    HW124176   3.928   2.521   3.390  0.9004  0.3067  0.1343
 4181SOL    HW224177   4.023   2.425   3.333  0.4416 -0.5566 -0.0042
 4182SOL     OW24178   4.693   2.518  12.023 -0.1937  0.2901 -0.2086
 4182SOL    HW124179   4.673   2.607  11.995  1.4225  0.3015 -1.3422
 4182SOL    HW224180   0.039   2.540  12.067 -0.0186  0.7117 -0.7530
 4183SOL     OW24181   4.304   1.381  12.625  0.4348  0.0536 -0.5190
 4183SOL    HW124182   4.285   1.426  12.542 -0.5708  0.4678 -0.0678
 4183SOL    HW224183   4.342   1.299  12.595  1.3687  0.3437 -0.1381
 4184SOL     OW24184   2.498   3.613   4.008  0.1946 -0.2583  0.5518
 4184SOL    HW124185   2.483   3.650   3.920 -2.4272 -0.9303  0.7163
 4184SOL    HW224186   2.424   3.640   4.062 -0.7229 -1.4115 -0.1191
 4185SOL     OW24187   0.136   0.245   9.087  0.1680 -0.2061 -0.2030
 4185SOL    HW124188   0.144   0.233   8.992 -3.8693 -0.0601 -0.5276
 4185SOL    HW224189   0.228   0.233   9.113 -0.7169 -1.8178  2.0932
 4186SOL     OW24190   4.430   0.763   2.947  0.3091 -0.0063  0.2454
 4186SOL    HW124191   4.375   0.747   3.023 -1.9353  1.7772 -1.0008
 4186SOL    HW224192   4.502   0.700   2.950 -0.2235 -0.5630  1.1695
 4187SOL     OW24193   3.676   2.085   4.447 -0.0386  0.4471  0.0569
 4187SOL    HW124194   3.700   2.172   4.480  1.1114  0.4238 -0.6941
 4187SOL    HW224195   3.617   2.054   4.515 -1.8559  0.6630 -1.4175
 4188SOL     OW24196   2.001   1.352   5.155 -0.1671 -0.6553 -0.7188
 4188SOL    HW124197   1.939   1.326   5.087 -0.9254 -0.9163  0.0670
 4188SOL    HW224198   2.066   1.282   5.147  0.6734 -0.0302  0.5228
 4189SOL     OW24199   0.088   2.131   7.165 -0.3778  0.0031  0.2829
 4189SOL    HW124200   0.148   2.057   7.165  1.9241  1.8658  1.8087
 4189SOL    HW224201   0.146   2.201   7.196 -1.1330  0.8582 -0.2290
 4190SOL     OW24202   3.681   4.127   0.285 -0.1840 -0.0178  0.1239
 4190SOL    HW124203   3.586   4.123   0.300 -0.3248 -0.0059 -0.7432
 4190SOL    HW224204   3.706   4.215   0.311 -2.1055 -0.4454  3.4283
 4191SOL     OW24205   1.227   1.291  14.365 -0.7006  0.3204 -0.0096
 4191SOL    HW124206   1.173   1.281  14.286  0.2005 -0.2359 -0.5506
 4191SOL    HW224207   1.192   1.219  14.417 -0.5670  1.1496  1.2176
 4192SOL     OW24208   3.112   1.333   5.277  0.7586  0.3349 -0.2014
 4192SOL    HW124209   3.073   1.251   5.246  1.6397 -1.1306  2.5440
 4192SOL    HW224210   3.132   1.299   5.364 -0.1031  0.5200  0.0681
 4193SOL     OW24211   3.948   2.908  17.309  0.0331 -0.1139  0.0698
 4193SOL    HW124212   4.025   2.958  17.336 -0.4140  0.8385 -0.4127
 4193SOL    HW224213   3.975   2.822  17.340 -1.7923  0.2643  2.7013
 4194SOL     OW24214   3.997   0.864   7.170  0.1346  0.4576  0.0266
 4194SOL    HW124215   4.049   0.892   7.245  1.7908 -0.8803 -0.6279
 4194SOL    HW224216   4.002   0.769   7.181  3.4413  0.5961 -0.2204
 4195SOL     OW24217   0.405   1.960   4.512 -0.2820 -0.3186 -0.5419
 4195SOL    HW124218   0.385   2.007   4.430 -0.4515  1.5597  0.5770
 4195SOL    HW224219   0.328   1.984   4.564  0.8721 -1.6911  1.7352
 4196SOL     OW24220   2.475   3.062   5.505 -0.0649  0.1562 -0.2668
 4196SOL    HW124221   2.565   3.033   5.493  0.1836  0.9121 -0.2269
 4196SOL    HW224222   2.487   3.101   5.592 -0.1157 -1.4372  0.4620
 4197SOL     OW24223   3.273   1.933   9.153 -0.4673  0.3345 -0.1718
 4197SOL    HW124224   3.351   1.921   9.206 -2.5212 -0.1116  2.7211
 4197SOL    HW224225   3.206   1.894   9.209 -0.8227  2.3437  0.8175
 4198SOL     OW24226   1.773   1.565   8.503  0.0645 -0.1699 -0.1360
 4198SOL    HW124227   1.770   1.482   8.550 -1.8896 -0.3515 -0.5848
 4198SOL    HW224228   1.855   1.550   8.456 -0.1429  0.2902 -0.6478
 4199SOL     OW24229   1.749   2.098  12.391 -0.0944  0.2694  0.5595
 4199SOL    HW124230   1.720   2.096  12.482  2.5956 -0.2274  1.3908
 4199SOL    HW224231   1.801   2.018  12.380  0.2722  0.8288 -1.8631
 4200SOL     OW24232   0.369   3.072  12.809  0.2083 -0.9093  0.0076
 4200SOL    HW124233   0.361   3.122  12.890  1.4471 -2.2326  0.9441
 4200SOL    HW224234   0.459   3.040  12.808  0.6421  0.3308 -1.1814
 4201SOL     OW24235   1.566   4.111   8.373  0.1297  0.3463 -0.6295
 4201SOL    HW124236   1.590   4.075   8.459  2.4219  1.9498 -0.5970
 4201SOL    HW224237   1.473   4.122   8.393  0.6160  1.1048  1.2328
 4202SOL     OW24238   3.459   0.002   8.120 -0.2206 -0.0706  0.4969
 4202SOL    HW124239   3.380   0.015   8.172  1.9310 -0.2893  3.7828
 4202SOL    HW224240   3.522   0.026   8.188  3.1121 -1.4279 -2.1050
 4203SOL     OW24241   0.796   2.243   9.882 -0.2028  0.3872  0.4701
 4203SOL    HW124242   0.745   2.229   9.962  0.1630  1.0356  0.8149
 4203SOL    HW224243   0.885   2.225   9.913 -0.4690 -3.2299 -0.8699
 4204SOL     OW24244   1.148   2.606   3.861 -0.0139 -0.2844 -0.1139
 4204SOL    HW124245   1.087   2.642   3.925 -1.7790  0.2657 -2.1091
 4204SOL    HW224246   1.195   2.537   3.908  2.7760  1.4837 -0.3243
 4205SOL     OW24247   1.735   0.248  12.956 -0.0010  0.0670  0.1549
 4205SOL    HW124248   1.706   0.162  12.986  0.3379 -0.1901 -0.2724
 4205SOL    HW224249   1.808   0.229  12.898 -0.3076  0.2527 -0.2990
 4206SOL     OW24250   1.044   4.330   4.239  0.1870 -0.1082  0.5105
 4206SOL    HW124251   1.126   4.280   4.242  0.8371  1.3026  4.9314
 4206SOL    HW224252   0.985   4.306   4.310 -0.6483 -2.1490 -0.8688
 4207SOL     OW24253   4.419   1.157   9.123  0.1858  0.0852 -1.2750
 4207SOL    HW124254   4.392   1.066   9.130  1.3665 -0.1243  0.5721
 4207SOL    HW224255   4.514   1.142   9.127 -0.2403 -1.6750  2.0588
 4208SOL     OW24256   4.609   0.125   5.203  0.1279 -0.3471 -0.3050
 4208SOL    HW124257   4.677   0.106   5.139 -1.3606  1.3720 -2.3748
 4208SOL    HW224258   4.576   0.036   5.218 -2.7515  0.6470 -0.8562
 4209SOL     OW24259   1.752   0.615   1.180  0.6759  0.1862  0.1922
 4209SOL    HW124260   1.721   0.528   1.155 -0.1539  0.0504  1.7212
 4209SOL    HW224261   1.832   0.628   1.129 -0.2910  1.2601 -1.0510
 4210SOL     OW24262   2.492   3.527   9.957  0.1442  0.0761  0.3240
 4210SOL    HW124263   2.519   3.468  10.028  1.3834 -2.6200 -2.3638
 4210SOL    HW224264   2.496   3.608  10.007  2.2183 -0.2698  0.7584
 4211SOL     OW24265   0.961   3.014   6.639 -0.2761 -0.0895 -0.1155
 4211SOL    HW124266   0.905   3.092   6.645  0.5867  0.7694 -3.2776
 4211SOL    HW224267   1.049   3.045   6.657 -0.9893  0.6605  2.0906
 4212SOL     OW24268   1.164   2.862  10.573 -0.3216 -0.0583 -0.4079
 4212SOL    HW124269   1.197   2.922  10.507  1.3709  0.3771  0.8301
 4212SOL    HW224270   1.105   2.918  10.623  0.7321  1.8930 -1.3852
 4213SOL     OW24271   1.197   3.947   6.458 -0.2800 -0.8926  1.3462
 4213SOL    HW124272   1.184   4.020   6.518  0.6750 -0.5708  1.1562
 4213SOL    HW224273   1.276   3.978   6.414 -1.2672  1.0247  0.9560
 4214SOL     OW24274   4.495   2.336   5.625 -0.1763 -0.3033 -0.1360
 4214SOL    HW124275   4.578   2.374   5.655 -1.1447  0.3390  1.6912
 4214SOL    HW224276   4.507   2.241   5.635 -0.8602 -0.1149  2.2818
 4215SOL     OW24277   0.866   4.017  12.375 -0.5542  1.1853 -0.4528
 4215SOL    HW124278   0.860   3.945  12.438  4.4772  0.8578 -0.2996
 4215SOL    HW224279   0.945   3.998  12.323 -1.1003 -1.6887 -0.2420
 4216SOL     OW24280   1.230   4.335   6.051 -0.1019 -0.5633 -0.1125
 4216SOL    HW124281   1.318   4.306   6.076 -0.2258  0.1815  1.1443
 4216SOL    HW224282   1.237   4.424   6.084 -2.4874 -0.6667  0.6380
 4217SOL     OW24283   2.938   4.024   0.587  0.2169  0.3114  0.5010
 4217SOL    HW124284   2.884   4.076   0.527  2.4503  0.8909 -1.0065
 4217SOL    HW224285   2.880   3.948   0.595  1.8551 -0.7597  2.1384
 4218SOL     OW24286   2.049   1.843   9.232 -0.0501 -0.5165 -0.1966
 4218SOL    HW124287   2.060   1.828   9.138 -0.7322  1.0515 -0.5332
 4218SOL    HW224288   2.046   1.936   9.210 -1.3878 -0.7771 -1.1249
 4219SOL     OW24289   4.376   2.371  16.511 -0.0881  0.0644 -0.8026
 4219SOL    HW124290   4.456   2.424  16.505 -0.1239  0.2996  0.7710
 4219SOL    HW224291   4.372   2.347  16.418  1.7372  0.1215 -0.9100
 4220SOL     OW24292   0.505   4.609   8.667 -0.1536 -0.2545  0.2349
 4220SOL    HW124293   0.416   4.629   8.638 -0.3370  0.9246  1.6291
 4220SOL    HW224294   0.549   4.672   8.610 -0.9628  1.4094  1.4542
 4221SOL     OW24295   2.110   3.953   9.261 -0.3552  0.0910  0.3590
 4221SOL    HW124296   2.088   3.926   9.172  1.0579  0.8101 -0.2077
 4221SOL    HW224297   2.187   4.009   9.250  0.5968 -1.1789  0.6573
 4222SOL     OW24298   1.224   0.031   5.714  0.2441 -0.3790  0.4697
 4222SOL    HW124299   1.316   0.007   5.700  0.4076 -0.1039  1.0606
 4222SOL    HW224300   1.195   4.686   5.757  1.9735 -2.5962 -2.5200
 4223SOL     OW24301   2.595   1.112   6.566  0.4324  0.0080 -0.1629
 4223SOL    HW124302   2.609   1.130   6.659  1.9387 -0.1692 -0.3675
 4223SOL    HW224303   2.511   1.155   6.547 -0.8234 -2.7951 -1.0180
 4224SOL     OW24304   4.293   0.668   8.789 -0.1829  0.5700 -1.0224
 4224SOL    HW124305   4.275   0.736   8.723 -2.3000  1.6821  0.6849
 4224SOL    HW224306   4.366   0.627   8.743  1.7809  2.6476  0.2471
 4225SOL     OW24307   2.324   3.113   8.222 -0.8375 -0.1996  0.0734
 4225SOL    HW124308   2.362   3.187   8.175  2.5640 -1.6206  0.5472
 4225SOL    HW224309   2.400   3.056   8.214  0.0015  1.1144 -1.2833
 4226SOL     OW24310   3.761   0.731   5.995  0.0405  0.2083 -0.0901
 4226SOL    HW124311   3.736   0.782   6.071 -1.1384  0.1964 -0.4751
 4226SOL    HW224312   3.693   0.664   5.991 -0.1815  0.4617 -0.4904
 4227SOL     OW24313   3.142   2.106   4.664  0.1165  0.0362 -0.1285
 4227SOL    HW124314   3.157   2.182   4.608 -0.0475 -1.3121 -2.0251
 4227SOL    HW224315   3.232   2.076   4.676  0.4293  0.2723 -1.7888
 4228SOL     OW24316   1.596   3.848   7.638 -0.5179  0.8431  0.2541
 4228SOL    HW124317   1.660   3.805   7.581 -1.0558 -1.3224  1.2728
 4228SOL    HW224318   1.654   3.867   7.712  0.4840 -0.1731 -0.2824
 4229SOL     OW24319   1.159   1.717   8.207 -0.5370  0.3239 -0.3311
 4229SOL    HW124320   1.108   1.791   8.175  0.9486  2.3781  2.0070
 4229SOL    HW224321   1.091   1.688   8.268 -1.6164  1.3865 -1.0282
 4230SOL     OW24322   1.872   4.545  12.448 -0.1492 -0.1901  0.1033
 4230SOL    HW124323   1.911   4.473  12.498 -1.0600  0.7157  2.1013
 4230SOL    HW224324   1.821   4.587  12.518  1.0095  0.8770  0.3051
 4231SOL     OW24325   2.249   1.274  17.069 -0.4797 -0.0211 -0.2054
 4231SOL    HW124326   2.328   1.237  17.032 -0.6084 -1.2811  0.7901
 4231SOL    HW224327   2.223   1.188  17.102 -1.8495  0.8301  0.9666
 4232SOL     OW24328   2.231   1.843   3.262  0.2512 -0.3035  0.5807
 4232SOL    HW124329   2.322   1.823   3.237 -0.4631 -2.8889  0.0481
 4232SOL    HW224330   2.248   1.910   3.329 -2.0183  1.0180 -0.1881
 4233SOL     OW24331   3.049   0.225   3.470  0.3250  0.4934 -0.0439
 4233SOL    HW124332   3.109   0.163   3.511  1.3151  0.0460 -2.1799
 4233SOL    HW224333   2.973   0.182   3.511  0.3969 -0.2584 -0.7036
 4234SOL     OW24334   0.790   4.613   9.426  0.3257  0.0057  0.0339
 4234SOL    HW124335   0.828   4.696   9.397  0.4397  1.5922  4.6188
 4234SOL    HW224336   0.720   4.650   9.481 -1.9792 -1.3479 -2.0013
 4235SOL     OW24337   3.895   0.206   8.492  0.5483 -0.5019 -0.0506
 4235SOL    HW124338   3.941   0.124   8.514  0.7426 -0.8543 -1.7548
 4235SOL    HW224339   3.827   0.195   8.559  1.5830  2.4774  1.4769
 4236SOL     OW24340   0.866   2.244   1.769 -0.1608  0.4975 -0.3701
 4236SOL    HW124341   0.822   2.183   1.710 -2.2224  0.8154  0.8440
 4236SOL    HW224342   0.926   2.193   1.824  1.3747  3.7550  0.9991
 4237SOL     OW24343   0.607   2.151  10.401 -0.3317 -0.3938 -0.1808
 4237SOL    HW124344   0.682   2.110  10.358 -0.1861 -1.2286  0.8859
 4237SOL    HW224345   0.657   2.170  10.480 -0.1166  1.3896 -0.7537
 4238SOL     OW24346   2.131   1.583   1.645 -0.4391 -0.0807 -0.5974
 4238SOL    HW124347   2.092   1.666   1.672  1.7306  0.3911  1.0679
 4238SOL    HW224348   2.061   1.517   1.649 -1.4253  0.9821 -0.4452
 4239SOL     OW24349   1.239   0.055   4.724  0.5431 -0.1178  0.2156
 4239SOL    HW124350   1.159   0.096   4.690 -0.0808 -2.2853 -0.9303
 4239SOL    HW224351   1.208   0.071   4.813  0.3958 -2.5880  0.6091
 4240SOL     OW24352   4.082   2.523   8.519  0.0124 -0.2165  0.2132
 4240SOL    HW124353   4.015   2.461   8.546  1.1140 -1.6151 -0.2582
 4240SOL    HW224354   4.116   2.487   8.437 -1.2184 -0.4499 -0.1968
 4241SOL     OW24355   0.963   4.440   8.760  0.2175  0.3910 -0.5067
 4241SOL    HW124356   0.870   4.459   8.756  0.7201  2.9648  0.3198
 4241SOL    HW224357   0.992   4.522   8.719  1.1146 -0.3648 -1.4048
 4242SOL     OW24358   1.018   0.423   4.135 -0.2246 -0.1035 -0.4731
 4242SOL    HW124359   1.090   0.368   4.164 -0.0237  1.1766  1.4397
 4242SOL    HW224360   0.949   0.361   4.159  0.3081 -0.3302  0.4479
 4243SOL     OW24361   4.282   0.720   3.197 -0.0756 -0.4805 -0.6399
 4243SOL    HW124362   4.231   0.711   3.277 -0.1511 -2.5722 -0.9185
 4243SOL    HW224363   4.233   0.652   3.151  0.6408 -0.7389 -1.0291
 4244SOL     OW24364   0.460   2.893   2.111 -0.2628 -0.1252  0.1055
 4244SOL    HW124365   0.469   2.804   2.147  1.0163 -0.2113 -0.4328
 4244SOL    HW224366   0.546   2.930   2.127 -0.6483 -0.0724  2.0379
 4245SOL     OW24367   3.552   0.097   6.781 -0.0754 -0.0887  0.6566
 4245SOL    HW124368   3.621   0.079   6.716  0.5928  2.0120  0.8027
 4245SOL    HW224369   3.509   0.174   6.746 -0.2565 -0.0650  0.9314
 4246SOL     OW24370   0.167   2.818   3.256 -0.5399 -0.2368  0.0355
 4246SOL    HW124371   0.081   2.781   3.276 -0.3341  0.4099  2.0627
 4246SOL    HW224372   0.162   2.908   3.287  0.2948  0.4704 -1.8415
 4247SOL     OW24373   1.604   1.262   5.723  0.1948  0.0250  0.2586
 4247SOL    HW124374   1.586   1.169   5.735  0.8588 -0.1520 -0.0755
 4247SOL    HW224375   1.588   1.272   5.629  1.0638 -1.7643 -0.0787
 4248SOL     OW24376   2.582   4.169  12.276 -0.4457  0.0662  0.0486
 4248SOL    HW124377   2.655   4.205  12.225 -0.2913  1.0950  0.9826
 4248SOL    HW224378   2.637   4.108  12.327 -1.1104  1.0113  1.9020
 4249SOL     OW24379   1.790   2.386  15.618 -0.4239 -0.0368 -0.2577
 4249SOL    HW124380   1.779   2.473  15.655 -2.0580 -0.8257  1.1038
 4249SOL    HW224381   1.824   2.335  15.691  1.4384  0.1233 -1.0072
 4250SOL     OW24382   4.122   1.994   2.540  0.0447 -0.1667 -0.5465
 4250SOL    HW124383   4.051   1.937   2.509 -0.0523  1.9861 -4.3029
 4250SOL    HW224384   4.166   2.014   2.457  1.3592 -2.0757 -0.2966
 4251SOL     OW24385   0.020   0.806   3.582 -0.1428 -0.5605 -0.6344
 4251SOL    HW124386   0.042   0.899   3.572  0.1738 -0.5652 -0.0001
 4251SOL    HW224387   4.716   0.798   3.495 -1.9459  0.1531  0.1486
 4252SOL     OW24388   2.599   1.059   3.861 -0.0230  0.0897 -0.6120
 4252SOL    HW124389   2.529   1.076   3.798  0.5569  0.1529 -1.2428
 4252SOL    HW224390   2.555   1.070   3.946 -1.8214  1.1023 -1.6846
 4253SOL     OW24391   4.351   0.823   5.846  0.2774 -0.3227 -0.3036
 4253SOL    HW124392   4.428   0.880   5.848 -0.2487  0.3825 -0.1490
 4253SOL    HW224393   4.343   0.796   5.754  0.1161 -1.6616  0.0955
 4254SOL     OW24394   0.333   0.818   3.680 -0.1614 -0.1072  0.6141
 4254SOL    HW124395   0.318   0.912   3.678 -3.6517 -0.6358  2.0481
 4254SOL    HW224396   0.392   0.823   3.756  0.7090 -1.5804  0.0344
 4255SOL     OW24397   1.041   2.911  13.314  0.5717  0.1641  0.7672
 4255SOL    HW124398   1.013   2.848  13.380  0.7581  0.2872  0.9622
 4255SOL    HW224399   1.034   2.859  13.234 -2.4164  2.6177 -0.6055
 4256SOL     OW24400   1.180   3.098  10.438 -0.6072  0.3537  0.3504
 4256SOL    HW124401   1.104   3.117  10.382 -0.9842  0.4125  0.8831
 4256SOL    HW224402   1.167   3.165  10.505 -0.3948 -1.0811  1.8255
 4257SOL     OW24403   4.209   3.432   7.659  0.0629  0.0207  0.8027
 4257SOL    HW124404   4.267   3.506   7.676 -0.1583  0.5346 -0.6754
 4257SOL    HW224405   4.231   3.378   7.735  2.0616 -1.9049 -1.1778
 4258SOL     OW24406   2.079   4.359   9.765  0.2293  0.0610 -0.6355
 4258SOL    HW124407   2.147   4.405   9.716 -0.5687  2.1977  0.3003
 4258SOL    HW224408   2.142   4.310   9.817 -2.2771 -1.6045  0.8335
 4259SOL     OW24409   4.347   2.158   4.618  0.1818 -0.5399 -0.7087
 4259SOL    HW124410   4.436   2.152   4.653 -0.5610 -0.3176  1.2188
 4259SOL    HW224411   4.295   2.089   4.660  0.7072 -0.4591  0.0802
 4260SOL     OW24412   1.826   1.244   4.425 -0.8705 -0.0610 -0.2030
 4260SOL    HW124413   1.746   1.288   4.397 -1.5905 -0.3065  1.4883
 4260SOL    HW224414   1.789   1.188   4.493 -0.2009  0.8319  0.8917
 4261SOL     OW24415   1.539   1.001   3.306  0.1048  0.3573  0.0631
 4261SOL    HW124416   1.581   0.937   3.363  1.3199  1.7550  0.7432
 4261SOL    HW224417   1.526   1.072   3.368  2.3062 -0.7139  1.7442
 4262SOL     OW24418   1.080   3.343   2.143 -0.3583 -0.0999 -1.0550
 4262SOL    HW124419   1.053   3.426   2.104 -0.2480  0.8541  0.8981
 4262SOL    HW224420   1.154   3.378   2.192 -0.4682 -0.7546 -0.4192
 4263SOL     OW24421   0.612   0.486   7.145  0.1198 -1.1939  0.3572
 4263SOL    HW124422   0.606   0.552   7.214  0.2999 -0.0317 -0.7418
 4263SOL    HW224423   0.689   0.436   7.171  2.4600  1.7270 -1.0206
 4264SOL     OW24424   3.489   0.727   4.822 -0.5055  0.0064 -0.5395
 4264SOL    HW124425   3.430   0.802   4.808  1.0918  1.7622  1.9647
 4264SOL    HW224426   3.527   0.730   4.735  1.3637  1.0760  0.3178
 4265SOL     OW24427   3.715   4.422   8.368 -0.2040 -0.0612  0.0693
 4265SOL    HW124428   3.666   4.471   8.301  1.1443 -0.6325 -1.3359
 4265SOL    HW224429   3.785   4.380   8.319 -0.7969 -1.0471  0.0668
 4266SOL     OW24430   3.908   3.329   5.850 -0.3371  0.1817  0.5115
 4266SOL    HW124431   3.826   3.367   5.883 -0.2160  0.4592  0.4895
 4266SOL    HW224432   3.969   3.329   5.924 -0.8113  0.4701  0.9062
 4267SOL     OW24433   3.852   1.062   8.563 -0.0550  0.2543 -0.4043
 4267SOL    HW124434   3.867   1.141   8.512  2.3056  0.4503  0.5444
 4267SOL    HW224435   3.941   1.027   8.576 -0.5045 -1.7010 -2.7166
 4268SOL     OW24436   2.129   2.798  16.345  0.0309  0.0125  1.0259
 4268SOL    HW124437   2.151   2.736  16.275 -1.3490 -0.5391  1.0754
 4268SOL    HW224438   2.218   2.796  16.381 -1.0809 -3.8285  3.5554
 4269SOL     OW24439   0.942   4.711  10.128  0.2313 -0.2333 -0.2052
 4269SOL    HW124440   0.928   4.652  10.054 -0.0267  0.8532 -1.0268
 4269SOL    HW224441   0.877   4.670  10.185  0.2385 -0.3013 -0.2448
 4270SOL     OW24442   1.010   2.871   3.963 -0.9799  0.3332  0.0134
 4270SOL    HW124443   1.059   2.899   3.885 -2.3266  0.6559 -0.7277
 4270SOL    HW224444   0.948   2.944   3.957 -0.4788  0.8154  0.6806
 4271SOL     OW24445   1.818   1.891   6.792  0.0067 -0.5731 -0.3427
 4271SOL    HW124446   1.729   1.867   6.817  0.0720 -1.2731 -0.7702
 4271SOL    HW224447   1.797   1.949   6.718  0.9079  0.7794  0.4560
 4272SOL     OW24448   0.128   2.676   6.086 -0.8912 -0.2337 -0.3709
 4272SOL    HW124449   0.171   2.674   6.171 -0.8029 -1.6841 -0.4605
 4272SOL    HW224450   0.119   2.770   6.067 -0.1326  0.0743  0.8307
 4273SOL     OW24451   3.300   0.268   7.157  0.2375  0.0062  0.0695
 4273SOL    HW124452   3.248   0.209   7.103  1.4995 -1.2490  0.2291
 4273SOL    HW224453   3.387   0.227   7.158  1.0482  1.7416  0.4130
 4274SOL     OW24454   4.224   1.718  17.674 -0.6913  0.6705  0.0917
 4274SOL    HW124455   4.317   1.704  17.656 -0.9157 -2.2979  1.3634
 4274SOL    HW224456   4.196   1.772  17.600 -2.2416  2.5712  2.0713
 4275SOL     OW24457   3.859   2.884   7.878 -0.1097 -0.3161  0.1210
 4275SOL    HW124458   3.936   2.924   7.837  0.6178 -1.9499 -0.1282
 4275SOL    HW224459   3.786   2.887   7.817 -1.2939  0.1656  1.5679
 4276SOL     OW24460   4.532   0.462   6.313 -0.1605  0.7208  0.7081
 4276SOL    HW124461   4.469   0.416   6.256  2.0085  0.5466 -1.5606
 4276SOL    HW224462   4.534   0.555   6.292 -0.0394  1.0797  2.3559
 4277SOL     OW24463   2.830   3.434   8.972  0.1313  0.2056  0.4538
 4277SOL    HW124464   2.871   3.390   8.897 -2.1031  0.6041 -1.0284
 4277SOL    HW224465   2.739   3.424   8.942  0.2541 -1.7237  0.7419
 4278SOL     OW24466   2.820   4.020   8.980  1.0254 -0.1692  0.7503
 4278SOL    HW124467   2.790   3.975   8.901 -0.6571  2.5096 -0.1251
 4278SOL    HW224468   2.741   4.072   8.995  0.8684  0.0041 -0.6749
 4279SOL     OW24469   1.097   1.020  17.617  0.0852 -0.1633 -0.2000
 4279SOL    HW124470   1.077   1.066  17.536  4.3619  0.6573 -0.7703
 4279SOL    HW224471   1.110   1.098  17.672  0.3364 -0.7888  0.6321
 4280SOL     OW24472   0.066   0.101   1.552  0.0232 -0.4270  0.1844
 4280SOL    HW124473   0.079   0.185   1.597  0.5924 -0.3505 -0.1307
 4280SOL    HW224474   0.155   0.081   1.523  1.1445  1.1239  2.5944
 4281SOL     OW24475   2.841   2.102  10.750  0.8359  0.2637  0.2317
 4281SOL    HW124476   2.794   2.062  10.677  1.0135 -1.8247  1.2778
 4281SOL    HW224477   2.802   2.056  10.825 -1.2505 -0.5641 -1.3510
 4282SOL     OW24478   4.535   3.597   4.649 -0.4162  0.5867 -0.2680
 4282SOL    HW124479   4.564   3.506   4.641  0.5003  1.0757 -2.4357
 4282SOL    HW224480   4.440   3.591   4.656 -0.1676 -1.9099  1.0016
 4283SOL     OW24481   0.500   1.291   4.600 -0.1724 -0.5194  0.0637
 4283SOL    HW124482   0.417   1.333   4.623 -0.0883  0.5627 -1.5722
 4283SOL    HW224483   0.541   1.300   4.686  3.6305  0.0736 -1.7901
 4284SOL     OW24484   1.300   0.470   7.251  0.2260 -0.3749  0.1568
 4284SOL    HW124485   1.275   0.412   7.323 -0.8859 -0.1600 -0.0698
 4284SOL    HW224486   1.260   0.438   7.170 -0.6219 -0.4632  0.6170
 4285SOL     OW24487   0.676   4.371   0.238 -0.3183 -0.3197  0.4086
 4285SOL    HW124488   0.626   4.333   0.166  0.1757 -1.2423  0.5563
 4285SOL    HW224489   0.757   4.328   0.212  0.8155  0.6500  2.3233
 4286SOL     OW24490   4.206   0.751  13.532  0.0672 -0.4213  0.0800
 4286SOL    HW124491   4.113   0.735  13.550 -0.2519 -1.9139 -2.8505
 4286SOL    HW224492   4.217   0.722  13.441  0.7659 -0.2908  0.1248
 4287SOL     OW24493   0.500   4.008   7.567  0.3267  0.0675 -0.2625
 4287SOL    HW124494   0.477   4.099   7.584  0.6081  0.2872 -1.0375
 4287SOL    HW224495   0.534   4.023   7.479 -0.6836  0.7905 -0.5289
 4288SOL     OW24496   1.479   0.075   7.150  0.1598  0.1360  0.8199
 4288SOL    HW124497   1.421   0.118   7.087  1.7215  1.2372  0.1285
 4288SOL    HW224498   1.463   0.123   7.231 -2.3269  2.0283 -0.7626
 4289SOL     OW24499   2.618   2.917   3.979  0.4349  0.1430 -0.1004
 4289SOL    HW124500   2.656   2.886   3.897  1.6471 -1.8804  1.1914
 4289SOL    HW224501   2.530   2.881   3.967  0.9595 -1.1702 -0.0917
 4290SOL     OW24502   4.144   1.523   0.096  0.0687  0.2433 -0.1590
 4290SOL    HW124503   4.158   1.471   0.017 -0.2472 -0.4256  0.2221
 4290SOL    HW224504   4.161   1.613   0.069  2.7693 -0.0219  0.6948
 4291SOL     OW24505   1.117   3.165   1.903 -0.2978 -0.2928  0.6243
 4291SOL    HW124506   1.169   3.243   1.884  0.2483 -0.9610 -0.6873
 4291SOL    HW224507   1.052   3.191   1.968 -2.1627 -1.3314 -0.8082
 4292SOL     OW24508   2.279   0.407   4.004 -0.3096 -0.5181 -0.5862
 4292SOL    HW124509   2.272   0.493   4.045  2.7452 -0.0043 -1.0767
 4292SOL    HW224510   2.192   0.377   4.026 -0.1164 -1.5709 -1.2555
 4293SOL     OW24511   0.129   1.336  11.080  0.0356  0.6563  0.2219
 4293SOL    HW124512   0.179   1.375  11.153 -1.3820  1.3146  0.8272
 4293SOL    HW224513   0.146   1.391  11.003 -0.3456 -0.0811 -0.3811
 4294SOL     OW24514   1.461   2.151   5.168  0.5332 -0.2468 -0.0189
 4294SOL    HW124515   1.435   2.061   5.150  0.8673 -0.6511  1.5014
 4294SOL    HW224516   1.499   2.173   5.083  0.7134  1.7280  0.5577
 4295SOL     OW24517   3.783   1.252  10.187 -0.6136 -0.1567  0.1929
 4295SOL    HW124518   3.805   1.176  10.132 -0.8663  0.7148 -1.1134
 4295SOL    HW224519   3.818   1.232  10.274  1.2662  2.3304  0.0367
 4296SOL     OW24520   4.210   1.573   4.510 -0.5914  0.7669 -0.0821
 4296SOL    HW124521   4.138   1.598   4.567 -2.3442 -1.8097 -1.1519
 4296SOL    HW224522   4.219   1.648   4.451  0.0696 -0.4010 -1.5000
 4297SOL     OW24523   0.670   3.631   2.924 -0.1231  0.0480  0.7200
 4297SOL    HW124524   0.713   3.716   2.916  2.5497 -1.4342 -0.6422
 4297SOL    HW224525   0.676   3.619   3.019 -2.3387 -0.8611  0.7525
 4298SOL     OW24526   2.501   3.314   4.176  0.2636  0.0543  0.2521
 4298SOL    HW124527   2.499   3.408   4.161  0.1520 -0.3692 -2.4231
 4298SOL    HW224528   2.447   3.284   4.103  1.1960  1.3818 -0.9921
 4299SOL     OW24529   4.169   4.668   5.757  0.2210  0.0448 -0.2113
 4299SOL    HW124530   4.196   4.576   5.762  0.2034  0.1282  1.2542
 4299SOL    HW224531   4.189   4.669   5.663 -0.9963  2.4034 -0.4577
 4300SOL     OW24532   1.598   1.273   5.451  0.0193  0.5540  0.1540
 4300SOL    HW124533   1.693   1.280   5.447  0.0652 -0.3280 -0.3374
 4300SOL    HW224534   1.577   1.265   5.358  0.8209 -0.3145  0.0520
 4301SOL     OW24535   2.591   4.653  14.036  0.5898 -0.6059 -0.3703
 4301SOL    HW124536   2.622   0.007  14.025  0.8470 -0.8817 -1.9609
 4301SOL    HW224537   2.634   4.618  14.114  0.8222 -2.9061 -1.5188
 4302SOL     OW24538   2.003   1.794   1.778  0.1976  0.5305 -0.4855
 4302SOL    HW124539   1.976   1.876   1.736  0.0819  1.1774  0.8337
 4302SOL    HW224540   1.925   1.760   1.821  1.9766 -1.6446  1.0498
 4303SOL     OW24541   3.824   0.377   9.322  0.1483  0.4307 -0.1382
 4303SOL    HW124542   3.850   0.448   9.264  0.6110  0.5408  0.1947
 4303SOL    HW224543   3.732   0.371   9.297 -0.5020 -0.7716  2.4759
 4304SOL     OW24544   3.000   3.916   9.147 -0.6491  0.0905 -0.2101
 4304SOL    HW124545   2.986   3.829   9.110  2.5160 -0.1228 -0.9573
 4304SOL    HW224546   2.941   3.967   9.092 -0.7668  0.1446 -0.0324
 4305SOL     OW24547   4.710   3.431   4.366 -0.1309  0.3560  0.2162
 4305SOL    HW124548   0.008   3.375   4.296  0.2099  0.6234  0.1661
 4305SOL    HW224549   4.677   3.501   4.309 -0.7228  1.0077  1.3704
 4306SOL     OW24550   2.589   1.025   2.093  0.9969 -0.1579  0.0522
 4306SOL    HW124551   2.638   1.098   2.054 -0.2211  1.4455  1.4995
 4306SOL    HW224552   2.506   1.073   2.098  0.3465 -1.3414  0.6192
 4307SOL     OW24553   0.194   0.249   9.664  0.1374  0.2176 -0.7420
 4307SOL    HW124554   0.148   0.295   9.594 -0.9620 -1.4200 -1.0902
 4307SOL    HW224555   0.223   0.166   9.626  0.4347 -0.2107  0.4296
 4308SOL     OW24556   4.100   3.936  13.096 -0.2886 -0.1856 -0.2030
 4308SOL    HW124557   4.194   3.924  13.104 -0.9262 -3.6479  2.3073
 4308SOL    HW224558   4.100   4.029  13.119 -3.6385 -0.2862  0.3100
 4309SOL     OW24559   3.082   2.857  11.069  0.9582  1.0358 -0.0554
 4309SOL    HW124560   3.112   2.920  11.004  2.3991 -0.8611 -1.2243
 4309SOL    HW224561   3.169   2.818  11.077  0.3376 -0.2892  0.2220
 4310SOL     OW24562   0.227   0.851  12.767 -0.0331 -0.3380 -0.2970
 4310SOL    HW124563   0.303   0.817  12.815  1.7291  2.5148 -1.0575
 4310SOL    HW224564   0.154   0.796  12.796 -0.3075  0.7401  1.0348
 4311SOL     OW24565   1.188   1.687   0.094 -0.5559  0.0648 -0.6641
 4311SOL    HW124566   1.278   1.668   0.118 -0.5095 -0.0471 -0.9346
 4311SOL    HW224567   1.135   1.610   0.116  1.4938 -0.3817  2.6656
 4312SOL     OW24568   2.242   2.836   1.867  0.4696 -0.6159  0.1279
 4312SOL    HW124569   2.227   2.776   1.939 -0.1529  0.8232  1.2049
 4312SOL    HW224570   2.275   2.781   1.796  1.8664 -0.3739  0.6054
 4313SOL     OW24571   0.982   1.101   7.167  0.3887 -0.2815 -0.0917
 4313SOL    HW124572   1.004   1.124   7.077  0.6110  1.6469  0.4566
 4313SOL    HW224573   1.026   1.017   7.178  0.5062  0.0165  1.6908
 4314SOL     OW24574   0.989   1.314   9.570  0.5567 -0.4174  0.5407
 4314SOL    HW124575   0.946   1.303   9.655  1.5559  1.9792  1.3382
 4314SOL    HW224576   0.920   1.285   9.511 -1.3766  0.9859  2.0897
 4315SOL     OW24577   0.872   1.769  12.107 -0.2478  0.1821 -0.0110
 4315SOL    HW124578   0.935   1.711  12.065 -0.4053 -0.0985  0.1394
 4315SOL    HW224579   0.893   1.747  12.197 -1.9222 -0.2212  0.2907
 4316SOL     OW24580   0.072   2.518   6.683  0.7552  0.2503 -0.1657
 4316SOL    HW124581   0.100   2.494   6.771 -1.7293 -1.7909  0.0624
 4316SOL    HW224582   0.050   2.433   6.646 -0.8752  1.2259 -1.4304
 4317SOL     OW24583   2.984   3.401   0.657 -0.1816 -0.2924 -0.4228
 4317SOL    HW124584   3.010   3.319   0.614 -2.1563 -0.2126 -1.7999
 4317SOL    HW224585   2.889   3.401   0.665 -0.3170  0.0457 -1.9889
 4318SOL     OW24586   3.400   4.568   6.780 -0.0780 -0.1734  0.2272
 4318SOL    HW124587   3.434   4.509   6.713 -1.1857 -1.6936  0.9946
 4318SOL    HW224588   3.460   4.642   6.788  1.9968 -1.5606 -2.6217
 4319SOL     OW24589   2.627   0.580   3.750 -0.1809  0.2307 -0.3289
 4319SOL    HW124590   2.584   0.543   3.827 -1.6914  0.6927 -0.9271
 4319SOL    HW224591   2.654   0.669   3.771 -2.1107  0.4179  1.3296
 4320SOL     OW24592   0.174   0.363   8.191 -0.7373 -0.7434 -1.3414
 4320SOL    HW124593   0.167   0.459   8.186 -0.7141 -0.7515 -1.5468
 4320SOL    HW224594   0.258   0.355   8.147  0.1383 -0.5961  0.3034
 4321SOL     OW24595   2.769   4.142   1.555  0.6559  0.8193 -0.1080
 4321SOL    HW124596   2.843   4.188   1.595  0.5601 -1.5018  2.7165
 4321SOL    HW224597   2.785   4.161   1.462  0.8353  0.2848 -0.1824
 4322SOL     OW24598   3.407   3.443   2.274  0.1178 -0.5376 -0.3081
 4322SOL    HW124599   3.338   3.463   2.337  2.0286  1.1330  1.2755
 4322SOL    HW224600   3.347   3.404   2.211  0.4007 -0.7604 -0.4412
 4323SOL     OW24601   1.985   1.066   4.931 -0.6809 -0.0127 -0.4638
 4323SOL    HW124602   2.043   1.069   4.855  1.5878  2.3959  1.3747
 4323SOL    HW224603   1.982   0.972   4.949  1.0847  0.1244  0.5318
 4324SOL     OW24604   0.393   0.403   3.343 -0.6804 -0.4628  0.6571
 4324SOL    HW124605   0.331   0.453   3.397 -0.6788  0.2847 -0.0322
 4324SOL    HW224606   0.476   0.449   3.331 -1.6551  1.1849  0.2024
 4325SOL     OW24607   2.498   1.512   3.665  0.8279  0.2620 -0.4009
 4325SOL    HW124608   2.435   1.444   3.688 -1.9190  1.9938 -2.6261
 4325SOL    HW224609   2.494   1.498   3.571  0.7617  0.4632 -0.4303
 4326SOL     OW24610   4.591   2.064   7.264  0.7287 -0.4328  0.3242
 4326SOL    HW124611   4.545   2.146   7.276 -1.0408 -1.0514 -2.2100
 4326SOL    HW224612   4.677   2.098   7.239 -0.7617  1.8707 -1.6483
 4327SOL     OW24613   3.359   0.529   0.832  0.1713 -0.4165  0.4084
 4327SOL    HW124614   3.357   0.441   0.795 -1.6583  0.9097 -2.6060
 4327SOL    HW224615   3.417   0.507   0.905  1.6820 -0.7510 -0.8899
 4328SOL     OW24616   1.792   4.605   1.506 -0.4000  0.3705 -0.4743
 4328SOL    HW124617   1.740   4.576   1.580  2.1086  0.2179  1.1900
 4328SOL    HW224618   1.724   4.637   1.445 -0.8653 -1.5219 -0.9499
 4329SOL     OW24619   0.690   3.174   1.786  0.1335 -0.4588 -0.0028
 4329SOL    HW124620   0.712   3.106   1.850  1.7675  0.4310  0.4009
 4329SOL    HW224621   0.596   3.184   1.799 -0.0136  0.0492 -1.5498
 4330SOL     OW24622   0.597   2.278   5.129  0.7631  0.8077 -0.2660
 4330SOL    HW124623   0.566   2.289   5.218  1.2446  0.8627 -0.1050
 4330SOL    HW224624   0.519   2.251   5.080  1.1253  2.2876 -1.6549
 4331SOL     OW24625   1.068   0.011   3.149  0.1237  0.2749  0.0844
 4331SOL    HW124626   1.003   0.009   3.219 -1.1267  1.2013 -1.0693
 4331SOL    HW224627   1.052   0.095   3.106 -2.0681 -0.2992 -0.2226
 4332SOL     OW24628   3.368   3.445   8.676  0.1531 -0.0681  0.5575
 4332SOL    HW124629   3.420   3.458   8.756  0.6413  3.1055 -0.2703
 4332SOL    HW224630   3.298   3.501   8.709 -0.5915 -0.3822 -0.5052
 4333SOL     OW24631   0.095   1.148   2.416 -0.5391 -0.0256 -0.1021
 4333SOL    HW124632   0.071   1.088   2.486 -0.4362 -0.0818 -0.1147
 4333SOL    HW224633   0.176   1.190   2.445 -1.6961 -0.7135  4.1596
 4334SOL     OW24634   1.172   1.813   4.592  0.0421  0.4137  0.0465
 4334SOL    HW124635   1.104   1.749   4.614 -2.3021  2.5976 -0.8186
 4334SOL    HW224636   1.140   1.888   4.643 -2.3546 -0.3229 -0.3716
 4335SOL     OW24637   1.246   1.027   3.528 -0.5353  0.1585  0.3479
 4335SOL    HW124638   1.270   1.042   3.619  1.4828 -3.4206  0.3909
 4335SOL    HW224639   1.287   0.941   3.523 -1.6019 -0.2488 -1.2453
 4336SOL     OW24640   1.483   4.671   5.949  0.6510  0.3005  0.1687
 4336SOL    HW124641   1.565   4.692   5.904  0.9674  1.0736  1.0714
 4336SOL    HW224642   1.516   4.630   6.029  1.5333  1.5204  0.4399
 4337SOL     OW24643   4.217   2.858   8.291 -0.4216  0.0738 -0.0642
 4337SOL    HW124644   4.159   2.797   8.337 -3.9070  3.0025 -0.5901
 4337SOL    HW224645   4.162   2.936   8.284  0.2972  0.3576 -2.3806
 4338SOL     OW24646   1.373   1.252   3.409  0.7337  0.1594 -0.5939
 4338SOL    HW124647   1.331   1.183   3.461  1.6801 -0.6075 -0.8534
 4338SOL    HW224648   1.300   1.299   3.370 -0.6954 -0.2228  1.6134
 4339SOL     OW24649   1.564   4.104   7.247  0.3023 -0.1123  0.3018
 4339SOL    HW124650   1.471   4.106   7.271  0.4283  2.1868  0.5486
 4339SOL    HW224651   1.579   4.197   7.261 -0.8614  0.1509 -0.1466
 4340SOL     OW24652   3.643   1.848   3.874  0.6480  0.0843 -0.2163
 4340SOL    HW124653   3.591   1.787   3.823 -0.8784  0.4099  0.9497
 4340SOL    HW224654   3.624   1.823   3.965 -2.7840 -0.0874 -0.9847
 4341SOL     OW24655   1.344   3.089  10.231  0.7070 -0.3937 -0.1863
 4341SOL    HW124656   1.285   3.090  10.306  1.9550 -0.9386  0.8102
 4341SOL    HW224657   1.292   3.023  10.183 -0.4675  0.5969 -0.2767
 4342SOL     OW24658   3.434   2.853   3.690  0.0297 -0.4143 -0.1352
 4342SOL    HW124659   3.343   2.858   3.662  0.0742  0.8663 -0.0758
 4342SOL    HW224660   3.453   2.936   3.735  1.5170  0.1430 -1.7992
 4343SOL     OW24661   1.667   1.220   2.344  0.7400  0.5851  0.0119
 4343SOL    HW124662   1.730   1.271   2.395  0.7513  0.0092  0.5680
 4343SOL    HW224663   1.609   1.175   2.406  0.6870 -0.0618 -0.5110
 4344SOL     OW24664   2.167   2.813  11.558  0.2313 -0.2968 -0.0057
 4344SOL    HW124665   2.189   2.756  11.631  1.9516  0.7686  0.3156
 4344SOL    HW224666   2.255   2.852  11.563  0.9911 -1.6832 -2.6551
 4345SOL     OW24667   3.373   2.662  15.600 -0.0832 -0.1320  0.1042
 4345SOL    HW124668   3.350   2.575  15.632  1.4173 -0.3353  0.6230
 4345SOL    HW224669   3.353   2.649  15.507 -2.5104  1.7037  0.3546
 4346SOL     OW24670   1.148   4.401   2.794  0.4434 -0.1714  0.3987
 4346SOL    HW124671   1.214   4.354   2.845  1.5554  2.0719  1.0167
 4346SOL    HW224672   1.172   4.491   2.814  2.4201 -0.4887 -0.5752
 4347SOL     OW24673   3.787   0.737   2.704  1.0260 -0.4805 -0.0288
 4347SOL    HW124674   3.831   0.717   2.621  0.8189  5.1815 -1.5435
 4347SOL    HW224675   3.704   0.691   2.697  0.2125  1.1321 -0.8691
 4348SOL     OW24676   3.351   1.012   8.556 -0.3218  0.0077  0.0654
 4348SOL    HW124677   3.352   1.024   8.651  0.1574 -1.6017  0.2616
 4348SOL    HW224678   3.447   1.007   8.557 -0.3154  0.0910 -0.4129
 4349SOL     OW24679   2.025   2.070   6.106  0.2292  0.3409 -0.1100
 4349SOL    HW124680   2.119   2.062   6.094  0.1613 -0.1624 -0.3247
 4349SOL    HW224681   2.005   2.077   6.013 -2.8535 -2.1734  0.3555
 4350SOL     OW24682   3.819   4.197  11.758 -0.1920 -0.3486 -0.0890
 4350SOL    HW124683   3.795   4.160  11.843  1.1823 -0.5790  0.2070
 4350SOL    HW224684   3.880   4.128  11.731 -0.9848 -1.9839  2.3146
 4351SOL     OW24685   4.701   3.898   6.812  0.1259  0.7585  0.2731
 4351SOL    HW124686   0.027   3.951   6.861 -0.6412  2.1009 -0.2001
 4351SOL    HW224687   0.024   3.828   6.785 -0.7981 -0.0290  0.2940
 4352SOL     OW24688   0.630   0.535   2.886 -0.7796 -0.3261  0.4957
 4352SOL    HW124689   0.654   0.601   2.821  0.3540 -0.8748  0.3524
 4352SOL    HW224690   0.541   0.516   2.857 -1.0027  1.7218 -0.2015
 4353SOL     OW24691   0.344   3.793  11.584  0.1345 -0.7889 -0.3780
 4353SOL    HW124692   0.411   3.857  11.560 -0.0910 -0.6653 -0.6759
 4353SOL    HW224693   0.294   3.839  11.651  0.8167  1.6584 -1.5574
 4354SOL     OW24694   3.069   3.965   9.760 -0.7688  0.2404  0.1357
 4354SOL    HW124695   3.057   3.939   9.668  0.7782  2.5441 -0.7052
 4354SOL    HW224696   3.135   4.034   9.754  0.1995 -0.8352 -1.6305
 4355SOL     OW24697   4.483   3.362   2.472 -0.1985 -0.6945  0.5126
 4355SOL    HW124698   4.517   3.333   2.556  1.4209 -0.5314 -0.0991
 4355SOL    HW224699   4.390   3.365   2.497  0.3783  0.5508  2.4853
 4356SOL     OW24700   0.520   0.577  15.805 -0.0691  0.1831 -0.0125
 4356SOL    HW124701   0.570   0.496  15.816  0.1028  0.1346 -1.1921
 4356SOL    HW224702   0.570   0.618  15.735 -1.9730  1.5768 -0.5789
 4357SOL     OW24703   2.625   3.315   4.984 -0.0006 -0.3084  0.1326
 4357SOL    HW124704   2.613   3.348   4.895 -1.0109 -0.3041  0.2671
 4357SOL    HW224705   2.636   3.394   5.037 -1.5147  0.7806 -1.1591
 4358SOL     OW24706   2.181   3.124   8.442  0.3922 -0.0665  0.1002
 4358SOL    HW124707   2.220   3.127   8.354  0.2531 -1.3229  0.0042
 4358SOL    HW224708   2.215   3.040   8.471 -0.2216 -0.0795  0.7793
 4359SOL     OW24709   1.219   2.171   3.897  0.4839 -0.5163  1.4395
 4359SOL    HW124710   1.213   2.161   3.992  1.3850  0.6601  1.6180
 4359SOL    HW224711   1.312   2.155   3.885  0.2444 -1.1737  0.4632
 4360SOL     OW24712   4.301   2.796   0.900 -0.7814 -0.1013 -0.7406
 4360SOL    HW124713   4.209   2.815   0.918 -0.9256 -2.4412  0.9395
 4360SOL    HW224714   4.302   2.801   0.804 -0.2388 -0.5282 -0.7583
 4361SOL     OW24715   1.319   4.334   6.476  0.5460  0.2571  0.0033
 4361SOL    HW124716   1.258   4.348   6.403 -1.7813  2.1548  2.3465
 4361SOL    HW224717   1.279   4.264   6.527  2.6388 -0.2111  0.9898
 4362SOL     OW24718   2.342   2.671   4.592  0.0286 -0.0569 -0.3888
 4362SOL    HW124719   2.285   2.660   4.516 -0.2502 -2.3819  0.1790
 4362SOL    HW224720   2.297   2.746   4.632  1.4889 -0.4329  1.9660
 4363SOL     OW24721   0.977   4.221   3.119 -0.1672 -0.6260  0.0770
 4363SOL    HW124722   1.004   4.175   3.040  3.4780 -0.8025  1.4004
 4363SOL    HW224723   0.963   4.309   3.084  2.3689 -1.6920 -3.5285
 4364SOL     OW24724   3.801   0.490   2.174  0.0018 -0.0080  0.1026
 4364SOL    HW124725   3.830   0.426   2.109 -1.8719  0.5515 -1.2965
 4364SOL    HW224726   3.718   0.521   2.137 -0.8476 -0.9356  1.2583
 4365SOL     OW24727   1.538   3.730   8.322 -0.2590 -0.1988  0.1469
 4365SOL    HW124728   1.614   3.739   8.379  0.0288  0.4505 -0.3413
 4365SOL    HW224729   1.551   3.638   8.299 -3.7561 -0.4776 -0.6206
 4366SOL     OW24730   4.525   3.641   0.100 -0.1561 -0.1080  0.3688
 4366SOL    HW124731   4.524   3.695   0.179  1.4338 -0.9186  0.9300
 4366SOL    HW224732   4.618   3.649   0.080 -0.8966 -0.6153 -3.1666
 4367SOL     OW24733   0.069   4.097  16.342 -0.1080 -0.1021  0.2469
 4367SOL    HW124734   0.112   4.018  16.310  1.9224  1.7707 -1.5613
 4367SOL    HW224735   0.027   4.127  16.262  0.3778 -0.5202 -0.1707
 4368SOL     OW24736   0.869   4.210   9.912 -0.3469 -0.1483 -0.0565
 4368SOL    HW124737   0.810   4.241   9.843 -0.6902 -0.6758 -0.0049
 4368SOL    HW224738   0.929   4.151   9.867  0.4694 -0.3914  1.3603
 4369SOL     OW24739   2.367   3.342   6.646 -0.3093 -0.2117 -0.1772
 4369SOL    HW124740   2.411   3.426   6.635 -0.7840  0.2939  1.8155
 4369SOL    HW224741   2.380   3.333   6.740  0.4607  2.0660 -0.0564
 4370SOL     OW24742   3.177   3.871   4.397  0.0737 -0.2555 -0.3043
 4370SOL    HW124743   3.109   3.936   4.376 -0.2636 -0.0940  1.2755
 4370SOL    HW224744   3.125   3.828   4.465  0.4833  0.0194  0.1838
 4371SOL     OW24745   4.310   4.535   4.312 -0.4214 -0.3281  0.0212
 4371SOL    HW124746   4.340   4.472   4.377  0.2542 -1.0141 -0.9620
 4371SOL    HW224747   4.380   4.531   4.247  0.2031  2.7605  0.5017
 4372SOL     OW24748   4.211   0.115   5.181 -0.6198  0.0956 -0.0427
 4372SOL    HW124749   4.230   0.155   5.097 -0.7283  0.7726  0.2605
 4372SOL    HW224750   4.209   0.020   5.169 -0.7048  0.3660 -2.1946
 4373SOL     OW24751   0.247   2.364   8.456 -0.3213  0.5440 -0.5309
 4373SOL    HW124752   0.209   2.416   8.527  0.5445  0.2087  0.1843
 4373SOL    HW224753   0.224   2.415   8.378 -0.6203  1.1067 -0.0731
 4374SOL     OW24754   2.079   3.793   3.725 -0.1810 -0.1410 -0.3452
 4374SOL    HW124755   2.026   3.715   3.745 -0.1893 -0.3453 -1.1597
 4374SOL    HW224756   2.060   3.839   3.807 -0.8366  0.9089 -1.0961
 4375SOL     OW24757   1.709   0.161   6.800  0.2184  0.4753 -0.1921
 4375SOL    HW124758   1.692   0.114   6.882  1.0899  0.3386 -0.0933
 4375SOL    HW224759   1.650   0.235   6.785 -1.9573 -1.4103 -0.8166
 4376SOL     OW24760   2.522   4.617  14.923  0.0528  0.0474 -0.3667
 4376SOL    HW124761   2.542   4.650  15.010 -0.6827 -0.4019 -0.0222
 4376SOL    HW224762   2.540   4.523  14.932 -0.8337 -0.0928 -0.0056
 4377SOL     OW24763   0.065   0.374  12.863  0.4717 -0.1728  0.0811
 4377SOL    HW124764   4.708   0.393  12.866  0.5920  0.5846 -1.1987
 4377SOL    HW224765   0.079   0.279  12.869  2.5684  0.0994 -0.5643
 4378SOL     OW24766   0.261   4.048  11.350 -0.0079  0.0936 -0.0966
 4378SOL    HW124767   0.268   3.952  11.346  1.2349  0.2265 -1.2183
 4378SOL    HW224768   0.225   4.068  11.264  0.0854 -2.6068 -0.7824
 4379SOL     OW24769   1.350   4.495   1.515  0.4710  0.2988  0.1262
 4379SOL    HW124770   1.367   4.589   1.519  0.8848  0.1360  2.1224
 4379SOL    HW224771   1.338   4.474   1.422  0.8925 -2.6386  0.7317
 4380SOL     OW24772   0.921   0.447   5.142  0.2320  0.0016 -0.3086
 4380SOL    HW124773   0.950   0.474   5.230 -0.9666  0.0229  0.0720
 4380SOL    HW224774   1.002   0.466   5.095  0.4863 -1.9778 -0.6972
 4381SOL     OW24775   4.387   3.753   6.001 -0.4186 -1.1896 -0.0981
 4381SOL    HW124776   4.404   3.832   5.951 -1.8549 -1.0188 -0.3255
 4381SOL    HW224777   4.319   3.715   5.946  0.9011  0.5110 -2.8923
 4382SOL     OW24778   3.485   0.267   7.575  0.3675  0.6230 -0.3321
 4382SOL    HW124779   3.455   0.312   7.496 -0.0553  2.3864  0.8303
 4382SOL    HW224780   3.465   0.177   7.548  0.1324  1.1047 -1.7646
 4383SOL     OW24781   4.291   0.028  13.235 -0.0022 -0.2351 -0.8817
 4383SOL    HW124782   4.353   0.102  13.233  1.0175 -1.1088 -1.4310
 4383SOL    HW224783   4.229   0.056  13.302  1.3264 -0.2635  0.3657
 4384SOL     OW24784   3.365   1.167   7.732 -0.2348  0.0640 -0.1032
 4384SOL    HW124785   3.315   1.093   7.696  0.7346  0.1179 -1.5615
 4384SOL    HW224786   3.340   1.242   7.678  0.7478  1.3188  1.1970
 4385SOL     OW24787   1.649   1.868   1.487 -0.6037 -0.7458 -0.3821
 4385SOL    HW124788   1.736   1.864   1.526 -0.6892 -2.7954 -0.4354
 4385SOL    HW224789   1.608   1.785   1.511 -1.3063 -1.3296 -3.6815
 4386SOL     OW24790   1.022   0.959  15.443  0.5352 -0.2512 -0.2041
 4386SOL    HW124791   1.013   1.046  15.482 -3.1704 -0.6990 -0.0773
 4386SOL    HW224792   0.933   0.924  15.432  1.0725 -2.0691  1.1976
 4387SOL     OW24793   2.550   2.721  12.075  0.7061 -0.0579  0.2375
 4387SOL    HW124794   2.592   2.635  12.080 -1.9955 -1.3419  1.0785
 4387SOL    HW224795   2.461   2.696  12.050 -0.0247  0.6266  2.1997
 4388SOL     OW24796   2.444   2.839   7.146  0.5576 -0.5971  0.3963
 4388SOL    HW124797   2.448   2.793   7.062  0.1349 -0.1953  0.1528
 4388SOL    HW224798   2.357   2.878   7.138  0.9614  0.4955  1.3533
 4389SOL     OW24799   2.951   2.021   9.099  0.3603 -0.3605 -0.4689
 4389SOL    HW124800   2.889   2.095   9.102  1.7345  0.7877 -0.5147
 4389SOL    HW224801   2.992   2.033   9.013  0.4262  3.2294  0.0699
 4390SOL     OW24802   2.236   0.691   7.625 -0.0389  0.3079  0.4179
 4390SOL    HW124803   2.148   0.701   7.660 -0.3991  2.0026 -0.9340
 4390SOL    HW224804   2.237   0.772   7.573  1.6901 -0.1410 -0.2581
 4391SOL     OW24805   0.711   2.843   4.446  0.1405  0.2520  0.6362
 4391SOL    HW124806   0.714   2.757   4.486 -1.4338  0.4280  1.1440
 4391SOL    HW224807   0.724   2.909   4.515  2.6600  2.3829 -1.8919
 4392SOL     OW24808   0.376   2.421   6.866  0.2144 -0.1060  0.7846
 4392SOL    HW124809   0.397   2.361   6.938 -1.5428  1.7188  2.7982
 4392SOL    HW224810   0.327   2.494   6.903 -0.9042 -0.8245  0.7192
 4393SOL     OW24811   3.940   4.621   9.420 -0.1609 -0.1391 -0.5635
 4393SOL    HW124812   3.901   4.545   9.376  2.1081 -1.6955  0.0980
 4393SOL    HW224813   3.895   4.687   9.368 -0.6497 -1.3394 -1.6640
 4394SOL     OW24814   4.330   1.581   8.073  0.2894 -0.2607  0.8168
 4394SOL    HW124815   4.275   1.575   7.995 -2.3265 -0.3119  2.6823
 4394SOL    HW224816   4.314   1.495   8.110  0.2816 -0.6215 -0.0148
 4395SOL     OW24817   2.060   0.106  10.072  0.0189 -0.1075  0.1733
 4395SOL    HW124818   2.086   0.138  10.158 -4.2366  1.6094  0.7945
 4395SOL    HW224819   2.125   0.038  10.055 -0.9239 -0.9380 -0.0339
 4396SOL     OW24820   1.396   1.075   7.765  0.0413  0.1245  1.3160
 4396SOL    HW124821   1.433   1.085   7.853  1.9273  0.2191  0.5242
 4396SOL    HW224822   1.329   1.143   7.776 -0.6981 -0.3721 -0.2065
 4397SOL     OW24823   3.379   4.579  16.160 -0.0857  0.3821  0.0404
 4397SOL    HW124824   3.292   4.561  16.125  0.2983 -0.7625 -0.3216
 4397SOL    HW224825   3.433   4.596  16.082 -1.1563 -1.3492 -1.0608
 4398SOL     OW24826   1.550   0.677   4.622 -0.2087 -0.5421  0.1347
 4398SOL    HW124827   1.531   0.606   4.683 -0.6645  0.7263  1.4775
 4398SOL    HW224828   1.458   0.699   4.611 -0.9312 -4.3228 -1.0883
 4399SOL     OW24829   2.652   4.489   0.673 -0.1598 -0.2783  0.1310
 4399SOL    HW124830   2.747   4.484   0.663 -0.1481 -0.1430  0.1769
 4399SOL    HW224831   2.620   4.414   0.622  1.8293 -0.4380 -0.8852
 4400SOL     OW24832   1.975   2.697  13.162 -0.4803  0.1857  0.0478
 4400SOL    HW124833   2.053   2.653  13.129 -0.7706  0.6741 -1.3066
 4400SOL    HW224834   1.929   2.687  13.078 -4.3416  0.9942  2.0768
 4401SOL     OW24835   1.392   2.537   5.721 -0.2402 -0.5576 -0.1793
 4401SOL    HW124836   1.392   2.520   5.627  0.1212  1.2022 -0.4900
 4401SOL    HW224837   1.416   2.451   5.756 -0.4316  0.1218  1.5947
 4402SOL     OW24838   0.105   2.768   2.349 -0.4117  0.0221 -0.4081
 4402SOL    HW124839   0.166   2.833   2.383 -2.0066  0.6312  1.3046
 4402SOL    HW224840   0.166   2.738   2.282  0.4360 -0.3143  0.5208
 4403SOL     OW24841   3.187   2.204   6.722 -0.3513 -0.2601  0.0513
 4403SOL    HW124842   3.265   2.151   6.707  0.7244  0.6610  2.2457
 4403SOL    HW224843   3.227   2.291   6.736 -0.8873 -0.3341  2.0769
 4404SOL     OW24844   4.329   4.693   8.904 -0.0044  0.0958 -0.2940
 4404SOL    HW124845   4.281   4.711   8.824 -1.8353  0.7636  0.9536
 4404SOL    HW224846   4.364   0.042   8.931 -0.4854  0.2068 -0.0167
 4405SOL     OW24847   2.150   3.143   9.231  0.3198 -0.1729 -0.3930
 4405SOL    HW124848   2.229   3.150   9.285  0.6183 -0.7879 -0.7556
 4405SOL    HW224849   2.177   3.190   9.152  0.6150  1.9180  0.9589
 4406SOL     OW24850   2.842   1.385   7.646 -0.2683  0.5450 -0.0851
 4406SOL    HW124851   2.864   1.478   7.650 -0.8793  0.6876 -0.1292
 4406SOL    HW224852   2.931   1.352   7.633 -1.3506 -2.8014  1.0363
 4407SOL     OW24853   1.665   4.545   5.026 -0.6538 -0.5104  0.0512
 4407SOL    HW124854   1.738   4.523   5.083  0.5737  0.0210 -1.2932
 4407SOL    HW224855   1.589   4.521   5.078 -0.2478  0.9541  1.3045
 4408SOL     OW24856   3.071   4.681   0.346  0.4155 -0.2518  0.1403
 4408SOL    HW124857   3.143   4.675   0.283 -0.6978  0.4523 -1.1953
 4408SOL    HW224858   3.082   4.611   0.410 -0.4743  1.4172  2.1307
 4409SOL     OW24859   4.105   1.070  11.105 -0.1434 -0.4498 -0.3144
 4409SOL    HW124860   4.102   1.107  11.194 -1.0321  1.9593 -1.3548
 4409SOL    HW224861   4.049   0.993  11.113  0.1970 -0.7279 -0.6403
 4410SOL     OW24862   3.599   3.282   5.321  0.0972  0.2774  0.1386
 4410SOL    HW124863   3.689   3.288   5.288 -0.3093  2.5050 -0.5253
 4410SOL    HW224864   3.566   3.203   5.280  0.1408  0.9545 -1.2004
 4411SOL     OW24865   2.536   2.431  10.141  0.0202 -0.6923  0.1894
 4411SOL    HW124866   2.462   2.385  10.101  0.5022 -0.5573 -0.8737
 4411SOL    HW224867   2.595   2.355  10.145  1.0751  0.1082 -0.2439
 4412SOL     OW24868   3.891   2.315   8.594  0.2571  0.3031  0.3692
 4412SOL    HW124869   3.951   2.242   8.576  0.9868  1.0017 -0.0176
 4412SOL    HW224870   3.811   2.278   8.557  1.3234 -1.2459 -0.4136
 4413SOL     OW24871   3.298   3.052   0.463  0.1747 -0.6072 -0.0900
 4413SOL    HW124872   3.235   3.112   0.424 -0.2974 -1.2104 -0.2491
 4413SOL    HW224873   3.244   2.983   0.502  0.1117  1.0839  2.8188
 4414SOL     OW24874   2.370   2.190  10.107  0.0325 -0.2271  0.1935
 4414SOL    HW124875   2.419   2.146  10.038 -0.4501 -0.0674 -0.2519
 4414SOL    HW224876   2.296   2.226  10.058  0.7943  0.6995 -0.2826
 4415SOL     OW24877   3.101   1.857   4.460  0.4995 -0.2693 -0.5673
 4415SOL    HW124878   3.134   1.772   4.489  0.0885 -0.4451 -0.6267
 4415SOL    HW224879   3.175   1.893   4.411  1.6043 -1.0034  0.5598
 4416SOL     OW24880   0.566   4.472   5.094 -0.4139  0.2459  0.1105
 4416SOL    HW124881   0.608   4.544   5.142 -1.8589  1.0893  0.1029
 4416SOL    HW224882   0.605   4.403   5.148  1.5812  0.4166 -1.1131
 4417SOL     OW24883   0.477   2.403   4.166  0.3826 -0.4152  0.2333
 4417SOL    HW124884   0.502   2.463   4.236 -1.3020  0.7945 -0.1917
 4417SOL    HW224885   0.541   2.431   4.100  2.1503  1.1613  2.6374
 4418SOL     OW24886   2.816   2.612   0.982  0.3414  0.4403 -0.2007
 4418SOL    HW124887   2.749   2.546   1.000  0.7015  0.0914 -0.1285
 4418SOL    HW224888   2.886   2.576   1.036 -0.0818 -0.8415 -0.5048
 4419SOL     OW24889   0.982   2.076   4.285  0.1554 -0.1406  0.1650
 4419SOL    HW124890   0.899   2.045   4.320 -0.5063  0.3186 -1.0209
 4419SOL    HW224891   0.986   2.162   4.327  0.2818 -0.0949  0.0610
 4420SOL     OW24892   0.728   4.475   2.620 -0.3498  0.7955  0.0705
 4420SOL    HW124893   0.725   4.524   2.538 -0.3995 -0.8676 -0.9237
 4420SOL    HW224894   0.778   4.403   2.582  0.3894  0.5185  1.5582
 4421SOL     OW24895   0.199   0.669   8.192  0.1054 -0.5793  0.9541
 4421SOL    HW124896   0.285   0.658   8.152 -0.6260  0.5896 -0.9307
 4421SOL    HW224897   0.232   0.722   8.266 -1.5680  0.0668  1.2439
 4422SOL     OW24898   4.651   0.857   2.232 -0.0370 -0.5162  0.2940
 4422SOL    HW124899   0.010   0.866   2.221 -0.0086 -0.0768  0.9084
 4422SOL    HW224900   4.642   0.846   2.327 -2.1532 -1.4635 -0.0113
 4423SOL     OW24901   0.154   2.185  16.726  0.6404 -0.0355 -0.0180
 4423SOL    HW124902   0.149   2.230  16.642 -2.4755  0.0102  0.2011
 4423SOL    HW224903   0.065   2.153  16.743  0.2368  0.7884 -0.6160
 4424SOL     OW24904   2.476   3.847  12.061  0.3219 -0.6300  0.6163
 4424SOL    HW124905   2.566   3.879  12.062  0.3354 -0.6616  0.4850
 4424SOL    HW224906   2.501   3.755  12.075  0.5961 -0.8088 -1.0665
 4425SOL     OW24907   2.978   1.746   5.646  0.3151 -0.7264  0.1055
 4425SOL    HW124908   2.898   1.713   5.606 -0.6537  0.6261  0.9218
 4425SOL    HW224909   2.950   1.833   5.675 -1.8823 -1.9337  1.5668
 4426SOL     OW24910   3.142   2.534   3.243 -0.4612 -0.3929 -0.2097
 4426SOL    HW124911   3.174   2.477   3.313  0.2890  1.4580  0.9368
 4426SOL    HW224912   3.193   2.502   3.168 -1.1406  1.7883 -1.6003
 4427SOL     OW24913   3.306   0.701   9.981  0.2953 -0.4028  0.0601
 4427SOL    HW124914   3.239   0.693   9.913  1.4151 -0.8802 -0.9727
 4427SOL    HW224915   3.381   0.730   9.929  0.2282  1.8635  1.2148
 4428SOL     OW24916   0.658   1.364   8.977  0.4652 -0.3927 -0.1177
 4428SOL    HW124917   0.691   1.295   8.919 -0.0506 -0.4611 -0.3342
 4428SOL    HW224918   0.634   1.309   9.051 -1.4622  0.8815  0.2039
 4429SOL     OW24919   0.081   3.569  15.529 -0.1804 -0.4814 -0.2738
 4429SOL    HW124920   0.040   3.537  15.610  0.7498 -2.3735 -0.5356
 4429SOL    HW224921   0.001   3.583  15.477 -1.5602 -1.5339  1.5565
 4430SOL     OW24922   0.337   1.923   1.577 -0.6393  0.6879  0.0136
 4430SOL    HW124923   0.327   1.905   1.483  1.6300  0.0564 -0.0952
 4430SOL    HW224924   0.278   1.997   1.593  0.8556  1.3530  2.3681
 4431SOL     OW24925   2.358   0.626   9.993 -0.1567  0.5411 -0.1375
 4431SOL    HW124926   2.304   0.634  10.071 -2.0725 -2.3795 -1.2086
 4431SOL    HW224927   2.445   0.616  10.033 -1.1866 -1.0979  1.6475
 4432SOL     OW24928   4.695   3.557  15.991 -0.0226 -0.2088  0.1329
 4432SOL    HW124929   4.716   3.651  15.990 -0.3492 -0.1339  0.1515
 4432SOL    HW224930   4.673   3.540  16.083 -2.1272  3.2726  0.3063
 4433SOL     OW24931   3.457   0.925   5.794 -0.0239  0.5705  0.7919
 4433SOL    HW124932   3.414   0.995   5.842 -1.6870 -0.5151  0.8986
 4433SOL    HW224933   3.552   0.931   5.807  0.5040 -3.4468 -1.0549
 4434SOL     OW24934   0.949   2.771   8.714 -0.3929 -0.0851 -0.1523
 4434SOL    HW124935   0.992   2.827   8.649  0.7116 -0.5311  0.2023
 4434SOL    HW224936   0.972   2.805   8.800  1.1340  1.5723 -1.2084
 4435SOL     OW24937   1.865   3.678   9.566 -0.0471 -0.4419  0.3569
 4435SOL    HW124938   1.894   3.589   9.547 -1.7503 -0.6735 -1.1297
 4435SOL    HW224939   1.922   3.716   9.633 -0.2801  0.1987  0.1951
 4436SOL     OW24940   4.272   1.309   5.540  0.7996 -0.4140 -0.5847
 4436SOL    HW124941   4.225   1.258   5.474  0.6332  0.2773 -0.9991
 4436SOL    HW224942   4.296   1.243   5.606 -0.6013 -0.7150 -0.3631
 4437SOL     OW24943   3.364   3.132   2.452 -0.8157 -0.4101  0.2072
 4437SOL    HW124944   3.345   3.129   2.359 -2.3991  1.1292  0.4702
 4437SOL    HW224945   3.302   3.061   2.470 -2.8812  0.9278 -1.6860
 4438SOL     OW24946   1.045   0.829   5.133 -0.3191  0.2025 -0.3449
 4438SOL    HW124947   1.000   0.829   5.217  1.9184 -0.2125  0.8677
 4438SOL    HW224948   1.135   0.816   5.165 -0.6158  1.3258  0.9269
 4439SOL     OW24949   1.210   2.458   7.513 -0.0060  0.4661 -0.0814
 4439SOL    HW124950   1.227   2.371   7.550  0.6926 -0.3922 -2.3830
 4439SOL    HW224951   1.119   2.442   7.490  0.4535 -3.0858  0.5686
 4440SOL     OW24952   1.668   0.163   1.610  0.0063 -0.0650 -0.0133
 4440SOL    HW124953   1.754   0.181   1.571  1.0596 -0.5785  2.0515
 4440SOL    HW224954   1.631   0.092   1.558 -0.5614 -0.9472  1.5995
 4441SOL     OW24955   2.170   3.250  12.138 -0.1125  0.5377  0.2804
 4441SOL    HW124956   2.156   3.300  12.218  0.2403  0.0510  0.6456
 4441SOL    HW224957   2.238   3.184  12.151  0.1000  0.5895 -0.5900
 4442SOL     OW24958   0.282   1.741   3.246 -0.1231  0.2741  0.9405
 4442SOL    HW124959   0.216   1.681   3.282 -1.6546  1.0482 -0.5861
 4442SOL    HW224960   0.271   1.722   3.153 -2.1652  0.5013  1.1320
 4443SOL     OW24961   1.959   0.931  16.455 -0.2115  0.0494 -0.2594
 4443SOL    HW124962   1.895   0.993  16.420  1.7778  1.2763 -1.7079
 4443SOL    HW224963   2.034   0.943  16.396  0.0648 -0.5864 -0.0380
 4444SOL     OW24964   0.656   2.844   7.335  0.6892  0.3780  0.3549
 4444SOL    HW124965   0.721   2.789   7.379 -1.3453 -1.3611  1.1614
 4444SOL    HW224966   0.715   2.896   7.280 -0.2206 -0.7669 -1.7088
 4445SOL     OW24967   1.308   3.470   0.377 -0.8760  0.0360 -0.1028
 4445SOL    HW124968   1.344   3.506   0.296 -0.7218  0.9920  0.3916
 4445SOL    HW224969   1.376   3.405   0.393  0.2317  1.1099 -0.4521
 4446SOL     OW24970   1.736   3.399   2.243 -0.4153 -0.2528 -0.4542
 4446SOL    HW124971   1.640   3.395   2.246 -0.3516 -0.5481  0.9613
 4446SOL    HW224972   1.751   3.472   2.303 -1.3808 -0.3128 -0.1458
 4447SOL     OW24973   0.280   2.204   3.831 -0.3721 -0.4259 -0.0247
 4447SOL    HW124974   0.324   2.163   3.906  2.3217  2.9852  0.2191
 4447SOL    HW224975   0.222   2.132   3.806 -0.5129 -0.2610 -0.1733
 4448SOL     OW24976   1.396   0.314   8.645  0.2774  0.0295  0.1968
 4448SOL    HW124977   1.371   0.233   8.690 -0.7575  1.2681  1.8210
 4448SOL    HW224978   1.348   0.313   8.562 -0.8123  1.5307  0.8272
 4449SOL     OW24979   1.700   1.399   0.251  0.3455  0.6955  0.1553
 4449SOL    HW124980   1.758   1.354   0.190  0.7322  0.5910  0.6055
 4449SOL    HW224981   1.701   1.481   0.201 -3.6681 -0.5673 -2.0314
 4450SOL     OW24982   1.994   3.365   7.482 -0.2347 -0.1167 -0.7134
 4450SOL    HW124983   2.011   3.312   7.560 -0.9558  0.7425  0.0125
 4450SOL    HW224984   2.080   3.405   7.468 -0.9710  2.1743  1.2808
 4451SOL     OW24985   0.573   1.985  15.186  0.2048  0.4482 -0.3977
 4451SOL    HW124986   0.531   1.966  15.102  1.3492 -0.2285 -0.8104
 4451SOL    HW224987   0.630   1.912  15.211 -1.0056  0.1726  1.5076
 4452SOL     OW24988   0.120   0.770  10.663  0.0529 -0.3356  0.0043
 4452SOL    HW124989   0.186   0.819  10.614  0.4330 -1.6859 -0.8380
 4452SOL    HW224990   0.159   0.685  10.684 -0.7801 -0.3531  1.4636
 4453SOL     OW24991   2.763   2.842  11.755  0.3338  0.3107  0.5860
 4453SOL    HW124992   2.723   2.929  11.764 -0.7327 -0.3118  2.0334
 4453SOL    HW224993   2.813   2.862  11.676  1.6981 -2.1223  0.8452
 4454SOL     OW24994   4.605   3.059  11.914  0.1415 -0.3769 -0.1316
 4454SOL    HW124995   4.630   3.099  11.997 -0.3222 -1.8080  0.6869
 4454SOL    HW224996   4.597   3.135  11.855  0.1932 -0.5215 -0.3270
 4455SOL     OW24997   1.064   3.543  17.694 -0.5351 -0.4539  0.6549
 4455SOL    HW124998   1.033   3.461  17.733  0.0168  0.4253  2.9584
 4455SOL    HW224999   1.012   3.605   0.003  1.2315  2.1519 -0.7529
 4456SOL     OW25000   0.615   0.060   2.501  0.1143  0.0138 -0.0414
 4456SOL    HW125001   0.539   0.074   2.445  0.8315 -0.4081 -1.1162
 4456SOL    HW225002   0.661   4.721   2.463  1.0749  0.3623  0.4306
 4457SOL     OW25003   0.845   3.151   0.817  0.1680 -0.1690 -0.1914
 4457SOL    HW125004   0.822   3.073   0.766 -4.8486  1.2878 -0.1650
 4457SOL    HW225005   0.846   3.114   0.905 -1.4470 -1.8595 -0.8838
 4458SOL     OW25006   0.880   4.616   3.659 -0.0822  0.1996  0.0767
 4458SOL    HW125007   0.794   4.639   3.695 -0.0310  1.3451 -0.5545
 4458SOL    HW225008   0.924   4.695   3.689  0.0228  0.8697 -1.8525
 4459SOL     OW25009   0.527   1.854   9.386  0.6604  0.1515 -0.4043
 4459SOL    HW125010   0.541   1.863   9.292  1.2695  1.6120 -0.1588
 4459SOL    HW225011   0.481   1.770   9.395  2.0049 -0.5041  0.4019
 4460SOL     OW25012   1.540   3.663   0.228  0.3699 -0.4293  0.1478
 4460SOL    HW125013   1.462   3.651   0.173  1.8658 -0.3140 -1.9718
 4460SOL    HW225014   1.610   3.663   0.163  1.0254  1.2182  0.8504
 4461SOL     OW25015   1.911   2.297   5.297 -0.1978 -0.7255 -0.1570
 4461SOL    HW125016   1.918   2.375   5.242  2.5871 -0.6039  0.3843
 4461SOL    HW225017   1.991   2.295   5.350 -0.5622  0.1289  0.4315
 4462SOL     OW25018   2.398   1.080   7.672  0.0140 -0.0793 -0.1220
 4462SOL    HW125019   2.338   1.135   7.621  0.4250  1.8254  1.4583
 4462SOL    HW225020   2.470   1.136   7.700  0.8674 -0.5985 -1.3034
 4463SOL     OW25021   3.972   2.017   4.274 -0.3162  0.3879  0.2696
 4463SOL    HW125022   3.938   1.949   4.332  1.1903 -2.5519 -2.3106
 4463SOL    HW225023   4.034   2.068   4.326 -0.2540  0.1707  0.4069
 4464SOL     OW25024   2.754   2.447   7.512 -0.3094  0.2580 -0.1283
 4464SOL    HW125025   2.784   2.366   7.554 -2.3146  0.3448  1.4945
 4464SOL    HW225026   2.682   2.416   7.457 -1.2060  0.0202  1.1717
 4465SOL     OW25027   0.003   3.204   9.269  0.3916  0.4864 -0.1148
 4465SOL    HW125028   4.699   3.184   9.354  1.5748 -0.5883  0.1878
 4465SOL    HW225029   0.060   3.128   9.262 -1.0694 -0.5975  0.0005
 4466SOL     OW25030   4.638   1.900   4.332 -0.1804 -0.8232  0.7298
 4466SOL    HW125031   4.704   1.969   4.327  0.2286 -1.2072  0.8364
 4466SOL    HW225032   4.638   1.869   4.423 -0.9290  2.0162  1.7068
 4467SOL     OW25033   1.381   0.056   6.670  0.0799  0.2219  0.2938
 4467SOL    HW125034   1.398   0.147   6.693 -1.0512  0.5017  0.0117
 4467SOL    HW225035   1.457   0.010   6.707  1.1386  0.8918 -1.0627
 4468SOL     OW25036   4.548   4.156   3.216  0.6145  0.5255 -0.6742
 4468SOL    HW125037   4.643   4.154   3.205  0.7016 -1.0729  0.2797
 4468SOL    HW225038   4.537   4.080   3.274  3.2971  1.0165  0.4894
 4469SOL     OW25039   1.327   2.358  16.325  0.1973 -0.0740  0.3536
 4469SOL    HW125040   1.338   2.364  16.230  2.3002 -1.2931  0.5150
 4469SOL    HW225041   1.294   2.447  16.330  0.2690  0.0755 -1.6491
 4470SOL     OW25042   0.110   2.870   5.775  0.4155  0.1424  0.3220
 4470SOL    HW125043   0.135   2.867   5.683  2.0521 -0.4761  0.7825
 4470SOL    HW225044   0.014   2.873   5.774  0.3426 -1.7901  2.1933
 4471SOL     OW25045   2.341   0.768  13.534  0.0243 -0.2567 -0.4940
 4471SOL    HW125046   2.255   0.809  13.521  0.4678  1.0824  0.8657
 4471SOL    HW225047   2.375   0.819  13.607  0.7041 -2.5918  0.8266
 4472SOL     OW25048   4.265   2.658   4.516 -0.2774 -0.6116 -0.1931
 4472SOL    HW125049   4.268   2.748   4.546 -2.5930 -1.6595  3.1631
 4472SOL    HW225050   4.176   2.645   4.484  0.4299  1.0839 -2.8689
 4473SOL     OW25051   1.365   2.082   9.404 -0.5990  0.4565  0.3784
 4473SOL    HW125052   1.427   2.010   9.415 -1.0280  0.2134  1.2050
 4473SOL    HW225053   1.362   2.092   9.309  0.0298  1.5103  0.4663
 4474SOL     OW25054   0.375   3.861   7.315 -0.2699  0.4341 -0.0083
 4474SOL    HW125055   0.452   3.914   7.296 -0.3212  1.5673  2.8716
 4474SOL    HW225056   0.314   3.932   7.337 -0.4983  0.5223 -0.9140
 4475SOL     OW25057   2.293   4.169   3.477  0.1313 -0.4012  0.4856
 4475SOL    HW125058   2.346   4.153   3.399 -1.0689  2.6204 -0.9563
 4475SOL    HW225059   2.318   4.087   3.518  0.0573 -1.2844 -1.1982
 4476SOL     OW25060   2.666   3.484   6.421  0.0505 -0.0042 -0.4451
 4476SOL    HW125061   2.655   3.493   6.516  1.6659  0.3266 -0.2948
 4476SOL    HW225062   2.753   3.451   6.402  0.1485  0.9807 -1.7054
 4477SOL     OW25063   2.078   3.490   5.282  0.2531 -0.0711 -0.5537
 4477SOL    HW125064   2.133   3.425   5.327  0.2791  0.3701  0.0415
 4477SOL    HW225065   2.076   3.439   5.201  0.6644 -0.7302 -0.1531
 4478SOL     OW25066   0.979   1.756   6.288 -0.3018 -0.4307 -0.1647
 4478SOL    HW125067   0.936   1.777   6.206  1.5303 -1.1825 -1.3264
 4478SOL    HW225068   1.038   1.692   6.248 -0.2513 -0.6395  0.2392
 4479SOL     OW25069   2.090   3.529   2.108  0.0339  0.0447 -0.5341
 4479SOL    HW125070   2.166   3.471   2.102  0.0672 -0.0155  0.5584
 4479SOL    HW225071   2.099   3.549   2.201  1.3732 -0.7842 -0.4818
 4480SOL     OW25072   2.956   4.031   5.189  0.0299  0.4623 -0.4005
 4480SOL    HW125073   2.942   4.122   5.216 -1.5261 -0.3441  1.4522
 4480SOL    HW225074   3.047   4.021   5.217  0.3933  0.7261 -1.4750
 4481SOL     OW25075   1.065   3.326   8.483 -0.3493 -0.2230 -0.5410
 4481SOL    HW125076   1.153   3.312   8.447 -0.2225 -0.4681 -0.1370
 4481SOL    HW225077   1.058   3.417   8.453  2.2189  0.7347  1.6972
 4482SOL     OW25078   3.630   4.720   0.839  0.4613 -0.0625 -0.1072
 4482SOL    HW125079   3.704   0.043   0.828  0.5800 -0.1684  0.1129
 4482SOL    HW225080   3.593   0.035   0.912  1.1242 -0.0600  0.2254
 4483SOL     OW25081   0.014   4.473   8.149 -0.1535 -0.4711 -0.0196
 4483SOL    HW125082   0.056   4.557   8.130 -2.1039  1.4025  3.9048
 4483SOL    HW225083   0.083   4.414   8.119  0.3667 -0.1794  0.5930
 4484SOL     OW25084   4.336   2.144   5.862  0.7103  0.0377  0.0365
 4484SOL    HW125085   4.290   2.121   5.782  0.2096  1.4909 -0.1040
 4484SOL    HW225086   4.428   2.133   5.838  1.0508  1.1382  0.8139
 4485SOL     OW25087   0.569   1.808   6.132 -0.3695 -0.2516  0.0112
 4485SOL    HW125088   0.600   1.883   6.182  0.5139 -1.3315  1.0796
 4485SOL    HW225089   0.503   1.849   6.077  0.3741 -0.2403 -0.8614
 4486SOL     OW25090   3.633   2.930   4.609 -0.3086  0.6231  0.6735
 4486SOL    HW125091   3.626   2.900   4.699 -3.0066  0.4928  0.4277
 4486SOL    HW225092   3.695   2.870   4.566 -2.1369  0.0968 -1.2552
 4487SOL     OW25093   2.808   2.146   1.427 -0.1472 -0.2409  0.0090
 4487SOL    HW125094   2.754   2.100   1.492  0.8776 -0.8576  0.4358
 4487SOL    HW225095   2.861   2.071   1.397  0.0807 -0.4233  0.8590
 4488SOL     OW25096   4.220   3.250  13.123  0.2779 -0.3920  0.3701
 4488SOL    HW125097   4.173   3.166  13.124 -3.6596  1.7999  0.8479
 4488SOL    HW225098   4.289   3.228  13.060 -0.1229 -0.7818  0.0662
 4489SOL     OW25099   4.629   1.403   9.692 -0.1853 -0.2695 -0.4300
 4489SOL    HW125100   4.600   1.492   9.710  0.6398  0.3202 -2.0234
 4489SOL    HW225101   4.546   1.365   9.721  0.8629 -0.5164  2.2587
 4490SOL     OW25102   4.568   1.537   2.928 -0.1462  0.3183 -0.1509
 4490SOL    HW125103   4.571   1.605   2.995  0.0532 -0.3536  0.5267
 4490SOL    HW225104   4.657   1.503   2.933  0.1140  0.5679 -3.0293
 4491SOL     OW25105   0.158   0.266  13.790  0.0401 -0.0913  0.1771
 4491SOL    HW125106   0.208   0.329  13.841 -1.1751  0.4304  0.7379
 4491SOL    HW225107   0.222   0.196  13.777 -2.2391 -1.8551 -1.6487
 4492SOL     OW25108   1.573   0.200   0.492 -0.2337 -0.3777  0.1826
 4492SOL    HW125109   1.669   0.202   0.497 -0.1713 -0.3725 -0.8916
 4492SOL    HW225110   1.551   0.235   0.578  0.7912  1.2553 -0.2203
 4493SOL     OW25111   4.543   1.128  10.678  0.5550  0.3715 -0.1460
 4493SOL    HW125112   4.491   1.208  10.675  0.6666  0.4274 -0.5701
 4493SOL    HW225113   4.592   1.134  10.760 -1.4994 -0.3400  1.1354
 4494SOL     OW25114   2.814   3.167   0.016 -0.3986  0.0687 -0.1780
 4494SOL    HW125115   2.770   3.239   0.061  1.0520  0.1159  1.1461
 4494SOL    HW225116   2.882   3.205  17.702  0.1540  0.2533  0.6224
 4495SOL     OW25117   2.357   2.490   6.692  0.5099 -0.3766  0.7747
 4495SOL    HW125118   2.448   2.479   6.721  0.2678 -1.2582  1.1852
 4495SOL    HW225119   2.377   2.516   6.603 -0.2357  1.0562  1.0269
 4496SOL     OW25120   4.416   4.663   2.190 -0.1573  0.1930 -0.6472
 4496SOL    HW125121   4.461   4.656   2.106  1.1689 -0.7676  0.1497
 4496SOL    HW225122   4.326   4.683   2.162 -0.2120  0.0465 -0.5766
 4497SOL     OW25123   3.292   2.785   6.183  0.2094  0.4065  0.9066
 4497SOL    HW125124   3.209   2.743   6.163  0.6326  0.0214 -0.0450
 4497SOL    HW225125   3.310   2.729   6.258 -0.4031 -1.3649 -0.2818
 4498SOL     OW25126   0.126   1.654   9.731 -0.3229  0.0079 -0.4942
 4498SOL    HW125127   0.106   1.746   9.742  0.9671  0.0483  1.5125
 4498SOL    HW225128   0.046   1.621   9.690  0.7962 -1.0475 -1.8411
 4499SOL     OW25129   3.437   3.170   5.005 -0.3273 -0.4693 -0.1472
 4499SOL    HW125130   3.393   3.163   4.920 -0.7587 -0.4820  0.0770
 4499SOL    HW225131   3.501   3.237   4.982  0.3692 -0.7394  1.0090
 4500SOL     OW25132   3.205   0.043   4.022  0.1295 -0.3109 -0.1956
 4500SOL    HW125133   3.279   0.018   4.078  0.5184  4.6356  1.5091
 4500SOL    HW225134   3.253   0.095   3.957 -3.8416  0.1478 -2.7148
 4501SOL     OW25135   2.923   4.111   4.598  0.2112 -0.0827 -0.3256
 4501SOL    HW125136   3.017   4.107   4.579 -0.1575  1.5665 -2.5326
 4501SOL    HW225137   2.913   4.041   4.663 -1.2814  0.0753 -0.3843
 4502SOL     OW25138   2.585   3.262  12.823 -0.6947  0.2168 -0.1579
 4502SOL    HW125139   2.649   3.323  12.787  0.9497 -2.4133 -1.6847
 4502SOL    HW225140   2.514   3.268  12.760 -0.4290  0.8419 -0.4024
 4503SOL     OW25141   2.913   4.483   0.613  0.6894  0.1719  0.3645
 4503SOL    HW125142   2.905   4.449   0.524 -0.3622  1.9393 -0.2253
 4503SOL    HW225143   2.996   4.441   0.636  0.5456 -1.0843 -1.4437
 4504SOL     OW25144   1.836   3.016   1.974  0.1144 -0.6749 -0.2726
 4504SOL    HW125145   1.771   3.053   1.914 -1.4182 -0.9057  1.2640
 4504SOL    HW225146   1.920   3.041   1.935  0.0336  3.0456  1.9384
 4505SOL     OW25147   0.920   0.423  12.493 -0.3724 -0.0748 -0.0629
 4505SOL    HW125148   0.962   0.343  12.463  1.3645 -0.0958  2.3662
 4505SOL    HW225149   0.950   0.479  12.421  2.2051 -0.0139  1.0517
 4506SOL     OW25150   3.695   3.512   1.962  0.3617 -0.1304  0.1217
 4506SOL    HW125151   3.765   3.555   1.913  0.3417 -1.3446 -0.9787
 4506SOL    HW225152   3.708   3.551   2.048 -1.2045 -1.2704  0.8668
 4507SOL     OW25153   4.236   2.671   2.487 -0.3787  0.2050  0.2797
 4507SOL    HW125154   4.261   2.763   2.478  0.8916  0.0882  2.5404
 4507SOL    HW225155   4.286   2.651   2.408 -1.4804 -0.8350 -0.1437
 4508SOL     OW25156   4.688   1.143   9.051 -0.6318  0.0233 -0.3368
 4508SOL    HW125157   4.640   1.160   8.970 -1.5492 -1.6390 -0.1459
 4508SOL    HW225158   0.022   1.209   9.051 -0.4930 -0.1273  1.7855
 4509SOL     OW25159   2.997   0.787   5.333  0.8476 -0.1490  0.3719
 4509SOL    HW125160   2.916   0.839   5.322  1.8501  1.7509  1.9794
 4509SOL    HW225161   3.019   0.801   5.425  0.5136 -0.0648  0.4405
 4510SOL     OW25162   1.081   2.584  16.878 -0.0212  0.0743 -0.3401
 4510SOL    HW125163   1.033   2.625  16.806 -0.7111 -0.2121 -0.0360
 4510SOL    HW225164   1.015   2.550  16.937  1.6441  0.6931  1.8651
 4511SOL     OW25165   0.086   4.006   3.450 -0.2780 -0.7062  0.6609
 4511SOL    HW125166   0.094   4.066   3.525 -3.4458  0.4998  0.0035
 4511SOL    HW225167   0.146   4.060   3.398 -1.5278  0.1899  0.1421
 4512SOL     OW25168   1.112   0.067   8.302  0.4805 -0.9214 -0.7365
 4512SOL    HW125169   1.151   0.073   8.215 -1.6444 -1.2487 -1.7009
 4512SOL    HW225170   1.056   4.727   8.286 -1.4572  0.1887  0.7511
 4513SOL     OW25171   3.199   3.033   9.176 -0.0710  0.6426 -0.1880
 4513SOL    HW125172   3.178   3.123   9.153 -1.5033  0.6898  1.3331
 4513SOL    HW225173   3.295   3.032   9.168  0.0059 -0.2466  0.9167
 4514SOL     OW25174   2.935   0.223   2.105 -0.3414  0.7552  0.4756
 4514SOL    HW125175   3.006   0.159   2.101 -0.4691  0.4792  2.4034
 4514SOL    HW225176   2.969   0.276   2.178  1.1050 -1.3549  1.3316
 4515SOL     OW25177   1.483   2.807   9.697  0.4908 -0.2228  0.4828
 4515SOL    HW125178   1.425   2.769   9.632  1.7743 -0.1390 -0.7221
 4515SOL    HW225179   1.474   2.745   9.769 -2.1215 -0.6030 -0.1668
 4516SOL     OW25180   1.832   0.781   2.668  0.0394  0.4838  0.2128
 4516SOL    HW125181   1.834   0.875   2.648  0.7017  0.1180 -1.4781
 4516SOL    HW225182   1.813   0.790   2.761  1.4042  0.5143  0.4816
 4517SOL     OW25183   4.291   2.870   4.130 -0.3308 -0.1914 -0.5291
 4517SOL    HW125184   4.358   2.893   4.066  2.4409 -1.3018  1.9165
 4517SOL    HW225185   4.263   2.789   4.087 -0.4232 -0.6942  0.4720
 4518SOL     OW25186   0.546   1.927   6.370 -0.5737 -0.2246 -0.2395
 4518SOL    HW125187   0.540   1.878   6.452  0.4299  2.2358  1.2749
 4518SOL    HW225188   0.454   1.917   6.345 -0.0409 -1.5955 -1.6824
 4519SOL     OW25189   1.816   2.462   4.001  0.7104  0.5814 -0.4583
 4519SOL    HW125190   1.731   2.425   4.026  0.6259  0.8656 -0.3292
 4519SOL    HW225191   1.789   2.550   3.974 -1.8947  0.2085  0.8772
 4520SOL     OW25192   1.305   3.815   7.367  0.0454  0.3921 -0.1231
 4520SOL    HW125193   1.360   3.805   7.290  3.0851 -2.5497  2.4189
 4520SOL    HW225194   1.217   3.815   7.329  0.7882  3.6357 -1.8509
 4521SOL     OW25195   2.290   3.359   2.444 -0.3242  0.4341  0.0197
 4521SOL    HW125196   2.261   3.288   2.502 -0.8957 -0.0126 -0.7990
 4521SOL    HW225197   2.382   3.349   2.465  0.0591  0.4142 -1.6596
 4522SOL     OW25198   3.200   2.824   5.583  0.1549  0.8390 -0.3449
 4522SOL    HW125199   3.235   2.760   5.522 -1.3317 -0.3234  0.0325
 4522SOL    HW225200   3.274   2.881   5.606  2.9618 -2.1223 -2.1188
 4523SOL     OW25201   0.989   3.511   2.526 -0.2523  0.4337 -0.4406
 4523SOL    HW125202   0.928   3.523   2.598  0.6365 -0.6855  0.4909
 4523SOL    HW225203   0.943   3.444   2.475  0.3371  0.2637 -0.7564
 4524SOL     OW25204   0.624   3.387   4.203 -0.0573  0.4843 -1.0294
 4524SOL    HW125205   0.678   3.379   4.281 -1.0126 -0.0612 -0.4151
 4524SOL    HW225206   0.568   3.310   4.220 -0.3203  0.8793 -0.1304
 4525SOL     OW25207   3.531   0.939   4.362  0.1654  0.2501 -0.1275
 4525SOL    HW125208   3.599   0.959   4.298 -0.4236  1.2949 -0.4341
 4525SOL    HW225209   3.481   0.869   4.319  3.6922 -1.8916 -0.6806
 4526SOL     OW25210   4.052   2.645   8.870 -0.1570 -0.2984  0.2850
 4526SOL    HW125211   4.098   2.635   8.954  0.3603  0.4418  0.0888
 4526SOL    HW225212   4.115   2.599   8.815 -1.6447 -2.0386  0.0448
 4527SOL     OW25213   3.899   2.609   2.898 -0.1926  0.6473  0.4792
 4527SOL    HW125214   3.993   2.608   2.880 -0.2991 -2.0603  0.1573
 4527SOL    HW225215   3.878   2.702   2.891 -0.5844  0.4828 -0.4732
 4528SOL     OW25216   1.154   3.521   7.113 -0.2180  0.4484  0.3441
 4528SOL    HW125217   1.070   3.505   7.071  1.3173  0.2509 -2.6898
 4528SOL    HW225218   1.185   3.431   7.103  0.0932  0.2726  2.8916
 4529SOL     OW25219   0.233   1.449   2.428 -0.3297 -0.3078 -0.1145
 4529SOL    HW125220   0.295   1.486   2.365 -0.1039  1.6427  1.2740
 4529SOL    HW225221   0.279   1.448   2.512 -0.3263 -3.8251 -0.1531
 4530SOL     OW25222   4.434   4.255   3.901  0.0266 -0.8579 -0.1494
 4530SOL    HW125223   4.383   4.202   3.962 -0.2248 -0.4353  0.0064
 4530SOL    HW225224   4.361   4.304   3.863  0.3346 -0.2028  0.0995
 4531SOL     OW25225   1.269   0.567  11.239 -0.4764 -0.0050 -0.1991
 4531SOL    HW125226   1.342   0.598  11.293  0.4914  0.6483 -1.8722
 4531SOL    HW225227   1.262   0.638  11.175  0.6758 -1.3039 -1.7760
 4532SOL     OW25228   2.122   4.687   3.874 -0.2883 -0.2143  0.3481
 4532SOL    HW125229   2.063   4.616   3.848  1.2071 -1.0291 -0.8431
 4532SOL    HW225230   2.195   4.637   3.910 -0.2796 -0.8188 -0.4999
 4533SOL     OW25231   2.500   0.948   6.928 -0.3425 -0.4184 -0.0804
 4533SOL    HW125232   2.435   0.951   6.998 -4.4957 -0.2390 -3.9218
 4533SOL    HW225233   2.467   1.021   6.876 -2.3300 -1.7386 -0.6895
 4534SOL     OW25234   4.678   2.272   7.873 -0.2769  0.2322 -0.1968
 4534SOL    HW125235   0.029   2.237   7.893  0.1685  2.0519  1.1299
 4534SOL    HW225236   4.621   2.237   7.941 -0.5419 -1.7907 -1.4850
 4535SOL     OW25237   2.687   1.363   6.726  0.5253 -0.1687  0.4040
 4535SOL    HW125238   2.737   1.284   6.747 -1.0937 -0.7238  2.1323
 4535SOL    HW225239   2.603   1.354   6.771 -0.5464  1.8321 -1.1651
 4536SOL     OW25240   0.126   3.312  13.098 -0.7637  0.0140  0.3403
 4536SOL    HW125241   0.054   3.354  13.051 -0.5406 -0.9793 -0.8812
 4536SOL    HW225242   0.188   3.302  13.026  0.8700 -2.0806  2.0313
 4537SOL     OW25243   0.401   2.313  15.433  0.2199 -0.5104  0.4578
 4537SOL    HW125244   0.335   2.319  15.502 -1.0199 -0.0350 -0.7757
 4537SOL    HW225245   0.362   2.363  15.362  0.1637 -0.8999  0.2127
 4538SOL     OW25246   3.555   3.218   7.486 -0.1099  0.4267 -0.3858
 4538SOL    HW125247   3.557   3.123   7.476 -0.0490  0.6551 -2.5294
 4538SOL    HW225248   3.571   3.239   7.578  0.4567 -0.4737 -0.2772
 4539SOL     OW25249   3.706   4.521   6.052 -0.2805  0.4039 -0.1458
 4539SOL    HW125250   3.783   4.548   6.003  1.0677 -0.7248  1.3359
 4539SOL    HW225251   3.649   4.596   6.037 -0.6570  0.3580  1.0345
 4540SOL     OW25252   0.298   3.997  17.197 -0.1817 -0.1223 -0.4347
 4540SOL    HW125253   0.389   3.967  17.200  0.8527  3.0333 -0.1423
 4540SOL    HW225254   0.311   4.078  17.248  2.6869  0.7872 -2.5930
 4541SOL     OW25255   4.403   1.830   3.361  0.6055  0.0479 -0.1596
 4541SOL    HW125256   4.311   1.829   3.334  1.0897  0.0865 -1.8283
 4541SOL    HW225257   4.401   1.805   3.454 -2.7525 -0.8285 -0.4628
 4542SOL     OW25258   4.310   2.932   4.561 -0.1976  0.8222  0.8694
 4542SOL    HW125259   4.265   2.961   4.482  2.0463  0.8252 -0.4010
 4542SOL    HW225260   4.392   2.906   4.518 -1.1366 -0.5575 -0.0812
 4543SOL     OW25261   0.040   2.435  13.740  0.1700  0.0904 -0.4139
 4543SOL    HW125262   0.117   2.481  13.772 -0.5986  0.4657  0.8774
 4543SOL    HW225263   4.714   2.462  13.807  1.0292 -0.4265  0.5790
 4544SOL     OW25264   1.425   3.223   9.875 -0.7196  0.7542 -0.7543
 4544SOL    HW125265   1.338   3.191   9.851 -0.1968  1.0477 -3.0363
 4544SOL    HW225266   1.478   3.210   9.796  0.6593  1.6618  0.0268
 4545SOL     OW25267   2.099   4.702  14.179  0.5718 -0.0851 -0.0713
 4545SOL    HW125268   2.014   4.687  14.221 -0.2720 -1.1584 -2.1407
 4545SOL    HW225269   2.077   0.003  14.094 -0.7082 -2.0904 -0.6241
 4546SOL     OW25270   2.329   3.562  10.836 -0.2213  0.3860  0.3994
 4546SOL    HW125271   2.369   3.649  10.838 -1.1534  0.7915  1.2592
 4546SOL    HW225272   2.404   3.504  10.851 -0.3028  0.4496  1.0585
 4547SOL     OW25273   1.513   3.772   6.698  0.3091  0.4219  0.3180
 4547SOL    HW125274   1.429   3.772   6.743 -0.2532  2.2731 -0.7706
 4547SOL    HW225275   1.574   3.753   6.770  0.3588  0.5586  0.3124
 4548SOL     OW25276   1.886   0.509   4.350  0.1918  0.0182 -0.0128
 4548SOL    HW125277   1.953   0.456   4.307 -0.7335 -1.2504  0.1026
 4548SOL    HW225278   1.831   0.533   4.276 -2.0778  1.1351  2.0094
 4549SOL     OW25279   1.965   4.464   3.533  0.4326  0.6604 -0.2410
 4549SOL    HW125280   1.952   4.420   3.617  1.9722 -0.2121 -0.4679
 4549SOL    HW225281   1.981   4.384   3.482  0.2761  1.1354 -1.0437
 4550SOL     OW25282   4.014   2.387   4.576 -0.1059  0.5548 -0.0294
 4550SOL    HW125283   4.002   2.480   4.558 -0.2855  0.0715 -2.4313
 4550SOL    HW225284   4.012   2.381   4.672 -2.4161  2.5581  0.0376
 4551SOL     OW25285   3.183   3.128   8.765 -0.3012  0.4379 -0.0389
 4551SOL    HW125286   3.235   3.138   8.846 -2.3574  1.3348  1.1658
 4551SOL    HW225287   3.181   3.032   8.764  1.0446  0.3953  0.7860
 4552SOL     OW25288   3.440   0.159  13.950 -0.4025 -0.1338 -0.4510
 4552SOL    HW125289   3.469   0.073  13.917 -1.3771 -0.5211 -0.3045
 4552SOL    HW225290   3.450   0.151  14.045  0.5520 -0.3469 -0.5649
 4553SOL     OW25291   0.352   4.153   5.144  0.9746 -0.2865  0.3146
 4553SOL    HW125292   0.271   4.119   5.107  0.1004  0.9264  1.1177
 4553SOL    HW225293   0.402   4.172   5.065  0.9491 -1.4363  0.0168
 4554SOL     OW25294   2.511   1.530   7.725  0.7579  0.0999 -0.3243
 4554SOL    HW125295   2.522   1.540   7.820  1.9068 -1.3389 -0.3016
 4554SOL    HW225296   2.539   1.618   7.700  1.2825  0.6566  2.1326
 4555SOL     OW25297   3.580   3.561   4.321  0.0803  0.2826  0.6517
 4555SOL    HW125298   3.561   3.534   4.231 -0.0745 -1.6833  1.2683
 4555SOL    HW225299   3.551   3.484   4.370  1.5104 -1.4103 -1.1991
 4556SOL     OW25300   0.926   2.161   6.986 -0.2345  0.4758  0.3927
 4556SOL    HW125301   0.952   2.100   7.056  1.7289 -2.1773 -2.6029
 4556SOL    HW225302   0.836   2.139   6.963  0.9219 -0.6180 -3.0703
 4557SOL     OW25303   1.218   0.998   9.401 -0.5901  0.8673  0.0076
 4557SOL    HW125304   1.297   1.052   9.408  0.4474 -0.8869  1.9078
 4557SOL    HW225305   1.242   0.941   9.474 -2.4817  1.6952  1.2657
 4558SOL     OW25306   2.827   2.224   7.674  0.5390 -0.4836 -0.1316
 4558SOL    HW125307   2.860   2.159   7.611  0.4617 -0.5570 -0.0951
 4558SOL    HW225308   2.899   2.216   7.737  2.2802  0.8235 -1.9514
 4559SOL     OW25309   4.673   4.233   7.909 -0.2823  0.7259  0.4845
 4559SOL    HW125310   4.667   4.165   7.976  0.8727 -0.4386 -0.5970
 4559SOL    HW225311   0.001   4.295   7.943 -0.4954  1.7051 -0.9034
 4560SOL     OW25312   0.889   0.334   6.914  0.2937 -0.4114  0.0267
 4560SOL    HW125313   0.922   0.422   6.899  0.7075 -0.6741 -0.5976
 4560SOL    HW225314   0.806   0.350   6.960 -0.6252  1.6281 -2.3713
 4561SOL     OW25315   1.982   3.573   0.356 -0.5741  0.3856 -0.4856
 4561SOL    HW125316   1.901   3.600   0.400  0.1228 -0.6324  1.3982
 4561SOL    HW225317   1.955   3.566   0.264 -3.6131  1.3810  0.3151
 4562SOL     OW25318   0.864   1.952   2.391  0.2993 -0.1989 -0.3777
 4562SOL    HW125319   0.903   2.038   2.373  0.1962 -0.1631 -0.4325
 4562SOL    HW225320   0.807   1.940   2.315 -0.0207 -0.6080 -0.0742
 4563SOL     OW25321   4.159   4.228  17.648 -0.1144  0.4781 -0.4891
 4563SOL    HW125322   4.112   4.311  17.644  0.0436  0.6689  1.7070
 4563SOL    HW225323   4.238   4.242  17.701  0.5566  0.5647 -1.5154
 4564SOL     OW25324   4.544   0.552   2.425  0.4586  0.1175  0.1336
 4564SOL    HW125325   4.477   0.616   2.449  0.6503  0.1769  0.4991
 4564SOL    HW225326   4.507   0.506   2.349  0.2037 -0.7543  0.7774
 4565SOL     OW25327   3.734   0.210   2.319  0.6880  0.0859 -0.1900
 4565SOL    HW125328   3.655   0.239   2.273  0.8435  0.9436  0.0840
 4565SOL    HW225329   3.792   0.286   2.314  0.4400  0.2063 -1.2634
 4566SOL     OW25330   1.159   3.185   6.525 -0.0981 -0.0971 -0.1851
 4566SOL    HW125331   1.125   3.182   6.436 -1.5719  0.5274  0.3653
 4566SOL    HW225332   1.163   3.277   6.550 -3.6828 -0.4990  1.6980
 4567SOL     OW25333   1.675   3.546   9.923  0.1458  0.0692  0.5024
 4567SOL    HW125334   1.661   3.579   9.834 -1.0800  0.9061  1.0138
 4567SOL    HW225335   1.704   3.457   9.906  0.5678  0.4060 -0.5542
 4568SOL     OW25336   1.288   1.107   1.839  0.2468  0.1695 -0.1196
 4568SOL    HW125337   1.256   1.083   1.926  0.7391  1.6513  0.4674
 4568SOL    HW225338   1.382   1.097   1.855 -0.2532 -2.3309  1.3049
 4569SOL     OW25339   2.360   1.887   8.834 -0.0578 -0.5661 -0.1470
 4569SOL    HW125340   2.297   1.919   8.900 -3.2852 -1.6884 -2.6833
 4569SOL    HW225341   2.350   1.793   8.847  0.4571 -0.9760 -2.8896
 4570SOL     OW25342   2.012   1.946   8.020  0.5857 -0.3150  0.3243
 4570SOL    HW125343   2.078   1.908   8.078 -0.2801 -1.4699  0.5466
 4570SOL    HW225344   1.941   1.884   8.034  0.1185  0.0141 -0.6040
 4571SOL     OW25345   4.161   0.568   7.485 -0.1259 -0.6251  0.2787
 4571SOL    HW125346   4.245   0.542   7.447  0.3302 -0.9603  1.5191
 4571SOL    HW225347   4.185   0.571   7.577 -0.7388 -0.1016  0.4260
 4572SOL     OW25348   3.924   0.026   4.526 -0.1847  0.0176 -0.5033
 4572SOL    HW125349   3.869   4.698   4.480  0.0609 -0.9090  0.4971
 4572SOL    HW225350   3.998   0.030   4.465  0.3556  2.4170  0.2834
 4573SOL     OW25351   2.795   2.860   4.180 -0.2259 -0.5437  0.0686
 4573SOL    HW125352   2.832   2.923   4.119 -3.4336  0.2234 -1.0762
 4573SOL    HW225353   2.707   2.866   4.143 -0.7815  2.4206  1.8398
 4574SOL     OW25354   0.854   1.631   1.749  0.3453  0.1636 -0.4046
 4574SOL    HW125355   0.841   1.670   1.663 -0.9683 -0.1295 -0.3464
 4574SOL    HW225356   0.835   1.539   1.729 -1.6906 -0.2324  3.1596
 4575SOL     OW25357   0.422   0.865   2.587 -0.0240 -0.8348  0.6983
 4575SOL    HW125358   0.485   0.880   2.657 -1.2210 -0.8363  1.7727
 4575SOL    HW225359   0.445   0.778   2.554  0.2790 -0.4842 -0.0147
 4576SOL     OW25360   4.702   4.196   5.314 -0.3309 -0.6729 -0.7233
 4576SOL    HW125361   0.060   4.216   5.321 -1.2949  4.4071 -2.0755
 4576SOL    HW225362   4.706   4.104   5.291 -1.0538 -1.1881  1.2319
 4577SOL     OW25363   3.935   0.369   9.584 -0.4273  0.6724  0.1902
 4577SOL    HW125364   3.881   0.323   9.648  0.0030 -0.0071  0.0661
 4577SOL    HW225365   3.904   0.329   9.503  1.3887 -1.4664  0.5641
 4578SOL     OW25366   1.987   3.112   3.484  0.1164  0.1208  0.3928
 4578SOL    HW125367   2.051   3.183   3.491 -0.7988  0.9718  0.2320
 4578SOL    HW225368   1.940   3.146   3.408  0.2266 -1.2385 -0.2850
 4579SOL     OW25369   0.963   0.631   8.000 -0.2992  0.2096  0.1964
 4579SOL    HW125370   1.017   0.590   8.067  0.0309  2.8836  1.5146
 4579SOL    HW225371   1.016   0.706   7.975 -0.3451  0.7017  1.6372
 4580SOL     OW25372   1.756   1.018   7.215 -0.2526 -0.0267  0.4025
 4580SOL    HW125373   1.770   0.932   7.177  0.1926 -0.8579  2.4686
 4580SOL    HW225374   1.694   1.051   7.150  2.1186  1.0072 -1.3019
 4581SOL     OW25375   3.688   2.875   4.156 -0.6526 -0.0368 -0.5427
 4581SOL    HW125376   3.661   2.828   4.077 -0.3026 -1.4003  0.1504
 4581SOL    HW225377   3.625   2.947   4.159  0.7943  1.1859  0.6668
 4582SOL     OW25378   2.775   1.127   7.070 -0.9164  0.0803  0.7806
 4582SOL    HW125379   2.788   1.052   7.128  2.6067 -1.0971 -1.5440
 4582SOL    HW225380   2.849   1.182   7.097 -1.1212  0.7776 -0.0760
 4583SOL     OW25381   1.093   2.366  14.677 -0.4159 -0.2707  0.5506
 4583SOL    HW125382   1.153   2.411  14.619  0.1128 -0.0377  1.2709
 4583SOL    HW225383   1.107   2.278  14.642  0.7009  0.0193  0.2487
 4584SOL     OW25384   2.985   2.139  16.552 -0.1221 -0.1373  0.2002
 4584SOL    HW125385   2.980   2.206  16.483 -1.2374 -0.2241  0.2038
 4584SOL    HW225386   2.942   2.068  16.504 -1.5938  0.4319  0.6908
 4585SOL     OW25387   2.818   4.130  10.854 -0.1667 -0.2799  0.2153
 4585SOL    HW125388   2.858   4.212  10.826 -2.0127  0.3625 -0.5556
 4585SOL    HW225389   2.731   4.144  10.817 -0.0972  3.9019  1.6573
 4586SOL     OW25390   3.362   1.048   3.456 -0.1334  0.1685  0.1733
 4586SOL    HW125391   3.337   1.065   3.546  0.5539  0.5249  0.2962
 4586SOL    HW225392   3.318   0.965   3.440 -0.3455  0.0785  1.2421
 4587SOL     OW25393   0.630   3.461   8.256 -0.1422  0.1019  0.3596
 4587SOL    HW125394   0.692   3.389   8.253  1.1714  1.2519 -0.3841
 4587SOL    HW225395   0.561   3.422   8.309  0.0412  1.6319  1.7270
 4588SOL     OW25396   0.083   3.477  13.952 -0.5866 -0.4767  0.0560
 4588SOL    HW125397   0.141   3.540  13.908 -1.2695  0.4930  0.5493
 4588SOL    HW225398   0.154   3.416  13.974 -0.0595 -0.1839 -0.8248
 4589SOL     OW25399   1.983   0.248  13.233 -0.0450  0.5176 -0.5511
 4589SOL    HW125400   1.943   0.167  13.202  0.7994 -0.5803  1.2107
 4589SOL    HW225401   1.976   0.303  13.155  0.1625 -1.1314 -1.7283
 4590SOL     OW25402   4.464   1.503   5.585  0.7623 -0.1800  0.0557
 4590SOL    HW125403   4.472   1.490   5.679  1.6224 -0.8524 -0.1041
 4590SOL    HW225404   4.403   1.433   5.563 -2.1698  1.8173  1.9637
 4591SOL     OW25405   1.861   0.525  12.784 -0.3700  0.0353  0.2837
 4591SOL    HW125406   1.886   0.456  12.722  2.0792 -0.0996  1.4339
 4591SOL    HW225407   1.917   0.493  12.855 -2.1369 -0.3327  1.5427
 4592SOL     OW25408   0.717   2.781  13.994 -0.4635 -0.2967  0.4092
 4592SOL    HW125409   0.726   2.824  13.910  1.5558 -1.1658  0.1650
 4592SOL    HW225410   0.731   2.688  13.975 -2.6338 -0.6358  0.4830
 4593SOL     OW25411   2.924   0.779  13.291 -0.0374  0.2329 -0.1884
 4593SOL    HW125412   2.920   0.684  13.295 -1.3964  0.4176  2.4311
 4593SOL    HW225413   2.897   0.807  13.203  0.8034  0.3720 -0.4107
 4594SOL     OW25414   4.701   1.525   4.380  1.0953 -0.5436 -0.5771
 4594SOL    HW125415   4.665   1.466   4.313 -0.9590  0.1423 -0.0650
 4594SOL    HW225416   4.625   1.534   4.438 -0.1327 -1.0828 -2.0811
 4595SOL     OW25417   0.203   2.542   8.248 -0.4048 -0.0138 -0.5037
 4595SOL    HW125418   0.146   2.603   8.200 -0.6253  0.4245  0.3077
 4595SOL    HW225419   0.276   2.600   8.271  0.7979 -1.7057 -0.0956
 4596SOL     OW25420   2.061   2.564   8.193  0.6016 -0.1205 -0.1694
 4596SOL    HW125421   2.089   2.594   8.107 -1.3660 -1.2093 -1.2064
 4596SOL    HW225422   1.992   2.499   8.176 -0.4058  1.0762 -0.5901
 4597SOL     OW25423   1.970   2.973   1.168  0.0564 -0.2537 -0.4160
 4597SOL    HW125424   1.918   2.905   1.125 -0.7826  0.9753 -1.3730
 4597SOL    HW225425   2.015   3.002   1.089  0.2185  2.8700  0.8331
 4598SOL     OW25426   4.461   1.292   2.638 -0.5002 -1.1592  0.2628
 4598SOL    HW125427   4.403   1.367   2.625  0.8282 -0.5129 -2.0530
 4598SOL    HW225428   4.549   1.325   2.657 -1.0111 -0.1378  0.8416
 4599SOL     OW25429   0.912   3.599   8.738  0.5607 -0.3275  0.0103
 4599SOL    HW125430   0.873   3.673   8.692  0.1460 -0.8543 -0.4933
 4599SOL    HW225431   0.853   3.526   8.720  0.3605 -0.0928 -0.2806
 4600SOL     OW25432   1.756   2.015   2.960  0.1723 -0.3503 -0.4535
 4600SOL    HW125433   1.793   2.061   3.035  0.8634 -1.4014 -0.1446
 4600SOL    HW225434   1.692   2.079   2.930  0.7941  0.6541  0.3719
 4601SOL     OW25435   1.179   1.950   0.564  0.1568  0.3589 -0.4561
 4601SOL    HW125436   1.166   1.859   0.540  2.5594  0.3999 -1.9662
 4601SOL    HW225437   1.261   1.943   0.613 -0.3573 -1.8679  0.0753
 4602SOL     OW25438   4.171   3.181   3.579  0.6094 -0.6638  0.1472
 4602SOL    HW125439   4.162   3.276   3.573  2.5533 -0.3954  1.4746
 4602SOL    HW225440   4.126   3.145   3.502  0.5485 -1.2528  0.4620
 4603SOL     OW25441   3.814   0.103   9.285  0.0740  0.9004  0.0743
 4603SOL    HW125442   3.721   0.100   9.263 -0.5545 -1.2219  2.9403
 4603SOL    HW225443   3.827   0.195   9.307  0.7548  0.9850 -0.6874
 4604SOL     OW25444   4.685   2.420   4.612 -0.0290  0.2661  0.3140
 4604SOL    HW125445   4.633   2.495   4.640 -1.6764 -0.4258 -0.8762
 4604SOL    HW225446   4.639   2.399   4.530 -0.9001  0.2251  0.8150
 4605SOL     OW25447   3.691   0.635   9.522  0.1822  0.1083  0.1592
 4605SOL    HW125448   3.629   0.563   9.538 -0.9069  0.4917 -2.3239
 4605SOL    HW225449   3.654   0.673   9.442  2.5059 -2.1671 -1.9882
 4606SOL     OW25450   1.130   0.428   2.830  0.6281 -0.3250 -0.0794
 4606SOL    HW125451   1.072   0.504   2.842  0.6256 -0.5060  1.0090
 4606SOL    HW225452   1.090   0.377   2.900  1.8743 -0.8071  0.2707
 4607SOL     OW25453   3.115   3.745  16.441 -0.5044  0.0999 -0.0113
 4607SOL    HW125454   3.098   3.818  16.381  2.0647  1.6449  1.1517
 4607SOL    HW225455   3.044   3.685  16.416 -0.5528 -0.7028  2.0348
 4608SOL     OW25456   2.289   2.894   8.573 -0.1868 -0.0650  0.1572
 4608SOL    HW125457   2.216   2.848   8.615 -0.6465 -0.3027 -0.8733
 4608SOL    HW225458   2.359   2.899   8.637 -1.9599 -3.4038  2.3523
 4609SOL     OW25459   0.556   3.917   7.854 -1.1771 -0.0825 -0.4936
 4609SOL    HW125460   0.604   3.923   7.771 -1.3914 -5.3726 -1.0151
 4609SOL    HW225461   0.523   3.827   7.854  0.4297 -0.6674  0.8125
 4610SOL     OW25462   0.609   2.678   5.834 -0.2818  0.2950  0.2241
 4610SOL    HW125463   0.570   2.684   5.921 -1.1178 -0.1376 -0.1273
 4610SOL    HW225464   0.696   2.660   5.870 -0.1482  1.4522  0.4953
 4611SOL     OW25465   3.129   0.786   2.901 -0.2474  0.3765  0.0707
 4611SOL    HW125466   3.093   0.848   2.964  0.1364  2.9890 -2.2448
 4611SOL    HW225467   3.158   0.710   2.950  2.3164 -0.1747 -2.2726
 4612SOL     OW25468   2.975   3.067  11.201 -0.0434  0.4721  0.3329
 4612SOL    HW125469   3.006   2.989  11.154 -2.1594 -0.1833  0.0138
 4612SOL    HW225470   3.053   3.114  11.229  1.1593 -1.0429 -0.4665
 4613SOL     OW25471   4.483   0.661   5.090  0.7882  0.1655  0.3289
 4613SOL    HW125472   4.454   0.645   5.180 -1.3740 -1.4145 -0.6502
 4613SOL    HW225473   4.416   0.626   5.031  0.7972  1.1202 -0.2570
 4614SOL     OW25474   1.511   0.462   2.264 -0.3037  0.0661  0.2077
 4614SOL    HW125475   1.497   0.377   2.306 -0.8977 -1.2341 -2.5698
 4614SOL    HW225476   1.445   0.448   2.195  0.4474  0.7506 -0.6385
 4615SOL     OW25477   2.311   0.666   8.970  0.0231 -0.1413  0.3124
 4615SOL    HW125478   2.366   0.683   8.894  0.2698 -0.9559  0.3140
 4615SOL    HW225479   2.230   0.670   8.919  0.2227  0.4611  0.0438
 4616SOL     OW25480   2.613   0.591   9.067  0.2604 -0.2507  0.2107
 4616SOL    HW125481   2.670   0.515   9.080  2.1929  1.0476 -0.6869
 4616SOL    HW225482   2.569   0.600   9.151 -0.2523 -1.8110  0.1012
 4617SOL     OW25483   2.658   2.921  17.142 -0.2404 -0.2662 -0.0661
 4617SOL    HW125484   2.688   2.896  17.054 -0.1116  0.4515 -0.2269
 4617SOL    HW225485   2.567   2.891  17.147 -0.8204  1.7407  1.2120
 4618SOL     OW25486   1.906   3.267   1.753  0.4781  0.0706  0.0284
 4618SOL    HW125487   1.915   3.286   1.846  1.9998 -2.4139  0.3892
 4618SOL    HW225488   1.811   3.259   1.756  0.3223  1.4730 -1.1435
 4619SOL     OW25489   3.823   4.225   5.851  0.1046 -0.4837 -0.1346
 4619SOL    HW125490   3.768   4.229   5.929  0.7463  1.4319  0.2317
 4619SOL    HW225491   3.873   4.148   5.875  1.5821  0.8618  1.1177
 4620SOL     OW25492   0.598   1.966   1.389  0.3642  0.1806 -0.2188
 4620SOL    HW125493   0.586   1.871   1.387 -1.1548  0.3977 -2.6451
 4620SOL    HW225494   0.681   1.958   1.342  0.4242 -0.5949  0.0123
 4621SOL     OW25495   2.429   2.045  14.530 -0.6517  0.1561  0.3627
 4621SOL    HW125496   2.510   2.089  14.505 -1.2134  1.5303  0.9561
 4621SOL    HW225497   2.429   2.058  14.625 -1.4909 -2.7105  0.7573
 4622SOL     OW25498   3.119   4.557   6.723 -0.2863 -0.1419  0.3281
 4622SOL    HW125499   3.200   4.527   6.765  0.2198 -0.9768 -1.2601
 4622SOL    HW225500   3.082   4.471   6.704  1.0173 -1.2415  2.6859
 4623SOL     OW25501   3.239   0.792   3.537  0.4563 -0.1658  0.3402
 4623SOL    HW125502   3.333   0.799   3.552  0.2049  0.4413  1.6214
 4623SOL    HW225503   3.212   0.751   3.620  0.6921 -0.0980  0.4496
 4624SOL     OW25504   0.885   3.003   5.708 -0.1411  0.1863  0.2811
 4624SOL    HW125505   0.866   3.006   5.615 -0.7274 -3.0365  0.3048
 4624SOL    HW225506   0.971   2.959   5.707 -0.5807 -0.7886  3.8981
 4625SOL     OW25507   0.484   4.471   9.801 -0.2999  0.0523  0.2667
 4625SOL    HW125508   0.576   4.471   9.828 -0.0170  1.8070 -0.6990
 4625SOL    HW225509   0.461   4.564   9.807 -0.7175  0.0894 -1.8254
 4626SOL     OW25510   2.858   2.075   9.571 -0.4102  0.1943 -0.0032
 4626SOL    HW125511   2.921   2.085   9.501  1.1638  0.2789  1.4332
 4626SOL    HW225512   2.813   2.159   9.566 -0.3666  0.3470  1.8989
 4627SOL     OW25513   2.478   1.272   4.381  0.6809 -0.1059 -0.3887
 4627SOL    HW125514   2.386   1.287   4.401  1.1000  1.2591  0.5754
 4627SOL    HW225515   2.507   1.355   4.344 -0.4680 -0.4239 -1.9849
 4628SOL     OW25516   2.612   3.331   8.795  0.4073  0.4608  0.5708
 4628SOL    HW125517   2.532   3.303   8.751  1.3545  0.9018 -1.4615
 4628SOL    HW225518   2.683   3.293   8.743  0.8081  0.3598  1.1838
 4629SOL     OW25519   4.405   0.854  12.840  0.5858 -0.0163  0.2896
 4629SOL    HW125520   4.451   0.846  12.756  0.3414  1.6088  0.0031
 4629SOL    HW225521   4.325   0.804  12.823  0.7615  1.2297 -4.0521
 4630SOL     OW25522   3.773   2.611   0.362  0.5327 -0.1996 -0.1240
 4630SOL    HW125523   3.678   2.608   0.374  0.1258  0.7918 -2.9256
 4630SOL    HW225524   3.807   2.554   0.431  2.7968 -0.1307 -1.1910
 4631SOL     OW25525   4.381   3.049   7.383 -0.0918  0.2058  0.0125
 4631SOL    HW125526   4.389   3.130   7.432 -1.4232  0.7360 -0.6476
 4631SOL    HW225527   4.308   3.005   7.427 -1.3800  0.5124 -1.7964
 4632SOL     OW25528   1.508   1.463   6.063 -0.2988 -0.5809 -0.4456
 4632SOL    HW125529   1.592   1.418   6.055  0.7894  1.9461 -3.1013
 4632SOL    HW225530   1.453   1.395   6.025 -0.3582 -0.7720 -0.0259
 4633SOL     OW25531   0.707   0.083   2.761 -0.2060  0.0882 -0.6668
 4633SOL    HW125532   0.728   0.174   2.778  2.3831 -0.6822  0.2118
 4633SOL    HW225533   0.649   0.087   2.685 -1.8449 -1.4022  0.4789
 4634SOL     OW25534   0.881   4.236   4.022  0.0149  0.0914 -0.3443
 4634SOL    HW125535   0.935   4.246   4.101 -2.2569  1.1178  1.0868
 4634SOL    HW225536   0.798   4.206   4.059  0.1698 -0.9549 -0.8399
 4635SOL     OW25537   4.628   3.225   6.559  0.2027 -0.5779 -0.0064
 4635SOL    HW125538   4.550   3.270   6.595  0.6481 -0.0647  0.3194
 4635SOL    HW225539   4.698   3.288   6.574  2.3293 -3.2373  1.1209
 4636SOL     OW25540   2.865   2.528   7.228  0.4979 -0.3762 -0.2333
 4636SOL    HW125541   2.847   2.455   7.287 -0.1470  0.5144  0.6663
 4636SOL    HW225542   2.792   2.528   7.167 -0.1952  0.1804  0.6063
 4637SOL     OW25543   1.272   1.822  15.230  0.2473 -0.3342  0.0792
 4637SOL    HW125544   1.356   1.841  15.187  1.0417 -0.6396  1.4853
 4637SOL    HW225545   1.314   1.789  15.309 -0.8417 -0.5974  0.5460
 4638SOL     OW25546   4.323   1.941   3.016  0.3571 -0.0325 -0.4430
 4638SOL    HW125547   4.271   1.911   3.090 -0.4117 -1.2439 -1.4714
 4638SOL    HW225548   4.300   1.882   2.943  2.3672  1.4738 -2.2984
 4639SOL     OW25549   0.491   0.302   6.763 -0.0707 -0.2349 -0.1316
 4639SOL    HW125550   0.405   0.315   6.724 -1.2265 -3.8601  1.1525
 4639SOL    HW225551   0.521   0.392   6.770 -1.8624  0.4157 -0.8930
 4640SOL     OW25552   2.794   3.867   6.810  0.6242 -0.1934  0.1673
 4640SOL    HW125553   2.860   3.802   6.789 -0.8295 -1.5954 -0.0699
 4640SOL    HW225554   2.719   3.813   6.786  0.1844  0.2472  0.5442
 4641SOL     OW25555   1.639   4.733   8.727 -0.0142  0.6351  0.4379
 4641SOL    HW125556   1.550   0.024   8.751 -0.5911  0.2226 -1.2546
 4641SOL    HW225557   1.630   4.638   8.725 -2.0398  0.8088  1.3487
 4642SOL     OW25558   0.717   2.152   7.386 -0.7101 -0.2562 -0.5593
 4642SOL    HW125559   0.626   2.174   7.406 -0.4596  1.7636 -1.6077
 4642SOL    HW225560   0.729   2.209   7.311 -0.2609 -0.1634 -0.4189
 4643SOL     OW25561   1.041   3.802   3.815  0.1930 -0.2423  0.4445
 4643SOL    HW125562   0.974   3.827   3.752  1.1516 -1.7052 -1.1715
 4643SOL    HW225563   1.085   3.885   3.829 -1.3393  0.7713 -0.8660
 4644SOL     OW25564   1.199   4.557  13.436 -0.0501  0.7931  0.1840
 4644SOL    HW125565   1.281   4.508  13.440 -0.1556  0.6577  0.7240
 4644SOL    HW225566   1.131   4.495  13.462 -1.6150  1.7346 -1.7248
 4645SOL     OW25567   0.396   3.535   5.585 -0.4949 -0.1596  0.0348
 4645SOL    HW125568   0.346   3.559   5.663 -0.3948 -1.4864  0.4984
 4645SOL    HW225569   0.349   3.466   5.538 -1.4337 -0.2724  1.1429
 4646SOL     OW25570   0.493   1.629  16.733 -0.2546 -0.0997  0.2701
 4646SOL    HW125571   0.516   1.570  16.805 -3.5093 -1.7034  0.0393
 4646SOL    HW225572   0.447   1.700  16.779  1.8661  1.8727 -0.6998
 4647SOL     OW25573   4.625   0.716   6.245 -0.0506 -0.2785  0.0285
 4647SOL    HW125574   4.647   0.692   6.335  1.5220 -2.8043 -1.0188
 4647SOL    HW225575   4.612   0.810   6.244 -0.0487 -0.2881 -1.0716
 4648SOL     OW25576   1.928   1.874  15.982  0.2353  0.4114  0.7619
 4648SOL    HW125577   1.832   1.869  15.981  0.2300  0.8258 -1.7527
 4648SOL    HW225578   1.939   1.968  15.990  0.0862  0.5575 -0.7419
 4649SOL     OW25579   2.538   1.389  17.121 -0.0283  0.3303  0.1068
 4649SOL    HW125580   2.489   1.453  17.172  0.8639  0.7439  0.4329
 4649SOL    HW225581   2.483   1.314  17.142  0.8464 -0.2497  0.3141
 4650SOL     OW25582   4.575   3.310   3.021 -0.0313 -0.1742 -0.2827
 4650SOL    HW125583   4.567   3.215   3.015 -0.0562 -0.1340 -0.8367
 4650SOL    HW225584   4.507   3.331   3.085 -0.0098  0.4014 -0.4545
 4651SOL     OW25585   1.510   2.278   4.907 -0.0502  0.2630  0.0845
 4651SOL    HW125586   1.538   2.323   4.827  2.8063 -0.7101  0.5407
 4651SOL    HW225587   1.418   2.301   4.921 -0.2272  0.3269 -1.1504
 4652SOL     OW25588   0.346   4.665   5.147 -0.1725 -0.1106  0.1454
 4652SOL    HW125589   0.355   4.668   5.052  2.3174 -1.4474  0.3214
 4652SOL    HW225590   0.383   4.579   5.171 -1.5314 -0.7031  0.1368
 4653SOL     OW25591   3.383   4.190   5.273  0.1462  0.0918  0.1598
 4653SOL    HW125592   3.475   4.186   5.301 -0.4089 -1.0787  1.7944
 4653SOL    HW225593   3.344   4.255   5.331  2.3333 -0.0371  1.7625
 4654SOL     OW25594   0.113   1.973   8.608  0.2303  0.1256 -0.1869
 4654SOL    HW125595   0.128   1.903   8.544  0.2954  0.0129 -0.0484
 4654SOL    HW225596   0.035   1.942   8.654  0.7521 -1.5523 -0.4064
 4655SOL     OW25597   3.136   0.925  13.096 -0.2223 -0.4418 -0.1659
 4655SOL    HW125598   3.070   0.862  13.068  3.5863 -3.4059 -2.4677
 4655SOL    HW225599   3.078   1.001  13.095  0.2289 -0.0952 -0.9277
 4656SOL     OW25600   0.516   0.779   7.287  0.5489  0.0394  0.0174
 4656SOL    HW125601   0.462   0.838   7.340 -0.3844  0.4013 -1.3252
 4656SOL    HW225602   0.581   0.750   7.351  1.1838 -1.4456 -1.3212
 4657SOL     OW25603   1.444   2.365   8.984 -0.4021 -0.1981  0.1141
 4657SOL    HW125604   1.453   2.379   8.890 -2.2276  0.3230  0.0019
 4657SOL    HW225605   1.349   2.368   8.996 -0.2789 -0.4740  1.1358
 4658SOL     OW25606   1.430   2.587   9.843 -0.3228 -0.0915  0.6644
 4658SOL    HW125607   1.494   2.615   9.908  0.6338  1.6854 -1.0577
 4658SOL    HW225608   1.349   2.609   9.890 -1.6284 -2.2419 -0.5846
 4659SOL     OW25609   2.514   4.038   1.476 -0.1486  0.7064  0.5584
 4659SOL    HW125610   2.601   4.071   1.498 -0.8195  1.6380  1.8003
 4659SOL    HW225611   2.493   3.996   1.560 -0.2616 -1.6549 -0.6446
 4660SOL     OW25612   2.042   2.025  13.754 -0.0136 -0.2758  0.0434
 4660SOL    HW125613   2.024   2.036  13.661  2.8951  0.6376 -0.4193
 4660SOL    HW225614   1.996   1.942  13.759 -1.0625  0.2866 -0.4465
 4661SOL     OW25615   3.533   3.185   9.760 -0.0924  0.3450 -0.5744
 4661SOL    HW125616   3.485   3.122   9.814 -2.2179 -1.3837 -4.5201
 4661SOL    HW225617   3.506   3.264   9.806 -0.0809 -1.0529  1.8419
 4662SOL     OW25618   3.281   2.805  15.981  0.3119  0.5883  0.3358
 4662SOL    HW125619   3.329   2.722  15.970  0.1263  0.7861 -1.9508
 4662SOL    HW225620   3.304   2.855  15.902 -0.3797  0.2445 -0.0846
 4663SOL     OW25621   1.530   0.127   0.074 -0.9146 -0.9565  0.2084
 4663SOL    HW125622   1.474   0.161   0.144 -0.8035  0.0480 -0.1929
 4663SOL    HW225623   1.619   0.143   0.103  0.1559 -0.9873 -3.0830
 4664SOL     OW25624   2.805   2.339   6.616 -0.1209 -0.0433 -0.1021
 4664SOL    HW125625   2.897   2.322   6.593  0.0004  0.5907 -0.0798
 4664SOL    HW225626   2.784   2.264   6.672 -2.4064 -0.3071 -1.3152
 4665SOL     OW25627   2.328   3.196   3.212  0.6687 -0.1468  0.1174
 4665SOL    HW125628   2.379   3.268   3.175 -0.1250  0.8785  0.9925
 4665SOL    HW225629   2.277   3.171   3.135  0.0217 -0.4831  0.6514
 4666SOL     OW25630   2.825   3.632   4.731 -0.0108  0.7729 -0.4894
 4666SOL    HW125631   2.741   3.588   4.723  0.6424 -0.2548 -1.6652
 4666SOL    HW225632   2.815   3.670   4.819  3.8974  2.1226 -0.6191
 4667SOL     OW25633   2.449   2.448   3.860  0.2261 -0.6304  0.0287
 4667SOL    HW125634   2.474   2.438   3.951 -0.4146 -1.0962  0.1552
 4667SOL    HW225635   2.434   2.354   3.846  2.2610 -1.0571  0.6930
 4668SOL     OW25636   1.946   3.393   5.795  0.3487  0.3412 -0.0543
 4668SOL    HW125637   1.979   3.460   5.854 -0.3272  0.6967 -0.0745
 4668SOL    HW225638   1.946   3.427   5.705 -3.4507 -2.0427 -0.9610
 4669SOL     OW25639   2.861   4.554   2.723 -0.4756  0.0999 -0.2504
 4669SOL    HW125640   2.840   4.635   2.769  0.0006  1.0715 -1.7543
 4669SOL    HW225641   2.828   4.593   2.643 -0.7762  2.5067  1.0349
 4670SOL     OW25642   2.147   0.632   2.441 -0.3419 -0.4842 -0.2293
 4670SOL    HW125643   2.055   0.612   2.462  0.3043  0.0355  3.1105
 4670SOL    HW225644   2.182   0.546   2.419 -1.3079 -1.2929  1.3897
 4671SOL     OW25645   3.408   0.083   5.478 -0.1855 -0.1271  0.1132
 4671SOL    HW125646   3.348   0.032   5.533  0.0626 -1.4185 -0.8088
 4671SOL    HW225647   3.493   0.045   5.498 -0.5824  0.1963  2.4134
 4672SOL     OW25648   0.797   1.719  12.774 -0.6803  0.0322  0.1787
 4672SOL    HW125649   0.865   1.771  12.733  1.4007 -1.4530  1.7517
 4672SOL    HW225650   0.735   1.706  12.702  1.2837 -0.9689 -1.3197
 4673SOL     OW25651   3.100   1.579  11.679 -0.1648 -0.5359  0.0978
 4673SOL    HW125652   3.111   1.582  11.774  0.2104 -0.8626  0.0637
 4673SOL    HW225653   3.012   1.617  11.684 -0.5136 -1.1062 -1.6579
 4674SOL     OW25654   0.437   3.276   7.360  0.2355  0.3501  0.2639
 4674SOL    HW125655   0.414   3.196   7.312 -0.5639  1.2433 -0.8519
 4674SOL    HW225656   0.351   3.311   7.385 -0.3472 -1.5411  0.9922
 4675SOL     OW25657   2.420   4.395  17.160  0.0323  0.2583 -0.4662
 4675SOL    HW125658   2.361   4.328  17.195  2.5869 -1.6180  0.2185
 4675SOL    HW225659   2.357   4.466  17.174 -1.9116 -1.5047 -0.1681
 4676SOL     OW25660   2.194   3.263  10.845 -0.4805  0.0583  0.2059
 4676SOL    HW125661   2.232   3.305  10.922  0.5521 -1.1292  0.3348
 4676SOL    HW225662   2.129   3.203  10.882 -0.5907  1.6398  2.6050
 4677SOL     OW25663   3.666   2.994  12.731  0.4460  0.0871  0.4080
 4677SOL    HW125664   3.733   3.053  12.764  1.3539 -0.8513  0.2547
 4677SOL    HW225665   3.700   2.988  12.641  0.8040 -0.2745  0.5642
 4678SOL     OW25666   3.149   1.561   4.243 -0.3412  0.0553 -0.7748
 4678SOL    HW125667   3.202   1.640   4.257  0.5530 -0.7649  0.4380
 4678SOL    HW225668   3.167   1.511   4.323 -1.5324  0.3997 -0.2985
 4679SOL     OW25669   1.588   3.115   3.861  0.2841 -0.7905 -0.3632
 4679SOL    HW125670   1.667   3.100   3.913  0.1416  1.4905  0.5339
 4679SOL    HW225671   1.602   3.069   3.778  0.7922 -1.4184  0.0750
 4680SOL     OW25672   3.230   0.432   3.582 -0.2574  0.4926  0.1730
 4680SOL    HW125673   3.143   0.393   3.568  0.8699 -2.6575  2.0216
 4680SOL    HW225674   3.284   0.353   3.579 -1.3441 -0.2371 -0.6213
 4681SOL     OW25675   3.430   2.766   5.180 -0.2285  0.1757  0.1817
 4681SOL    HW125676   3.484   2.735   5.107  1.3365 -0.8215  1.7861
 4681SOL    HW225677   3.346   2.722   5.169 -0.1064  0.7206 -2.9045
 4682SOL     OW25678   2.307   3.329  10.132  0.1954  0.8349 -0.5872
 4682SOL    HW125679   2.310   3.320  10.037  1.4681 -0.3934 -0.4303
 4682SOL    HW225680   2.398   3.321  10.161  0.6683  0.2572 -2.2352
 4683SOL     OW25681   3.880   4.647   6.998  0.0437 -0.3901 -0.3681
 4683SOL    HW125682   3.950   4.710   6.977 -0.5441  0.8099  1.2452
 4683SOL    HW225683   3.843   4.687   7.077 -1.2852 -0.6779 -0.8538
 4684SOL     OW25684   1.075   2.219   9.924 -0.0779  0.4386 -0.4380
 4684SOL    HW125685   1.064   2.124   9.930 -0.0568  0.6668  3.1705
 4684SOL    HW225686   1.170   2.226   9.928  0.1439 -2.1481 -1.0589
 4685SOL     OW25687   4.094   2.560   6.757 -0.3744 -0.1423  0.2495
 4685SOL    HW125688   4.071   2.648   6.729 -2.6119  0.1549  3.0021
 4685SOL    HW225689   4.167   2.593   6.810  0.7473 -0.1516 -1.3041
 4686SOL     OW25690   1.471   2.230   9.623 -0.1940 -0.0455 -0.4101
 4686SOL    HW125691   1.464   2.324   9.605  1.0487 -0.1028 -1.1973
 4686SOL    HW225692   1.440   2.184   9.545  2.2645 -1.1820 -0.7343
 4687SOL     OW25693   4.456   0.311   5.623  0.2554 -0.0271  0.4194
 4687SOL    HW125694   4.437   0.221   5.651  2.0979 -0.5435 -0.0372
 4687SOL    HW225695   4.417   0.310   5.536  2.2859 -1.0260 -0.4586
 4688SOL     OW25696   1.622   4.424   2.113 -0.4650 -0.0137 -0.0494
 4688SOL    HW125697   1.578   4.373   2.046 -3.1784  1.4526  0.6317
 4688SOL    HW225698   1.677   4.483   2.062  1.1822  0.7672  2.6331
 4689SOL     OW25699   2.267   3.703   1.917 -0.2627  0.3752 -0.1627
 4689SOL    HW125700   2.362   3.707   1.928 -0.3787  1.5116  0.4687
 4689SOL    HW225701   2.257   3.608   1.916 -0.4077  0.4211 -3.6553
 4690SOL     OW25702   0.858   3.623   6.325  0.3543 -0.2296  0.2466
 4690SOL    HW125703   0.926   3.557   6.306  1.0772  0.9199 -1.1354
 4690SOL    HW225704   0.783   3.564   6.313  2.2176 -2.4205 -0.7525
 4691SOL     OW25705   2.335   0.900   7.460 -0.1415 -0.2407 -0.0455
 4691SOL    HW125706   2.399   0.938   7.400  0.3573 -2.0590 -0.6704
 4691SOL    HW225707   2.371   0.929   7.544 -0.1644 -0.3413 -0.0016
 4692SOL     OW25708   4.214   1.383   9.093 -0.3731  0.2171 -0.2305
 4692SOL    HW125709   4.292   1.332   9.113 -1.2444  0.1597  2.8820
 4692SOL    HW225710   4.187   1.327   9.020 -3.3978 -0.5426  1.4961
 4693SOL     OW25711   2.263   4.407  16.432  0.1997  0.3806 -0.5627
 4693SOL    HW125712   2.350   4.447  16.438  0.1521  0.4656 -0.4308
 4693SOL    HW225713   2.287   4.322  16.396 -0.0211  0.3988 -0.7504
 4694SOL     OW25714   0.698   4.462   8.762 -0.1321  0.3649  0.3226
 4694SOL    HW125715   0.629   4.504   8.709  0.6051  0.0496 -0.8922
 4694SOL    HW225716   0.642   4.459   8.839 -0.6834 -4.1290 -0.2478
 4695SOL     OW25717   3.749   3.033  11.991 -0.0720 -0.7624 -0.4080
 4695SOL    HW125718   3.828   3.058  12.038  1.4124 -1.6320 -2.4239
 4695SOL    HW225719   3.778   3.022  11.900  3.2578 -3.9220  1.0497
 4696SOL     OW25720   0.875   4.083  11.999  0.0545  0.1229  0.4753
 4696SOL    HW125721   0.915   4.030  12.068  1.8138 -0.6560 -1.1302
 4696SOL    HW225722   0.906   4.172  12.012  0.4071  0.2434 -1.1184
 4697SOL     OW25723   3.939   4.397   2.644 -0.2479  0.1041  0.0343
 4697SOL    HW125724   3.877   4.341   2.598  3.1407 -2.0389 -1.9528
 4697SOL    HW225725   3.987   4.441   2.574 -0.6370  0.1318 -0.2174
 4698SOL     OW25726   3.804   4.059   7.753 -0.0774 -1.1784 -0.6603
 4698SOL    HW125727   3.740   3.991   7.773 -1.5064  0.5912  0.8430
 4698SOL    HW225728   3.753   4.140   7.755  1.3804 -0.2576 -0.3068
 4699SOL     OW25729   1.135   1.417   1.647 -0.0537 -0.2425 -0.1670
 4699SOL    HW125730   1.163   1.430   1.738 -1.9348 -0.5439  0.4501
 4699SOL    HW225731   1.156   1.504   1.614  1.9916  0.0895  2.0046
 4700SOL     OW25732   4.674   1.577  16.210 -0.4516  0.3319  0.5825
 4700SOL    HW125733   4.674   1.574  16.114 -0.5479 -3.9879  0.7019
 4700SOL    HW225734   4.589   1.617  16.230  0.7289  0.9802  4.2164
 4701SOL     OW25735   2.499   1.210   5.236 -0.1256  0.5012  0.0145
 4701SOL    HW125736   2.526   1.172   5.319 -1.6585  1.8437  1.1136
 4701SOL    HW225737   2.449   1.285   5.266 -1.3299  0.2034 -1.2254
 4702SOL     OW25738   0.477   1.242  15.141 -0.8453 -0.5376  0.0821
 4702SOL    HW125739   0.531   1.193  15.078  1.6876  2.3761 -0.0188
 4702SOL    HW225740   0.534   1.239  15.218 -0.7687  0.4458  0.0706
 4703SOL     OW25741   4.169   0.964   2.454 -0.3373  0.3826 -0.0269
 4703SOL    HW125742   4.183   0.891   2.393 -0.6481 -1.1235  1.7191
 4703SOL    HW225743   4.239   1.023   2.428  0.0340  0.2449  0.6750
 4704SOL     OW25744   1.053   3.949  12.162  0.2534  0.0441  0.3516
 4704SOL    HW125745   1.080   3.875  12.108  0.8005  0.9437 -0.6068
 4704SOL    HW225746   1.136   3.968  12.205 -0.2160  1.4486  0.6504
 4705SOL     OW25747   2.628   4.333  15.838  0.3034 -0.0457  0.5556
 4705SOL    HW125748   2.604   4.422  15.864  0.3015  0.4357 -1.1059
 4705SOL    HW225749   2.555   4.285  15.876 -0.5779  0.9210  0.0866
 4706SOL     OW25750   4.436   1.232   6.443  0.2067 -0.4217 -0.2667
 4706SOL    HW125751   4.410   1.292   6.373 -0.8737 -1.8077 -1.0557
 4706SOL    HW225752   4.404   1.150   6.405  2.0212 -1.4667  0.4773
 4707SOL     OW25753   0.655   4.433   3.858 -0.8648 -0.8322 -0.0880
 4707SOL    HW125754   0.687   4.343   3.854 -0.1828 -0.5900  0.0018
 4707SOL    HW225755   0.584   4.433   3.794 -0.1015  2.1209 -0.9375
 4708SOL     OW25756   0.456   0.365   3.731 -0.0232  0.6048  0.2721
 4708SOL    HW125757   0.458   0.450   3.686  1.5843  0.2272 -0.3771
 4708SOL    HW225758   0.524   0.368   3.798  0.4056  1.4390 -0.1912
 4709SOL     OW25759   1.859   1.358  11.504 -0.0750  0.1969  0.1506
 4709SOL    HW125760   1.911   1.301  11.561  1.9562 -0.7414 -2.6298
 4709SOL    HW225761   1.884   1.445  11.535 -2.3902  0.3736  1.5199
 4710SOL     OW25762   0.564   1.597  17.368 -0.4058 -0.0597 -0.5234
 4710SOL    HW125763   0.529   1.671  17.417 -1.8083 -0.6754 -0.5951
 4710SOL    HW225764   0.549   1.639  17.284 -2.0677  1.0021  0.3201
 4711SOL     OW25765   0.370   1.144  14.218  0.2732  0.0630  0.2622
 4711SOL    HW125766   0.308   1.217  14.217  0.1411 -0.0530  0.0527
 4711SOL    HW225767   0.306   1.076  14.195  0.6786 -0.1931 -0.1107
 4712SOL     OW25768   1.778   2.804   3.235 -0.2615  0.6114  0.2412
 4712SOL    HW125769   1.735   2.874   3.187  1.0155  2.3202  1.5779
 4712SOL    HW225770   1.868   2.832   3.218 -0.7362  1.9711 -0.0223
 4713SOL     OW25771   4.213   0.949   8.918 -0.0349  0.8347 -0.0042
 4713SOL    HW125772   4.129   0.909   8.896 -0.5998  2.2747 -0.4586
 4713SOL    HW225773   4.244   0.899   8.993  1.6891  2.7495  0.5694
 4714SOL     OW25774   0.423   0.252  11.331  0.2943  0.1252  1.0220
 4714SOL    HW125775   0.360   0.268  11.261  1.2911  1.2502  0.3843
 4714SOL    HW225776   0.497   0.308  11.310  1.0296 -1.7125 -1.1916
 4715SOL     OW25777   2.911   1.439  17.114 -0.1430  0.4118  1.0028
 4715SOL    HW125778   2.922   1.412  17.023  3.1639 -0.0741  1.5606
 4715SOL    HW225779   2.942   1.530  17.112 -1.3228  0.7945  0.0264
 4716SOL     OW25780   0.675   2.397   4.701 -0.1248  0.3298  1.0786
 4716SOL    HW125781   0.694   2.416   4.793 -0.1784 -1.5403  1.4948
 4716SOL    HW225782   0.611   2.327   4.714  0.4835 -0.5377 -0.6860
 4717SOL     OW25783   0.045   0.387   9.467  0.2096  0.3658 -0.3388
 4717SOL    HW125784   0.041   0.389   9.372 -0.7117  1.6759 -0.2609
 4717SOL    HW225785   4.706   0.328   9.479 -0.0883  0.6707 -0.6888
 4718SOL     OW25786   3.427   1.635   4.559 -0.6585  0.0876 -0.0902
 4718SOL    HW125787   3.429   1.552   4.511 -0.9945  1.7012 -2.8936
 4718SOL    HW225788   3.384   1.600   4.638  0.5716  0.8751  0.9177
 4719SOL     OW25789   0.343   0.465   2.878  0.5627  0.0973 -0.1055
 4719SOL    HW125790   0.348   0.369   2.884 -3.5038  0.0444  2.4054
 4719SOL    HW225791   0.268   0.486   2.821  0.2969 -0.0660  0.1840
 4720SOL     OW25792   3.491   3.376   3.181 -0.0992 -0.1647 -0.1648
 4720SOL    HW125793   3.470   3.359   3.090 -1.3661  4.1219 -0.6713
 4720SOL    HW225794   3.468   3.289   3.212  1.5180 -0.3291  0.6016
 4721SOL     OW25795   1.095   2.651   6.737  0.2549 -0.3939 -0.8917
 4721SOL    HW125796   1.154   2.682   6.669 -1.6333  1.4506 -1.6985
 4721SOL    HW225797   1.149   2.596   6.794 -2.8884 -0.3691  2.1274
 4722SOL     OW25798   1.895   2.003   1.639  0.2232  0.7310  0.0035
 4722SOL    HW125799   1.880   2.094   1.612  0.4027  0.4832 -0.9284
 4722SOL    HW225800   1.953   1.974   1.569  1.9125  0.6111  1.4607
 4723SOL     OW25801   2.288   2.424  12.734 -0.0635  0.1666  0.2660
 4723SOL    HW125802   2.264   2.371  12.659  0.5316  0.1801  0.0694
 4723SOL    HW225803   2.378   2.405  12.759 -0.8451 -0.2168  2.8089
 4724SOL     OW25804   0.116   0.940   6.919  0.4620 -0.0673  0.5216
 4724SOL    HW125805   0.120   1.011   6.855  1.7951  0.0268  0.6995
 4724SOL    HW225806   0.121   0.869   6.856  0.5369 -1.1739  1.7696
 4725SOL     OW25807   2.769   4.468   5.350  0.2074 -0.1596  0.0228
 4725SOL    HW125808   2.696   4.436   5.296  0.2989  0.3740 -0.4146
 4725SOL    HW225809   2.796   4.536   5.290  2.3578 -0.7980  0.2798
 4726SOL     OW25810   0.272   4.337   4.410  0.1741  0.2371  0.0856
 4726SOL    HW125811   0.245   4.314   4.499  2.2421  0.0110  0.6429
 4726SOL    HW225812   0.332   4.409   4.429  1.2259 -0.1337 -1.7838
 4727SOL     OW25813   3.257   3.143  15.858 -0.3651 -0.1363  0.5324
 4727SOL    HW125814   3.333   3.199  15.842 -0.6076 -0.3641 -1.4008
 4727SOL    HW225815   3.296   3.065  15.820 -1.0186  0.3802 -1.1892
 4728SOL     OW25816   4.616   0.240   3.740  0.1387 -0.0705 -0.6017
 4728SOL    HW125817   4.598   0.208   3.652  1.4680  0.1960 -0.9718
 4728SOL    HW225818   4.651   0.160   3.780 -2.1081 -1.3444 -1.1737
 4729SOL     OW25819   2.853   4.650  14.830 -0.3797  0.5885  0.0841
 4729SOL    HW125820   2.858   0.008  14.848 -2.6245  0.6824  0.2537
 4729SOL    HW225821   2.884   4.605  14.909 -2.3372 -1.8338 -0.5159
 4730SOL     OW25822   1.345   4.400  10.673  0.1867  0.3264 -0.2660
 4730SOL    HW125823   1.311   4.364  10.591  2.5473  1.6581 -1.8333
 4730SOL    HW225824   1.440   4.386  10.667 -0.1869 -1.1054 -2.4186
 4731SOL     OW25825   0.904   0.148   4.490  0.1665  0.2981  0.1667
 4731SOL    HW125826   0.891   0.213   4.421  2.5650  2.7480  2.0274
 4731SOL    HW225827   0.968   0.087   4.452  1.9059  2.2777 -0.0797
 4732SOL     OW25828   0.576   1.933   3.009  1.0142 -0.1433 -0.1037
 4732SOL    HW125829   0.669   1.938   2.990  0.9415 -1.3052 -0.7506
 4732SOL    HW225830   0.574   1.866   3.077 -0.0439  1.5030  1.4793
 4733SOL     OW25831   0.419   3.784   6.674  0.1544  0.3295 -0.1286
 4733SOL    HW125832   0.475   3.725   6.624 -2.5545 -0.1419 -2.5890
 4733SOL    HW225833   0.361   3.803   6.601 -0.1628  0.1523  0.0746
 4734SOL     OW25834   2.830   3.542   8.561 -0.6722 -0.4290  0.1660
 4734SOL    HW125835   2.735   3.540   8.570 -0.6883  2.8218  0.6040
 4734SOL    HW225836   2.856   3.485   8.634 -3.7834 -1.1464  0.7394
 4735SOL     OW25837   2.545   3.566   5.405  0.5460 -0.0505 -0.6555
 4735SOL    HW125838   2.501   3.487   5.435 -0.3864  0.9781  0.6633
 4735SOL    HW225839   2.581   3.611   5.482 -0.0471  3.2112 -2.2882
 4736SOL     OW25840   0.126   1.986  11.783  0.2335 -0.3013 -0.2142
 4736SOL    HW125841   0.171   1.938  11.853 -0.2460  0.2985  0.4959
 4736SOL    HW225842   0.197   2.043  11.752 -0.1859  1.2242  1.7049
 4737SOL     OW25843   0.810   1.936   9.472  0.2012 -0.3370  0.7384
 4737SOL    HW125844   0.856   1.853   9.463  0.2803 -0.0641 -1.4001
 4737SOL    HW225845   0.734   1.918   9.416 -0.3070 -0.0008  1.3120
 4738SOL     OW25846   1.979   3.981   7.765 -0.0870  0.2350 -0.3461
 4738SOL    HW125847   1.910   3.915   7.777 -0.2098  0.5922  0.9506
 4738SOL    HW225848   1.941   4.043   7.703 -2.4050 -0.1087  0.7038
 4739SOL     OW25849   0.173   2.128   5.627 -1.2396 -0.4384  0.7849
 4739SOL    HW125850   0.218   2.211   5.645 -2.9854  0.3057  1.7250
 4739SOL    HW225851   0.118   2.150   5.551 -0.6486  1.8627  1.0362
 4740SOL     OW25852   1.378   3.761  17.616  0.1808  0.4165 -0.4582
 4740SOL    HW125853   1.306   3.722  17.665 -1.0846  3.3649 -0.0078
 4740SOL    HW225854   1.349   3.852  17.625  1.0429  0.2654  3.7740
 4741SOL     OW25855   3.216   2.662  13.270 -0.0177 -0.1931  0.6040
 4741SOL    HW125856   3.240   2.754  13.278  0.2284 -0.1185 -1.0376
 4741SOL    HW225857   3.282   2.626  13.329  0.3458 -3.4181 -1.7335
 4742SOL     OW25858   0.249   3.007   9.226 -0.4208 -0.0731 -0.0647
 4742SOL    HW125859   0.269   3.039   9.314  0.0196 -1.7420  0.4378
 4742SOL    HW225860   0.278   2.917   9.236 -1.7493 -0.6168 -1.1439
 4743SOL     OW25861   0.378   4.703  11.349 -0.0297  0.0851  0.3887
 4743SOL    HW125862   0.340   4.685  11.435  0.4574  0.3484  0.6566
 4743SOL    HW225863   0.395   0.061  11.344 -0.0463  0.0305 -0.7427
 4744SOL     OW25864   1.145   0.862   8.211  0.0502  0.2134  0.0440
 4744SOL    HW125865   1.127   0.933   8.273  1.5146 -0.3750  1.1590
 4744SOL    HW225866   1.115   0.894   8.127  0.1250  0.3091  0.0538
 4745SOL     OW25867   4.679   4.015   3.993 -0.6152 -0.3757 -0.5621
 4745SOL    HW125868   0.030   3.987   3.962 -0.9048  0.7631 -2.3964
 4745SOL    HW225869   4.710   4.096   4.033  1.6910 -1.0429 -1.0067
 4746SOL     OW25870   1.362   3.314  13.234  0.0803  0.0386 -0.1120
 4746SOL    HW125871   1.298   3.384  13.244 -0.0688 -0.1845  0.5285
 4746SOL    HW225872   1.302   3.248  13.268  0.3407 -0.4681 -0.6198
 4747SOL     OW25873   4.722   2.102   5.413  0.3784  0.2769 -0.1588
 4747SOL    HW125874   4.631   2.128   5.402 -0.1950 -0.5294  2.6892
 4747SOL    HW225875   4.734   2.030   5.351 -2.2498 -0.6392  0.4393
 4748SOL     OW25876   2.502   4.373  14.289 -0.6557  0.2821 -0.2008
 4748SOL    HW125877   2.552   4.398  14.366 -0.9615  1.8444 -0.5178
 4748SOL    HW225878   2.471   4.456  14.254 -0.0884  0.4422 -0.3152
 4749SOL     OW25879   0.390   3.230   9.114 -0.1357 -0.1179 -0.2213
 4749SOL    HW125880   0.463   3.175   9.087  1.2902  0.7607  1.8749
 4749SOL    HW225881   0.331   3.168   9.157  0.2865  0.2786  0.9301
 4750SOL     OW25882   2.530   4.566   5.832 -0.2745  0.2396  0.8964
 4750SOL    HW125883   2.446   4.600   5.801 -0.4043  0.4325  1.4692
 4750SOL    HW225884   2.547   4.521   5.749 -2.9858  0.4452  0.2279
 4751SOL     OW25885   1.714   3.688   9.291  0.7016  0.1223 -0.7864
 4751SOL    HW125886   1.751   3.741   9.361  0.4423  1.2150 -1.4729
 4751SOL    HW225887   1.621   3.711   9.294  0.2406 -1.8636 -0.1055
 4752SOL     OW25888   4.295   0.431  13.353  0.1672 -0.4675  0.0055
 4752SOL    HW125889   4.357   0.404  13.422 -0.1855 -0.6524  0.2471
 4752SOL    HW225890   4.222   0.381  13.390  0.2243  0.6781  1.6886
 4753SOL     OW25891   0.653   4.324   8.252 -0.8412 -0.2401  0.1530
 4753SOL    HW125892   0.683   4.415   8.263  0.6357 -0.7412  0.2809
 4753SOL    HW225893   0.576   4.323   8.310  1.3237  1.6237  3.0832
 4754SOL     OW25894   0.235   1.280   7.064 -0.1582  1.2186 -0.1512
 4754SOL    HW125895   0.147   1.255   7.092  0.9349 -3.0429 -0.5316
 4754SOL    HW225896   0.292   1.236   7.126 -0.6480  0.0777 -0.5075
 4755SOL     OW25897   2.773   3.503   1.713 -0.0521 -0.5365 -0.0047
 4755SOL    HW125898   2.838   3.459   1.767 -1.3104  0.5838  2.4583
 4755SOL    HW225899   2.810   3.583   1.675  0.2431 -1.1170 -0.9304
 4756SOL     OW25900   4.089   0.386  11.232  0.3472  0.4167  0.3929
 4756SOL    HW125901   4.133   0.351  11.310  0.9436  1.8790  0.7204
 4756SOL    HW225902   4.012   0.330  11.220  0.2919  1.0906 -2.2655
 4757SOL     OW25903   4.536   3.324   2.211  0.3942 -0.7550  0.1205
 4757SOL    HW125904   4.545   3.228   2.212  2.0687 -0.5797  1.5388
 4757SOL    HW225905   4.488   3.328   2.293 -0.0309  1.7349 -0.2662
 4758SOL     OW25906   3.596   3.719   6.888  0.4794  0.3015  0.2142
 4758SOL    HW125907   3.561   3.767   6.813  1.2483 -0.2285 -0.4908
 4758SOL    HW225908   3.527   3.738   6.952  1.5990  0.9294  1.2590
 4759SOL     OW25909   2.102   2.561   7.587  0.1479 -0.1131 -0.3919
 4759SOL    HW125910   2.188   2.522   7.580  0.7337  1.2120 -0.5565
 4759SOL    HW225911   2.071   2.511   7.662  1.0937 -0.2116 -0.0775
 4760SOL     OW25912   4.462   0.001  17.630  0.1582 -0.3411 -0.1380
 4760SOL    HW125913   4.488   0.090  17.652  0.2654 -0.4916  0.3596
 4760SOL    HW225914   4.486   4.706  17.718 -1.9286  0.5839  0.7608
 4761SOL     OW25915   4.166   3.984   6.785 -0.0111 -0.2766  0.1666
 4761SOL    HW125916   4.242   3.936   6.753 -0.0812  1.2126 -2.1826
 4761SOL    HW225917   4.203   4.035   6.858 -0.3903 -2.6893  2.0559
 4762SOL     OW25918   0.940   3.485   3.987  0.1543 -0.4544  0.6605
 4762SOL    HW125919   0.896   3.425   3.928 -0.7357  0.9885 -0.1157
 4762SOL    HW225920   0.895   3.567   3.970 -2.6351 -2.0169  0.5179
 4763SOL     OW25921   4.433   4.100   2.069  0.2599 -0.5001 -0.4579
 4763SOL    HW125922   4.421   4.113   1.975  0.1190  0.7464 -0.2771
 4763SOL    HW225923   4.469   4.012   2.078 -0.9996 -1.1173 -1.5816
 4764SOL     OW25924   2.653   3.480  12.308 -0.0114  0.1194 -0.1964
 4764SOL    HW125925   2.571   3.440  12.337 -1.0887  1.4630 -1.3268
 4764SOL    HW225926   2.708   3.444  12.377 -1.5898 -1.4822  0.2224
 4765SOL     OW25927   3.038   2.023   3.363 -0.5328 -0.5216 -0.6297
 4765SOL    HW125928   2.985   2.088   3.409 -0.3712 -0.5544 -0.3958
 4765SOL    HW225929   3.070   2.080   3.293 -2.3747  1.2455 -0.0103
 4766SOL     OW25930   2.218   1.987   7.792  0.4033  0.1595  0.1785
 4766SOL    HW125931   2.152   2.003   7.860  1.8288 -0.4101  1.6714
 4766SOL    HW225932   2.167   1.964   7.714  3.3813 -2.2944 -1.0268
 4767SOL     OW25933   0.089   1.531   8.185 -0.1507 -0.0331 -0.4146
 4767SOL    HW125934   0.027   1.458   8.181  0.1863 -0.3071 -0.6216
 4767SOL    HW225935   0.168   1.507   8.137 -0.4630 -2.7474  0.4282
 4768SOL     OW25936   0.116   4.713   7.824  0.0955  0.4460 -0.5758
 4768SOL    HW125937   0.041   4.700   7.767  1.2187 -1.6826 -1.5697
 4768SOL    HW225938   0.098   0.061   7.868 -0.3263 -1.6583  3.2827
 4769SOL     OW25939   1.039   2.597   7.185  0.0968  0.5556  0.3976
 4769SOL    HW125940   1.022   2.627   7.274  0.5874 -2.4379  1.5086
 4769SOL    HW225941   1.071   2.679   7.146 -0.4245  0.5400 -0.0665
 4770SOL     OW25942   3.059   1.674   2.595 -0.0337 -0.1791 -0.2674
 4770SOL    HW125943   3.017   1.632   2.670 -0.5021 -0.1537 -0.5117
 4770SOL    HW225944   3.091   1.605   2.537  4.1653 -0.1426  2.0317
 4771SOL     OW25945   3.154   3.287   2.664  0.1075  0.4170 -0.0513
 4771SOL    HW125946   3.199   3.220   2.715 -0.4685 -1.1769 -1.6242
 4771SOL    HW225947   3.123   3.238   2.588  2.1075 -1.0081  0.0491
 4772SOL     OW25948   0.618   2.494   1.143  0.2742  0.0897 -0.4351
 4772SOL    HW125949   0.635   2.447   1.225  2.5211 -0.8031 -1.4073
 4772SOL    HW225950   0.570   2.572   1.171  1.5135  0.8826 -0.5479
 4773SOL     OW25951   1.982   2.935   9.279  0.2116 -0.1882 -0.5018
 4773SOL    HW125952   1.971   2.910   9.371 -2.5639 -0.5667 -0.9497
 4773SOL    HW225953   2.049   3.003   9.281 -0.1991  0.2251 -0.8280
 4774SOL     OW25954   3.048   2.649   6.181 -0.5280  0.1331 -0.7996
 4774SOL    HW125955   2.961   2.688   6.170  0.0467  1.5303 -0.3187
 4774SOL    HW225956   3.074   2.680   6.267 -0.8515 -3.1467  0.4899
 4775SOL     OW25957   3.484   2.246   7.364  0.1174  0.2705 -0.5193
 4775SOL    HW125958   3.475   2.206   7.277 -1.2165  0.1303 -0.3145
 4775SOL    HW225959   3.404   2.221   7.410 -0.2794  2.3082 -0.0978
 4776SOL     OW25960   1.509   2.166   2.875  0.0936  0.3097  0.3681
 4776SOL    HW125961   1.439   2.179   2.940 -0.9858 -1.8942 -0.3867
 4776SOL    HW225962   1.528   2.258   2.856 -0.8090  0.2697 -0.6852
 4777SOL     OW25963   3.062   2.669   7.907 -0.2708  0.1383 -0.4949
 4777SOL    HW125964   3.012   2.751   7.916 -1.5538 -0.7973  0.9400
 4777SOL    HW225965   3.115   2.677   7.828  0.7594 -0.0347  0.1875
 4778SOL     OW25966   4.411   0.941   6.419 -0.9955  0.0330  0.0567
 4778SOL    HW125967   4.452   0.967   6.337  0.0628  0.1442  0.6155
 4778SOL    HW225968   4.489   0.908   6.464 -0.7152 -0.6558 -0.9303
 4779SOL     OW25969   2.783   0.164  15.165 -0.6874 -0.0084 -0.6087
 4779SOL    HW125970   2.749   0.078  15.187  1.4430 -0.8858 -0.7601
 4779SOL    HW225971   2.875   0.144  15.144 -0.0313  0.9444  1.3619
 4780SOL     OW25972   2.336   1.396   7.516  0.2251 -0.1289  0.5472
 4780SOL    HW125973   2.395   1.439   7.578  0.0686  0.3565  0.3585
 4780SOL    HW225974   2.382   1.318   7.486 -1.9238 -1.1775 -0.0856
 4781SOL     OW25975   0.527   1.560  14.639 -0.3462 -0.3514  0.2907
 4781SOL    HW125976   0.507   1.643  14.682  1.1675  1.1823 -1.9796
 4781SOL    HW225977   0.442   1.516  14.630  1.1127 -2.6262 -2.1655
 4782SOL     OW25978   2.802   1.057   7.753 -0.0288 -0.0620 -0.0036
 4782SOL    HW125979   2.739   1.125   7.776  1.1981  0.8450  0.7325
 4782SOL    HW225980   2.754   0.986   7.712  0.1326  0.2638 -0.7444
 4783SOL     OW25981   0.250   4.587   9.089 -0.5057  0.2539  0.3417
 4783SOL    HW125982   0.265   4.493   9.098 -1.4951  0.1288  0.6077
 4783SOL    HW225983   0.203   4.586   9.005  2.2471  0.1405 -1.1979
 4784SOL     OW25984   1.780   4.482   1.205 -0.3102 -0.3009  0.5843
 4784SOL    HW125985   1.750   4.534   1.131  1.7773  1.9102  1.2909
 4784SOL    HW225986   1.711   4.415   1.207 -1.6512  0.9971 -1.8138
 4785SOL     OW25987   3.008   3.645   9.051  0.1564 -0.0428 -0.1630
 4785SOL    HW125988   3.016   3.587   9.127  0.1099  2.1991  1.5568
 4785SOL    HW225989   2.965   3.599   8.980  0.7158 -0.0301 -0.5076
 4786SOL     OW25990   4.032   2.914   0.902  0.4348  0.2101 -0.2408
 4786SOL    HW125991   3.995   2.895   0.988 -0.7279 -0.3579 -0.8734
 4786SOL    HW225992   3.974   2.981   0.866 -0.0400  0.6779  1.3711
 4787SOL     OW25993   3.033   2.042   7.990 -0.8173 -0.0765  0.1337
 4787SOL    HW125994   3.088   2.019   8.065 -1.0807 -1.2485 -0.0281
 4787SOL    HW225995   3.044   1.965   7.934  0.4640  0.5369 -0.4546
 4788SOL     OW25996   1.844   3.519   0.988  0.4137 -0.9070 -0.4201
 4788SOL    HW125997   1.825   3.478   1.072 -1.9098 -0.6400 -0.8066
 4788SOL    HW225998   1.907   3.586   1.016  1.6399 -3.1216  2.0846
 4789SOL     OW25999   1.004   1.249   7.427 -0.4870 -0.0619 -0.3784
 4789SOL    HW126000   0.951   1.202   7.362  0.1186  0.3034 -1.1305
 4789SOL    HW226001   0.966   1.336   7.420  2.4995  1.2641  0.2477
 4790SOL     OW26002   1.319   0.234   3.264  0.4740 -0.2261  1.0033
 4790SOL    HW126003   1.343   0.143   3.244  0.7926  0.5172 -1.9422
 4790SOL    HW226004   1.260   0.222   3.338  0.3220 -0.2083  0.8832
 4791SOL     OW26005   1.765   3.086   6.148  0.0414  0.8640 -0.7274
 4791SOL    HW126006   1.707   3.017   6.117 -0.8908  0.3468  2.1444
 4791SOL    HW226007   1.778   3.119   6.059 -1.2949 -2.4225 -2.1326
 4792SOL     OW26008   0.681   2.964   3.681  0.0984 -0.5166 -0.1950
 4792SOL    HW126009   0.599   2.991   3.723  0.5803  3.5196 -1.9147
 4792SOL    HW226010   0.675   2.871   3.702  1.0817 -0.6678 -0.6019
 4793SOL     OW26011   0.278   1.456  14.495 -0.7626 -0.4289 -0.0797
 4793SOL    HW126012   0.264   1.421  14.582 -1.7861  2.0534  0.7605
 4793SOL    HW226013   0.323   1.381  14.456  0.6554  0.0546  0.6585
 4794SOL     OW26014   4.411   2.054   2.702 -0.3377  0.4285  0.3952
 4794SOL    HW126015   4.438   2.082   2.615 -1.1472  0.6464  0.2161
 4794SOL    HW226016   4.481   2.085   2.760 -0.1388  0.6444  0.0381
 4795SOL     OW26017   0.435   2.853   6.470 -0.3886 -0.7158 -0.1500
 4795SOL    HW126018   0.386   2.921   6.515  0.2603  0.1249 -0.7052
 4795SOL    HW226019   0.495   2.825   6.540  0.1290  0.2067 -0.2169
 4796SOL     OW26020   1.965   3.997   6.304 -0.1948  0.0542  0.1535
 4796SOL    HW126021   1.933   3.924   6.357 -0.1742 -0.5737 -0.7104
 4796SOL    HW226022   1.978   4.068   6.367 -1.9767  0.5655 -0.0406
 4797SOL     OW26023   1.650   1.298  16.835 -0.1831  0.1591 -0.0172
 4797SOL    HW126024   1.691   1.367  16.886 -2.0721  2.0685 -1.0636
 4797SOL    HW226025   1.728   1.248  16.811  0.0258  0.2555  0.4557
 4798SOL     OW26026   3.140   2.223   2.725  0.6043  0.3539 -0.3656
 4798SOL    HW126027   3.234   2.220   2.746 -0.3594 -1.0753  3.6453
 4798SOL    HW226028   3.112   2.302   2.771  0.6981  0.7352 -0.9677
 4799SOL     OW26029   2.577   3.316  10.648 -0.2391  0.3036 -0.0845
 4799SOL    HW126030   2.500   3.267  10.678  0.3960 -0.3923  0.3940
 4799SOL    HW226031   2.580   3.367  10.729  0.2873  0.6575 -0.3287
 4800SOL     OW26032   4.636   1.873   3.573  0.0149  0.1186  0.2889
 4800SOL    HW126033   4.555   1.822   3.568 -0.7211  1.6380 -3.3924
 4800SOL    HW226034   4.672   1.862   3.486 -3.2338  1.4164 -1.2202
 4801SOL     OW26035   0.779   1.821   4.284  0.0106 -0.0402 -0.0105
 4801SOL    HW126036   0.725   1.833   4.206 -1.8673  2.4225  1.6647
 4801SOL    HW226037   0.712   1.801   4.349 -0.8683  1.2671 -0.4983
 4802SOL     OW26038   4.509   4.466  10.513 -0.1132 -0.0545  0.2558
 4802SOL    HW126039   4.595   4.424  10.505 -0.0639 -0.3969  2.5550
 4802SOL    HW226040   4.508   4.482  10.607  2.7076 -0.6460  0.4011
 4803SOL     OW26041   2.811   0.062   0.334 -0.0988  0.5012  0.2991
 4803SOL    HW126042   2.899   0.033   0.359 -0.2614 -0.9651 -0.7746
 4803SOL    HW226043   2.767   0.048   0.417  1.2167  0.7803  1.0483
 4804SOL     OW26044   3.221   3.229  15.117 -0.0874 -0.4509 -0.2707
 4804SOL    HW126045   3.249   3.308  15.162  0.3686 -0.0397 -1.2760
 4804SOL    HW226046   3.303   3.181  15.108 -0.2613 -0.7255 -0.3953
 4805SOL     OW26047   0.686   1.379   3.978  0.3685  0.1834 -0.6817
 4805SOL    HW126048   0.724   1.364   4.064 -0.7402 -0.1029 -0.2518
 4805SOL    HW226049   0.704   1.296   3.934  0.0693  1.1673 -2.6911
 4806SOL     OW26050   2.008   2.145  15.994 -0.3896  0.5097  0.4723
 4806SOL    HW126051   2.038   2.082  16.061 -1.0201  0.4395  0.6907
 4806SOL    HW226052   2.036   2.219  16.047 -3.3377  2.6202 -0.9757
 4807SOL     OW26053   1.183   1.089  17.315  0.3419 -0.2158  0.3679
 4807SOL    HW126054   1.213   1.083  17.224  0.1598 -4.2194  0.5929
 4807SOL    HW226055   1.171   0.996  17.333  0.5045 -0.0183  1.4628
 4808SOL     OW26056   1.161   4.191   0.189 -0.4606 -0.0543  0.0141
 4808SOL    HW126057   1.237   4.197   0.247 -0.0847 -0.9381 -0.3867
 4808SOL    HW226058   1.157   4.281   0.156  0.6388  0.0098  0.0401
 4809SOL     OW26059   1.029   3.204  16.050  0.5559 -0.6942  0.2526
 4809SOL    HW126060   1.016   3.115  16.016  1.2768 -0.7340  0.0949
 4809SOL    HW226061   0.945   3.202  16.097  0.6311  0.4640  0.4198
 4810SOL     OW26062   0.449   1.234   6.148  0.1457 -0.7665  0.9729
 4810SOL    HW126063   0.440   1.139   6.149 -0.5246 -0.6902  2.7208
 4810SOL    HW226064   0.425   1.262   6.060 -0.1311  1.4222  1.7422
 4811SOL     OW26065   3.895   4.198   2.385  0.3871  0.2091  0.0978
 4811SOL    HW126066   3.844   4.157   2.455  0.1533 -0.3810 -0.4244
 4811SOL    HW226067   3.841   4.277   2.374  1.1297  1.0847  2.5755
 4812SOL     OW26068   2.966   0.428   2.901  0.3906 -0.2637  0.2448
 4812SOL    HW126069   3.043   0.452   2.954  1.1195  0.8147 -1.3148
 4812SOL    HW226070   2.996   0.342   2.870  0.0987 -0.4358  0.4440
 4813SOL     OW26071   3.317   4.504  12.286 -0.2468 -0.1341  0.3161
 4813SOL    HW126072   3.303   4.418  12.326  0.5120 -0.0841  0.6817
 4813SOL    HW226073   3.273   4.502  12.201  0.8506 -0.5864 -0.2461
 4814SOL     OW26074   2.282   2.416   2.895  0.4745  0.4464  0.4365
 4814SOL    HW126075   2.216   2.484   2.912  1.0341  0.8306  1.1060
 4814SOL    HW226076   2.298   2.388   2.985 -0.8655  1.5066  1.0032
 4815SOL     OW26077   2.896   2.652  11.021  0.3438 -0.5671 -0.1203
 4815SOL    HW126078   2.951   2.584  11.061 -1.5337 -0.5686  2.4711
 4815SOL    HW226079   2.946   2.733  11.015 -3.2482  1.4380 -2.4479
 4816SOL     OW26080   4.416   1.256   7.469  0.6265  0.5323 -0.2382
 4816SOL    HW126081   4.361   1.323   7.429 -1.2463  0.2739  1.9156
 4816SOL    HW226082   4.423   1.278   7.562  1.6557  2.1248 -0.6983
 4817SOL     OW26083   4.618   2.170   3.053 -0.2869  0.3142 -0.5877
 4817SOL    HW126084   4.683   2.219   3.103  2.0353 -2.7513 -0.6199
 4817SOL    HW226085   4.563   2.142   3.126 -1.9720  1.3229 -1.4677
 4818SOL     OW26086   0.529   3.531   5.981 -0.3613  0.6710 -0.0805
 4818SOL    HW126087   0.516   3.574   6.065 -0.0305  1.0368 -0.2130
 4818SOL    HW226088   0.600   3.571   5.931 -0.1753 -3.1113 -2.9023
 4819SOL     OW26089   0.974   1.618   2.003 -0.0521 -0.3653  0.0725
 4819SOL    HW126090   0.943   1.652   1.919 -0.6174 -0.9178  0.0597
 4819SOL    HW226091   0.910   1.548   2.010  1.2736 -1.4362  1.3615
 4820SOL     OW26092   1.559   2.980   3.140 -0.8685 -0.2001  0.3696
 4820SOL    HW126093   1.519   2.893   3.138 -0.9587 -0.0769 -2.3016
 4820SOL    HW226094   1.521   3.016   3.220 -0.8907 -0.9492  0.6988
 4821SOL     OW26095   3.088   2.879   9.371 -0.1021 -0.0584  0.2883
 4821SOL    HW126096   3.125   2.902   9.285  2.0787 -1.1237  0.9579
 4821SOL    HW226097   3.101   2.956   9.427 -0.5564  1.4445 -1.6381
 4822SOL     OW26098   0.795   1.778   5.322 -0.3125 -0.0407 -0.6093
 4822SOL    HW126099   0.762   1.692   5.347 -0.4058  0.4118  0.8076
 4822SOL    HW226100   0.743   1.837   5.376 -0.6987 -1.2391  0.3054
 4823SOL     OW26101   1.052   4.255   1.631  0.1096 -0.1402 -0.2326
 4823SOL    HW126102   1.054   4.303   1.548  1.4760 -2.6806 -1.6396
 4823SOL    HW226103   1.087   4.316   1.696 -0.1521 -1.4585  1.1329
 4824SOL     OW26104   1.526   2.386   3.964 -0.0417 -0.1649  0.1566
 4824SOL    HW126105   1.452   2.434   4.003 -0.0905 -0.8548  0.9162
 4824SOL    HW226106   1.504   2.404   3.873  1.0244  2.3594  0.3835
 4825SOL     OW26107   1.437   1.166   4.713 -0.0353  0.0970  0.4203
 4825SOL    HW126108   1.420   1.193   4.622  0.3186  0.5664  0.4955
 4825SOL    HW226109   1.349   1.134   4.734  0.3424 -0.3506  1.2557
 4826SOL     OW26110   1.187   0.101   1.381  0.4113 -0.1017 -0.1734
 4826SOL    HW126111   1.224   0.038   1.318 -1.7935 -0.7110 -0.8594
 4826SOL    HW226112   1.102   0.066   1.406  0.7344 -0.4180  0.4876
 4827SOL     OW26113   3.928   2.261   3.600  0.1207  0.8480  0.6538
 4827SOL    HW126114   3.936   2.332   3.536  1.0478 -0.5784 -0.8076
 4827SOL    HW226115   3.986   2.284   3.673  0.1534  0.0859  0.8605
 4828SOL     OW26116   0.620   2.559   1.549  0.2366  0.0744 -0.2231
 4828SOL    HW126117   0.532   2.563   1.589  1.9595 -1.4660  3.7013
 4828SOL    HW226118   0.639   2.646   1.514  0.4145  0.9781  2.1039
 4829SOL     OW26119   3.339   3.616  10.265  0.4949 -0.8527  0.3645
 4829SOL    HW126120   3.277   3.567  10.210  1.1133  0.2904 -1.3656
 4829SOL    HW226121   3.325   3.706  10.236 -1.7428 -1.3539 -0.1716
 4830SOL     OW26122   0.008   2.028   7.530 -0.4681  0.2079 -0.3349
 4830SOL    HW126123   4.731   2.008   7.437 -1.2757  0.8494 -0.3571
 4830SOL    HW226124   4.680   1.969   7.571 -1.7772 -0.0507 -2.7093
 4831SOL     OW26125   3.733   2.978   1.855 -0.0059  0.1671  0.2712
 4831SOL    HW126126   3.720   3.073   1.849 -1.3634  0.0001  0.6311
 4831SOL    HW226127   3.781   2.959   1.774 -0.5759  0.3532 -0.1099
 4832SOL     OW26128   1.806   1.446   6.704  0.0074  0.1775  0.2232
 4832SOL    HW126129   1.900   1.455   6.687  0.4344 -1.4327  1.6439
 4832SOL    HW226130   1.825   1.442   6.798 -1.7786  1.2157  0.6273
 4833SOL     OW26131   2.248   2.450   5.338  0.2863 -0.0141 -0.3273
 4833SOL    HW126132   2.223   2.501   5.261  2.8816 -0.3106 -1.3821
 4833SOL    HW226133   2.309   2.389   5.295  0.5369  1.3057 -1.8341
 4834SOL     OW26134   3.539   4.682  15.963  0.0301 -0.7329 -0.6316
 4834SOL    HW126135   3.511   0.038  15.968  0.6142 -0.6274  0.6750
 4834SOL    HW226136   3.514   4.667  15.872 -0.1136 -0.7079 -0.5970
 4835SOL     OW26137   0.931   4.199   0.932 -0.2504 -0.2253 -0.2912
 4835SOL    HW126138   0.860   4.204   0.868 -0.8997  0.6450  0.4853
 4835SOL    HW226139   0.949   4.106   0.937 -0.0197 -0.1847 -0.3826
 4836SOL     OW26140   3.653   1.810   5.164  0.6698  0.1243  0.4576
 4836SOL    HW126141   3.636   1.745   5.096 -3.0850 -1.1704  2.6361
 4836SOL    HW226142   3.728   1.770   5.208 -0.3366 -1.1941  0.9765
 4837SOL     OW26143   3.574   2.165   7.685  0.0647  0.5110  0.4866
 4837SOL    HW126144   3.514   2.196   7.753 -0.9520  0.0971 -0.2220
 4837SOL    HW226145   3.512   2.121   7.627  1.1229  0.9151 -0.9486
 4838SOL     OW26146   3.013   1.803   6.096  0.5255  0.0269  0.1279
 4838SOL    HW126147   2.978   1.715   6.084 -0.3012  0.3055  0.5144
 4838SOL    HW226148   2.938   1.855   6.070 -0.0599 -1.1268 -0.4772
 4839SOL     OW26149   3.543   1.103   9.252 -0.3446  0.6676  0.2104
 4839SOL    HW126150   3.486   1.065   9.318 -4.8743  0.1437 -3.9810
 4839SOL    HW226151   3.520   1.196   9.261  0.7550  1.0026 -0.4735
 4840SOL     OW26152   4.128   3.913   5.004  0.2404 -0.2151 -0.4271
 4840SOL    HW126153   4.220   3.887   4.995 -0.3753 -2.4381 -0.3373
 4840SOL    HW226154   4.088   3.827   4.994 -0.7857 -0.0011  2.0653
 4841SOL     OW26155   0.645   3.186  16.814 -0.4191  0.0461 -0.1990
 4841SOL    HW126156   0.599   3.263  16.781 -0.8339 -0.4642 -0.8043
 4841SOL    HW226157   0.622   3.135  16.737  1.3492  0.3331 -0.9153
 4842SOL     OW26158   1.250   2.608   8.694 -0.3557  0.4254  0.6047
 4842SOL    HW126159   1.163   2.568   8.697  0.0268 -0.4007  0.8879
 4842SOL    HW226160   1.251   2.638   8.785 -0.5585  1.2393  0.3301
 4843SOL     OW26161   2.800   4.365  16.444  0.8670 -0.0227  0.0288
 4843SOL    HW126162   2.884   4.357  16.399  1.7316  0.6226  1.5101
 4843SOL    HW226163   2.827   4.317  16.523  2.4045  2.4499  1.0201
 4844SOL     OW26164   4.132   4.213   6.443  0.1824  0.2763 -0.0985
 4844SOL    HW126165   4.151   4.303   6.415  2.8308  0.0610  0.9915
 4844SOL    HW226166   4.061   4.232   6.504  0.8185 -1.4346  1.1479
 4845SOL     OW26167   2.117   4.583  14.914 -0.1885  0.2805  0.7474
 4845SOL    HW126168   2.036   4.632  14.901 -0.6015 -0.7695 -0.6668
 4845SOL    HW226169   2.180   4.623  14.854 -0.3613  0.7655  0.8973
 4846SOL     OW26170   4.409   0.089   2.614 -0.0890 -0.0787  0.5518
 4846SOL    HW126171   4.441   4.736   2.628 -0.6258  0.1035  3.1077
 4846SOL    HW226172   4.342   0.062   2.551  1.5752 -0.1330 -1.1635
 4847SOL     OW26173   3.834   2.784  16.010 -0.0626  0.0060  0.5956
 4847SOL    HW126174   3.806   2.846  16.077 -1.7573  0.6049 -0.6549
 4847SOL    HW226175   3.830   2.840  15.932  2.7035 -0.0396  0.4272
 4848SOL     OW26176   3.659   1.636   3.113  0.1669 -0.1092 -0.7522
 4848SOL    HW126177   3.598   1.707   3.094  1.0017  0.5206 -1.0601
 4848SOL    HW226178   3.604   1.563   3.085  0.5897 -0.0839 -1.6684
 4849SOL     OW26179   4.081   2.325   4.845  0.2674 -0.1504 -0.1270
 4849SOL    HW126180   4.023   2.355   4.914 -1.7891 -1.6543 -1.2023
 4849SOL    HW226181   4.085   2.231   4.863  1.1225  0.0458  0.7252
 4850SOL     OW26182   1.629   0.835   2.837  0.3759 -0.2558  0.0541
 4850SOL    HW126183   1.579   0.793   2.767  1.9024 -0.3844 -0.9654
 4850SOL    HW226184   1.565   0.888   2.886 -2.1389  0.3568 -3.8433
 4851SOL     OW26185   1.341   4.685  13.248 -0.5661  0.1798 -0.0827
 4851SOL    HW126186   1.299   4.625  13.309 -1.3051  1.8898  1.0912
 4851SOL    HW226187   1.269   4.713  13.192  0.6116  1.8138 -0.8055
 4852SOL     OW26188   3.312   0.761   7.804  0.5877 -0.2542  0.7413
 4852SOL    HW126189   3.329   0.717   7.887  0.5433 -1.2857  0.1982
 4852SOL    HW226190   3.399   0.779   7.770 -0.3718  2.7563 -0.1224
 4853SOL     OW26191   3.805   4.102  13.512 -0.2950  0.0716  0.3465
 4853SOL    HW126192   3.869   4.171  13.530 -2.1844  1.6683  1.0122
 4853SOL    HW226193   3.723   4.151  13.500 -0.9083 -0.4152  2.5346
 4854SOL     OW26194   1.912   1.487   9.208 -0.6597 -0.3021 -0.3360
 4854SOL    HW126195   1.868   1.551   9.151 -0.1266  2.1726  2.0200
 4854SOL    HW226196   1.926   1.411   9.151  2.8834 -0.6345  0.9960
 4855SOL     OW26197   1.488   1.486   8.797  0.4650 -0.6272 -0.3487
 4855SOL    HW126198   1.468   1.538   8.720 -0.6246 -1.7721 -0.8464
 4855SOL    HW226199   1.566   1.443   8.762 -0.6976 -1.1212 -2.3046
 4856SOL     OW26200   0.787   3.108  10.218  0.0410  0.0151  0.4689
 4856SOL    HW126201   0.718   3.055  10.258  1.1968 -1.7949  0.0589
 4856SOL    HW226202   0.729   3.148  10.154  1.2377  0.5146 -0.3010
 4857SOL     OW26203   2.070   3.185   7.690 -0.4952 -0.3023  0.2633
 4857SOL    HW126204   2.002   3.150   7.632  1.3565 -0.7513 -1.6024
 4857SOL    HW226205   2.030   3.183   7.777 -0.1845  1.0331  0.4323
 4858SOL     OW26206   2.170   3.582  17.113  0.2843  0.1406 -0.3416
 4858SOL    HW126207   2.237   3.647  17.095  1.0434 -0.2002  1.2450
 4858SOL    HW226208   2.184   3.579  17.207  0.7982  1.5175 -0.3837
 4859SOL     OW26209   2.299   3.959  17.510  0.0911  0.5368  0.3098
 4859SOL    HW126210   2.205   3.953  17.491  0.2588 -2.7529  0.5782
 4859SOL    HW226211   2.343   3.899  17.450 -1.1524  0.2429 -0.3045
 4860SOL     OW26212   4.052   3.228   6.851 -0.7573 -0.4933 -0.1324
 4860SOL    HW126213   4.048   3.323   6.846 -2.7112 -0.5869 -0.0718
 4860SOL    HW226214   4.021   3.221   6.941 -1.0681 -0.5554 -0.2470
 4861SOL     OW26215   1.067   4.102   9.745 -0.0890  0.1221  0.1570
 4861SOL    HW126216   1.145   4.110   9.799 -0.7018  0.1001  1.0538
 4861SOL    HW226217   1.079   4.166   9.675 -0.1400 -0.7679 -0.6734
 4862SOL     OW26218   3.323   1.816   6.520  0.7471  0.0292  0.1000
 4862SOL    HW126219   3.244   1.792   6.472  1.5010  2.0076 -2.1452
 4862SOL    HW226220   3.399   1.796   6.465  2.0334 -1.0826  2.3094
 4863SOL     OW26221   0.536   1.476   7.195 -0.6266  0.5174 -0.3086
 4863SOL    HW126222   0.581   1.424   7.129 -0.4983  1.2277 -0.7794
 4863SOL    HW226223   0.566   1.564   7.172  2.7760 -0.5285  0.2080
 4864SOL     OW26224   3.315   0.506   4.898  0.1892  0.4231 -0.4224
 4864SOL    HW126225   3.395   0.559   4.899 -0.2672  1.0581  1.2458
 4864SOL    HW226226   3.305   0.484   4.991  3.3318 -1.9903 -0.6500
 4865SOL     OW26227   0.932   2.999   3.526 -0.3322  0.3348 -0.1966
 4865SOL    HW126228   0.931   2.999   3.430 -0.9438 -1.6859 -0.1986
 4865SOL    HW226229   0.840   2.996   3.552 -0.8596 -2.1816 -2.3310
 4866SOL     OW26230   3.989   4.405  11.701 -0.8392 -0.1541 -0.0490
 4866SOL    HW126231   3.924   4.356  11.751 -0.3031 -0.2334  0.5675
 4866SOL    HW226232   4.012   4.471  11.767  2.0480 -1.3269  0.1213
 4867SOL     OW26233   4.734   2.209   8.524  0.4240  0.7267  0.3001
 4867SOL    HW126234   0.074   2.266   8.511  2.6953 -1.9323  1.9270
 4867SOL    HW226235   0.037   2.134   8.567  0.7994  0.5936 -0.2716
 4868SOL     OW26236   0.749   3.639   7.263 -0.1667 -0.3506 -0.3651
 4868SOL    HW126237   0.818   3.605   7.320 -1.8856 -1.4352  1.0894
 4868SOL    HW226238   0.677   3.632   7.326  1.6789  0.5792  1.8459
 4869SOL     OW26239   4.559   0.911   5.043 -0.2295 -0.2614 -0.5730
 4869SOL    HW126240   4.584   0.920   4.951  2.0649 -1.8545 -0.0814
 4869SOL    HW226241   4.511   0.828   5.045  0.0982 -0.3840  1.4376
 4870SOL     OW26242   2.427   0.727   8.100 -0.3743  0.7423 -0.4832
 4870SOL    HW126243   2.485   0.653   8.120 -0.0915  1.6242  2.0243
 4870SOL    HW226244   2.394   0.689   8.019 -0.9809  0.5544 -0.1470
 4871SOL     OW26245   2.477   4.655  14.491  0.0970  0.2041 -0.2327
 4871SOL    HW126246   2.486   4.651  14.395 -0.3519  2.0834 -0.3538
 4871SOL    HW226247   2.564   4.677  14.525 -0.0790  0.2970  0.1576
 4872SOL     OW26248   1.557   3.069   3.593  0.4153 -0.2186 -0.8252
 4872SOL    HW126249   1.477   3.037   3.551 -0.1322 -0.3137  0.2738
 4872SOL    HW226250   1.555   3.156   3.555  1.7910 -0.1740 -0.7916
 4873SOL     OW26251   3.598   2.112   3.818 -0.5286 -0.1010 -0.0588
 4873SOL    HW126252   3.617   2.019   3.835 -2.5565 -0.2358  1.3939
 4873SOL    HW226253   3.659   2.158   3.876  0.6712  0.4204 -1.7340
 4874SOL     OW26254   0.174   4.579  10.403 -0.0763 -0.0027 -0.4393
 4874SOL    HW126255   0.107   4.583  10.336 -1.8618 -0.7240  1.2982
 4874SOL    HW226256   0.149   4.497  10.446  0.6518 -0.2734 -0.5232
 4875SOL     OW26257   4.385   1.351   0.960  0.0569  0.2271 -0.3375
 4875SOL    HW126258   4.383   1.297   0.881  2.4224  1.2023 -1.0357
 4875SOL    HW226259   4.363   1.284   1.025  0.9566  1.0317  0.7972
 4876SOL     OW26260   1.399   0.164  14.478  0.0006 -0.1714 -0.2023
 4876SOL    HW126261   1.456   0.236  14.451  1.1671 -0.1620  2.3372
 4876SOL    HW226262   1.423   0.158  14.570  2.4578  0.1303 -0.8189
 4877SOL     OW26263   2.222   0.944   5.716 -0.1062 -0.5225  0.6407
 4877SOL    HW126264   2.283   0.915   5.649 -1.5458 -2.9689  0.3943
 4877SOL    HW226265   2.148   0.887   5.696 -0.6939  0.9710 -1.4008
 4878SOL     OW26266   4.595   3.415   9.184 -0.7089 -0.4891 -0.7582
 4878SOL    HW126267   4.648   3.468   9.125 -0.8475  1.4052  0.8392
 4878SOL    HW226268   4.651   3.338   9.194  0.3466  0.6805  2.3884
 4879SOL     OW26269   2.092   4.412   4.070 -0.1052  0.8618  0.0545
 4879SOL    HW126270   2.046   4.386   3.990 -1.9084 -2.9614  2.3497
 4879SOL    HW226271   2.180   4.421   4.034 -0.0182 -4.0829 -1.0257
 4880SOL     OW26272   3.429   2.301   9.091  0.3715 -0.1933 -0.1256
 4880SOL    HW126273   3.477   2.361   9.035 -1.5530  1.1756 -0.3188
 4880SOL    HW226274   3.491   2.288   9.163 -0.7164  1.9023  1.1772
 4881SOL     OW26275   1.871   1.645  11.546 -0.0844  0.1046  0.1838
 4881SOL    HW126276   1.791   1.640  11.598 -0.3018 -1.1477 -0.2828
 4881SOL    HW226277   1.848   1.695  11.467 -4.2196 -2.6177 -0.3725
 4882SOL     OW26278   1.374   4.267   9.501  0.5786 -0.5417 -0.3574
 4882SOL    HW126279   1.350   4.175   9.500 -1.1029 -0.0997 -0.3132
 4882SOL    HW226280   1.445   4.257   9.565 -0.3666 -1.1017  0.6017
 4883SOL     OW26281   1.067   3.752   2.423  0.4457 -0.0744 -0.0552
 4883SOL    HW126282   1.033   3.681   2.478 -1.2311  1.7021  1.2340
 4883SOL    HW226283   1.032   3.835   2.457  1.4118  0.0203  0.7240
 4884SOL     OW26284   4.253   0.800  13.240 -0.2533  0.3841 -0.3090
 4884SOL    HW126285   4.158   0.796  13.231 -0.4087  2.3766  0.7160
 4884SOL    HW226286   4.274   0.878  13.188 -1.4029  0.9392  0.0616
 4885SOL     OW26287   2.368   0.223   4.438  0.0596  0.3284 -0.5189
 4885SOL    HW126288   2.295   0.162   4.425 -0.5957  1.0717 -0.3049
 4885SOL    HW226289   2.400   0.186   4.521 -0.3193  0.8520 -0.1425
 4886SOL     OW26290   0.347   2.016   7.134 -0.2818 -0.4952 -0.3351
 4886SOL    HW126291   0.377   1.958   7.205 -0.6720 -1.5318 -1.0129
 4886SOL    HW226292   0.309   1.952   7.074 -4.4627  0.6126  1.1791
 4887SOL     OW26293   0.500   4.054   5.841 -0.2301 -0.1791 -0.1774
 4887SOL    HW126294   0.567   4.053   5.910 -0.3470  0.7481 -0.0441
 4887SOL    HW226295   0.457   3.971   5.856  0.7382 -0.4028  1.4784
 4888SOL     OW26296   3.147   4.688   8.798  0.6656 -0.2921  0.5118
 4888SOL    HW126297   3.142   0.034   8.748 -0.0376 -0.3643  0.4589
 4888SOL    HW226298   3.154   4.628   8.724 -0.5054 -1.2014  1.1497
 4889SOL     OW26299   0.392   0.923   5.765 -0.5053  0.8433  0.1204
 4889SOL    HW126300   0.425   0.855   5.824 -0.0901 -0.7067 -1.8984
 4889SOL    HW226301   0.464   0.987   5.765 -1.5963  2.0675 -1.2902
 4890SOL     OW26302   3.444   2.201   2.406  0.5084 -0.1160 -0.1548
 4890SOL    HW126303   3.415   2.110   2.397  4.1456 -1.4198  1.6168
 4890SOL    HW226304   3.411   2.246   2.328 -0.7148  1.1327  1.0735
 4891SOL     OW26305   1.402   2.527   2.357 -0.3112  1.1249 -0.2875
 4891SOL    HW126306   1.453   2.570   2.289 -0.8104  2.5635  0.2466
 4891SOL    HW226307   1.406   2.586   2.432  0.4575 -1.3073  1.6109
 4892SOL     OW26308   0.678   2.986  11.158  0.3197 -0.3814 -0.1382
 4892SOL    HW126309   0.688   3.071  11.200  1.0807 -1.1993  1.3426
 4892SOL    HW226310   0.587   2.975  11.184  0.0425  0.6651 -0.6601
 4893SOL     OW26311   2.527   0.279   4.070  0.4858  0.4530 -0.1476
 4893SOL    HW126312   2.531   0.341   4.143  1.7836  1.8648 -1.4171
 4893SOL    HW226313   2.445   0.300   4.024  0.3793 -2.0785 -1.1070
 4894SOL     OW26314   1.585   2.035   9.980 -0.3770 -0.0280 -0.4337
 4894SOL    HW126315   1.642   2.044  10.057 -0.4856 -2.4060 -0.0663
 4894SOL    HW226316   1.649   2.019   9.911  1.4702 -3.2515  2.0315
 4895SOL     OW26317   1.130   0.500   9.095  0.1319  0.4555  0.2570
 4895SOL    HW126318   1.140   0.577   9.039  0.0510  1.4365  1.5960
 4895SOL    HW226319   1.141   0.536   9.183  2.5238  2.4576 -0.8335
 4896SOL     OW26320   0.286   4.502   6.363  1.0002 -0.6576  0.0887
 4896SOL    HW126321   0.339   4.575   6.330 -0.0291 -0.0732 -0.2671
 4896SOL    HW226322   0.340   4.478   6.439  0.0807 -0.3054  0.8463
 4897SOL     OW26323   0.069   3.515   5.527  0.0670  0.3392 -0.2851
 4897SOL    HW126324   0.136   3.450   5.507 -0.0418  0.5021 -1.1933
 4897SOL    HW226325   0.038   3.514   5.436 -0.3364 -2.8490 -0.0898
 4898SOL     OW26326   0.661   2.008   9.736 -0.3920  0.4156  0.4314
 4898SOL    HW126327   0.722   2.000   9.662 -1.5332 -0.4212 -0.4108
 4898SOL    HW226328   0.707   2.077   9.784  1.4412 -0.2215 -0.4007
 4899SOL     OW26329   0.916   3.060   7.492 -0.2439 -0.5340  0.1938
 4899SOL    HW126330   0.929   3.110   7.572  3.6924  0.2333 -0.9210
 4899SOL    HW226331   0.931   3.129   7.427 -1.1307  0.9595  1.5898
 4900SOL     OW26332   2.211   3.293   5.783  0.5088  0.2707  0.0674
 4900SOL    HW126333   2.252   3.369   5.742 -1.3481  2.3639  2.1368
 4900SOL    HW226334   2.127   3.335   5.801  2.0678  2.6550  1.6626
 4901SOL     OW26335   2.185   1.015  15.729 -0.1897  0.3367 -0.2869
 4901SOL    HW126336   2.142   0.939  15.689  1.1891  0.0200 -1.1710
 4901SOL    HW226337   2.110   1.073  15.720  1.5663  2.2653 -2.5574
 4902SOL     OW26338   0.877   1.243   8.350 -0.0567  0.6347 -0.1817
 4902SOL    HW126339   0.789   1.256   8.314  0.7686  3.1585 -1.2778
 4902SOL    HW226340   0.858   1.262   8.442  1.8019 -0.0543  0.3356
 4903SOL     OW26341   0.519   2.741   3.467  0.0821 -0.2704 -1.0665
 4903SOL    HW126342   0.440   2.765   3.515  1.1713  1.7157 -0.2701
 4903SOL    HW226343   0.577   2.716   3.539 -0.0886  1.0531 -0.4625
 4904SOL     OW26344   1.052   0.539   0.330 -0.1331  0.8261 -0.0556
 4904SOL    HW126345   1.139   0.551   0.294 -0.5576 -0.3242 -1.4713
 4904SOL    HW226346   1.059   0.524   0.424  1.1274  1.2126 -0.0958
 4905SOL     OW26347   2.118   2.587  15.892  0.3120 -0.2597  0.4489
 4905SOL    HW126348   2.143   2.524  15.824  1.5943  0.5451  0.1805
 4905SOL    HW226349   2.152   2.673  15.867  0.1796 -0.5741 -0.7778
 4906SOL     OW26350   2.735   4.662   7.625 -0.2547 -0.2839  0.5275
 4906SOL    HW126351   2.649   4.700   7.604 -0.0152  0.1540  0.3543
 4906SOL    HW226352   2.747   4.704   7.710 -1.7807  2.2738 -0.5089
 4907SOL     OW26353   0.001   2.312   6.551  0.4174 -0.5186 -0.1724
 4907SOL    HW126354   0.069   2.268   6.500 -0.8914  0.3562 -2.6482
 4907SOL    HW226355   4.657   2.263   6.531  2.4924 -4.1805  0.5145
 4908SOL     OW26356   3.715   2.563  11.170 -0.7104  0.6047 -0.1230
 4908SOL    HW126357   3.780   2.560  11.241 -1.0750 -1.0867  0.1416
 4908SOL    HW226358   3.671   2.479  11.182 -1.9413  1.5086  1.7345
 4909SOL     OW26359   1.155   4.037   3.771 -0.0483  0.3437  0.3661
 4909SOL    HW126360   1.195   4.059   3.686  0.7348 -3.2381 -0.1957
 4909SOL    HW226361   1.096   4.110   3.788  0.0962  0.6929 -0.6225
 4910SOL     OW26362   2.773   3.512   7.663 -0.0946  0.3333 -0.0278
 4910SOL    HW126363   2.863   3.525   7.694  0.2063 -0.6338 -0.4869
 4910SOL    HW226364   2.720   3.577   7.710 -0.0437  0.4108 -0.0778
 4911SOL     OW26365   3.267   4.630   5.641  0.1331  0.1239  0.0945
 4911SOL    HW126366   3.235   4.540   5.632 -1.5779  0.7367  0.1744
 4911SOL    HW226367   3.197   4.667   5.694  1.5841 -1.0706  2.8448
 4912SOL     OW26368   4.243   0.532   4.405 -0.4881 -0.4508 -0.2437
 4912SOL    HW126369   4.328   0.505   4.371  0.4835  1.8825  0.3158
 4912SOL    HW226370   4.178   0.476   4.363  1.2313 -2.6323  0.0034
 4913SOL     OW26371   0.659   0.429  11.282  0.4296 -0.0991  0.0337
 4913SOL    HW126372   0.698   0.503  11.236 -0.9108 -0.1440 -1.1768
 4913SOL    HW226373   0.665   0.469  11.368 -2.6448  0.4030  0.0040
 4914SOL     OW26374   1.008   3.330   8.189 -0.2781 -0.4690 -0.1681
 4914SOL    HW126375   1.099   3.299   8.195 -0.5859 -1.2485  0.6888
 4914SOL    HW226376   0.994   3.322   8.095 -2.6507 -0.4640  0.1702
 4915SOL     OW26377   3.131   2.075   8.239 -0.3951 -0.2267  0.4435
 4915SOL    HW126378   3.159   2.092   8.328  0.2266 -1.7755  0.5523
 4915SOL    HW226379   3.039   2.060   8.261 -0.9201  0.6540 -1.1361
 4916SOL     OW26380   3.541   3.909  12.889  0.3834  0.0798  0.2417
 4916SOL    HW126381   3.459   3.899  12.841 -0.5859  3.7962  1.1307
 4916SOL    HW226382   3.541   3.820  12.923  2.1715  0.4019  1.0943
 4917SOL     OW26383   3.941   3.234   7.806 -0.1096  0.4745 -0.4395
 4917SOL    HW126384   3.928   3.199   7.894  1.0440  0.0583 -0.4393
 4917SOL    HW226385   3.910   3.324   7.820 -0.0040  0.2213  1.4360
 4918SOL     OW26386   3.242   0.026   4.496  0.2222  1.0424  0.0560
 4918SOL    HW126387   3.307   4.726   4.557  0.6965  1.8395  0.0246
 4918SOL    HW226388   3.210   0.095   4.554  0.6974  0.6657  0.7784
 4919SOL     OW26389   1.481   0.583   1.506  0.0284 -0.1178 -0.0447
 4919SOL    HW126390   1.438   0.544   1.582  2.1909 -0.9831  0.7368
 4919SOL    HW226391   1.555   0.526   1.485 -1.4620 -2.2435  0.5256
 4920SOL     OW26392   0.654   0.866  11.352 -0.0499  0.0509 -0.2702
 4920SOL    HW126393   0.637   0.838  11.442 -1.5448 -1.0655 -0.8836
 4920SOL    HW226394   0.574   0.917  11.336 -0.4518 -0.8397 -1.1059
 4921SOL     OW26395   0.536   0.933   7.069  0.0742 -0.1434  0.0749
 4921SOL    HW126396   0.624   0.904   7.045  0.6041 -0.0864  1.9386
 4921SOL    HW226397   0.525   0.886   7.152 -0.8179  0.0855  0.0926
 4922SOL     OW26398   1.667   2.522   2.985  0.0668 -0.7443  0.3010
 4922SOL    HW126399   1.697   2.460   2.919  0.1695 -0.3037 -0.0682
 4922SOL    HW226400   1.735   2.514   3.052  1.2421 -1.4807 -0.9800
 4923SOL     OW26401   0.447   4.517   2.690  0.1878  0.1065  0.5648
 4923SOL    HW126402   0.537   4.522   2.658 -0.1202  1.7713 -0.0370
 4923SOL    HW226403   0.448   4.423   2.709 -0.5922  0.3215  1.6491
 4924SOL     OW26404   4.559   2.889   5.831  0.2022  0.0034  0.2849
 4924SOL    HW126405   4.541   2.952   5.900  1.0549  0.0813  0.4308
 4924SOL    HW226406   4.510   2.814   5.865 -0.2308 -1.1137 -2.7837
 4925SOL     OW26407   4.560   2.377   3.306  0.5925  0.8031 -0.3367
 4925SOL    HW126408   4.503   2.302   3.288  1.5761 -0.5256  2.1555
 4925SOL    HW226409   4.618   2.330   3.366 -0.0145  0.6526  0.1317
 4926SOL     OW26410   0.458   0.014   9.823 -0.1633  0.1121 -0.0661
 4926SOL    HW126411   0.424   0.014   9.913 -2.4167  1.0928 -0.9231
 4926SOL    HW226412   0.550   0.040   9.832 -0.1950  0.2041 -0.0012
 4927SOL     OW26413   2.299   2.033   5.976 -0.4564  0.0663  0.2074
 4927SOL    HW126414   2.350   2.024   5.896  0.5493 -0.6845  0.9427
 4927SOL    HW226415   2.342   2.106   6.020 -1.0716  0.3775  0.3030
 4928SOL     OW26416   3.527   3.243  15.865  0.1218 -0.8536  0.3165
 4928SOL    HW126417   3.565   3.299  15.797  0.7920 -2.6138 -0.7468
 4928SOL    HW226418   3.579   3.163  15.864  2.0006  0.3653 -1.7468
 4929SOL     OW26419   3.124   4.125   6.394  0.2946  0.1373 -0.2604
 4929SOL    HW126420   3.033   4.098   6.382 -0.0309  1.0173  0.2089
 4929SOL    HW226421   3.163   4.090   6.314  1.4623 -1.0272  0.8119
 4930SOL     OW26422   2.749   0.003  12.344  0.0964 -0.3277 -0.6085
 4930SOL    HW126423   2.764   4.664  12.402 -2.6794  0.6304  1.3558
 4930SOL    HW226424   2.838   0.039  12.344  0.7344 -1.8944  0.6919
 4931SOL     OW26425   2.293   3.210   4.017  0.5263 -0.3321  0.5593
 4931SOL    HW126426   2.309   3.119   4.042  1.1260 -0.4962 -0.4087
 4931SOL    HW226427   2.207   3.212   4.058  1.1017  1.8346  1.6472
 4932SOL     OW26428   3.444   1.733   8.272  0.3203  0.0345 -0.3738
 4932SOL    HW126429   3.516   1.690   8.224 -1.1168 -1.3825 -1.2551
 4932SOL    HW226430   3.395   1.659   8.306  3.7144 -2.6617 -1.3003
 4933SOL     OW26431   0.130   4.284   8.774 -0.5452 -0.6724  0.5589
 4933SOL    HW126432   0.046   4.244   8.750 -1.2168  1.2817 -0.3445
 4933SOL    HW226433   0.202   4.227   8.747  0.5487  0.2362  1.5704
 4934SOL     OW26434   0.234   0.632  17.591  0.3769  0.2434 -0.5577
 4934SOL    HW126435   0.178   0.647  17.667  0.0194  2.3249 -1.2290
 4934SOL    HW226436   0.321   0.654  17.624  0.5091  1.1189 -1.4889
 4935SOL     OW26437   3.141   2.752   3.486  0.3983  0.2737 -0.8051
 4935SOL    HW126438   3.089   2.826   3.518 -3.6041 -2.2087 -1.4964
 4935SOL    HW226439   3.066   2.710   3.444  0.1312 -1.2810  1.2351
 4936SOL     OW26440   2.233   4.685   5.277  0.1397  0.3557  0.2658
 4936SOL    HW126441   2.313   4.683   5.329  0.8286  1.1033 -0.7471
 4936SOL    HW226442   2.266   4.648   5.195 -0.5747 -2.9450  1.5033
 4937SOL     OW26443   3.339   1.591  13.605 -0.0454  0.2450 -0.5986
 4937SOL    HW126444   3.253   1.614  13.640 -0.6545 -0.1634 -1.8253
 4937SOL    HW226445   3.325   1.501  13.633 -1.3390  0.5175 -0.3433
 4938SOL     OW26446   0.971   3.994   1.519  0.4999 -0.3217  0.5305
 4938SOL    HW126447   0.898   3.992   1.581  0.2290 -2.9961  0.0921
 4938SOL    HW226448   1.006   4.081   1.539 -0.6068  0.3670 -0.5247
 4939SOL     OW26449   4.506   3.627   3.530 -0.1347  0.4918 -0.2992
 4939SOL    HW126450   4.424   3.677   3.523  0.6938  2.0867  1.2992
 4939SOL    HW226451   4.556   3.660   3.455  0.8625  0.3693  0.3136
 4940SOL     OW26452   4.173   0.567  16.057  0.1113 -0.0713  0.2309
 4940SOL    HW126453   4.161   0.590  16.149 -0.2127  0.2508  0.1091
 4940SOL    HW226454   4.131   0.641  16.013 -0.2186 -1.1430 -1.2571
 4941SOL     OW26455   2.850   1.799  13.819 -0.3912 -0.3712  0.2136
 4941SOL    HW126456   2.807   1.876  13.856  0.2136 -0.0556  0.2575
 4941SOL    HW226457   2.890   1.840  13.743 -0.0022 -2.1795 -0.5448
 4942SOL     OW26458   1.892   2.443   3.708  0.1035 -0.2265  0.3356
 4942SOL    HW126459   1.854   2.489   3.783  1.3557  2.0096 -0.4105
 4942SOL    HW226460   1.811   2.413   3.668 -1.4506  0.5300  2.9019
 4943SOL     OW26461   4.314   0.696   2.507 -0.3990 -0.5420  0.1734
 4943SOL    HW126462   4.321   0.729   2.596 -0.1180  1.4220 -0.5792
 4943SOL    HW226463   4.327   0.773   2.453 -0.4629 -0.1087  0.7755
 4944SOL     OW26464   0.338   0.227   7.119  0.1503 -0.5335  0.0918
 4944SOL    HW126465   0.264   0.184   7.075 -1.6031  1.7626  0.7617
 4944SOL    HW226466   0.290   0.305   7.146  2.4451  0.1723  2.0431
 4945SOL     OW26467   1.172   1.494   9.106  0.3120  0.3844  0.2402
 4945SOL    HW126468   1.089   1.446   9.112  0.5255  0.0949  0.9192
 4945SOL    HW226469   1.143   1.580   9.136 -0.9782  0.0753 -0.1284
 4946SOL     OW26470   1.834   3.502  12.317  0.0985 -0.2024  0.0642
 4946SOL    HW126471   1.789   3.514  12.401 -0.1850  1.8770 -0.3955
 4946SOL    HW226472   1.911   3.451  12.342 -0.3018  0.3122  2.4027
 4947SOL     OW26473   0.476   3.280  12.063  0.1337  0.0310 -0.2713
 4947SOL    HW126474   0.412   3.216  12.032 -1.2504  2.1029 -1.7322
 4947SOL    HW226475   0.486   3.262  12.156  1.8033 -1.8973 -0.8283
 4948SOL     OW26476   0.746   1.845   6.724 -0.5949  0.0581 -0.3671
 4948SOL    HW126477   0.733   1.864   6.817 -1.7814  0.5840 -0.6375
 4948SOL    HW226478   0.657   1.848   6.688 -0.0167  0.7228 -1.7536
 4949SOL     OW26479   3.624   1.936   5.807 -0.0593 -0.6287  0.4590
 4949SOL    HW126480   3.542   1.985   5.818  0.3500  0.5461 -1.6905
 4949SOL    HW226481   3.587   1.850   5.784 -0.4532 -0.9005  2.1435
 4950SOL     OW26482   2.493   0.960  17.204 -0.3393 -0.0650 -0.3795
 4950SOL    HW126483   2.403   0.930  17.192  0.0464 -1.8736  1.2524
 4950SOL    HW226484   2.533   0.880  17.169  0.5677  0.5110 -0.6438
 4951SOL     OW26485   0.077   2.357   2.512 -0.3131 -0.0391 -0.5142
 4951SOL    HW126486   0.144   2.346   2.445 -0.0901  0.5203 -0.3820
 4951SOL    HW226487   0.067   2.452   2.517  1.3675  0.0319  1.0673
 4952SOL     OW26488   2.034   0.097   6.290  0.2768  0.1966  0.2497
 4952SOL    HW126489   2.052   0.155   6.216  1.8620 -1.8737 -0.9798
 4952SOL    HW226490   2.111   0.114   6.344 -0.1577  2.0260  0.2868
 4953SOL     OW26491   0.422   3.792   2.688 -0.5246 -0.4034 -0.5811
 4953SOL    HW126492   0.453   3.785   2.598  1.4274 -2.2868  0.2440
 4953SOL    HW226493   0.498   3.832   2.731 -0.5328 -0.4253 -0.5457
 4954SOL     OW26494   2.774   4.109   3.310 -0.6531  0.0367 -0.1265
 4954SOL    HW126495   2.716   4.170   3.263 -2.4170 -1.6144 -0.0810
 4954SOL    HW226496   2.793   4.043   3.244  0.1169  0.2257 -0.1017
 4955SOL     OW26497   2.506   0.395   3.256  0.1352 -0.2649  0.5569
 4955SOL    HW126498   2.562   0.411   3.331 -0.7835 -2.3103  1.6636
 4955SOL    HW226499   2.432   0.348   3.295 -2.1937  1.6048 -1.5537
 4956SOL     OW26500   3.783   0.562   8.599  0.3095 -0.0250 -0.7147
 4956SOL    HW126501   3.732   0.525   8.527 -1.1049  0.2456  0.1614
 4956SOL    HW226502   3.861   0.593   8.552  1.4987 -0.9063  0.6661
 4957SOL     OW26503   1.010   3.804  15.858 -0.0735  0.5457 -0.2714
 4957SOL    HW126504   1.104   3.817  15.846 -0.2574  1.0604 -1.1007
 4957SOL    HW226505   1.009   3.782  15.952 -1.3878  0.3717 -0.3326
 4958SOL     OW26506   3.067   1.952   1.921 -0.1792 -0.5038  0.3366
 4958SOL    HW126507   3.036   1.867   1.889  0.1553  0.1521 -1.7596
 4958SOL    HW226508   3.003   1.967   1.991 -1.1688 -0.6737 -0.5252
 4959SOL     OW26509   1.650   3.842   7.297  0.5198  0.3127 -0.3597
 4959SOL    HW126510   1.627   3.934   7.283 -0.8698 -0.5043 -3.4271
 4959SOL    HW226511   1.602   3.800   7.226 -1.7681  1.0464  0.7463
 4960SOL     OW26512   0.105   0.759   1.574  0.2175  0.6452 -0.0696
 4960SOL    HW126513   0.041   0.776   1.505 -0.5583 -0.5415  0.3731
 4960SOL    HW226514   0.124   0.849   1.602  4.2054  0.1342 -1.0850
 4961SOL     OW26515   0.077   1.763   1.203 -0.1149  0.1108 -0.0238
 4961SOL    HW126516   0.118   1.837   1.157 -1.0738  2.2615  2.6020
 4961SOL    HW226517   0.078   1.786   1.296 -0.5124 -0.9195  0.2317
 4962SOL     OW26518   2.161   3.967   9.555  0.3574 -0.5934  0.4075
 4962SOL    HW126519   2.140   3.899   9.620  0.9915  0.9424  2.2384
 4962SOL    HW226520   2.198   3.915   9.484 -1.8633 -0.2624 -0.9712
 4963SOL     OW26521   0.366   1.236   3.325 -0.0524 -0.0470  0.7476
 4963SOL    HW126522   0.441   1.263   3.272 -2.2374  2.7018 -0.9507
 4963SOL    HW226523   0.293   1.212   3.267  2.4487 -0.4167 -2.2692
 4964SOL     OW26524   3.626   1.846  10.948  0.1034  0.0388 -0.2965
 4964SOL    HW126525   3.557   1.911  10.935 -0.6668 -0.5492  0.7796
 4964SOL    HW226526   3.672   1.884  11.023  0.6108 -2.5540  0.7113
 4965SOL     OW26527   0.734   2.954   8.795  0.0155  0.2179 -0.3309
 4965SOL    HW126528   0.670   2.884   8.784  1.2479 -1.1916  1.4516
 4965SOL    HW226529   0.813   2.909   8.764 -0.1165 -1.7562  2.1797
 4966SOL     OW26530   1.389   0.934   5.035  0.3150 -0.2761  0.2529
 4966SOL    HW126531   1.403   0.897   5.123  0.1064 -0.3605  0.2514
 4966SOL    HW226532   1.358   1.021   5.060 -0.5646 -0.0503 -1.6732
 4967SOL     OW26533   4.469   0.746   4.599  0.5044 -0.2103  0.2249
 4967SOL    HW126534   4.452   0.656   4.629  1.7541  0.0693  1.7562
 4967SOL    HW226535   4.381   0.784   4.594  0.8719  0.5891 -0.0326
 4968SOL     OW26536   0.173   0.039   2.137  0.0515  0.2103 -0.2176
 4968SOL    HW126537   0.147   0.020   2.047 -0.9935 -2.0175  0.5509
 4968SOL    HW226538   0.157   4.690   2.177 -0.3268  0.8243  0.9160
 4969SOL     OW26539   4.548   1.346   3.204 -0.2570  0.3971  0.8217
 4969SOL    HW126540   4.486   1.372   3.135  1.4080  0.6337 -0.5982
 4969SOL    HW226541   4.525   1.399   3.280  0.6289 -0.8536  1.9572
 4970SOL     OW26542   1.390   4.186   2.243  0.5102  0.3260 -0.0047
 4970SOL    HW126543   1.453   4.119   2.270  0.0919  0.2376  0.7585
 4970SOL    HW226544   1.411   4.217   2.155 -0.2708 -0.4540 -0.4544
 4971SOL     OW26545   1.084   2.831   5.040 -0.2592 -0.2629 -0.0492
 4971SOL    HW126546   1.125   2.905   5.085  1.1922 -0.7517 -0.5483
 4971SOL    HW226547   1.163   2.777   5.032 -0.6282 -0.8930  0.5768
 4972SOL     OW26548   1.908   0.841   5.057 -0.0163  0.2028 -0.1791
 4972SOL    HW126549   1.931   0.762   5.107 -0.8583  0.3235  0.4004
 4972SOL    HW226550   1.835   0.804   5.007 -0.9773 -0.3386  1.6500
 4973SOL     OW26551   2.403   4.722  12.461  0.1098  0.3911  0.0533
 4973SOL    HW126552   2.340   0.002  12.531  0.0550 -1.2987  0.3792
 4973SOL    HW226553   2.457   4.646  12.482 -0.4121  0.0218  0.0482
 4974SOL     OW26554   2.280   4.614   8.107 -0.0205 -0.4107  0.7289
 4974SOL    HW126555   2.234   4.530   8.104  0.5776 -0.7327  0.6438
 4974SOL    HW226556   2.286   4.630   8.012  0.4424 -0.2922  0.7790
 4975SOL     OW26557   1.036   1.987   8.982  0.1881  0.3357 -0.0871
 4975SOL    HW126558   1.025   1.892   8.994  3.3889 -0.2105 -1.2840
 4975SOL    HW226559   0.944   2.010   8.973 -0.1370 -0.6421  0.6800
 4976SOL     OW26560   2.906   0.815  13.012 -0.0727  0.7931 -0.0156
 4976SOL    HW126561   2.862   0.764  12.945 -1.8769  0.7651  1.1848
 4976SOL    HW226562   2.881   0.903  12.985  0.6583  0.4687 -1.7277
 4977SOL     OW26563   1.948   2.951   6.670  0.1840 -0.0446  0.1176
 4977SOL    HW126564   1.934   2.878   6.610 -1.1055 -0.1052  0.4873
 4977SOL    HW226565   2.023   2.997   6.633  0.7677 -0.7876  0.3854
 4978SOL     OW26566   1.016   4.370   5.415 -0.1916  0.2313 -0.2760
 4978SOL    HW126567   1.026   4.275   5.415 -2.7746 -0.0542  1.1509
 4978SOL    HW226568   0.937   4.370   5.468  0.9823  1.8840  1.4613
 4979SOL     OW26569   4.030   0.645   6.513 -0.0844 -0.4668 -0.0313
 4979SOL    HW126570   3.954   0.703   6.509 -0.6957 -1.3372 -1.2418
 4979SOL    HW226571   4.090   0.689   6.453  1.6386 -2.4172  0.2744
 4980SOL     OW26572   2.018   1.418  15.912 -0.4722 -0.3475 -0.0481
 4980SOL    HW126573   2.065   1.439  15.993 -0.3792 -2.8339  0.5407
 4980SOL    HW226574   2.094   1.396  15.859  0.3658  2.9397 -0.2056
 4981SOL     OW26575   2.499   1.787   5.767 -0.3739  0.1333  0.1786
 4981SOL    HW126576   2.497   1.875   5.729 -0.0240 -0.6035 -1.5522
 4981SOL    HW226577   2.425   1.781   5.828  0.9793 -1.0874  1.6975
 4982SOL     OW26578   2.405   0.711   2.001 -0.3028 -0.8515  0.3536
 4982SOL    HW126579   2.337   0.654   1.965  0.8789 -1.6772 -0.6001
 4982SOL    HW226580   2.461   0.665   2.063  2.3501  1.0561 -0.6437
 4983SOL     OW26581   0.765   3.532   0.902  0.3791  0.7450 -0.6414
 4983SOL    HW126582   0.730   3.495   0.821 -0.5260 -1.9222  0.9662
 4983SOL    HW226583   0.717   3.615   0.901 -1.2741 -0.1919  0.5224
 4984SOL     OW26584   4.194   1.443  16.730  0.2950 -0.6113  0.0847
 4984SOL    HW126585   4.238   1.369  16.772  1.3061  1.0598  1.9347
 4984SOL    HW226586   4.226   1.430  16.640  0.0186  2.4879 -0.4596
 4985SOL     OW26587   4.489   0.239  12.605  1.0362  0.0018  0.2021
 4985SOL    HW126588   4.458   0.321  12.568  0.2280  0.1434  1.2190
 4985SOL    HW226589   4.578   0.268  12.624  1.4491  0.7898 -2.9644
 4986SOL     OW26590   3.534   1.831   2.910  0.3460  0.2834  0.0080
 4986SOL    HW126591   3.494   1.864   2.829 -0.8590 -2.1717 -0.4042
 4986SOL    HW226592   3.552   1.919   2.943 -0.3484 -0.2415  1.7521
 4987SOL     OW26593   1.204   2.269   2.763  0.7530 -0.1398  0.3265
 4987SOL    HW126594   1.202   2.340   2.828  0.0111  0.4187 -0.3086
 4987SOL    HW226595   1.208   2.317   2.680 -2.8236 -0.6318 -0.1287
 4988SOL     OW26596   3.910   1.364   2.942 -0.4193 -0.7043  0.5222
 4988SOL    HW126597   3.931   1.341   2.852 -4.3826  0.0934 -0.5976
 4988SOL    HW226598   3.877   1.277   2.960 -0.2959 -0.6663  0.9294
 4989SOL     OW26599   1.372   0.572   5.089  0.5106  0.7412 -0.9713
 4989SOL    HW126600   1.347   0.632   5.159 -0.7310 -2.8453  1.6146
 4989SOL    HW226601   1.465   0.563   5.110 -0.0537 -0.4556  0.9160
 4990SOL     OW26602   2.069   0.235   4.317 -0.2305  0.0715  0.0588
 4990SOL    HW126603   2.009   0.164   4.338  0.4720 -0.4063  0.4662
 4990SOL    HW226604   2.047   0.253   4.225  0.1852  2.9984  0.5248
 4991SOL     OW26605   0.216   3.984  16.595 -0.2948  0.5883 -0.1853
 4991SOL    HW126606   0.275   4.032  16.653  0.7652 -1.9590  0.8393
 4991SOL    HW226607   0.179   4.060  16.549 -1.8180 -0.1918 -0.2387
 4992SOL     OW26608   4.176   1.003   4.643 -0.2413 -0.6233 -0.2683
 4992SOL    HW126609   4.101   1.052   4.610  0.8782 -0.4300 -2.5345
 4992SOL    HW226610   4.178   0.929   4.582  0.6876  0.6800 -1.8038
 4993SOL     OW26611   1.640   2.615   8.812  0.4199  0.5686 -0.2630
 4993SOL    HW126612   1.702   2.557   8.768 -1.3524 -1.6253  0.0560
 4993SOL    HW226613   1.556   2.583   8.779  0.1581  0.6557  0.3176
 4994SOL     OW26614   1.360   3.733   3.899 -0.2368  0.1398  0.0436
 4994SOL    HW126615   1.271   3.744   3.864 -0.7744  0.7187  1.5940
 4994SOL    HW226616   1.355   3.804   3.963 -2.3083 -0.5440  0.6430
 4995SOL     OW26617   0.388   0.127   6.266  0.0642  0.0432 -0.4738
 4995SOL    HW126618   0.348   0.214   6.269  1.5599  0.7586 -1.2696
 4995SOL    HW226619   0.375   0.098   6.176 -0.4546  1.2140 -0.7791
 4996SOL     OW26620   1.689   3.600   0.453  0.0973  0.1665  0.3551
 4996SOL    HW126621   1.647   3.518   0.475 -0.2580  0.6232  1.3555
 4996SOL    HW226622   1.635   3.626   0.379  1.0637 -2.9887 -1.4630
 4997SOL     OW26623   0.618   2.860  10.253 -0.4574  0.0412 -0.1708
 4997SOL    HW126624   0.686   2.801  10.287  0.3388 -0.4172 -2.5617
 4997SOL    HW226625   0.553   2.847  10.322  0.4181  0.4542  0.7354
 4998SOL     OW26626   0.279   4.194   0.844  0.3393 -0.5562  0.0423
 4998SOL    HW126627   0.186   4.219   0.843 -0.0465 -2.0475 -1.2327
 4998SOL    HW226628   0.278   4.121   0.906  1.5491 -0.6293 -0.0225
 4999SOL     OW26629   2.144   2.885   5.478 -0.2458 -0.3957 -0.0787
 4999SOL    HW126630   2.137   2.849   5.567  0.9245 -0.4823 -0.0197
 4999SOL    HW226631   2.051   2.892   5.456 -0.6130 -1.0744  1.2103
 5000SOL     OW26632   3.783   2.907  13.764 -0.1116 -0.3128  0.2977
 5000SOL    HW126633   3.835   2.961  13.704  0.1976 -1.7032 -0.6830
 5000SOL    HW226634   3.691   2.931  13.749  0.5195  1.3845 -0.9367
 5001SOL     OW26635   2.706   0.775  16.721 -0.3154  0.5296 -0.5821
 5001SOL    HW126636   2.680   0.683  16.716  1.7694  0.0236 -1.9215
 5001SOL    HW226637   2.774   0.788  16.655 -0.6474  2.9418 -0.4413
 5002SOL     OW26638   4.716   3.858   0.232  0.5516 -0.1841  0.2960
 5002SOL    HW126639   4.669   3.938   0.252  0.4059 -0.2761  0.3203
 5002SOL    HW226640   0.063   3.883   0.192  0.2768 -1.5918 -1.1784
 5003SOL     OW26641   2.708   2.372   2.456  0.6239  0.6584  0.0311
 5003SOL    HW126642   2.802   2.387   2.454  0.5058  1.1768 -2.1263
 5003SOL    HW226643   2.706   2.298   2.517  2.0718 -1.0031 -1.9630
 5004SOL     OW26644   2.514   2.299   2.785 -0.5209  0.0748 -0.3980
 5004SOL    HW126645   2.438   2.332   2.833  1.4531  1.6956  1.6409
 5004SOL    HW226646   2.588   2.310   2.845  0.0884 -2.6489 -0.6632
 5005SOL     OW26647   1.128   0.145   6.324  0.1164 -0.2779  0.0040
 5005SOL    HW126648   1.079   0.221   6.294  2.5287  0.0631 -3.0316
 5005SOL    HW226649   1.074   0.081   6.277 -0.1398 -0.1799  0.1606
 5006SOL     OW26650   4.462   4.431  16.528  0.0337  0.3578  0.2954
 5006SOL    HW126651   4.406   4.363  16.490  0.5699 -1.4087  2.6562
 5006SOL    HW226652   4.393   4.468  16.583 -0.0790 -0.3549  0.6421
 5007SOL     OW26653   2.265   0.397   2.390 -0.3709 -0.2507  0.7306
 5007SOL    HW126654   2.359   0.379   2.394 -0.3634 -0.3057  0.2900
 5007SOL    HW226655   2.233   0.333   2.455  2.0725 -0.5883  1.5967
 5008SOL     OW26656   2.834   3.325   5.369 -0.1665 -0.2266  0.2352
 5008SOL    HW126657   2.744   3.312   5.340  0.2528 -0.1695 -1.0620
 5008SOL    HW226658   2.831   3.421   5.368 -0.6703 -0.2830 -2.3482
 5009SOL     OW26659   1.721   3.041   4.584 -0.5154  0.3081 -0.0057
 5009SOL    HW126660   1.811   3.075   4.585 -0.9081  1.3164  0.5163
 5009SOL    HW226661   1.670   3.116   4.616  0.4948  0.7572  0.5471
 5010SOL     OW26662   0.772   3.584  14.135  0.1798  0.0646 -0.1464
 5010SOL    HW126663   0.808   3.563  14.048  2.2507  2.5499  0.1182
 5010SOL    HW226664   0.742   3.672  14.111 -1.3427 -1.2930 -3.2072
 5011SOL     OW26665   0.026   0.750   7.800 -0.3976  0.4009 -0.5519
 5011SOL    HW126666   0.004   0.779   7.889 -0.6784 -0.9585 -0.1767
 5011SOL    HW226667   4.679   0.727   7.757 -0.9845  1.9830 -0.2769
 5012SOL     OW26668   3.964   0.655   7.703 -0.7243  0.0922  0.0302
 5012SOL    HW126669   3.972   0.661   7.798  2.2899 -2.4419 -0.0641
 5012SOL    HW226670   3.881   0.610   7.686 -0.7593 -0.6757  2.3602
 5013SOL     OW26671   2.876   1.257  11.259  0.4657  0.3689 -0.2902
 5013SOL    HW126672   2.919   1.323  11.204 -0.2847 -0.3573 -1.7434
 5013SOL    HW226673   2.878   1.298  11.346 -1.5128  1.3036 -0.6793
 5014SOL     OW26674   0.839   4.278   1.185 -0.2469 -0.1288 -0.3903
 5014SOL    HW126675   0.860   4.282   1.092 -0.8732 -1.4341 -0.5887
 5014SOL    HW226676   0.875   4.192   1.204  0.2489  0.7511  2.6295
 5015SOL     OW26677   0.383   3.327   7.776  0.0763 -0.4804  0.3396
 5015SOL    HW126678   0.431   3.244   7.767  0.9329  0.0335  0.2155
 5015SOL    HW226679   0.448   3.381   7.819  1.1884 -1.5657  0.0219
 5016SOL     OW26680   1.993   2.102   9.206 -0.8535 -0.3005  0.4325
 5016SOL    HW126681   1.928   2.132   9.143 -0.5668 -0.9041 -0.1435
 5016SOL    HW226682   1.947   2.102   9.290 -0.2423 -0.8722  0.7769
 5017SOL     OW26683   3.965   2.620   8.217  1.0461  0.1381  0.0527
 5017SOL    HW126684   3.964   2.667   8.300  1.3202  2.9717 -1.5747
 5017SOL    HW226685   3.869   2.615   8.216  1.1003 -0.6108 -1.3198
 5018SOL     OW26686   2.499   0.351  14.823 -0.6183  0.0120  0.2715
 5018SOL    HW126687   2.510   0.355  14.728 -1.1673 -0.8225  0.1714
 5018SOL    HW226688   2.519   0.257  14.827  1.1274  0.3337 -0.8002
 5019SOL     OW26689   0.390   4.691  14.025 -0.0236  0.1363  0.5093
 5019SOL    HW126690   0.440   0.033  14.046 -0.6109  0.0017  2.3955
 5019SOL    HW226691   0.418   4.681  13.934 -1.1906  1.0951  0.0487
 5020SOL     OW26692   4.519   2.723   4.254 -0.2414  0.0413 -0.0474
 5020SOL    HW126693   4.425   2.742   4.254 -0.1522  0.4641  1.5903
 5020SOL    HW226694   4.522   2.663   4.179 -0.8349 -0.2789  0.1897
 5021SOL     OW26695   1.093   0.775   3.764 -0.3243  0.2071 -0.1485
 5021SOL    HW126696   1.171   0.776   3.709  0.1634 -0.6637  0.5271
 5021SOL    HW226697   1.071   0.682   3.762  3.5024 -0.7372  1.7036
 5022SOL     OW26698   4.493   0.960   1.601 -0.1316 -0.0990 -0.1786
 5022SOL    HW126699   4.512   0.999   1.516 -1.9708  0.8166 -0.1822
 5022SOL    HW226700   4.529   1.027   1.660  1.2174 -0.7073 -0.3336
 5023SOL     OW26701   2.805   2.056   6.948  0.1341 -0.4319 -0.6093
 5023SOL    HW126702   2.717   2.035   6.916 -0.8708  0.8206  1.3302
 5023SOL    HW226703   2.859   1.986   6.912 -2.3677 -1.6387 -1.9500
 5024SOL     OW26704   3.517   3.179  12.084 -0.0942  0.3412  0.5640
 5024SOL    HW126705   3.594   3.132  12.051 -0.1460 -0.3633  1.4461
 5024SOL    HW226706   3.507   3.142  12.171 -1.4288 -0.6634 -0.0144
 5025SOL     OW26707   3.966   2.389   5.142 -0.2933  0.3238 -0.0350
 5025SOL    HW126708   3.976   2.430   5.228  0.7439  1.7244 -0.8182
 5025SOL    HW226709   3.992   2.457   5.080  0.6535 -0.9724 -1.0712
 5026SOL     OW26710   4.160   3.376   2.306  0.3683  1.1208  0.0400
 5026SOL    HW126711   4.065   3.381   2.299  0.4639  0.3464 -1.6623
 5026SOL    HW226712   4.184   3.455   2.257 -0.5850  0.5815 -1.2782
 5027SOL     OW26713   4.124   1.756  10.570  0.3545  0.4838  0.5599
 5027SOL    HW126714   4.169   1.761  10.654 -1.2806 -1.2686  1.5366
 5027SOL    HW226715   4.135   1.661  10.562  0.2151  0.4576  0.6745
 5028SOL     OW26716   0.543   2.338   8.233 -0.3742 -0.2918 -0.4597
 5028SOL    HW126717   0.610   2.340   8.302 -0.2102  2.6844 -0.6850
 5028SOL    HW226718   0.520   2.431   8.231  0.2425 -0.1271  0.2133
 5029SOL     OW26719   1.872   0.160  11.006 -0.2493  0.6868  0.3881
 5029SOL    HW126720   1.792   0.109  10.997  0.4393 -0.0782 -1.5220
 5029SOL    HW226721   1.920   0.117  10.935 -0.4842  1.2511 -0.1137
 5030SOL     OW26722   1.088   3.507   7.894 -0.5112  0.3172  0.2468
 5030SOL    HW126723   1.014   3.446   7.893  0.0117 -0.2892 -1.0079
 5030SOL    HW226724   1.160   3.453   7.864 -0.7678 -0.3445  0.8187
 5031SOL     OW26725   1.803   4.101   6.095 -0.0743 -0.6433  0.2724
 5031SOL    HW126726   1.868   4.062   6.153  0.2894 -2.7542 -1.5562
 5031SOL    HW226727   1.841   4.188   6.101  0.6137 -0.9907  0.8957
 5032SOL     OW26728   1.561   3.440   4.703 -0.3657  0.1785 -0.0848
 5032SOL    HW126729   1.523   3.420   4.789 -0.7528 -0.9922 -0.5252
 5032SOL    HW226730   1.533   3.531   4.697 -0.5254  0.0767 -0.8355
 5033SOL     OW26731   1.249   2.057   8.731  0.1806  0.3164 -0.0699
 5033SOL    HW126732   1.267   2.134   8.677 -1.0639 -1.1081 -2.4822
 5033SOL    HW226733   1.184   2.088   8.794 -0.1359  1.6223 -1.0397
 5034SOL     OW26734   0.425   3.654   1.378  0.4033 -0.0179  0.0112
 5034SOL    HW126735   0.420   3.734   1.429 -2.2181  0.1081 -0.4329
 5034SOL    HW226736   0.364   3.601   1.430  0.2061  0.8907  0.6943
 5035SOL     OW26737   1.740   2.909   7.109  0.0956 -0.3355  0.1896
 5035SOL    HW126738   1.765   2.823   7.074  1.9293  0.0076  0.6164
 5035SOL    HW226739   1.812   2.959   7.071 -0.9710  0.1447 -1.1413
 5036SOL     OW26740   0.752   4.306   7.379  0.3157 -1.0350  0.1284
 5036SOL    HW126741   0.714   4.284   7.464 -1.3869  1.3027 -0.0401
 5036SOL    HW226742   0.717   4.394   7.365 -0.1423 -0.9913  1.5089
 5037SOL     OW26743   1.088   3.476  13.294 -0.0637 -0.5479  0.6100
 5037SOL    HW126744   1.126   3.564  13.295 -0.2842 -0.4551  1.1543
 5037SOL    HW226745   1.077   3.464  13.200  0.0571 -2.3143  0.8146
 5038SOL     OW26746   1.945   1.929   8.528  0.3420  0.1561  0.2009
 5038SOL    HW126747   1.856   1.896   8.520  0.3010  0.0294  1.1066
 5038SOL    HW226748   1.969   1.942   8.437  2.6273  1.5759  1.0054
 5039SOL     OW26749   0.582   0.717   3.375 -0.6037 -0.1652 -0.4441
 5039SOL    HW126750   0.677   0.723   3.386 -0.6134  1.0641 -0.9287
 5039SOL    HW226751   0.584   0.663   3.296 -0.3701 -0.1404 -0.4578
 5040SOL     OW26752   3.483   4.557   9.841 -0.4034  0.1435  0.2263
 5040SOL    HW126753   3.415   4.608   9.797 -1.7066 -4.6283 -3.3261
 5040SOL    HW226754   3.555   4.615   9.821 -0.4864  0.0530 -0.3240
 5041SOL     OW26755   4.156   0.553   4.720  0.1145 -0.2737  0.4974
 5041SOL    HW126756   4.215   0.591   4.785 -0.1645  1.3142 -0.1745
 5041SOL    HW226757   4.219   0.525   4.653  2.0433 -2.2298  3.1173
 5042SOL     OW26758   0.230   3.270   5.458 -0.3306  0.5734 -0.1709
 5042SOL    HW126759   0.195   3.252   5.371  0.5529  2.4908 -0.9182
 5042SOL    HW226760   0.310   3.220   5.440 -0.9429 -0.3445 -0.3057
 5043SOL     OW26761   0.659   3.550   5.725  0.2799  0.0593  1.1446
 5043SOL    HW126762   0.700   3.466   5.707  0.1391  0.3996 -0.7232
 5043SOL    HW226763   0.574   3.536   5.684  0.7188 -4.7759  1.9652
 5044SOL     OW26764   0.650   4.023   1.290 -0.3754 -0.2633 -0.1833
 5044SOL    HW126765   0.677   4.000   1.201 -1.3785 -0.4053 -0.4528
 5044SOL    HW226766   0.733   4.045   1.332 -0.7268 -2.3008  1.5921
 5045SOL     OW26767   2.655   1.630   7.363 -0.2400 -0.5732  0.5015
 5045SOL    HW126768   2.699   1.622   7.448  1.0163  0.2796 -0.0671
 5045SOL    HW226769   2.721   1.685   7.320 -1.8734  1.3307  0.4532
 5046SOL     OW26770   1.013   0.173   4.751  0.2671 -0.0946 -0.3785
 5046SOL    HW126771   1.014   0.257   4.798  2.3766  0.1838 -0.9261
 5046SOL    HW226772   0.957   0.193   4.676  1.3212  1.8474 -0.6602
 5047SOL     OW26773   4.055   3.765  17.466  0.6159  0.0595  0.3139
 5047SOL    HW126774   3.980   3.813  17.501 -0.3463  1.9854 -4.3544
 5047SOL    HW226775   4.125   3.831  17.470  1.4879 -0.8012 -0.7735
 5048SOL     OW26776   2.914   1.812   3.225  0.3680 -0.0761 -0.2982
 5048SOL    HW126777   2.850   1.860   3.172  0.8685  0.8641 -0.0429
 5048SOL    HW226778   2.942   1.876   3.290 -1.1103 -0.7255  0.9847
 5049SOL     OW26779   0.577   3.211  10.073 -0.1495  0.0319  0.7917
 5049SOL    HW126780   0.614   3.300  10.078  0.2542 -0.0830 -0.1721
 5049SOL    HW226781   0.492   3.223  10.116  0.5886 -1.3280  2.6370
 5050SOL     OW26782   1.060   3.445  15.925 -0.6080 -0.0950  0.0071
 5050SOL    HW126783   1.022   3.358  15.937 -1.0480  0.2022  0.7452
 5050SOL    HW226784   1.023   3.455  15.837  0.6546  0.0975 -0.5125
 5051SOL     OW26785   0.987   0.080  14.199 -0.3741 -0.0149  0.5932
 5051SOL    HW126786   0.904   0.125  14.215 -1.8006 -1.7735 -1.8333
 5051SOL    HW226787   0.968   4.728  14.233 -0.3249  0.0617  0.8172
 5052SOL     OW26788   1.475   2.535   4.314  0.7634 -0.4822 -0.7717
 5052SOL    HW126789   1.495   2.444   4.295  0.7802 -0.6730  0.1631
 5052SOL    HW226790   1.562   2.568   4.334 -0.1226  1.5220 -0.2148
 5053SOL     OW26791   2.115   0.738   8.025  0.3653  0.1424  0.2265
 5053SOL    HW126792   2.110   0.709   8.117  0.9383  0.8021  0.4620
 5053SOL    HW226793   2.197   0.699   7.997  0.6702  0.8006  0.2073
 5054SOL     OW26794   0.673   4.420   9.303 -0.0844  0.6757 -0.1626
 5054SOL    HW126795   0.634   4.405   9.389 -0.7888  2.8116 -0.1072
 5054SOL    HW226796   0.735   4.489   9.323 -0.3804  0.4030  1.6516
 5055SOL     OW26797   2.268   1.482   2.128 -0.4290  0.1105 -0.1593
 5055SOL    HW126798   2.251   1.476   2.033 -1.6428 -0.8947  0.1186
 5055SOL    HW226799   2.180   1.472   2.164 -0.7157  1.8465 -0.3668
 5056SOL     OW26800   3.455   3.489   3.811 -0.0690 -0.2201  0.0022
 5056SOL    HW126801   3.437   3.518   3.721  0.8987  0.5356  0.0508
 5056SOL    HW226802   3.373   3.497   3.858 -1.0133 -1.6345 -1.3985
 5057SOL     OW26803   1.016   2.308   4.444 -0.3347  0.4582  0.1769
 5057SOL    HW126804   1.100   2.305   4.491 -0.4755  1.1646  0.4772
 5057SOL    HW226805   1.033   2.379   4.382  1.3506 -0.3638 -0.3261
 5058SOL     OW26806   4.624   0.272  14.350 -0.2389 -0.3693 -0.1677
 5058SOL    HW126807   4.683   0.203  14.380 -0.8839 -1.2716 -0.9864
 5058SOL    HW226808   4.684   0.313  14.287 -1.7537  0.8470 -0.8065
 5059SOL     OW26809   2.530   3.963   1.213 -0.0290  0.1833  0.2120
 5059SOL    HW126810   2.445   3.929   1.185  1.1489 -2.0640 -0.6858
 5059SOL    HW226811   2.512   3.983   1.305  1.3646 -0.7958  0.7118
 5060SOL     OW26812   4.690   2.070   6.395  0.2239 -0.6269  0.3204
 5060SOL    HW126813   4.696   2.091   6.302 -0.1700  0.6247  0.5848
 5060SOL    HW226814   4.609   2.019   6.402  0.2609 -0.4369  1.9662
 5061SOL     OW26815   3.222   3.085  16.132  0.5691  0.3696  0.3723
 5061SOL    HW126816   3.227   3.089  16.036  1.3718  0.1560  0.4023
 5061SOL    HW226817   3.282   3.156  16.156  0.5242  0.1816  1.0235
 5062SOL     OW26818   1.837   1.111   8.735  0.0666 -0.2960 -0.1773
 5062SOL    HW126819   1.813   1.028   8.694  0.5759 -1.0334  1.0269
 5062SOL    HW226820   1.931   1.106   8.754  0.2289  2.5488 -0.3103
 5063SOL     OW26821   1.285   3.982   5.009  0.3552  0.2060 -0.4779
 5063SOL    HW126822   1.271   4.037   5.087  2.4221  1.1079 -0.7328
 5063SOL    HW226823   1.301   4.047   4.941 -1.3877  1.2653  0.1164
 5064SOL     OW26824   1.071   3.105   8.929  0.0972 -0.6855  0.1396
 5064SOL    HW126825   1.009   3.169   8.894  0.6145  0.2107  0.8647
 5064SOL    HW226826   1.154   3.151   8.921 -0.4048  0.1457 -0.2193
 5065SOL     OW26827   1.547   2.641  10.080  0.4713 -0.5787  0.1915
 5065SOL    HW126828   1.640   2.642  10.104 -0.1227 -1.5486  2.5345
 5065SOL    HW226829   1.502   2.578  10.135 -0.9202 -0.4434 -0.8045
 5066SOL     OW26830   2.714   1.112   8.583  0.4098  0.5641 -0.0335
 5066SOL    HW126831   2.703   1.061   8.662  1.4677 -0.4515 -0.5466
 5066SOL    HW226832   2.804   1.141   8.599 -0.5882  2.9092  1.2234
 5067SOL     OW26833   1.292   0.955   9.836  0.1602 -0.1022 -0.4589
 5067SOL    HW126834   1.270   0.904   9.758 -2.4589 -0.2307  0.3547
 5067SOL    HW226835   1.330   0.897   9.902 -2.6925 -1.3261  0.1130
 5068SOL     OW26836   0.391   1.920   5.968 -0.1969 -0.5091 -0.3615
 5068SOL    HW126837   0.399   2.015   5.960  0.4825 -0.6383 -1.2419
 5068SOL    HW226838   0.296   1.908   5.969 -0.2507 -0.1395 -1.1356
 5069SOL     OW26839   2.517   1.547   8.004 -0.0406 -0.0865  0.7179
 5069SOL    HW126840   2.467   1.510   8.077 -0.5825  1.0072  0.8942
 5069SOL    HW226841   2.608   1.544   8.034  1.0899  0.1982 -2.7039
 5070SOL     OW26842   2.261   4.516  15.123  0.1726 -0.3600 -0.4051
 5070SOL    HW126843   2.220   4.548  15.043  0.1168 -1.9435 -1.0223
 5070SOL    HW226844   2.338   4.471  15.087  1.2268  1.5029 -0.4750
 5071SOL     OW26845   0.607   3.073   8.997 -0.3922 -0.2308 -0.2191
 5071SOL    HW126846   0.608   3.133   8.922 -5.0028  0.3039  0.1300
 5071SOL    HW226847   0.636   2.998   8.945 -0.1762 -0.0979 -0.2921
 5072SOL     OW26848   1.557   1.687   3.711  0.0202  0.2258  0.0648
 5072SOL    HW126849   1.472   1.722   3.736  0.1882  1.2144 -0.7605
 5072SOL    HW226850   1.617   1.757   3.736  0.2503  0.1617 -0.3129
 5073SOL     OW26851   2.255   0.393   6.144  0.1076 -0.3289 -0.4467
 5073SOL    HW126852   2.250   0.399   6.239  1.7785 -0.5866 -0.3507
 5073SOL    HW226853   2.313   0.466   6.124  1.0470 -0.4361  1.9382
 5074SOL     OW26854   1.206   4.020  10.044  0.0510  0.5934  0.4480
 5074SOL    HW126855   1.125   3.987  10.084  0.3369  0.7716  1.1709
 5074SOL    HW226856   1.247   3.936  10.023 -2.4555 -0.1704 -1.4707
 5075SOL     OW26857   4.000   2.588   0.221  0.1666  0.9648  0.0033
 5075SOL    HW126858   4.043   2.668   0.252  0.0327  1.2476 -0.5387
 5075SOL    HW226859   3.914   2.587   0.263  1.7848 -0.7066  3.2493
 5076SOL     OW26860   3.908   0.485  17.591 -0.3108 -0.2703  0.7109
 5076SOL    HW126861   4.004   0.481  17.591 -0.2682  0.7517 -2.0650
 5076SOL    HW226862   3.900   0.569  17.546  0.9885 -0.6567 -0.2681
 5077SOL     OW26863   4.648   0.167  12.368 -0.0296  0.0366 -0.0318
 5077SOL    HW126864   4.672   0.139  12.457 -1.1358  0.2072  0.3256
 5077SOL    HW226865   4.578   0.231  12.381  0.2406 -0.6887  5.3409
 5078SOL     OW26866   0.850   3.347   6.262  0.0524 -0.0438  0.5570
 5078SOL    HW126867   0.922   3.294   6.296 -0.0154  0.0666  0.8780
 5078SOL    HW226868   0.806   3.294   6.196  1.4333  1.0178 -1.2003
 5079SOL     OW26869   0.134   3.524   1.024  0.0367  0.6965 -0.1485
 5079SOL    HW126870   0.051   3.495   1.063  1.0523 -1.1420  0.6201
 5079SOL    HW226871   0.151   3.606   1.071  2.6566  0.3868 -0.5798
 5080SOL     OW26872   2.245   4.304  12.587  0.1754 -0.4261  0.4861
 5080SOL    HW126873   2.299   4.329  12.512  0.0788  0.7839  0.8148
 5080SOL    HW226874   2.304   4.319  12.662  1.8358  1.2704 -1.1652
 5081SOL     OW26875   3.699   3.619   5.827 -0.0997  0.4359  0.2982
 5081SOL    HW126876   3.737   3.703   5.800 -1.1220  0.8644  0.1984
 5081SOL    HW226877   3.744   3.608   5.911 -0.0212  3.9817  0.7249
 5082SOL     OW26878   1.327   4.327   4.541  0.0504  0.0280  0.4618
 5082SOL    HW126879   1.246   4.370   4.513  0.7072  0.1590 -1.2160
 5082SOL    HW226880   1.368   4.399   4.588  0.2406  0.2069  0.0129
 5083SOL     OW26881   2.177   4.674  10.332 -0.4811 -0.3756  0.1943
 5083SOL    HW126882   2.253   4.618  10.348 -1.1264 -1.2098  0.3405
 5083SOL    HW226883   2.194   0.014  10.387 -3.7803  0.6467 -0.1867
 5084SOL     OW26884   0.520   1.964   6.646  0.1167  0.1131  0.4022
 5084SOL    HW126885   0.436   1.946   6.688  1.2647  3.0841  3.9124
 5084SOL    HW226886   0.541   2.046   6.690  1.5497  0.8948 -1.7301
 5085SOL     OW26887   2.041   0.521   0.307 -0.0346 -0.0465  0.3496
 5085SOL    HW126888   2.074   0.590   0.249  0.1218 -1.3421 -1.0977
 5085SOL    HW226889   2.100   0.532   0.382  3.8047 -0.7579 -2.5568
 5086SOL     OW26890   4.586   2.865   5.201  0.3899 -0.2523 -0.2556
 5086SOL    HW126891   4.549   2.803   5.138 -0.2876 -0.2891  0.1727
 5086SOL    HW226892   4.510   2.905   5.243  0.0141  0.2063 -1.3542
 5087SOL     OW26893   2.956   2.184   2.529  0.5574  0.0390  0.1612
 5087SOL    HW126894   3.027   2.205   2.588  0.8959 -0.5163 -0.0467
 5087SOL    HW226895   2.995   2.196   2.442 -0.2715  1.4619 -0.0119
 5088SOL     OW26896   3.771   3.375   0.620  0.8217 -0.6105  0.3909
 5088SOL    HW126897   3.691   3.323   0.613  0.0500  0.8575 -1.7223
 5088SOL    HW226898   3.837   3.315   0.584  0.7872 -2.0457  2.7212
 5089SOL     OW26899   1.479   1.288   6.348 -0.5388 -0.0094  0.9268
 5089SOL    HW126900   1.409   1.350   6.363  0.2487  1.4538 -1.4378
 5089SOL    HW226901   1.544   1.332   6.293 -2.0678  1.0990  0.0328
 5090SOL     OW26902   0.254   3.028   8.660 -0.1153  0.2754  0.3979
 5090SOL    HW126903   0.173   3.029   8.608  1.5395 -0.7546 -2.1755
 5090SOL    HW226904   0.213   3.019   8.746  1.2861  1.0479  1.1578
 5091SOL     OW26905   4.017   1.140  13.281 -0.1791 -0.3928  0.2584
 5091SOL    HW126906   4.046   1.168  13.195  0.1894  0.4883  0.6685
 5091SOL    HW226907   4.041   1.048  13.272  0.5487 -0.2230  0.4436
 5092SOL     OW26908   2.112   0.626   1.727  0.2971  0.0088  0.5150
 5092SOL    HW126909   2.114   0.622   1.631  1.5851  2.2352  0.4299
 5092SOL    HW226910   2.184   0.566   1.745 -0.9579 -1.4324  0.7736
 5093SOL     OW26911   1.770   2.487   8.016  0.8187 -0.0955 -0.1354
 5093SOL    HW126912   1.703   2.418   8.017  0.6795  0.0338 -1.2503
 5093SOL    HW226913   1.750   2.538   8.095  1.9402 -1.6359  1.1368
 5094SOL     OW26914   4.334   2.703   2.872  0.0080  0.3445  0.4582
 5094SOL    HW126915   4.261   2.761   2.850 -1.1550 -0.7910  1.3257
 5094SOL    HW226916   4.301   2.618   2.843 -0.8643  0.9793 -0.4224
 5095SOL     OW26917   1.818   4.212   7.122  0.5733  0.2132 -0.5580
 5095SOL    HW126918   1.759   4.180   7.054  0.1823 -0.1686 -0.0359
 5095SOL    HW226919   1.840   4.133   7.171  0.9587 -0.2020 -1.3999
 5096SOL     OW26920   4.262   3.339   7.910 -0.3753  0.3657  0.4831
 5096SOL    HW126921   4.196   3.333   7.979  0.4565  0.9326  1.3181
 5096SOL    HW226922   4.312   3.417   7.930 -0.3613  0.8532 -1.4032
 5097SOL     OW26923   0.979   0.076   2.648 -0.5286 -0.8721 -0.4526
 5097SOL    HW126924   1.035   0.017   2.598  2.5026 -0.4989  2.4891
 5097SOL    HW226925   0.897   0.029   2.666 -0.8882 -0.5666 -1.3165
 5098SOL     OW26926   0.244   0.214   3.699  0.1687 -0.2034  0.0060
 5098SOL    HW126927   0.324   0.266   3.696 -0.2963  0.4940 -0.4165
 5098SOL    HW226928   0.240   0.201   3.794 -1.7510 -1.6460 -0.2690
 5099SOL     OW26929   0.319   1.532  10.989  0.0887  0.1841 -0.2721
 5099SOL    HW126930   0.326   1.461  11.054 -0.9074  0.5809  0.2754
 5099SOL    HW226931   0.387   1.501  10.929 -0.6441 -2.9721  0.5116
 5100SOL     OW26932   2.899   2.408   9.341 -0.1695  0.0786 -0.2994
 5100SOL    HW126933   2.969   2.343   9.351 -1.0985 -0.7650  0.7481
 5100SOL    HW226934   2.839   2.360   9.284 -0.5950 -1.4455  1.4290
 5101SOL     OW26935   2.883   1.556   6.805  0.0454  0.5894  0.3874
 5101SOL    HW126936   2.827   1.481   6.786 -1.1385  1.2026  1.5227
 5101SOL    HW226937   2.927   1.555   6.719 -1.2283  2.4417 -0.2957
 5102SOL     OW26938   2.882   0.838   4.090 -0.2087  0.8155  0.7034
 5102SOL    HW126939   2.868   0.833   4.185  3.1334  3.8077  1.3861
 5102SOL    HW226940   2.875   0.933   4.081 -0.2085  0.5874 -1.5507
 5103SOL     OW26941   3.063   1.472  16.781  0.4202 -0.1856  0.7195
 5103SOL    HW126942   3.025   1.560  16.779 -0.1912 -0.4699 -0.2354
 5103SOL    HW226943   3.158   1.486  16.775  0.2897  0.4046  0.0158
 5104SOL     OW26944   1.509   0.905  10.737  0.2274  0.1962  0.4454
 5104SOL    HW126945   1.467   0.963  10.801  0.2871  1.9455 -1.1067
 5104SOL    HW226946   1.489   0.822  10.780  2.4633 -0.9044 -0.6103
 5105SOL     OW26947   3.540   0.034   1.914  0.0608 -0.1010  0.3829
 5105SOL    HW126948   3.572   0.003   1.999  2.4645  1.1593 -0.0622
 5105SOL    HW226949   3.461   0.081   1.942  0.8211  0.7287  1.1489
 5106SOL     OW26950   2.983   2.915   5.276 -0.6660 -0.2038 -0.0893
 5106SOL    HW126951   3.045   2.883   5.210  1.2679  0.5436  1.3612
 5106SOL    HW226952   3.011   3.006   5.272 -1.6334  0.1784  1.9625
 5107SOL     OW26953   3.661   4.058  11.412 -0.9164  0.1779  0.2139
 5107SOL    HW126954   3.692   4.013  11.491  2.7922  2.1892 -0.1116
 5107SOL    HW226955   3.724   4.126  11.389  1.7022 -2.1265  0.5955
 5108SOL     OW26956   3.957   4.027   2.153  0.0182  0.4330 -0.0410
 5108SOL    HW126957   3.927   4.064   2.070 -0.7814 -0.0870  0.0143
 5108SOL    HW226958   3.920   4.090   2.215  0.9614 -1.1942  2.1915
 5109SOL     OW26959   3.502   0.447   9.553 -0.0327  0.4584 -0.1665
 5109SOL    HW126960   3.504   0.355   9.525 -0.5973  0.1849  0.7088
 5109SOL    HW226961   3.435   0.487   9.498  1.5580 -1.2753 -3.3670
 5110SOL     OW26962   1.130   2.904   4.455 -0.0829 -0.4279 -0.2340
 5110SOL    HW126963   1.156   2.892   4.364 -0.3340  0.9588 -0.4997
 5110SOL    HW226964   1.072   2.831   4.474  0.9719 -0.5661  2.3898
 5111SOL     OW26965   2.218   2.958   4.101 -0.4886  0.3032  0.2179
 5111SOL    HW126966   2.166   2.878   4.085 -1.5809  1.0271  0.1383
 5111SOL    HW226967   2.218   2.966   4.196  0.0768  0.5360  0.1930
 5112SOL     OW26968   3.054   2.256   7.825 -0.6964  0.1320 -0.1210
 5112SOL    HW126969   3.052   2.191   7.896 -0.4298  1.0854  0.7665
 5112SOL    HW226970   3.104   2.321   7.874 -1.0584 -0.0174  0.4580
 5113SOL     OW26971   2.298   3.879  17.093  0.5318  0.6670  0.3749
 5113SOL    HW126972   2.271   3.870  17.002  0.1728 -0.6022  0.5994
 5113SOL    HW226973   2.249   3.957  17.117  0.0052  0.9775 -1.7131
 5114SOL     OW26974   2.907   3.128  14.483 -0.0733 -0.5269 -0.0678
 5114SOL    HW126975   2.846   3.062  14.516 -0.1061 -0.5952 -0.2664
 5114SOL    HW226976   2.881   3.123  14.391 -1.3190  0.9997  0.2009
 5115SOL     OW26977   3.227   2.030  16.343 -0.5462 -0.2240  0.1284
 5115SOL    HW126978   3.132   2.021  16.344 -0.4623 -1.0190  1.2709
 5115SOL    HW226979   3.239   1.957  16.283  1.3278 -0.6444  1.0265
 5116SOL     OW26980   1.688   3.694  11.182 -0.5272  0.6458 -1.1162
 5116SOL    HW126981   1.633   3.734  11.114  0.1883  1.3639 -1.2675
 5116SOL    HW226982   1.775   3.714  11.146  1.7992 -3.6773  2.1221
 5117SOL     OW26983   0.070   4.577  16.189  0.3542 -0.0450  0.5017
 5117SOL    HW126984   4.734   4.639  16.198 -1.5709 -2.1696 -0.5046
 5117SOL    HW226985   0.018   4.504  16.221 -0.0994  1.3238  2.8622
 5118SOL     OW26986   1.786   0.831   0.391 -0.6522 -0.4931  0.3229
 5118SOL    HW126987   1.703   0.864   0.427 -0.5851  0.9540 -0.8883
 5118SOL    HW226988   1.768   0.740   0.368 -0.0899 -1.5805  4.0576
 5119SOL     OW26989   3.050   4.362   6.990  0.2353 -0.4525  0.0897
 5119SOL    HW126990   2.959   4.357   7.019  0.7118  3.2178  2.2798
 5119SOL    HW226991   3.063   4.343   6.897  0.4222 -3.0208  0.6614
 5120SOL     OW26992   1.749   3.900   5.107  0.7318  0.3088  0.5250
 5120SOL    HW126993   1.744   3.962   5.180 -1.7848  2.2091 -1.2823
 5120SOL    HW226994   1.659   3.875   5.086  0.9606 -1.4346  1.5991
 5121SOL     OW26995   4.170   1.347   7.945  0.3678  0.4532  0.1898
 5121SOL    HW126996   4.168   1.323   8.038  0.0628  1.6081  0.4824
 5121SOL    HW226997   4.132   1.273   7.899 -1.6445  3.0387 -2.3395
 5122SOL     OW26998   0.774   1.597   2.527  0.1773 -0.0097  0.7675
 5122SOL    HW126999   0.844   1.592   2.592 -1.3765 -0.2240  2.4269
 5122SOL    HW227000   0.825   1.616   2.449 -0.5359  0.0338  0.3113
 5123SOL     OW27001   2.827   0.065   7.839  0.0147  0.2291 -0.4871
 5123SOL    HW127002   2.771   0.058   7.916 -1.1461  3.6257 -1.0301
 5123SOL    HW227003   2.875   0.148   7.848 -2.5831  1.9609 -2.6155
 5124SOL     OW27004   3.868   3.352   7.045  0.4956 -0.3186 -0.2374
 5124SOL    HW127005   3.956   3.362   7.081 -0.4155  1.2661  1.4833
 5124SOL    HW227006   3.851   3.264   7.081 -1.2693  1.0121  2.1516
 5125SOL     OW27007   4.357   3.592  14.102 -0.3219  0.0594 -0.1634
 5125SOL    HW127008   4.450   3.568  14.111 -0.1844  0.7111  0.1388
 5125SOL    HW227009   4.350   3.647  14.180  2.3448 -1.6276  1.2474
 5126SOL     OW27010   1.570   2.955  10.129 -0.2289  0.2294 -0.8580
 5126SOL    HW127011   1.619   2.894  10.185  1.1918  1.1595 -1.0822
 5126SOL    HW227012   1.518   3.002  10.194 -0.1579 -1.2324  0.2666
 5127SOL     OW27013   2.034   3.332   6.903 -0.1287  0.3461  0.1535
 5127SOL    HW127014   2.125   3.361   6.908 -0.3973  1.4053 -1.1143
 5127SOL    HW227015   1.988   3.416   6.908  0.2280  0.5453  0.0866
 5128SOL     OW27016   2.476   4.188   0.073 -0.1324  0.1185 -0.1778
 5128SOL    HW127017   2.503   4.241   0.148 -1.6743  0.7241 -0.0554
 5128SOL    HW227018   2.398   4.155   0.117  0.4758 -1.7933 -0.5640
 5129SOL     OW27019   3.059   4.170   8.460 -0.1922  0.0473  0.6089
 5129SOL    HW127020   3.030   4.227   8.389  1.4509  1.1209  0.7918
 5129SOL    HW227021   3.025   4.220   8.534 -0.2184 -0.3737  0.8829
 5130SOL     OW27022   2.387   3.283   7.374  0.4993 -0.4028  0.1951
 5130SOL    HW127023   2.331   3.349   7.414  1.3806  0.5304 -0.1034
 5130SOL    HW227024   2.468   3.334   7.378 -0.0133  0.3696  0.6431
 5131SOL     OW27025   2.650   3.817   4.259 -0.2455  0.9414 -0.3354
 5131SOL    HW127026   2.647   3.765   4.339  1.7433 -0.8465 -1.4072
 5131SOL    HW227027   2.560   3.814   4.226 -0.5158  0.5886  0.4489
 5132SOL     OW27028   3.897   4.069   3.128 -0.6911  0.3351  0.3005
 5132SOL    HW127029   3.819   4.020   3.155 -0.3639 -0.3122  0.0702
 5132SOL    HW227030   3.964   4.005   3.154 -0.4750  0.1193 -0.7935
 5133SOL     OW27031   4.140   0.426   5.010 -0.0203 -0.1432 -0.2966
 5133SOL    HW127032   4.233   0.407   5.012 -0.2089 -1.0391 -0.2280
 5133SOL    HW227033   4.141   0.512   4.968  2.0469 -0.6063 -1.1608
 5134SOL     OW27034   2.217   4.486   5.870  0.4426  0.3495 -0.0339
 5134SOL    HW127035   2.154   4.552   5.899  1.7364  1.7191 -0.3381
 5134SOL    HW227036   2.255   4.543   5.802  2.4286 -0.3371  0.5042
 5135SOL     OW27037   4.563   2.314   1.890  0.1829 -0.0064 -0.4340
 5135SOL    HW127038   4.494   2.248   1.895  0.5484 -0.2655  1.2174
 5135SOL    HW227039   4.645   2.266   1.875 -0.6182 -1.3336 -0.5052
 5136SOL     OW27040   0.763   1.305   2.313 -0.4790  0.4391 -0.3876
 5136SOL    HW127041   0.749   1.340   2.225  0.6863  3.2191  0.5653
 5136SOL    HW227042   0.682   1.270   2.351  1.0269 -0.9468  1.4966
 5137SOL     OW27043   1.715   4.090   3.728  0.2847  0.0106  0.4347
 5137SOL    HW127044   1.802   4.090   3.690  0.3586 -2.4641  0.6305
 5137SOL    HW227045   1.685   4.003   3.701  0.2169 -0.4399  1.9279
 5138SOL     OW27046   1.445   0.156  10.493 -0.2886 -0.1141  0.5050
 5138SOL    HW127047   1.488   0.241  10.504 -1.6810  0.8403 -1.4615
 5138SOL    HW227048   1.503   0.099  10.544  2.3558  0.0143 -2.3941
 5139SOL     OW27049   3.346   3.203   2.950 -0.8292  0.2548  0.0578
 5139SOL    HW127050   3.402   3.156   3.012 -1.8440  0.1893  0.9318
 5139SOL    HW227051   3.297   3.140   2.898 -2.6649  1.8207 -0.0945
 5140SOL     OW27052   0.360   2.417   9.605  0.3525 -0.3333 -0.2239
 5140SOL    HW127053   0.339   2.359   9.679 -0.5335 -1.1313 -1.0865
 5140SOL    HW227054   0.348   2.353   9.534  0.8833  0.2640 -0.8475
 5141SOL     OW27055   0.706   0.156  16.462 -0.4814  0.2130 -0.2164
 5141SOL    HW127056   0.620   0.178  16.498  0.0425  2.7513 -0.5474
 5141SOL    HW227057   0.750   0.238  16.484  1.4268 -1.5563  2.4819
 5142SOL     OW27058   2.665   4.233   9.217  0.4031  0.2143  0.3208
 5142SOL    HW127059   2.580   4.225   9.261  1.2711 -1.3049  1.7594
 5142SOL    HW227060   2.654   4.316   9.171  0.4330  0.6577  1.1140
 5143SOL     OW27061   1.217   0.041  10.561  0.3967  0.0932  0.0454
 5143SOL    HW127062   1.303   0.080  10.553  0.4988 -0.1340  0.0304
 5143SOL    HW227063   1.159   0.117  10.554 -0.9115 -0.8604  0.4477
 5144SOL     OW27064   3.664   1.598  12.856  0.4231  0.2116  0.1142
 5144SOL    HW127065   3.741   1.656  12.854  1.0394 -0.6031  0.0790
 5144SOL    HW227066   3.702   1.524  12.903 -1.6558 -0.5745  0.5471
 5145SOL     OW27067   0.566   1.554   8.778 -0.2405  0.0237  0.0744
 5145SOL    HW127068   0.658   1.529   8.769 -0.8252 -3.3706  3.2074
 5145SOL    HW227069   0.571   1.639   8.734 -0.5898 -0.2714 -0.5382
 5146SOL     OW27070   0.800   0.707  14.963  0.4369  0.3589  0.1563
 5146SOL    HW127071   0.732   0.715  15.029 -0.1148  0.8104 -0.4698
 5146SOL    HW227072   0.776   0.769  14.893  2.9438  1.1550 -0.0350
 5147SOL     OW27073   2.474   2.963   8.766 -0.9715  0.0588  0.3658
 5147SOL    HW127074   2.530   2.886   8.764 -0.0349  0.7526  0.3032
 5147SOL    HW227075   2.435   2.961   8.853 -0.6654  1.2370  0.5229
 5148SOL     OW27076   1.044   2.804   5.646  0.1536  0.7653 -0.0428
 5148SOL    HW127077   1.092   2.733   5.603 -0.3815  1.9156 -2.5436
 5148SOL    HW227078   1.099   2.817   5.723 -1.4002 -0.0150  1.1993
 5149SOL     OW27079   0.757   2.630   9.257 -0.1742  0.0542 -0.2254
 5149SOL    HW127080   0.810   2.562   9.298  0.5680  0.2205 -0.9111
 5149SOL    HW227081   0.672   2.617   9.298  0.5177 -2.7788  0.2796
 5150SOL     OW27082   4.050   0.008  12.794 -0.1361  0.3429  0.0454
 5150SOL    HW127083   4.089   4.665  12.832 -2.1459 -0.6724 -0.0090
 5150SOL    HW227084   4.122   0.030  12.734 -0.1113 -1.3901 -0.5675
 5151SOL     OW27085   3.164   2.396   9.174  0.5088  0.3445  0.5229
 5151SOL    HW127086   3.176   2.372   9.266  1.7107  1.3633  0.6336
 5151SOL    HW227087   3.245   2.356   9.141  0.2692 -1.2179  1.8052
 5152SOL     OW27088   1.702   0.206   2.618  0.4043  0.3332 -0.1689
 5152SOL    HW127089   1.680   0.290   2.659 -1.0371 -1.8499  3.5899
 5152SOL    HW227090   1.658   0.208   2.533 -0.6581  0.1247  0.3686
 5153SOL     OW27091   1.635   1.441   1.761  0.2306  0.0166  0.3548
 5153SOL    HW127092   1.629   1.347   1.750 -1.2412  0.1567 -0.1502
 5153SOL    HW227093   1.561   1.454   1.821  1.4446 -0.3733  1.9472
 5154SOL     OW27094   3.240   2.370   1.780 -0.2240  0.6105 -0.3729
 5154SOL    HW127095   3.314   2.365   1.721  0.5239  3.8093  0.3134
 5154SOL    HW227096   3.212   2.279   1.764  2.9649 -0.3806 -0.2269
 5155SOL     OW27097   1.588   3.749   3.254 -0.3118  0.5099 -0.2118
 5155SOL    HW127098   1.554   3.836   3.234 -2.1134  0.3409  2.1138
 5155SOL    HW227099   1.636   3.733   3.173  0.5046  0.9481  0.1891
 5156SOL     OW27100   0.624   3.892  10.230 -0.1556  0.9630 -0.3827
 5156SOL    HW127101   0.707   3.931  10.203 -0.3202  0.4839 -1.5745
 5156SOL    HW227102   0.564   3.937  10.170 -0.3822 -0.5823 -1.3137
 5157SOL     OW27103   1.450   2.510   3.695 -0.1085  0.4403  0.0919
 5157SOL    HW127104   1.370   2.497   3.645 -0.0179 -0.9217  0.3022
 5157SOL    HW227105   1.474   2.602   3.681 -3.1232  1.2216 -0.0496
 5158SOL     OW27106   1.376   4.257  10.036 -0.4439 -0.3176 -0.5447
 5158SOL    HW127107   1.309   4.189  10.045 -1.4136  0.5733 -0.9647
 5158SOL    HW227108   1.346   4.304  10.114 -0.9306 -1.4916 -0.0307
 5159SOL     OW27109   1.394   1.821   9.966  0.4756  0.0220 -0.5329
 5159SOL    HW127110   1.475   1.868   9.947  0.8522 -0.7354 -0.8258
 5159SOL    HW227111   1.362   1.863  10.046  0.9783 -0.0929 -0.2666
 5160SOL     OW27112   3.289   4.462   2.736  0.0469 -0.8351 -0.3169
 5160SOL    HW127113   3.377   4.428   2.717  1.2036  2.0769 -0.1606
 5160SOL    HW227114   3.309   4.556   2.742 -4.2031  0.0909 -0.7700
 5161SOL     OW27115   3.113   1.402   3.532 -0.0843 -0.0837 -0.1689
 5161SOL    HW127116   3.134   1.337   3.464  3.4104  0.7596  0.1203
 5161SOL    HW227117   3.158   1.479   3.498  2.0018 -1.2749 -0.0909
 5162SOL     OW27118   2.389   1.257  10.864  0.2995  0.1251  0.3881
 5162SOL    HW127119   2.394   1.225  10.774 -1.9840  2.0636 -0.4260
 5162SOL    HW227120   2.410   1.179  10.915  1.8733 -0.2940 -0.8880
 5163SOL     OW27121   0.730   0.812   1.993  0.5223  0.5636 -0.5470
 5163SOL    HW127122   0.688   0.816   2.079 -1.2972  0.5339 -1.4343
 5163SOL    HW227123   0.760   0.721   1.998 -0.8028 -0.0056 -2.6610
 5164SOL     OW27124   0.902   2.276   0.453  0.3596 -0.1231 -0.1577
 5164SOL    HW127125   0.848   2.312   0.524  1.8673  0.1937  0.8489
 5164SOL    HW227126   0.955   2.206   0.491 -0.8127 -1.0459 -0.2204
 5165SOL     OW27127   4.499   1.456   3.658  0.5209  0.3731 -0.4000
 5165SOL    HW127128   4.552   1.437   3.735 -0.9660 -1.4312  0.2024
 5165SOL    HW227129   4.460   1.374   3.626  2.0759 -0.4088 -0.2789
 5166SOL     OW27130   2.001   3.595  16.889  0.2001 -0.2633  0.1168
 5166SOL    HW127131   1.921   3.616  16.937  0.0144 -4.3672  1.6295
 5166SOL    HW227132   2.061   3.583  16.963  0.8523 -0.6176 -0.4735
 5167SOL     OW27133   1.087   0.513   5.362 -0.3162 -0.4581 -0.6754
 5167SOL    HW127134   1.106   0.602   5.390 -1.0831 -0.7568  0.7658
 5167SOL    HW227135   1.055   0.466   5.438 -0.2409 -2.4920 -1.9030
 5168SOL     OW27136   0.959   0.733   9.700  0.0060  0.1719 -0.2154
 5168SOL    HW127137   0.964   0.794   9.773 -1.3104  2.2300 -1.8589
 5168SOL    HW227138   1.049   0.702   9.697  0.3571  1.3120 -1.5377
 5169SOL     OW27139   4.440   0.238   5.958 -0.4458  0.3767  0.0974
 5169SOL    HW127140   4.445   0.320   5.909 -1.0907  1.1632  1.3481
 5169SOL    HW227141   4.353   0.213   5.927  1.1668  1.5615 -5.4081
 5170SOL     OW27142   0.858   1.875   5.804  0.3459 -0.0435 -0.1707
 5170SOL    HW127143   0.928   1.926   5.764 -1.3678  2.9634  0.6164
 5170SOL    HW227144   0.784   1.925   5.769  0.7665  0.5377 -0.2321
 5171SOL     OW27145   1.264   1.321   7.511  0.1485 -0.1360 -0.4446
 5171SOL    HW127146   1.214   1.378   7.568  1.7024  1.5713 -0.7957
 5171SOL    HW227147   1.193   1.278   7.463  2.9422 -0.6477 -4.2038
 5172SOL     OW27148   0.184   4.335   3.983  0.0180  0.3467  0.5468
 5172SOL    HW127149   0.096   4.361   3.958 -0.3044 -1.3622 -0.1010
 5172SOL    HW227150   0.168   4.300   4.071  1.4475 -1.5946  0.0365
 5173SOL     OW27151   0.778   0.926  14.792 -0.2862  0.8558  0.3178
 5173SOL    HW127152   0.858   0.936  14.740 -0.0898 -0.0201  0.4607
 5173SOL    HW227153   0.725   0.999  14.760  0.0627  0.9642 -0.0141
 5174SOL     OW27154   1.803   3.670   0.114 -0.0164 -0.1075  0.1061
 5174SOL    HW127155   1.864   3.630   0.053  0.9973 -0.4269  1.3380
 5174SOL    HW227156   1.816   3.764   0.100  1.1927 -0.3888 -0.6125
 5175SOL     OW27157   0.719   1.922   2.642 -0.3052  0.4583 -0.2135
 5175SOL    HW127158   0.746   1.860   2.574 -0.9085 -1.4834  1.3096
 5175SOL    HW227159   0.691   1.997   2.588 -5.1210 -1.5364 -0.4697
 5176SOL     OW27160   3.454   3.836   6.051  0.4506 -0.1061 -0.7670
 5176SOL    HW127161   3.443   3.742   6.034 -0.4273 -0.1581  0.0786
 5176SOL    HW227162   3.526   3.830   6.114  1.9265 -0.0520 -2.4564
 5177SOL     OW27163   3.252   3.373   4.484  0.2371 -0.2284 -0.2000
 5177SOL    HW127164   3.211   3.453   4.451  0.7933  0.1844  0.1114
 5177SOL    HW227165   3.169   3.334   4.511 -0.3918 -0.0458 -1.8493
 5178SOL     OW27166   2.646   1.385   2.904  0.6045 -0.3796  0.2323
 5178SOL    HW127167   2.692   1.454   2.952  3.2544 -1.7270 -0.3599
 5178SOL    HW227168   2.575   1.438   2.868  1.0544 -1.7855 -2.7783
 5179SOL     OW27169   0.181   2.139   1.647  0.8672 -0.2330  0.0501
 5179SOL    HW127170   0.098   2.106   1.680 -1.0390  1.0161 -3.5708
 5179SOL    HW227171   0.155   2.188   1.569  0.3640 -0.7898 -0.1309
 5180SOL     OW27172   4.125   3.724  14.846 -0.4294 -0.0176 -0.2703
 5180SOL    HW127173   4.081   3.748  14.927  1.0204  0.6950  0.3052
 5180SOL    HW227174   4.138   3.811  14.808  2.0325 -0.5094 -0.5521
 5181SOL     OW27175   0.281   2.743   3.579  0.4903 -0.0483  0.0826
 5181SOL    HW127176   0.205   2.687   3.562  0.2406 -0.3246  2.1406
 5181SOL    HW227177   0.239   2.814   3.627  1.2080  1.1176 -1.0196
 5182SOL     OW27178   2.625   0.320   5.090  0.8850 -0.5794  0.1871
 5182SOL    HW127179   2.569   0.349   5.018  1.8280  1.2781  0.1843
 5182SOL    HW227180   2.635   0.401   5.141  0.8690 -0.1435 -0.5031
 5183SOL     OW27181   3.216   2.066   5.509  0.0361  0.4301  0.7326
 5183SOL    HW127182   3.198   2.089   5.600 -1.1878 -4.5800  1.7962
 5183SOL    HW227183   3.275   1.992   5.523 -2.1335 -0.9496  2.8131
 5184SOL     OW27184   0.186   3.250   1.977  0.1492 -0.3698  0.0500
 5184SOL    HW127185   0.116   3.232   1.914 -0.0127  1.2077 -0.2052
 5184SOL    HW227186   0.163   3.191   2.049 -1.0260 -0.9756 -0.8114
 5185SOL     OW27187   3.729   3.812  14.345 -0.3846  0.6507  0.2937
 5185SOL    HW127188   3.638   3.814  14.316 -0.7497 -1.9782  1.2732
 5185SOL    HW227189   3.743   3.905  14.364 -1.7543  0.9351 -0.1043
 5186SOL     OW27190   0.950   4.534  12.442 -0.6750  0.0817  0.0062
 5186SOL    HW127191   0.916   4.580  12.365 -2.1158 -0.4886  0.3028
 5186SOL    HW227192   0.951   4.446  12.405 -2.2757 -1.1435  2.8628
 5187SOL     OW27193   3.850   2.774   5.685  0.1181 -0.4378 -0.2638
 5187SOL    HW127194   3.844   2.861   5.725 -0.9356  0.2039 -1.8264
 5187SOL    HW227195   3.943   2.762   5.667  0.2203 -2.5787  1.5539
 5188SOL     OW27196   1.899   4.176   7.580 -0.1731 -0.4370  0.1138
 5188SOL    HW127197   1.901   4.181   7.484  2.6355 -0.2119  0.2059
 5188SOL    HW227198   1.847   4.255   7.596 -0.0661  0.0451 -1.9121
 5189SOL     OW27199   1.662   3.296  12.552  1.0662  0.0935 -0.5804
 5189SOL    HW127200   1.598   3.355  12.592  0.3617 -1.3550  0.3915
 5189SOL    HW227201   1.613   3.214  12.549 -0.2416  0.8319  1.1351
 5190SOL     OW27202   3.832   1.440   6.293 -0.0176  0.1244  0.2311
 5190SOL    HW127203   3.777   1.504   6.338 -0.8780  0.2563 -1.0243
 5190SOL    HW227204   3.912   1.444   6.346 -0.8996 -0.7106  1.6063
 5191SOL     OW27205   1.820   0.568   4.613 -0.0373 -0.4201 -0.5511
 5191SOL    HW127206   1.851   0.559   4.523  0.7657 -2.3359 -0.0797
 5191SOL    HW227207   1.733   0.605   4.594  0.4152  1.5489  1.2060
 5192SOL     OW27208   3.582   3.278   6.725 -0.1807  0.6784 -0.1505
 5192SOL    HW127209   3.637   3.340   6.773  0.2138  0.0011  0.2706
 5192SOL    HW227210   3.632   3.266   6.644 -0.4139  0.6084 -0.2823
 5193SOL     OW27211   4.727   4.568  15.814 -0.1962 -0.0890 -0.6717
 5193SOL    HW127212   0.070   4.523  15.842 -0.1844 -0.5194 -1.4010
 5193SOL    HW227213   4.654   4.526  15.861 -0.2809  1.0857  0.2408
 5194SOL     OW27214   0.393   2.759   3.878  0.3764  0.2905  0.1803
 5194SOL    HW127215   0.341   2.706   3.817  1.8950  1.4804 -2.1678
 5194SOL    HW227216   0.413   2.699   3.950 -1.1340 -3.1736 -2.3008
 5195SOL     OW27217   1.928   0.786   8.895 -0.3560 -0.7430 -0.0426
 5195SOL    HW127218   1.954   0.859   8.950 -0.8228 -0.2581 -0.4640
 5195SOL    HW227219   2.006   0.777   8.840 -0.4544  0.5165 -0.3793
 5196SOL     OW27220   4.494   1.541   5.215 -1.1821  0.2724  0.2607
 5196SOL    HW127221   4.580   1.523   5.176 -1.5053  0.0448 -0.3368
 5196SOL    HW227222   4.448   1.542   5.132  1.5017  1.3319 -1.2102
 5197SOL     OW27223   4.649   0.035  13.854  0.7773 -0.5057  0.2236
 5197SOL    HW127224   4.717   0.005  13.914 -0.8726  0.7443  2.7189
 5197SOL    HW227225   4.626   0.118  13.895  1.4381 -1.3121  2.2447
 5198SOL     OW27226   0.347   1.079   4.402 -0.1652 -0.2956 -0.0917
 5198SOL    HW127227   0.414   1.138   4.437  0.4502 -1.4070  0.6200
 5198SOL    HW227228   0.328   1.033   4.483 -0.2558  2.6411  1.5516
 5199SOL     OW27229   1.092   1.446  11.624  0.2000 -0.1066  0.8003
 5199SOL    HW127230   1.001   1.455  11.595  0.5984  0.3286 -0.3011
 5199SOL    HW227231   1.143   1.468  11.546 -0.2689  2.9331  1.3624
 5200SOL     OW27232   4.721   1.614   8.836  0.1784  0.1524  0.2545
 5200SOL    HW127233   4.678   1.580   8.914  1.1051 -2.6714 -0.4916
 5200SOL    HW227234   4.696   1.707   8.839 -0.9558 -0.1958  1.4118
 5201SOL     OW27235   1.704   3.503   1.796 -0.2211  0.1567 -0.1344
 5201SOL    HW127236   1.755   3.470   1.870  1.5951  0.2488 -1.3481
 5201SOL    HW227237   1.758   3.582   1.788 -2.0159  1.3346 -0.6634
 5202SOL     OW27238   3.067   2.805   8.890  0.2229  0.0623 -0.1223
 5202SOL    HW127239   3.057   2.727   8.943  0.5313 -1.2149 -1.9227
 5202SOL    HW227240   3.000   2.865   8.922  1.5989  1.1458  0.7507
 5203SOL     OW27241   1.609   0.093  13.603  0.0179 -0.1979  0.0102
 5203SOL    HW127242   1.528   0.065  13.646  0.6196 -0.5962  0.8750
 5203SOL    HW227243   1.586   0.168  13.548  2.7058  2.0857  2.0023
 5204SOL     OW27244   2.288   0.085  12.912  0.2000 -0.3131 -0.0848
 5204SOL    HW127245   2.326   0.160  12.957 -1.2269 -1.2359  2.5951
 5204SOL    HW227246   2.220   0.062  12.975  1.3711 -1.2413  0.8506
 5205SOL     OW27247   2.890   1.584   6.022 -0.0858 -0.4093 -0.2163
 5205SOL    HW127248   2.848   1.556   5.941 -1.9019 -0.4196  0.7313
 5205SOL    HW227249   2.821   1.568   6.087  0.6808 -1.4007  0.3486
 5206SOL     OW27250   3.499   3.073   4.125 -0.2925 -0.5021 -0.1578
 5206SOL    HW127251   3.536   3.123   4.197 -0.2099  0.4863 -0.8841
 5206SOL    HW227252   3.491   3.149   4.067  0.1399  0.2557  0.7913
 5207SOL     OW27253   1.228   1.267   7.829 -0.9176  0.1079 -0.1485
 5207SOL    HW127254   1.142   1.234   7.806 -1.5412  2.4747 -1.2645
 5207SOL    HW227255   1.220   1.329   7.902 -0.6628  0.5400 -0.4832
 5208SOL     OW27256   3.826   2.616   3.784 -0.0260 -0.6668 -0.6664
 5208SOL    HW127257   3.796   2.571   3.705 -0.4154  2.7792 -2.5016
 5208SOL    HW227258   3.905   2.664   3.759 -1.6544  2.1505 -0.4334
 5209SOL     OW27259   0.712   1.430   2.075  0.2145 -0.0173  0.1750
 5209SOL    HW127260   0.649   1.501   2.059  0.2456 -0.4996 -2.0655
 5209SOL    HW227261   0.712   1.388   1.989 -0.5817  2.9437 -1.3090
 5210SOL     OW27262   1.806   0.866   7.462  0.0755  0.5130 -0.3256
 5210SOL    HW127263   1.744   0.924   7.418  0.9548  1.5033 -0.2637
 5210SOL    HW227264   1.889   0.865   7.414  0.9617 -1.9551  1.2590
 5211SOL     OW27265   0.943   4.027   2.475 -0.1364  0.0870 -0.1339
 5211SOL    HW127266   1.028   4.052   2.437 -0.9468 -0.7470 -2.5391
 5211SOL    HW227267   0.964   4.055   2.564 -1.2311 -1.3330  0.5629
 5212SOL     OW27268   3.822   3.055   5.745  0.0152 -0.2296  0.2395
 5212SOL    HW127269   3.744   3.105   5.719  0.2023  0.4458  0.9444
 5212SOL    HW227270   3.871   3.130   5.780 -0.8647 -0.0657  1.1341
 5213SOL     OW27271   2.169   2.184   8.666 -0.9313  0.2306  0.2750
 5213SOL    HW127272   2.093   2.202   8.611 -1.4714 -2.7600  0.0468
 5213SOL    HW227273   2.236   2.194   8.598 -2.2343  2.0999 -0.7417
 5214SOL     OW27274   0.634   3.954   4.585 -0.4912  0.4652  0.3517
 5214SOL    HW127275   0.642   3.976   4.492  0.1107 -0.0746  0.2791
 5214SOL    HW227276   0.722   3.975   4.616  0.0226 -1.1336 -0.0932
 5215SOL     OW27277   2.408   0.122   2.156  0.4252  0.5029 -0.1102
 5215SOL    HW127278   2.402   0.217   2.164 -2.8877  0.1791  1.4734
 5215SOL    HW227279   2.361   0.098   2.076  1.7916  1.1867 -1.1151
 5216SOL     OW27280   0.101   1.000   2.645 -0.5682  0.0516 -0.2535
 5216SOL    HW127281   0.021   1.017   2.695 -1.1142  0.0328 -1.1154
 5216SOL    HW227282   0.092   0.906   2.628 -0.2770  0.0165 -0.2127
 5217SOL     OW27283   0.858   2.395   6.168  0.2347 -0.2730 -0.5175
 5217SOL    HW127284   0.849   2.490   6.179 -0.8540 -0.2495 -1.6126
 5217SOL    HW227285   0.945   2.384   6.205 -0.7873 -0.4175  1.9263
 5218SOL     OW27286   2.274   3.909   3.555 -0.6300  0.2945 -0.1410
 5218SOL    HW127287   2.246   3.860   3.478  1.4701 -0.5022 -0.4074
 5218SOL    HW227288   2.210   3.874   3.617  1.1155  0.8344  1.9766
 5219SOL     OW27289   1.939   4.467   3.799  0.6385 -0.3550 -0.0379
 5219SOL    HW127290   1.930   4.382   3.842 -0.0241  0.1343  0.7862
 5219SOL    HW227291   1.848   4.499   3.805 -0.2029 -2.9806  1.0162
 5220SOL     OW27292   4.671   2.453  15.138  0.2125  0.8199  0.2666
 5220SOL    HW127293   4.577   2.435  15.132  0.3389 -0.8954  3.3706
 5220SOL    HW227294   4.685   2.446  15.044  0.0336 -1.5779  0.4123
 5221SOL     OW27295   1.911   2.327   2.033  0.0600 -0.0134  0.3339
 5221SOL    HW127296   1.965   2.331   1.954  0.5365  1.4795  0.7408
 5221SOL    HW227297   1.861   2.250   2.005 -0.3894 -0.0545  1.2395
 5222SOL     OW27298   0.088   2.055   0.019  0.0943  0.4132 -0.0291
 5222SOL    HW127299   0.087   2.001   0.098 -2.7611 -1.6153 -1.4861
 5222SOL    HW227300   0.083   2.144   0.054 -1.0975 -0.2548  1.5065
 5223SOL     OW27301   2.815   1.446   5.464 -0.4197  0.1054  0.3804
 5223SOL    HW127302   2.824   1.417   5.373  1.5885  1.2609  0.1995
 5223SOL    HW227303   2.807   1.541   5.457  0.4468  0.1837  0.4287
 5224SOL     OW27304   4.701   0.655   4.434  0.1365 -0.2247  0.2784
 5224SOL    HW127305   4.627   0.715   4.440  0.7087  0.3331  1.8287
 5224SOL    HW227306   0.032   0.715   4.468 -0.1138 -1.2651  2.6316
 5225SOL     OW27307   2.268   2.431  11.556 -0.4665  0.0465 -0.2318
 5225SOL    HW127308   2.194   2.404  11.502 -0.0773 -0.7016 -0.3825
 5225SOL    HW227309   2.304   2.499  11.500 -0.9916 -0.2684 -0.9604
 5226SOL     OW27310   1.568   3.330  15.618 -0.2459 -0.2387 -0.5292
 5226SOL    HW127311   1.532   3.272  15.685 -1.2391  1.1237  0.1221
 5226SOL    HW227312   1.541   3.419  15.639  2.5638  1.2282 -3.1181
 5227SOL     OW27313   2.784   3.186   2.538 -0.2269 -0.4306  0.3313
 5227SOL    HW127314   2.748   3.102   2.512  0.6319 -0.6407 -0.1768
 5227SOL    HW227315   2.755   3.184   2.629 -1.9752 -1.6723 -0.2588
 5228SOL     OW27316   2.388   4.137   4.106  0.1733 -0.1599 -0.2677
 5228SOL    HW127317   2.448   4.083   4.157  1.2649 -0.2429 -1.6499
 5228SOL    HW227318   2.450   4.158   4.036  0.9590  0.7105  0.6774
 5229SOL     OW27319   3.380   2.079  16.558  0.2333  0.1983  0.3568
 5229SOL    HW127320   3.440   2.146  16.526 -0.4915 -0.8612 -3.1855
 5229SOL    HW227321   3.340   2.051  16.476  2.1747  0.1322 -0.5632
 5230SOL     OW27322   2.000   0.624   8.533  0.1688 -0.1170 -0.0714
 5230SOL    HW127323   1.935   0.679   8.488  2.6611  1.2382 -1.9889
 5230SOL    HW227324   1.940   0.560   8.571  0.3565  0.3472  1.0054
 5231SOL     OW27325   0.882   0.495  11.818  0.1753 -0.2352  0.5921
 5231SOL    HW127326   0.954   0.455  11.866  0.9816  0.4142 -0.0724
 5231SOL    HW227327   0.888   0.433  11.745  2.2454  2.8208 -1.8524
 5232SOL     OW27328   0.073   2.483  15.357 -0.0800 -0.1786  0.1842
 5232SOL    HW127329   0.022   2.458  15.280 -0.5943 -2.0733  1.1536
 5232SOL    HW227330   0.158   2.512  15.322 -0.4826  1.6851  0.7326
 5233SOL     OW27331   4.408   3.801  12.366  0.1083  0.4057 -0.5311
 5233SOL    HW127332   4.345   3.745  12.321  0.4284  0.2570 -0.7929
 5233SOL    HW227333   4.340   3.855  12.406  0.7615 -0.3500  1.6212
 5234SOL     OW27334   0.134   0.059  10.609 -0.2797 -0.3145  0.1565
 5234SOL    HW127335   0.174   0.023  10.530  1.7125  0.9886  0.5829
 5234SOL    HW227336   0.185   0.014  10.677  0.4801  1.6954  0.9215
 5235SOL     OW27337   2.717   1.707   5.524  0.6761 -0.4119 -0.2157
 5235SOL    HW127338   2.707   1.785   5.470 -2.0173  0.6461  1.8122
 5235SOL    HW227339   2.626   1.685   5.544  0.1951  1.2031 -0.6153
 5236SOL     OW27340   0.129   0.835   1.894  0.2999 -1.0046 -0.2041
 5236SOL    HW127341   0.046   0.789   1.906  1.1762 -1.9995  1.8755
 5236SOL    HW227342   0.119   0.879   1.809  0.5093 -3.2499 -1.3795
 5237SOL     OW27343   4.011   4.390   9.227  0.6257  0.9551  0.8517
 5237SOL    HW127344   4.041   4.475   9.195  1.4820 -0.4261 -2.0644
 5237SOL    HW227345   4.097   4.347   9.231 -0.7448 -1.8347 -0.0254
 5238SOL     OW27346   2.827   1.273   4.844  0.9138  0.0758  0.3555
 5238SOL    HW127347   2.816   1.347   4.904  0.9361  0.1251  0.2999
 5238SOL    HW227348   2.740   1.269   4.805  1.4563  2.8943 -1.1508
 5239SOL     OW27349   1.028   0.838   2.124 -1.0321 -0.2367  0.1197
 5239SOL    HW127350   1.001   0.922   2.161  0.2389 -0.0747  0.6836
 5239SOL    HW227351   0.980   0.775   2.178 -1.4062  0.3348  0.4579
 5240SOL     OW27352   1.401   1.774   7.918  0.1504 -0.0210 -0.1119
 5240SOL    HW127353   1.465   1.708   7.891  0.3156  0.4361 -0.8201
 5240SOL    HW227354   1.341   1.780   7.844 -1.0405 -0.7377  0.7877
 5241SOL     OW27355   0.858   2.137   5.103  0.4551  0.0276 -0.2593
 5241SOL    HW127356   0.815   2.118   5.020  1.3541 -3.9684  0.2088
 5241SOL    HW227357   0.786   2.145   5.165 -0.6943  0.9328 -1.7135
 5242SOL     OW27358   4.473   0.199  15.969 -0.3916  0.3741 -0.2509
 5242SOL    HW127359   4.473   0.104  15.964 -0.2209  0.4009 -0.7648
 5242SOL    HW227360   4.566   0.222  15.975 -0.1329 -0.6611 -0.4214
 5243SOL     OW27361   3.894   1.810   4.459 -0.5542 -0.7461  0.1825
 5243SOL    HW127362   3.874   1.716   4.461 -1.2672 -0.6343 -1.9300
 5243SOL    HW227363   3.812   1.836   4.502  1.2202  1.0525  2.5225
 5244SOL     OW27364   4.198   4.220   7.051 -0.1972  0.1091  0.2825
 5244SOL    HW127365   4.169   4.187   7.136 -0.9747  0.5305  0.1814
 5244SOL    HW227366   4.179   4.314   7.052  1.0041  0.3579 -0.2491
 5245SOL     OW27367   1.543   4.600   8.412  0.5380 -0.9817  0.6232
 5245SOL    HW127368   1.448   4.613   8.406  0.9572  1.7632  0.0908
 5245SOL    HW227369   1.566   4.692   8.422  1.6499 -1.1933 -0.0027
 5246SOL     OW27370   0.146   0.976   8.472 -0.0614  0.1671 -0.2105
 5246SOL    HW127371   0.226   0.937   8.437 -0.4404 -0.1186 -0.7620
 5246SOL    HW227372   0.161   0.972   8.567 -0.7995 -1.1312 -0.1459
 5247SOL     OW27373   0.932   1.638   8.338 -0.2677  0.3700  0.1497
 5247SOL    HW127374   0.858   1.581   8.319 -0.4939  0.5334  0.5454
 5247SOL    HW227375   0.969   1.600   8.417  0.9640  2.0483  0.3928
 5248SOL     OW27376   3.350   3.071   1.437  0.2175  0.0041 -0.2223
 5248SOL    HW127377   3.361   3.143   1.374 -1.2866  1.1962  0.8786
 5248SOL    HW227378   3.318   3.112   1.518  2.6581 -0.2940  0.8705
 5249SOL     OW27379   0.780   3.508   1.645  0.1235 -0.3078  0.0800
 5249SOL    HW127380   0.699   3.458   1.633  0.7671 -0.8933 -1.7286
 5249SOL    HW227381   0.843   3.460   1.592 -1.4693 -0.6179 -1.5245
 5250SOL     OW27382   4.500   0.682   4.137  0.3728 -0.2222 -0.1284
 5250SOL    HW127383   4.472   0.597   4.103  2.4053 -1.2456  0.7709
 5250SOL    HW227384   4.499   0.738   4.060 -1.6406  1.2693  0.9566
 5251SOL     OW27385   3.792   4.735   2.887 -0.4865  0.6897 -0.0748
 5251SOL    HW127386   3.803   4.662   2.948 -2.3253  0.8770  0.4970
 5251SOL    HW227387   3.885   4.736   2.864 -0.4949  1.3884 -0.0776
 5252SOL     OW27388   4.200   2.112   7.173 -0.3298 -0.2010  0.6093
 5252SOL    HW127389   4.245   2.091   7.091 -0.1892  2.6567 -0.0398
 5252SOL    HW227390   4.165   2.199   7.155 -1.5705 -0.7445  0.4230
 5253SOL     OW27391   2.609   1.808   6.661 -0.2857  0.2630  0.3517
 5253SOL    HW127392   2.701   1.822   6.640 -0.3184 -3.0273 -1.8913
 5253SOL    HW227393   2.571   1.896   6.659 -1.1639 -0.1673 -1.5870
 5254SOL     OW27394   1.918   1.635  17.256 -0.3118  0.7150 -0.1008
 5254SOL    HW127395   1.978   1.652  17.184  0.8524  2.3749  1.2551
 5254SOL    HW227396   1.924   1.540  17.248  0.2014  0.7348  0.0293
 5255SOL     OW27397   3.942   3.232  11.796  0.3389  0.2413 -0.2129
 5255SOL    HW127398   3.947   3.304  11.734 -3.9809  0.5379 -0.2564
 5255SOL    HW227399   3.891   3.170  11.744  0.5210 -1.0613  1.1737
 5256SOL     OW27400   3.405   2.187   2.832 -0.3997 -0.1807 -0.3849
 5256SOL    HW127401   3.416   2.110   2.777 -1.1198 -0.6585  0.1432
 5256SOL    HW227402   3.447   2.154   2.912 -0.5244 -1.2284 -0.7587
 5257SOL     OW27403   3.350   1.374   1.951  0.0552 -0.0325 -0.3915
 5257SOL    HW127404   3.345   1.388   1.856 -2.9223 -0.9111 -0.3804
 5257SOL    HW227405   3.270   1.420   1.977  0.6315  0.8596 -0.2036
 5258SOL     OW27406   1.014   3.271   4.945 -0.1180  0.0826  0.6315
 5258SOL    HW127407   1.037   3.257   4.853  1.3510  3.4053  0.4757
 5258SOL    HW227408   0.918   3.276   4.938 -0.1818 -2.5663 -0.1997
 5259SOL     OW27409   1.229   2.971  12.128  1.0023 -0.4197 -0.3688
 5259SOL    HW127410   1.325   2.975  12.122  0.8757 -1.4899 -2.9256
 5259SOL    HW227411   1.230   2.896  12.188  2.5644  0.2643  0.4732
 5260SOL     OW27412   0.521   2.955   9.998  0.4384  0.1546  0.5032
 5260SOL    HW127413   0.533   3.049  10.005  0.0544  0.1903  0.6472
 5260SOL    HW227414   0.554   2.929  10.084  1.2904 -2.3188 -0.5614
 5261SOL     OW27415   4.131   1.753   6.567  0.2322  0.0422  0.1865
 5261SOL    HW127416   4.118   1.733   6.660  1.1629  0.4630  0.3996
 5261SOL    HW227417   4.140   1.846   6.586  1.7575 -0.1798  0.5522
 5262SOL     OW27418   3.605   3.840  11.850 -0.6866  0.5361  0.2953
 5262SOL    HW127419   3.656   3.806  11.776 -0.7530 -0.1388  0.5558
 5262SOL    HW227420   3.520   3.824  11.809 -0.4879  0.9834 -0.3009
 5263SOL     OW27421   2.791   2.450  17.655 -0.0907 -0.3375  0.2099
 5263SOL    HW127422   2.798   2.389  17.728 -1.1131  0.5846  1.0844
 5263SOL    HW227423   2.696   2.455  17.657 -0.1084 -1.3527  1.8104
 5264SOL     OW27424   2.040   3.901   3.994 -0.3137  0.3198  0.0760
 5264SOL    HW127425   2.072   3.988   4.019  1.6298 -0.3229 -0.1482
 5264SOL    HW227426   1.959   3.897   4.044  0.0533  0.1734  0.6647
 5265SOL     OW27427   0.213   1.972   9.457  0.0978  0.2571 -0.0498
 5265SOL    HW127428   0.186   1.989   9.548  2.1182 -2.1288  0.9900
 5265SOL    HW227429   0.268   1.895   9.471 -1.9375 -1.0183  0.9683
 5266SOL     OW27430   1.521   2.280   4.335  0.1354 -0.4637 -0.4573
 5266SOL    HW127431   1.608   2.255   4.366  1.1460  1.9064 -1.3950
 5266SOL    HW227432   1.505   2.207   4.276  0.8879  0.9029 -2.3294
 5267SOL     OW27433   0.996   2.587   4.822  0.1023  0.1502 -0.1943
 5267SOL    HW127434   1.088   2.610   4.834  0.2911 -1.0791  0.6862
 5267SOL    HW227435   0.987   2.519   4.888 -0.3286  1.1230  0.7533
 5268SOL     OW27436   0.212   1.660   4.435 -0.0070  0.4807 -0.1615
 5268SOL    HW127437   0.130   1.633   4.393 -0.6642 -0.1047  1.5218
 5268SOL    HW227438   0.248   1.704   4.357 -1.5849  3.0221  0.5718
 5269SOL     OW27439   3.901   3.100   8.036  0.0908  0.1013 -0.7134
 5269SOL    HW127440   3.874   3.019   7.993 -1.7522 -0.6650  1.8766
 5269SOL    HW227441   3.826   3.122   8.091 -1.8028 -0.1074 -3.2030
 5270SOL     OW27442   0.451   3.580   9.775  0.4372  0.1562 -0.0991
 5270SOL    HW127443   0.372   3.534   9.747  0.5140 -0.9415  1.4550
 5270SOL    HW227444   0.470   3.627   9.694  1.3996 -3.2196 -1.8005
 5271SOL     OW27445   4.656   3.760  12.308 -0.3297 -0.6727 -0.4408
 5271SOL    HW127446   4.565   3.757  12.336  0.1126 -0.0493  1.0698
 5271SOL    HW227447   4.664   3.851  12.278 -0.8487  0.4227  2.7621
 5272SOL     OW27448   2.856   1.935   2.579  0.2276  0.0593 -0.2594
 5272SOL    HW127449   2.795   1.945   2.652  0.1659 -3.0037  0.0843
 5272SOL    HW227450   2.891   2.024   2.570  0.7287  0.1305  2.2234
 5273SOL     OW27451   4.271   2.383   8.856 -0.4558  0.0575  0.2965
 5273SOL    HW127452   4.276   2.460   8.799  0.0483  1.0987  1.7576
 5273SOL    HW227453   4.290   2.313   8.793  0.6107 -0.3380  1.0639
 5274SOL     OW27454   1.089   0.511   8.491 -0.5927  0.2476 -0.0703
 5274SOL    HW127455   1.145   0.587   8.471  0.2440 -0.2537  0.3614
 5274SOL    HW227456   1.155   0.443   8.482 -0.1356  0.5741  0.8060
 5275SOL     OW27457   1.265   3.590  12.729 -0.0118  0.2528 -0.3531
 5275SOL    HW127458   1.300   3.571  12.642 -1.7361  0.1897 -1.0278
 5275SOL    HW227459   1.186   3.631  12.694 -1.0241 -0.2626  1.3203
 5276SOL     OW27460   3.552   0.365   5.092  0.3667 -0.2633  0.2300
 5276SOL    HW127461   3.549   0.427   5.164 -2.5643  0.4944 -0.5163
 5276SOL    HW227462   3.639   0.380   5.056 -0.3547  1.7102 -0.7291
 5277SOL     OW27463   2.134   3.564   9.071 -0.5004 -0.1472  0.4269
 5277SOL    HW127464   2.208   3.614   9.037 -0.6638  0.6975  1.2891
 5277SOL    HW227465   2.156   3.472   9.058  1.0380  0.0635  1.4768
 5278SOL     OW27466   3.171   3.599   8.772 -0.2443  0.0237 -0.4718
 5278SOL    HW127467   3.166   3.641   8.858  0.8981  0.2275 -0.5079
 5278SOL    HW227468   3.181   3.673   8.713  0.9331  0.3571  0.1312
 5279SOL     OW27469   1.124   3.858   4.215  0.2599 -1.0365 -0.7382
 5279SOL    HW127470   1.123   3.850   4.311  1.6677 -0.5464 -0.6805
 5279SOL    HW227471   1.214   3.888   4.206  0.5756 -1.2899  1.5094
 5280SOL     OW27472   0.495   3.223   2.479  0.2282 -0.4423 -0.0073
 5280SOL    HW127473   0.542   3.141   2.467 -0.9692 -1.2067  0.5918
 5280SOL    HW227474   0.563   3.286   2.452 -0.4931  0.4165  0.1738
 5281SOL     OW27475   4.499   1.263   9.390  0.1198 -0.5492 -0.4573
 5281SOL    HW127476   4.435   1.215   9.338  0.1678 -0.0447 -0.9893
 5281SOL    HW227477   4.444   1.305   9.455  0.9786  2.7576 -1.8577
 5282SOL     OW27478   1.887   0.183   6.521 -0.0707 -0.2394  0.2903
 5282SOL    HW127479   1.906   0.170   6.428  0.1117 -1.1084  0.4517
 5282SOL    HW227480   1.825   0.114   6.545 -0.2999  0.7517  2.5311
 5283SOL     OW27481   4.486   2.285  13.878 -0.1777  0.4241 -0.1134
 5283SOL    HW127482   4.415   2.349  13.886 -1.4054 -0.8227 -1.1679
 5283SOL    HW227483   4.452   2.235  13.804  0.7302 -1.9500  1.0771
 5284SOL     OW27484   2.109   2.787   9.037 -0.2189  0.1365  0.2829
 5284SOL    HW127485   2.025   2.763   8.996  0.0173 -0.2289  0.0163
 5284SOL    HW227486   2.080   2.792   9.128 -0.5417  1.1584  0.1219
 5285SOL     OW27487   1.847   2.326   9.708 -0.8830  0.1885 -0.2566
 5285SOL    HW127488   1.794   2.393   9.665  0.7943 -0.0885 -2.7579
 5285SOL    HW227489   1.878   2.373   9.786 -0.0257 -0.9902  0.1168
 5286SOL     OW27490   4.721   3.099   7.626  0.1672 -0.0135 -0.4385
 5286SOL    HW127491   0.035   3.034   7.676 -0.4684  1.8065  2.5244
 5286SOL    HW227492   4.665   3.045   7.570  0.0109  0.7361 -0.9968
 5287SOL     OW27493   2.856   0.156  10.691  0.2852 -0.3692 -0.0186
 5287SOL    HW127494   2.935   0.140  10.742 -1.0846 -1.1203  1.8340
 5287SOL    HW227495   2.794   0.185  10.757 -2.7062 -0.7784 -2.6561
 5288SOL     OW27496   2.983   1.593   6.548 -0.3269  0.1246 -0.4783
 5288SOL    HW127497   3.037   1.656   6.499 -0.0199  0.7865  0.7011
 5288SOL    HW227498   2.975   1.522   6.484 -1.1352 -0.6484  0.5078
 5289SOL     OW27499   1.615   2.210   6.363 -0.4194 -0.3009 -0.2306
 5289SOL    HW127500   1.603   2.305   6.368  0.6554 -0.0590 -2.3974
 5289SOL    HW227501   1.691   2.210   6.305  0.4855  1.5738  0.9416
 5290SOL     OW27502   1.927   0.551   2.817 -0.3088 -0.4052  0.0616
 5290SOL    HW127503   1.918   0.629   2.762 -1.9541 -0.0268  0.8636
 5290SOL    HW227504   2.019   0.558   2.844 -0.1645  0.1730 -0.5862
 5291SOL     OW27505   1.595   0.344  15.206  0.6086  0.6057 -0.1667
 5291SOL    HW127506   1.676   0.341  15.155  0.1586 -1.9879 -0.7228
 5291SOL    HW227507   1.612   0.381  15.292  1.5117  1.3052 -0.6521
 5292SOL     OW27508   3.776   2.231   3.090 -0.4863  0.3753 -0.8420
 5292SOL    HW127509   3.827   2.309   3.112  1.5534 -1.5840  1.4186
 5292SOL    HW227510   3.837   2.162   3.064 -0.2302  0.6663 -1.0002
 5293SOL     OW27511   0.979   2.616   3.448  0.0998 -0.0633  0.9436
 5293SOL    HW127512   0.917   2.683   3.418  1.7722  0.8481 -0.4510
 5293SOL    HW227513   0.912   2.567   3.496 -0.1581  0.1115  0.7642
 5294SOL     OW27514   2.073   1.805   5.248 -0.5413  0.2593 -0.1777
 5294SOL    HW127515   2.020   1.820   5.326 -0.6812 -0.7220 -0.0846
 5294SOL    HW227516   2.070   1.898   5.224  1.8970 -0.4905 -3.4073
 5295SOL     OW27517   4.218   4.398   5.769 -0.0477 -0.0653 -0.4907
 5295SOL    HW127518   4.219   4.345   5.689  3.5239  1.4032 -1.4326
 5295SOL    HW227519   4.297   4.361   5.810 -1.5301 -0.8612  1.6136
 5296SOL     OW27520   3.596   1.412   2.650  0.4433 -0.0472  0.4713
 5296SOL    HW127521   3.586   1.448   2.738 -3.3408 -0.4894  0.2224
 5296SOL    HW227522   3.665   1.349   2.670  0.2391 -0.6833 -0.8005
 5297SOL     OW27523   2.923   2.716   3.321  0.2515  0.2828  0.0560
 5297SOL    HW127524   2.970   2.662   3.258 -0.1602 -1.1413  0.9570
 5297SOL    HW227525   2.831   2.689   3.315  0.1926  0.3312  0.7793
 5298SOL     OW27526   1.374   3.766   9.601  0.1824  0.4010 -0.3101
 5298SOL    HW127527   1.303   3.707   9.577 -0.1044  0.9358 -0.7868
 5298SOL    HW227528   1.374   3.769   9.696 -3.7710  0.2623 -0.3248
 5299SOL     OW27529   2.693   2.304   1.704 -0.5433  0.0951  0.0727
 5299SOL    HW127530   2.704   2.212   1.681  1.8032  0.8540 -1.7609
 5299SOL    HW227531   2.781   2.335   1.684 -0.4394  0.7722  1.5266
 5300SOL     OW27532   3.059   2.456  17.635 -0.1403 -0.0426  0.6872
 5300SOL    HW127533   3.102   2.380  17.675  2.1942  0.2080 -1.3070
 5300SOL    HW227534   2.967   2.450  17.659 -0.0040 -0.0435  1.2208
 5301SOL     OW27535   3.991   3.966   7.957  0.7025  0.0113 -0.2063
 5301SOL    HW127536   4.020   4.015   7.880 -2.9703  0.5017 -1.2910
 5301SOL    HW227537   4.054   3.895   7.966 -0.1007 -0.6732  0.0046
 5302SOL     OW27538   0.069   4.072   2.226  0.7224 -0.5115  0.2196
 5302SOL    HW127539   0.062   4.058   2.321  1.4185 -0.2124  0.3167
 5302SOL    HW227540   0.037   3.989   2.190 -0.9558  0.7666 -1.1971
 5303SOL     OW27541   3.726   3.614  12.570  0.1096 -0.3504  0.0701
 5303SOL    HW127542   3.813   3.623  12.531  0.1977 -0.8440  0.1595
 5303SOL    HW227543   3.727   3.685  12.635 -2.2321  2.4768 -3.0402
 5304SOL     OW27544   2.220   2.755  11.284  0.3407 -0.4272 -0.3055
 5304SOL    HW127545   2.185   2.766  11.373  0.1236 -1.2372 -0.2843
 5304SOL    HW227546   2.300   2.705  11.299  1.2359  0.4403 -2.2998
 5305SOL     OW27547   4.337   1.868   5.145 -0.1815 -0.4169 -0.3183
 5305SOL    HW127548   4.247   1.888   5.168 -0.8524 -1.1780 -2.2254
 5305SOL    HW227549   4.338   1.779   5.111  3.1214 -0.6972  0.4826
 5306SOL     OW27550   3.131   0.760   4.269 -0.2857  0.5757 -0.0985
 5306SOL    HW127551   3.169   0.705   4.338 -0.0394 -1.5947 -1.9496
 5306SOL    HW227552   3.101   0.707   4.195 -1.6421  0.8970  0.2151
 5307SOL     OW27553   0.740   4.607   5.820  0.0843 -0.1460 -0.1277
 5307SOL    HW127554   0.756   4.515   5.798 -2.1471 -0.9122  1.4328
 5307SOL    HW227555   0.651   4.611   5.855 -0.3460 -0.1583 -1.2354
 5308SOL     OW27556   3.251   2.760   4.796 -0.0318  0.9302 -0.0151
 5308SOL    HW127557   3.218   2.813   4.724 -1.8542 -2.5045 -1.6657
 5308SOL    HW227558   3.175   2.753   4.853 -0.1992 -1.1071 -0.4856
 5309SOL     OW27559   1.980   3.234   8.216 -0.2206 -0.6193 -0.0938
 5309SOL    HW127560   1.949   3.320   8.244 -0.0484 -0.4848 -0.3217
 5309SOL    HW227561   2.037   3.260   8.144 -1.8604 -1.3597 -1.6537
 5310SOL     OW27562   0.588   4.171   9.763  0.3930 -0.2263 -0.1125
 5310SOL    HW127563   0.640   4.091   9.754 -1.8059 -1.8449  1.5771
 5310SOL    HW227564   0.535   4.149   9.840 -0.7721 -0.0362 -0.8677
 5311SOL     OW27565   0.441   2.698   1.218  0.2476 -0.4392 -0.9389
 5311SOL    HW127566   0.400   2.754   1.283  0.3858 -0.2608 -1.0067
 5311SOL    HW227567   0.360   2.679   1.171 -0.7946 -0.4886  0.8834
 5312SOL     OW27568   1.824   2.881   0.338 -0.3631 -0.1122 -0.2946
 5312SOL    HW127569   1.791   2.791   0.340  0.9195 -0.4980  3.1005
 5312SOL    HW227570   1.916   2.866   0.363 -0.2111 -0.7604 -1.2439
 5313SOL     OW27571   2.370   0.667   3.390  0.2225  0.2607 -0.2012
 5313SOL    HW127572   2.421   0.743   3.363  0.3100  0.0553 -0.5991
 5313SOL    HW227573   2.431   0.607   3.434  1.5196 -0.0505 -2.4562
 5314SOL     OW27574   3.551   3.651   9.114 -0.4434 -0.1454 -0.8714
 5314SOL    HW127575   3.634   3.696   9.126 -0.7713  0.3362 -0.4322
 5314SOL    HW227576   3.490   3.690   9.176 -0.2775  0.6885 -1.2297
 5315SOL     OW27577   2.781   2.798   7.709  0.0399 -0.1640 -0.3129
 5315SOL    HW127578   2.853   2.832   7.656 -0.4186 -1.0954 -1.5322
 5315SOL    HW227579   2.710   2.860   7.696 -0.2204 -0.0686  1.5255
 5316SOL     OW27580   0.837   1.347   3.281  0.0524 -0.1437 -0.1069
 5316SOL    HW127581   0.777   1.420   3.265 -1.1761 -1.0339  0.4691
 5316SOL    HW227582   0.842   1.320   3.189  3.6652 -1.2820  0.4200
 5317SOL     OW27583   3.391   2.922   6.586  0.0754 -0.0231 -0.1719
 5317SOL    HW127584   3.472   2.974   6.580  0.2747 -0.2960  0.2008
 5317SOL    HW227585   3.377   2.928   6.680  2.1105 -1.5676  0.2318
 5318SOL     OW27586   0.796   1.128   9.423 -0.0849  0.3884  0.5942
 5318SOL    HW127587   0.877   1.125   9.372 -0.1169  1.4962  0.4702
 5318SOL    HW227588   0.759   1.040   9.412 -1.8321  1.2483 -0.3491
 5319SOL     OW27589   0.290   1.478  13.348  0.2275 -0.5794  0.1206
 5319SOL    HW127590   0.341   1.398  13.360 -1.3825 -1.4883  0.8382
 5319SOL    HW227591   0.358   1.534  13.310  0.7375 -1.3051 -0.0478
 5320SOL     OW27592   0.027   1.589   3.255 -0.2088  0.1741 -0.0388
 5320SOL    HW127593   0.017   1.555   3.167  2.0061  0.4339 -0.3901
 5320SOL    HW227594   4.697   1.541   3.306 -1.3621  0.9974 -0.7677
 5321SOL     OW27595   3.346   3.711   2.050 -0.1757  0.5827  0.0787
 5321SOL    HW127596   3.377   3.674   1.967  0.5594 -0.2020  0.7000
 5321SOL    HW227597   3.424   3.734   2.100 -1.2729  0.2397  1.9413
 5322SOL     OW27598   1.192   0.652   9.329 -0.2736 -0.0185 -0.2001
 5322SOL    HW127599   1.265   0.711   9.310 -0.9090 -0.4989 -4.1552
 5322SOL    HW227600   1.144   0.708   9.390  0.0701 -1.1369  1.0855
 5323SOL     OW27601   4.333   3.836   5.273 -0.3983 -0.5643 -0.3295
 5323SOL    HW127602   4.417   3.796   5.294  0.1228  1.4513  1.4284
 5323SOL    HW227603   4.353   3.925   5.244 -3.9741 -1.3636 -5.3421
 5324SOL     OW27604   3.026   0.307   0.042  0.4979 -0.3455 -0.2043
 5324SOL    HW127605   3.108   0.320   0.090  0.4234  1.3567 -0.5362
 5324SOL    HW227606   3.043   0.351  17.700  0.6163  0.4123  0.2185
 5325SOL     OW27607   4.379   4.348   4.473  0.4874 -0.0633  0.0601
 5325SOL    HW127608   4.405   4.375   4.562 -0.3038 -1.7999  0.8248
 5325SOL    HW227609   4.316   4.278   4.492 -0.9102  0.5793 -2.1682
 5326SOL     OW27610   3.302   0.583   9.437 -0.2651 -0.3687  0.1661
 5326SOL    HW127611   3.313   0.590   9.342 -0.7577 -0.6772  0.0881
 5326SOL    HW227612   3.306   0.673   9.470 -0.6822  0.2228 -1.3675
 5327SOL     OW27613   4.110   1.708   4.084  0.5391  0.5493 -0.3998
 5327SOL    HW127614   4.061   1.673   4.010 -0.6137  0.2802  0.4940
 5327SOL    HW227615   4.150   1.625   4.110 -2.0713 -0.0681  1.6970
 5328SOL     OW27616   3.727   0.390   2.887  0.0591  0.2412  0.2885
 5328SOL    HW127617   3.704   0.432   2.970 -1.6091  0.5186 -0.3150
 5328SOL    HW227618   3.823   0.382   2.887  0.0762  0.4625  1.4373
 5329SOL     OW27619   3.968   2.322   7.609 -0.1583 -0.2097  0.4514
 5329SOL    HW127620   4.007   2.313   7.522 -0.0099 -0.1214  0.5075
 5329SOL    HW227621   3.875   2.316   7.589 -0.4636  0.8946  1.5703
 5330SOL     OW27622   1.267   2.867   5.428  0.2536  0.0362 -0.5654
 5330SOL    HW127623   1.276   2.859   5.523  1.2821 -1.7809 -0.8234
 5330SOL    HW227624   1.339   2.815   5.395 -0.3659 -1.9464  1.1923
 5331SOL     OW27625   3.935   1.348  17.130 -0.7518 -0.3433 -0.2847
 5331SOL    HW127626   3.936   1.402  17.208  1.3056  2.9420 -2.5762
 5331SOL    HW227627   3.883   1.275  17.165  0.9885 -0.1047  2.7890
 5332SOL     OW27628   1.276   2.390   8.325  0.0720  0.0967  0.6801
 5332SOL    HW127629   1.218   2.353   8.391  1.3091 -1.2129  1.0336
 5332SOL    HW227630   1.286   2.328   8.252  3.5685  2.1478 -0.6310
 5333SOL     OW27631   2.848   2.913   6.925  0.4517  0.2711  0.4934
 5333SOL    HW127632   2.852   2.882   7.016 -2.8481  2.4440  1.4023
 5333SOL    HW227633   2.767   2.964   6.937  0.0120 -0.4142  0.4727
 5334SOL     OW27634   2.242   0.227   4.992  0.5604  0.1140 -0.6700
 5334SOL    HW127635   2.306   0.287   4.953  1.0131  0.4033  0.5339
 5334SOL    HW227636   2.184   0.223   4.916 -0.1636  0.2683 -0.1287
 5335SOL     OW27637   2.996   3.607  14.846 -0.3771  0.3577  0.3064
 5335SOL    HW127638   2.957   3.662  14.777  2.0149  0.7793 -0.7270
 5335SOL    HW227639   2.968   3.523  14.811  0.7837 -1.2201  3.2173
 5336SOL     OW27640   3.094   4.439   7.242  0.4254 -0.1351 -0.2352
 5336SOL    HW127641   3.071   4.531   7.225  3.4315  0.6404 -0.2176
 5336SOL    HW227642   3.090   4.403   7.154  0.4549  0.6261 -0.5487
 5337SOL     OW27643   2.638   3.084   6.641  0.0502 -0.5064 -0.6035
 5337SOL    HW127644   2.548   3.090   6.608  0.3450 -0.5779 -1.4221
 5337SOL    HW227645   2.667   3.007   6.591  0.5908 -0.9007  0.3256
 5338SOL     OW27646   3.597   2.964   3.477 -0.1390  0.5554  0.3616
 5338SOL    HW127647   3.610   2.912   3.398 -0.9148 -0.0197  0.6104
 5338SOL    HW227648   3.516   2.941   3.522 -0.7483 -0.4497 -1.2529
 5339SOL     OW27649   2.733   0.613   8.534  0.2557  0.2588  0.4303
 5339SOL    HW127650   2.819   0.650   8.554  0.3568  0.3959 -0.2533
 5339SOL    HW227651   2.702   0.598   8.624  0.3197 -0.1042  0.3903
 5340SOL     OW27652   1.723   3.540   7.652  0.0104 -0.6405 -0.3944
 5340SOL    HW127653   1.644   3.535   7.705  0.6128  1.9022  0.7359
 5340SOL    HW227654   1.795   3.521   7.712 -0.6609 -1.4898  0.1329
 5341SOL     OW27655   3.635   2.210   8.593 -0.1514  0.0235 -0.3492
 5341SOL    HW127656   3.566   2.229   8.655  1.0866  0.6665  0.8320
 5341SOL    HW227657   3.621   2.116   8.605 -1.5292  0.1343 -1.2214
 5342SOL     OW27658   1.330   0.038   3.734 -0.3305 -0.8454 -0.0349
 5342SOL    HW127659   1.425   0.049   3.729 -0.4148 -0.3181 -0.4647
 5342SOL    HW227660   1.311   4.681   3.741  0.2399 -0.9082  0.7125
 5343SOL     OW27661   0.143   3.411   7.948 -0.6286  0.1656  0.4289
 5343SOL    HW127662   0.086   3.404   7.871 -0.2718  0.4961  0.1349
 5343SOL    HW227663   0.228   3.404   7.904  0.2102 -0.6045  2.1780
 5344SOL     OW27664   3.226   1.886  11.642 -1.0640  0.8910  0.0011
 5344SOL    HW127665   3.190   1.798  11.647  0.1613  0.4359  0.8755
 5344SOL    HW227666   3.232   1.919  11.731 -0.0481 -0.5863  0.4718
 5345SOL     OW27667   1.439   4.588  10.435 -0.0610 -0.3496  0.5484
 5345SOL    HW127668   1.345   4.594  10.446 -0.0507  0.2417  0.2618
 5345SOL    HW227669   1.457   4.662  10.377 -0.8390  1.0910  2.1696
 5346SOL     OW27670   2.442   2.628   1.783  0.0226 -0.1759 -0.3834
 5346SOL    HW127671   2.509   2.673   1.730 -0.1857  1.6448  0.8966
 5346SOL    HW227672   2.489   2.548   1.807  0.1579 -0.8543 -2.8425
 5347SOL     OW27673   1.618   0.791   6.552  0.2750 -0.1032 -0.2475
 5347SOL    HW127674   1.574   0.865   6.509  0.8263  0.2713 -0.1672
 5347SOL    HW227675   1.617   0.738   6.472  1.2723 -0.5147  0.0109
 5348SOL     OW27676   0.399   4.724  15.764 -0.2390 -0.4542  0.8752
 5348SOL    HW127677   0.319   0.020  15.724  1.0760 -0.6646 -1.9318
 5348SOL    HW227678   0.415   0.055  15.830 -1.8463  0.8549 -0.0617
 5349SOL     OW27679   3.298   4.401   1.417  0.3072  0.3587 -0.0979
 5349SOL    HW127680   3.250   4.439   1.342 -0.4547 -1.3222 -0.4536
 5349SOL    HW227681   3.374   4.458   1.430  0.3640  0.6333 -1.5356
 5350SOL     OW27682   2.332   2.030   3.444 -0.2004 -0.1027  0.4130
 5350SOL    HW127683   2.415   2.077   3.433 -0.3064 -0.3653 -1.5356
 5350SOL    HW227684   2.350   1.971   3.517  0.6302  1.1748  1.2549
 5351SOL     OW27685   2.063   1.559   8.802  0.0766  0.2331  0.5934
 5351SOL    HW127686   2.063   1.494   8.732 -1.2579 -0.1424  0.9405
 5351SOL    HW227687   1.972   1.547   8.832 -0.1352  1.8897  0.6534
 5352SOL     OW27688   1.564   4.101  17.611  0.2894 -0.2229  0.4290
 5352SOL    HW127689   1.482   4.051  17.611 -0.3482  0.8059  2.3701
 5352SOL    HW227690   1.545   4.164  17.681  0.3629  1.1424 -0.7769
 5353SOL     OW27691   2.554   1.722   2.195 -0.3564  0.0080  0.6795
 5353SOL    HW127692   2.474   1.761   2.228  0.4673  2.1772  0.0706
 5353SOL    HW227693   2.615   1.765   2.255  1.6226 -1.6244 -0.1619
 5354SOL     OW27694   1.937   4.208  12.144  0.3902  0.5382 -0.1899
 5354SOL    HW127695   1.986   4.171  12.070  1.4402 -1.5216  1.5515
 5354SOL    HW227696   1.935   4.304  12.141 -0.3533  0.5114 -0.5066
 5355SOL     OW27697   4.544   4.239  15.936  0.6763 -0.0800  0.1785
 5355SOL    HW127698   4.531   4.203  15.848 -0.9266 -1.5546  1.0275
 5355SOL    HW227699   4.457   4.256  15.971 -0.1514 -1.8597 -1.0084
 5356SOL     OW27700   0.291   2.721  14.796  0.2963 -0.2678  0.0730
 5356SOL    HW127701   0.221   2.715  14.731  0.5429  0.2603 -0.2401
 5356SOL    HW227702   0.371   2.754  14.754 -0.1025 -0.3954 -0.7873
 5357SOL     OW27703   0.132   2.235   2.215 -0.5433  0.3430  0.1391
 5357SOL    HW127704   0.045   2.263   2.245 -2.0352 -0.9892 -2.9683
 5357SOL    HW227705   0.140   2.152   2.263 -0.9481  0.7754  0.9593
 5358SOL     OW27706   2.179   1.908   6.878 -0.0865 -1.0218 -0.0214
 5358SOL    HW127707   2.146   1.898   6.967 -2.6418  0.5616 -0.7808
 5358SOL    HW227708   2.258   1.961   6.888 -1.0873  0.5140 -0.2560
 5359SOL     OW27709   3.412   2.987  15.111  0.3550 -0.0365 -0.5311
 5359SOL    HW127710   3.408   2.949  15.023 -0.2040 -3.0890  0.8075
 5359SOL    HW227711   3.327   2.977  15.153 -0.7779  3.4844 -2.0256
 5360SOL     OW27712   2.216   4.118   2.373  0.0895  0.6404  0.0513
 5360SOL    HW127713   2.131   4.077   2.394  0.2909  1.1265  1.7258
 5360SOL    HW227714   2.255   4.033   2.349 -1.5661 -0.5006  1.3871
 5361SOL     OW27715   3.443   3.103   3.233  0.2115  0.2919  0.0189
 5361SOL    HW127716   3.517   3.043   3.239  0.6832  0.9422  0.6998
 5361SOL    HW227717   3.397   3.089   3.316  0.0641  2.1402  0.2566
 5362SOL     OW27718   3.141   3.868   7.275  0.5967  0.0937 -0.1452
 5362SOL    HW127719   3.123   3.886   7.182  0.6413  0.7083 -0.0371
 5362SOL    HW227720   3.101   3.783   7.291  0.9568  0.0600  0.5423
 5363SOL     OW27721   4.670   3.057   6.793 -0.0949  0.1910 -0.2503
 5363SOL    HW127722   4.698   3.103   6.714 -1.2269 -3.4659 -2.7880
 5363SOL    HW227723   4.705   2.968   6.783 -0.2186  0.0656  0.4458
 5364SOL     OW27724   2.086   2.751   0.265 -0.4462  0.3663  0.5621
 5364SOL    HW127725   2.089   2.657   0.247 -0.8273  0.7166 -1.3717
 5364SOL    HW227726   2.069   2.782   0.176 -1.0493  2.5699  1.4584
 5365SOL     OW27727   0.549   2.204   6.780 -0.1369 -0.0732 -0.0683
 5365SOL    HW127728   0.554   2.291   6.821  2.2933 -0.8402  1.2522
 5365SOL    HW227729   0.455   2.204   6.763  0.0368  2.6467 -1.1190
 5366SOL     OW27730   0.677   0.575   4.305 -0.3776  0.2266 -0.9554
 5366SOL    HW127731   0.647   0.491   4.268  0.9537 -0.3166 -0.8178
 5366SOL    HW227732   0.771   0.584   4.287 -0.2250  1.4273  0.4689
 5367SOL     OW27733   1.653   2.284  12.205  0.4601  0.4578  0.0631
 5367SOL    HW127734   1.703   2.230  12.266  1.4892 -0.7114 -1.8266
 5367SOL    HW227735   1.690   2.264  12.119  2.1660  0.2955  0.8348
 5368SOL     OW27736   0.360   1.349   5.904 -0.2254 -0.5540 -0.1877
 5368SOL    HW127737   0.345   1.334   5.811 -2.0158 -3.0055  0.4895
 5368SOL    HW227738   0.286   1.309   5.948 -1.0281  0.3022 -0.7638
 5369SOL     OW27739   4.008   0.815   6.048 -0.0603 -0.6494 -0.2243
 5369SOL    HW127740   4.079   0.755   6.071 -0.8894 -1.2193  0.8821
 5369SOL    HW227741   3.935   0.757   6.030 -0.1274 -1.2120  1.7978
 5370SOL     OW27742   1.174   4.576   6.211  0.0191  0.0170  0.2803
 5370SOL    HW127743   1.191   4.602   6.301  0.2259 -0.7658  0.4726
 5370SOL    HW227744   1.195   4.651   6.156  0.8571  0.2709  0.9578
 5371SOL     OW27745   1.857   0.037   4.315 -0.1687  0.2021  0.0236
 5371SOL    HW127746   1.764   0.012   4.308  0.1779 -1.5349  1.5187
 5371SOL    HW227747   1.870   0.072   4.227 -1.2306  0.7361  0.0711
 5372SOL     OW27748   1.853   0.238   0.550  0.3797 -0.4723 -0.1690
 5372SOL    HW127749   1.887   0.152   0.576  1.6182 -0.5115 -1.9159
 5372SOL    HW227750   1.889   0.250   0.463  1.9907 -3.6350  0.0638
 5373SOL     OW27751   0.405   2.884  11.213  0.3691 -0.6550 -0.4864
 5373SOL    HW127752   0.414   2.836  11.131  1.0039 -1.0660 -0.1856
 5373SOL    HW227753   0.408   2.812  11.276  2.0421 -1.7784 -1.8413
 5374SOL     OW27754   3.935   3.029  13.450 -0.1896 -0.3141  0.0688
 5374SOL    HW127755   3.841   3.038  13.461 -0.0191  1.3202  0.2423
 5374SOL    HW227756   3.961   3.039  13.541  3.6180  0.5330 -1.0997
 5375SOL     OW27757   0.450   3.555   9.325 -0.0749 -0.0439 -0.1121
 5375SOL    HW127758   0.510   3.489   9.359  1.1368  1.0443 -0.1310
 5375SOL    HW227759   0.450   3.615   9.400 -1.8539 -2.1091  1.5275
 5376SOL     OW27760   0.426   3.353   0.517  0.0501  0.0936 -0.0594
 5376SOL    HW127761   0.333   3.331   0.508  0.3805 -1.4401  0.3684
 5376SOL    HW227762   0.459   3.287   0.578  1.2107 -0.6552 -1.5152
 5377SOL     OW27763   4.706   2.420   7.349  0.3050  0.2341 -0.0344
 5377SOL    HW127764   4.633   2.362   7.330 -0.3335  1.0771 -0.1447
 5377SOL    HW227765   0.013   2.379   7.425 -0.0794  1.5938  0.9328
 5378SOL     OW27766   2.748   4.550  14.267  0.0802 -0.6083 -0.0403
 5378SOL    HW127767   2.792   4.469  14.293 -1.2219 -1.7321 -1.2971
 5378SOL    HW227768   2.769   4.607  14.340  1.3905  0.1448 -0.9971
 5379SOL     OW27769   1.683   3.811  12.673  0.5634 -0.0270 -0.3474
 5379SOL    HW127770   1.699   3.878  12.739  0.0108  0.6202 -0.8674
 5379SOL    HW227771   1.760   3.823  12.618 -1.2324 -0.2661 -2.9151
 5380SOL     OW27772   4.151   1.725   5.798 -0.0491 -0.0637  0.6572
 5380SOL    HW127773   4.232   1.720   5.747 -0.1661 -2.0162  0.6338
 5380SOL    HW227774   4.184   1.716   5.887  1.2945 -2.7910 -0.1214
 5381SOL     OW27775   0.235   4.226   9.500  0.2989  0.0658 -0.3032
 5381SOL    HW127776   0.218   4.317   9.477  0.8788  0.9054  2.6088
 5381SOL    HW227777   0.236   4.233   9.596 -2.2528  0.3943 -0.2873
 5382SOL     OW27778   1.729   3.369  17.223 -1.0493  0.0918 -0.1032
 5382SOL    HW127779   1.691   3.430  17.160 -3.3177  0.5225  1.6729
 5382SOL    HW227780   1.816   3.371  17.183 -0.9137 -0.0146  0.1883
 5383SOL     OW27781   2.900   1.828   6.852  0.2556 -0.2757  0.0249
 5383SOL    HW127782   2.885   1.850   6.760  0.9234 -2.2710 -0.5574
 5383SOL    HW227783   2.895   1.733   6.848  0.7667 -0.3512  1.0281
 5384SOL     OW27784   0.941   4.697   7.986  0.2197  0.2907 -0.0068
 5384SOL    HW127785   0.858   4.665   7.951  0.8191  0.0685 -1.2314
 5384SOL    HW227786   1.007   4.627   7.980 -1.1030 -0.8635 -0.9743
 5385SOL     OW27787   1.761   4.698   2.519  0.1792 -0.3822 -0.0947
 5385SOL    HW127788   1.752   0.045   2.566 -0.4700 -0.6572  0.2631
 5385SOL    HW227789   1.855   4.713   2.511  0.0254  1.8799  2.2367
 5386SOL     OW27790   0.610   0.170   4.637 -0.5922  0.3392 -0.0036
 5386SOL    HW127791   0.702   0.188   4.618 -0.2492 -1.4001 -0.0190
 5386SOL    HW227792   0.581   0.130   4.555  1.6045 -1.7358  0.2039
 5387SOL     OW27793   3.260   3.035   2.758  0.7574 -0.5644 -0.1254
 5387SOL    HW127794   3.269   2.996   2.671  2.5676  2.1016 -1.1363
 5387SOL    HW227795   3.315   2.973   2.805 -0.3288 -1.0031  0.5730
 5388SOL     OW27796   4.199   1.175   9.396 -0.0937  0.4860 -0.1751
 5388SOL    HW127797   4.222   1.140   9.482 -0.4534 -2.6918 -1.3843
 5388SOL    HW227798   4.196   1.098   9.340  2.6884  0.1540  0.1477
 5389SOL     OW27799   1.776   2.650   6.842 -0.0749 -0.3423  0.3375
 5389SOL    HW127800   1.828   2.570   6.842 -1.3539 -1.1710 -0.2110
 5389SOL    HW227801   1.701   2.629   6.786 -0.8187  2.2122  0.3776
 5390SOL     OW27802   4.235   2.526   7.380 -0.4767  0.5545 -0.4125
 5390SOL    HW127803   4.143   2.520   7.407 -0.7998  4.2727 -0.8079
 5390SOL    HW227804   4.282   2.472   7.444  1.0059  2.1659 -0.1625
 5391SOL     OW27805   2.183   2.278   4.336  0.1822  0.0976  0.6877
 5391SOL    HW127806   2.244   2.347   4.311 -0.1842 -0.5135 -1.9263
 5391SOL    HW227807   2.110   2.281   4.274  0.4831  1.5472  0.4071
 5392SOL     OW27808   0.953   3.444   6.965 -0.1722 -0.3936  0.1068
 5392SOL    HW127809   0.953   3.348   6.966 -2.7604 -0.3966  0.4144
 5392SOL    HW227810   0.862   3.470   6.950 -0.4312 -1.5852 -0.3925
 5393SOL     OW27811   1.838   1.085   2.178  0.0185  0.0130 -0.1320
 5393SOL    HW127812   1.833   1.003   2.226 -1.3972  0.2273  0.0890
 5393SOL    HW227813   1.780   1.141   2.230  1.5351  1.9852 -0.5318
 5394SOL     OW27814   1.241   3.865   1.480  0.0931  0.6957 -0.3080
 5394SOL    HW127815   1.247   3.938   1.419 -1.0538 -0.3347 -1.6520
 5394SOL    HW227816   1.148   3.844   1.475  0.7417 -2.1728 -0.5422
 5395SOL     OW27817   4.426   4.478   9.097  0.1859  0.1219  0.5737
 5395SOL    HW127818   4.353   4.540   9.093  0.4189  0.2186 -2.1044
 5395SOL    HW227819   4.502   4.535   9.092  0.9872 -0.7833  2.6123
 5396SOL     OW27820   3.559   1.682   1.200  0.3294 -0.4661  0.0275
 5396SOL    HW127821   3.475   1.675   1.245 -1.1363 -0.7160 -2.7686
 5396SOL    HW227822   3.605   1.755   1.241 -0.8922  0.8215 -0.8801
 5397SOL     OW27823   1.881   1.150  16.816  0.7539  0.3692 -0.1514
 5397SOL    HW127824   1.853   1.067  16.778 -2.8250  0.9136  1.2628
 5397SOL    HW227825   1.968   1.133  16.854  0.9086  0.1307 -0.6163
 5398SOL     OW27826   0.670   4.501   6.124  0.2060  0.2227 -0.5533
 5398SOL    HW127827   0.666   4.580   6.178 -0.0897 -0.0526 -0.1676
 5398SOL    HW227828   0.756   4.516   6.084 -0.1001  0.6759 -1.0329
 5399SOL     OW27829   4.033   2.755  13.371  0.1687 -0.3991 -0.3696
 5399SOL    HW127830   4.037   2.706  13.453 -0.2167  1.1396  0.5707
 5399SOL    HW227831   3.994   2.842  13.385 -3.1845 -2.0277  0.2677
 5400SOL     OW27832   2.382   3.478   4.533  0.1822  0.4126  0.0578
 5400SOL    HW127833   2.332   3.442   4.459 -0.5012 -0.5107  0.9813
 5400SOL    HW227834   2.309   3.500   4.591  0.4524  1.9775 -0.1873
 5401SOL     OW27835   4.334   1.565   1.149  0.3051  0.7320  0.2046
 5401SOL    HW127836   4.271   1.627   1.112 -0.4948 -0.8811 -1.1488
 5401SOL    HW227837   4.331   1.501   1.077 -1.5722  0.0716  0.8852
 5402SOL     OW27838   0.791   0.359   3.764  0.1686 -0.5199  0.1178
 5402SOL    HW127839   0.821   0.446   3.738  2.1273 -0.4151  2.7415
 5402SOL    HW227840   0.730   0.379   3.835  1.0442 -0.5009  0.8610
 5403SOL     OW27841   0.743   4.001   6.010 -0.0103 -0.3698  0.1089
 5403SOL    HW127842   0.744   3.906   6.022  0.8882 -0.2981  0.6277
 5403SOL    HW227843   0.805   4.009   5.937  0.7893  0.2259  0.8538
 5404SOL     OW27844   1.519   2.733   7.295  0.1295  0.0138 -0.6350
 5404SOL    HW127845   1.586   2.684   7.344 -1.0764  0.1169  1.1333
 5404SOL    HW227846   1.481   2.789   7.363  1.1432 -0.3781  0.2536
 5405SOL     OW27847   1.738   2.720   4.335 -0.3144 -0.5058 -0.4029
 5405SOL    HW127848   1.789   2.763   4.267  1.4355 -1.9230  0.0215
 5405SOL    HW227849   1.666   2.782   4.348  0.4669  0.8635 -2.7691
 5406SOL     OW27850   1.289   2.110   4.757  0.2455 -0.1990  0.3902
 5406SOL    HW127851   1.281   2.189   4.811  0.9951  0.7820 -0.9395
 5406SOL    HW227852   1.374   2.077   4.784  1.0926  1.3036 -0.4630
 5407SOL     OW27853   3.034   3.481   4.688 -0.1788 -0.0105 -0.5880
 5407SOL    HW127854   3.039   3.518   4.600  0.8926  3.2004  0.8084
 5407SOL    HW227855   2.952   3.522   4.717  0.0600  0.0994 -0.0721
 5408SOL     OW27856   3.984   4.643   5.345  0.5783 -0.0387  0.5921
 5408SOL    HW127857   4.023   4.580   5.284  1.5308  2.1926 -1.1423
 5408SOL    HW227858   4.058   4.656   5.404  1.4487 -3.6994  0.3031
 5409SOL     OW27859   1.568   1.515   4.465  0.3554 -0.9304  0.0412
 5409SOL    HW127860   1.636   1.567   4.506 -1.3684  1.1893  0.1936
 5409SOL    HW227861   1.495   1.577   4.463  0.8353 -0.3264  1.3967
 5410SOL     OW27862   1.094   4.547  11.744  0.3908  0.1213 -0.0148
 5410SOL    HW127863   1.180   4.531  11.784 -0.3013  0.9173  1.7942
 5410SOL    HW227864   1.113   4.517  11.655  1.5913 -2.7773  1.2145
 5411SOL     OW27865   2.190   2.267   8.180 -0.3163 -0.2884 -0.4833
 5411SOL    HW127866   2.228   2.330   8.240 -1.1331  1.3254 -1.6588
 5411SOL    HW227867   2.254   2.248   8.112 -0.5309 -1.2925 -0.4166
 5412SOL     OW27868   0.333   0.051   1.495  0.4328 -0.1847  0.4195
 5412SOL    HW127869   0.367   4.698   1.487 -2.1596 -1.0941 -0.7484
 5412SOL    HW227870   0.400   0.101   1.541 -0.5096  1.1502  0.3640
 5413SOL     OW27871   2.525   3.246   2.764  0.4759  0.6135 -0.6568
 5413SOL    HW127872   2.581   3.171   2.787  0.5165  0.6890 -0.5143
 5413SOL    HW227873   2.598   3.307   2.750  1.5020  0.0607  2.4359
 5414SOL     OW27874   2.448   2.796   5.805 -0.0596  0.1818  0.2834
 5414SOL    HW127875   2.374   2.735   5.810  0.7206 -0.9585 -1.7723
 5414SOL    HW227876   2.402   2.862   5.754  0.2250  0.4520  0.3783
 5415SOL     OW27877   3.964   1.504   5.739  0.4097  0.0577 -0.1286
 5415SOL    HW127878   3.993   1.436   5.799  1.1828 -2.1783 -3.0657
 5415SOL    HW227879   4.001   1.582   5.780  3.3076 -1.3537 -0.0494
 5416SOL     OW27880   3.300   1.415   0.379 -0.5156  0.4196  0.2792
 5416SOL    HW127881   3.323   1.487   0.438 -0.0036  0.1572  0.3943
 5416SOL    HW227882   3.361   1.346   0.405 -0.0300 -0.0743 -2.2027
 5417SOL     OW27883   0.690   4.240   7.996  0.6579 -0.1444 -0.4446
 5417SOL    HW127884   0.688   4.271   8.086  1.5710  1.1660 -0.8738
 5417SOL    HW227885   0.621   4.297   7.962  0.5715 -0.8358 -1.4335
 5418SOL     OW27886   0.369   0.191   2.888 -0.1726 -0.2437 -0.0065
 5418SOL    HW127887   0.283   0.160   2.919 -0.5180  2.0608  1.3158
 5418SOL    HW227888   0.428   0.116   2.890 -1.7638 -1.5543 -1.9309
 5419SOL     OW27889   0.278   4.715   5.592  0.3326 -0.3046 -0.6586
 5419SOL    HW127890   0.356   4.661   5.585  1.3258  0.7259  2.5063
 5419SOL    HW227891   0.313   0.062   5.558 -1.9421  1.7145  1.9030
 5420SOL     OW27892   1.136   1.349  11.229 -0.1975  0.1492 -0.9140
 5420SOL    HW127893   1.097   1.418  11.283  0.2803 -0.3020  0.0047
 5420SOL    HW227894   1.115   1.377  11.139 -1.7674 -1.2700 -0.9807
 5421SOL     OW27895   1.806   3.679   3.835 -0.8142 -0.4229 -0.0713
 5421SOL    HW127896   1.751   3.645   3.765 -0.1735 -2.3522  0.3624
 5421SOL    HW227897   1.744   3.741   3.875  0.7408  1.9251 -1.2904
 5422SOL     OW27898   3.727   3.226   8.195  0.1891  0.1614  0.7339
 5422SOL    HW127899   3.739   3.201   8.286 -1.4136 -1.4800  0.4936
 5422SOL    HW227900   3.651   3.172   8.174  0.6828 -0.1865 -0.1888
 5423SOL     OW27901   1.222   4.203  12.311  0.7613  0.0426 -0.0737
 5423SOL    HW127902   1.289   4.216  12.243  1.3622  1.6544  0.8354
 5423SOL    HW227903   1.250   4.121  12.352  1.0140 -0.8328 -1.9654
 5424SOL     OW27904   2.600   2.035   3.952  0.2855 -0.3769 -0.6528
 5424SOL    HW127905   2.652   1.957   3.932 -0.9544 -0.9678 -1.5579
 5424SOL    HW227906   2.618   2.043   4.046 -2.2276  2.9274 -0.4685
 5425SOL     OW27907   4.267   3.602   6.245  0.8129  0.8140 -0.2116
 5425SOL    HW127908   4.287   3.514   6.214 -0.0287  0.3256  0.6330
 5425SOL    HW227909   4.343   3.647   6.209 -0.4910  2.5838 -0.7409
 5426SOL     OW27910   3.834   4.645   2.524  0.0759  0.1700 -0.0953
 5426SOL    HW127911   3.874   4.574   2.472 -0.7472  0.6885 -1.4468
 5426SOL    HW227912   3.765   4.599   2.571 -0.5561  1.1141 -0.1181
 5427SOL     OW27913   1.685   4.558   3.814  0.2547  0.0018  0.2066
 5427SOL    HW127914   1.700   4.614   3.890 -0.9908 -0.2787  0.6789
 5427SOL    HW227915   1.612   4.504   3.847  0.2607 -1.1814 -1.7062
 5428SOL     OW27916   0.629   1.705   7.091  0.4028 -0.6260  1.0744
 5428SOL    HW127917   0.619   1.778   7.030  1.2396  0.4811  2.2870
 5428SOL    HW227918   0.589   1.740   7.170 -0.7439 -0.4953  0.4304
 5429SOL     OW27919   4.280   2.288   2.383 -0.6619  0.7304 -0.1604
 5429SOL    HW127920   4.218   2.305   2.455  0.9841 -0.1996  1.4710
 5429SOL    HW227921   4.242   2.209   2.343 -1.6482  2.1878 -2.0995
 5430SOL     OW27922   2.440   2.210   9.354  0.8490  0.4983 -0.2530
 5430SOL    HW127923   2.346   2.218   9.372  0.8779  0.3483 -0.0472
 5430SOL    HW227924   2.466   2.293   9.313  0.2505  0.3432 -0.9633
 5431SOL     OW27925   1.187   3.697   5.149  0.5319  0.9289  0.0846
 5431SOL    HW127926   1.201   3.637   5.076 -1.9492  0.8157 -0.3082
 5431SOL    HW227927   1.155   3.631   5.211  1.0753 -0.2118 -0.8536
 5432SOL     OW27928   2.935   0.897   3.387  0.2335 -0.2699 -0.0106
 5432SOL    HW127929   2.842   0.893   3.366 -0.0446 -2.4213  1.6544
 5432SOL    HW227930   2.933   0.898   3.483  1.7054 -3.7597  0.0449
 5433SOL     OW27931   0.074   4.580   3.510 -0.4268 -0.5090 -0.4647
 5433SOL    HW127932   0.042   4.638   3.442  1.0020 -0.9293 -1.5038
 5433SOL    HW227933   0.022   4.502   3.494  0.6952 -1.1933 -0.7958
 5434SOL     OW27934   0.425   4.375   1.048 -0.1378 -0.1047  0.0295
 5434SOL    HW127935   0.367   4.334   0.984  1.6803 -2.3175 -0.2103
 5434SOL    HW227936   0.446   4.303   1.107  0.7272 -0.7725 -1.0969
 5435SOL     OW27937   4.059   4.687   7.672  0.4427 -0.1195 -0.6500
 5435SOL    HW127938   4.041   4.606   7.625  0.7041 -1.4568  1.6019
 5435SOL    HW227939   4.142   4.721   7.637  0.4320  0.6992  0.1045
 5436SOL     OW27940   3.736   4.713  10.914 -0.2345 -0.0750  0.0050
 5436SOL    HW127941   3.694   0.037  10.976 -1.6797 -2.2897  1.1779
 5436SOL    HW227942   3.660   4.671  10.873 -0.2746  2.3922 -2.4064
 5437SOL     OW27943   2.590   3.873  16.066  0.0362 -0.1889  0.3737
 5437SOL    HW127944   2.659   3.811  16.041  0.9029  0.7761  0.3710
 5437SOL    HW227945   2.533   3.820  16.122 -1.2531  0.5967 -0.2066
 5438SOL     OW27946   2.569   0.553   6.927  0.5628  0.0408  0.0447
 5438SOL    HW127947   2.519   0.585   6.853  0.7986  0.6523  0.1553
 5438SOL    HW227948   2.630   0.626   6.935  0.3250  0.2814 -0.3314
 5439SOL     OW27949   2.981   0.060   3.053 -0.2348  0.1253 -0.1574
 5439SOL    HW127950   3.028   0.009   3.120 -0.8798 -0.7668 -0.3726
 5439SOL    HW227951   2.915   0.101   3.110  1.7554 -0.3724  2.5215
 5440SOL     OW27952   1.195   0.098  15.403  0.1400 -0.3624  0.2084
 5440SOL    HW127953   1.177   0.094  15.309 -0.3848  0.0867  0.2941
 5440SOL    HW227954   1.283   0.061  15.395  0.0650 -1.0433  2.5289
 5441SOL     OW27955   4.234   1.829   2.755 -0.2012  0.3797  0.5550
 5441SOL    HW127956   4.147   1.806   2.722  0.1720 -1.5187  0.8993
 5441SOL    HW227957   4.238   1.912   2.709 -0.0667  0.3488  0.5120
 5442SOL     OW27958   1.836   1.611   1.870 -0.3522 -0.3138 -0.1754
 5442SOL    HW127959   1.783   1.575   1.799 -0.4833  1.0751 -0.7816
 5442SOL    HW227960   1.833   1.538   1.931  1.3505  0.4274  0.7948
 5443SOL     OW27961   0.478   3.870   2.201 -0.8348 -0.1231  0.3208
 5443SOL    HW127962   0.465   3.959   2.168 -0.2903 -0.2214 -0.1571
 5443SOL    HW227963   0.565   3.860   2.163  0.1528 -2.1081  3.1507
 5444SOL     OW27964   3.699   2.539  16.508 -0.2935 -0.4455 -0.3365
 5444SOL    HW127965   3.709   2.623  16.463  1.9552 -0.3216  0.3969
 5444SOL    HW227966   3.789   2.510  16.521 -1.0002 -1.2997  2.7916
 5445SOL     OW27967   0.888   4.064   8.006  0.1628 -0.1523 -0.1389
 5445SOL    HW127968   0.805   4.098   7.973 -0.9244 -1.7192  0.9508
 5445SOL    HW227969   0.872   4.055   8.100 -0.2871 -0.1392 -0.2140
 5446SOL     OW27970   4.403   0.381  12.327 -0.4701 -0.0950 -0.3287
 5446SOL    HW127971   4.445   0.424  12.252 -2.5928  0.2292 -1.3374
 5446SOL    HW227972   4.315   0.381  12.289 -1.2668 -1.3908  1.5532
 5447SOL     OW27973   3.063   0.094   5.108  0.0891 -0.4063  0.2477
 5447SOL    HW127974   3.149   0.083   5.148  0.0517 -3.0518 -0.3739
 5447SOL    HW227975   3.086   0.070   5.018  0.2357 -0.2811  0.2527
 5448SOL     OW27976   1.597   0.921   3.920  0.0797 -0.5584 -0.1252
 5448SOL    HW127977   1.610   0.961   3.834 -2.9595 -0.4208 -0.5240
 5448SOL    HW227978   1.671   0.860   3.925 -0.3481 -0.9454  1.3485
 5449SOL     OW27979   0.948   2.892   8.353  0.4027  0.2212  0.4585
 5449SOL    HW127980   0.969   2.933   8.438  0.5251  0.9017  0.1014
 5449SOL    HW227981   0.857   2.865   8.363  0.6907 -0.2433  1.8261
 5450SOL     OW27982   0.277   2.258   9.795 -0.1066  0.3670  0.7679
 5450SOL    HW127983   0.265   2.288   9.885 -0.5018 -2.3003  1.5854
 5450SOL    HW227984   0.243   2.169   9.806 -1.4776  0.6291 -1.4061
 5451SOL     OW27985   2.127   2.619   6.782 -0.2264  0.0431 -0.1193
 5451SOL    HW127986   2.202   2.564   6.759 -1.2683 -1.6644  0.5669
 5451SOL    HW227987   2.062   2.549   6.775 -2.2181  1.8331  0.3571
 5452SOL     OW27988   3.302   4.646  11.819 -0.3271  0.0212  0.0653
 5452SOL    HW127989   3.358   4.713  11.857  0.3517  0.0000 -0.8863
 5452SOL    HW227990   3.249   4.618  11.893 -0.0338 -0.0625  0.2432
 5453SOL     OW27991   0.964   0.356   6.224  0.4888  0.3225 -0.2599
 5453SOL    HW127992   0.912   0.315   6.155 -2.5066  1.0509  1.5246
 5453SOL    HW227993   0.897   0.380   6.289  1.8827  1.9598  0.5766
 5454SOL     OW27994   0.189   1.294   4.288 -0.6474  0.3297  0.3138
 5454SOL    HW127995   0.234   1.224   4.334 -1.7545  0.0092  0.9058
 5454SOL    HW227996   0.122   1.322   4.351 -0.2927  0.0628  0.8097
 5455SOL     OW27997   1.737   1.112   5.043 -0.2979  0.0799  0.0471
 5455SOL    HW127998   1.827   1.095   5.017 -0.3512 -1.2160  0.6909
 5455SOL    HW227999   1.688   1.086   4.965  1.0068 -2.4897  0.0828
 5456SOL     OW28000   1.399   1.488  13.063  0.0282 -0.0371  0.1957
 5456SOL    HW128001   1.304   1.480  13.052  0.0596 -0.3956  0.1859
 5456SOL    HW228002   1.414   1.393  13.071  0.5266  0.0969  0.7917
 5457SOL     OW28003   3.932   3.973   5.483 -0.2231  0.2777  0.1019
 5457SOL    HW128004   3.960   3.931   5.564  3.5044  0.4913 -1.0407
 5457SOL    HW228005   3.998   3.940   5.421 -1.5933  0.4165 -1.4286
 5458SOL     OW28006   1.116   1.835  10.946  0.0771  0.1329 -0.2546
 5458SOL    HW128007   1.060   1.898  10.991 -0.6027 -0.1973 -0.6526
 5458SOL    HW228008   1.183   1.902  10.931  1.0223 -0.3294  1.7844
 5459SOL     OW28009   0.468   1.163   7.200  0.3021  0.1939 -0.0793
 5459SOL    HW128010   0.562   1.173   7.184  0.2546  1.2282  0.2986
 5459SOL    HW228011   0.447   1.070   7.200 -1.6602  0.6392  1.4242
 5460SOL     OW28012   4.695   4.132   2.879  0.3053  0.2116 -0.0345
 5460SOL    HW128013   0.027   4.083   2.926 -1.0987  1.8339  3.6974
 5460SOL    HW228014   4.688   4.206   2.940 -0.7353  0.0768  0.0065
 5461SOL     OW28015   2.806   1.682   8.722  0.1299  0.6264  0.0594
 5461SOL    HW128016   2.711   1.690   8.714  0.1246  0.8813  0.3751
 5461SOL    HW228017   2.846   1.766   8.703 -0.6977  1.0492  0.1786
 5462SOL     OW28018   1.317   4.071  12.003  0.2031 -0.3574  0.2643
 5462SOL    HW128019   1.409   4.043  12.000 -0.0945 -1.3878  0.6475
 5462SOL    HW228020   1.289   3.988  11.964 -1.3694  0.0946  0.4452
 5463SOL     OW28021   2.101   2.270   7.372  0.0293  0.8191 -0.1172
 5463SOL    HW128022   2.069   2.349   7.328  1.3994  1.6758  0.4153
 5463SOL    HW228023   2.054   2.256   7.455  0.8018 -0.3304  0.1224
 5464SOL     OW28024   4.715   0.069   1.868 -0.4422  0.1182  0.6903
 5464SOL    HW128025   4.676   0.035   1.787 -0.4669 -1.1161  1.2104
 5464SOL    HW228026   4.709   0.164   1.856 -0.2372 -0.0065 -0.4605
 5465SOL     OW28027   1.049   0.317   9.692  0.3629  0.2567  0.4478
 5465SOL    HW128028   0.961   0.352   9.681  0.5009  0.2597 -0.6983
 5465SOL    HW228029   1.038   0.239   9.746  0.1807  1.0647  1.5745
 5466SOL     OW28030   1.535   3.620   5.964  0.6620 -0.3285 -0.4433
 5466SOL    HW128031   1.556   3.626   5.871  1.3327  0.4811 -0.2392
 5466SOL    HW228032   1.541   3.526   5.981  0.7920  0.0650  1.7529
 5467SOL     OW28033   1.532   3.499   5.075  0.0720  0.7542  0.0795
 5467SOL    HW128034   1.560   3.408   5.069 -0.8166  0.7100 -3.7447
 5467SOL    HW228035   1.604   3.543   5.120  2.1110 -1.8485 -0.6312
 5468SOL     OW28036   2.747   3.667  16.143  0.4407  0.7460  0.4381
 5468SOL    HW128037   2.839   3.684  16.161  1.2454 -2.7191 -0.4302
 5468SOL    HW228038   2.741   3.583  16.188  2.8343  0.5885  0.4366
 5469SOL     OW28039   1.129   2.701   2.740  0.0850 -0.7662  0.1959
 5469SOL    HW128040   1.177   2.750   2.807  0.5671 -2.1200  0.8391
 5469SOL    HW228041   1.086   2.640   2.800  1.8292 -2.0349  0.1673
 5470SOL     OW28042   1.328   2.976   3.480 -0.4734  0.2850 -0.1519
 5470SOL    HW128043   1.318   2.901   3.421  3.5823 -0.6247  0.3128
 5470SOL    HW228044   1.306   3.049   3.422 -0.4939 -0.0671 -0.5862
 5471SOL     OW28045   4.548   3.526   8.199  0.2232 -0.1080 -0.4799
 5471SOL    HW128046   4.602   3.447   8.200  1.0360  0.4474 -0.6125
 5471SOL    HW228047   4.608   3.595   8.229  0.2698 -0.7331  0.8932
 5472SOL     OW28048   4.056   2.158   8.033  0.2548  0.6598 -0.5167
 5472SOL    HW128049   4.083   2.226   7.972 -1.7249  0.5528 -1.4880
 5472SOL    HW228050   3.976   2.128   7.991 -1.4100  2.2113  1.5729
 5473SOL     OW28051   3.807   1.638   2.860 -0.2898  0.0224 -0.1479
 5473SOL    HW128052   3.769   1.654   2.947  0.4882 -0.4543  0.2852
 5473SOL    HW228053   3.889   1.596   2.885 -1.1366  0.3249  3.2262
 5474SOL     OW28054   1.160   3.129   8.030  0.1073  0.3030  0.3435
 5474SOL    HW128055   1.162   3.121   7.934  0.2190 -1.5187  0.5067
 5474SOL    HW228056   1.125   3.046   8.062 -0.0814 -0.1701 -1.0837
 5475SOL     OW28057   3.222   2.413   6.412  0.6508  0.2514 -0.3474
 5475SOL    HW128058   3.315   2.392   6.418 -0.0847 -1.9476  3.2418
 5475SOL    HW228059   3.205   2.407   6.318  0.4435 -0.0237 -0.2916
 5476SOL     OW28060   3.457   2.580   1.931  0.5799 -0.2725 -0.5606
 5476SOL    HW128061   3.512   2.510   1.897  1.2752  0.8179 -1.6826
 5476SOL    HW228062   3.502   2.658   1.898  0.4807 -1.0976 -2.6304
 5477SOL     OW28063   2.140   1.263   1.307  0.3722 -0.0656 -1.2283
 5477SOL    HW128064   2.202   1.276   1.235  1.4114 -0.0298 -0.3375
 5477SOL    HW228065   2.058   1.296   1.271  0.3471  0.1835 -0.9425
 5478SOL     OW28066   3.311   2.115  11.527 -0.4241  0.5060  0.4082
 5478SOL    HW128067   3.300   2.030  11.570 -1.3233  0.8522  0.8549
 5478SOL    HW228068   3.232   2.112  11.473  0.6717 -0.4918 -1.1546
 5479SOL     OW28069   2.515   1.498   3.363  0.0208  0.2408  0.1850
 5479SOL    HW128070   2.519   1.428   3.298 -0.1717 -1.0858  1.5958
 5479SOL    HW228071   2.423   1.502   3.389  0.0799  0.7178  0.3154
 5480SOL     OW28072   0.251   2.095   4.699 -0.1288  0.4012  0.7030
 5480SOL    HW128073   0.224   2.056   4.782 -1.5882  0.6627  0.3517
 5480SOL    HW228074   0.172   2.071   4.651 -1.0338  0.4555  2.1504
 5481SOL     OW28075   2.064   0.753   1.248 -0.0319 -0.3950  0.1824
 5481SOL    HW128076   2.031   0.678   1.198 -0.0142  0.2290 -0.7585
 5481SOL    HW228077   1.984   0.778   1.293 -1.4606 -1.8531 -1.5601
 5482SOL     OW28078   3.788   2.617   3.292 -0.0419 -0.0587 -0.3320
 5482SOL    HW128079   3.808   2.711   3.294 -0.1029 -0.0335 -0.8944
 5482SOL    HW228080   3.704   2.637   3.334  0.6476  0.6231  0.7348
 5483SOL     OW28081   1.486   4.263   0.076  0.8855 -0.3969 -0.3086
 5483SOL    HW128082   1.441   4.206   0.138 -0.1304  0.8636  0.1069
 5483SOL    HW228083   1.495   4.347   0.122  0.4610  0.1492 -1.2161
 5484SOL     OW28084   3.975   3.776  17.010  0.0184 -0.3096 -0.4599
 5484SOL    HW128085   3.897   3.809  17.055  1.4756  1.4282  0.7582
 5484SOL    HW228086   4.012   3.716  17.075 -0.7542 -0.1522  0.1258
 5485SOL     OW28087   2.807   1.960   6.016 -0.3267  0.2493  0.8938
 5485SOL    HW128088   2.738   1.900   6.043 -0.6735  0.4609  0.4827
 5485SOL    HW228089   2.798   2.025   6.086  1.3436  1.5308 -0.0531
 5486SOL     OW28090   2.371   3.346  17.380 -0.8076 -0.3976  0.9140
 5486SOL    HW128091   2.403   3.436  17.387 -1.7690 -0.0181  0.4165
 5486SOL    HW228092   2.452   3.311  17.344 -0.7248  1.7202 -0.9816
 5487SOL     OW28093   3.923   1.157   6.068  0.2109 -0.2657  0.3347
 5487SOL    HW128094   3.985   1.085   6.074  1.3400  0.7049  0.1450
 5487SOL    HW228095   3.880   1.139   6.153 -4.5245 -0.5601 -2.0957
 5488SOL     OW28096   0.520   1.827   5.750  0.9961 -0.5529 -0.1839
 5488SOL    HW128097   0.438   1.785   5.723 -0.2796  1.2759  0.8359
 5488SOL    HW228098   0.496   1.872   5.831 -0.2494  1.1706 -1.5026
 5489SOL     OW28099   2.579   0.304   2.665 -0.9204  0.1371 -0.1961
 5489SOL    HW128100   2.601   0.352   2.745  1.6071  1.1167 -1.4760
 5489SOL    HW228101   2.485   0.322   2.665 -0.7759  0.8867 -1.0568
 5490SOL     OW28102   1.730   2.202   8.691  0.3382  0.7439 -0.0990
 5490SOL    HW128103   1.688   2.161   8.616 -0.7918  0.1136  0.8816
 5490SOL    HW228104   1.719   2.138   8.762  0.8450  0.6992 -0.0626
 5491SOL     OW28105   3.708   4.446   1.740  0.1037  0.5018 -0.1534
 5491SOL    HW128106   3.679   4.357   1.719  1.3014  0.0370  0.1591
 5491SOL    HW228107   3.801   4.428   1.757 -0.0500 -0.0428  0.1182
 5492SOL     OW28108   1.866   3.917   9.383  0.0941 -0.7954  0.1424
 5492SOL    HW128109   1.953   3.927   9.344 -0.3798  0.8625 -0.4761
 5492SOL    HW228110   1.865   3.856   9.458 -2.0342  0.0909  0.8267
 5493SOL     OW28111   4.115   4.734   8.162  0.3725 -0.0776  0.7166
 5493SOL    HW128112   4.108   0.085   8.202  0.8324  0.8142 -1.1454
 5493SOL    HW228113   4.024   4.716   8.137  0.2197  1.9453 -0.2383
 5494SOL     OW28114   3.711   4.708   5.341 -0.3136  0.0603 -0.1697
 5494SOL    HW128115   3.805   4.703   5.358 -0.2267 -0.3585 -0.7569
 5494SOL    HW228116   3.698   0.066   5.353 -0.4205  0.0779 -0.4170
 5495SOL     OW28117   1.221   3.109  13.347 -0.2841  0.7463  0.1187
 5495SOL    HW128118   1.188   3.019  13.343  0.8256  0.4091 -1.4709
 5495SOL    HW228119   1.227   3.129  13.441 -1.1178 -1.3156  0.6053
 5496SOL     OW28120   1.257   0.272   8.423 -0.2352  0.5054 -0.0409
 5496SOL    HW128121   1.207   0.190   8.420 -1.3926  1.1266  2.7395
 5496SOL    HW228122   1.293   0.267   8.335 -1.5280 -0.7902 -0.5038
 5497SOL     OW28123   0.859   3.669   3.525 -0.0026 -0.2483 -0.5182
 5497SOL    HW128124   0.932   3.724   3.555  0.6898 -1.7918  0.6670
 5497SOL    HW228125   0.893   3.584   3.554 -1.6777 -0.6440  0.3300
 5498SOL     OW28126   0.484   4.373   5.486  0.2428 -0.2687  0.6337
 5498SOL    HW128127   0.497   4.460   5.523  0.2577  0.2384 -0.5620
 5498SOL    HW228128   0.544   4.381   5.412  1.0586 -1.1439  1.2015
 5499SOL     OW28129   4.634   4.363  16.333 -0.1621  0.3612  0.0077
 5499SOL    HW128130   4.582   4.285  16.314 -0.3310 -0.3148  3.1696
 5499SOL    HW228131   4.586   4.388  16.413  0.5873 -0.4839  0.7229
 5500SOL     OW28132   1.853   1.652   6.084 -0.1056 -0.3896  0.2756
 5500SOL    HW128133   1.789   1.687   6.146  1.6885  2.3050  0.5691
 5500SOL    HW228134   1.818   1.680   6.000  2.4348 -1.8240 -1.2650
 5501SOL     OW28135   1.651   4.560   1.726  0.0741  0.1288  0.3742
 5501SOL    HW128136   1.671   4.595   1.812  0.8393  3.3633 -1.1305
 5501SOL    HW228137   1.556   4.554   1.741  0.2506 -1.2498  0.9575
 5502SOL     OW28138   1.359   3.481   9.306 -0.0379 -0.8815 -0.7026
 5502SOL    HW128139   1.414   3.538   9.252  3.3224 -1.3955  2.1465
 5502SOL    HW228140   1.281   3.534   9.323  0.7914  0.1988 -0.2314
 5503SOL     OW28141   1.651   4.021   8.630  0.3354  0.2199 -0.2880
 5503SOL    HW128142   1.697   3.982   8.704  0.3061 -0.8615 -0.8339
 5503SOL    HW228143   1.664   4.114   8.644 -1.7488  0.4161  0.3457
 5504SOL     OW28144   2.684   2.618   3.262 -0.5891 -0.3059  0.2569
 5504SOL    HW128145   2.629   2.553   3.306 -1.1371 -1.1145 -1.6358
 5504SOL    HW228146   2.664   2.586   3.174 -0.9278 -0.7994  0.5142
 5505SOL     OW28147   4.653   4.407   3.951 -0.4053  0.2972 -0.2158
 5505SOL    HW128148   4.582   4.351   3.921  0.2310  0.0902 -1.3601
 5505SOL    HW228149   4.630   4.399   4.043  0.9001 -0.2608  0.0593
 5506SOL     OW28150   2.262   2.831   0.476 -0.0211 -0.4386 -0.4356
 5506SOL    HW128151   2.183   2.842   0.529 -0.9986  0.4810 -2.0857
 5506SOL    HW228152   2.217   2.801   0.397  1.5350  0.8655 -1.8113
 5507SOL     OW28153   0.134   1.966   3.705 -0.0252  0.7144  0.7464
 5507SOL    HW128154   0.071   1.922   3.647 -2.0380  0.6011  3.0048
 5507SOL    HW228155   0.201   1.898   3.708  0.3406  1.0830  0.8122
 5508SOL     OW28156   2.839   2.296   8.724 -0.0535  0.1423 -0.4010
 5508SOL    HW128157   2.879   2.367   8.674 -1.5421  1.0885 -0.2496
 5508SOL    HW228158   2.911   2.273   8.783  1.7494  1.4415 -2.1058
 5509SOL     OW28159   2.891   4.538  12.147 -0.4395 -0.3000  0.7168
 5509SOL    HW128160   2.850   4.618  12.113  0.0892  0.4478  1.7981
 5509SOL    HW228161   2.865   4.534  12.239 -0.3040  0.6674  0.8039
 5510SOL     OW28162   2.524   2.199   3.571  0.1652  0.6432  0.0101
 5510SOL    HW128163   2.481   2.182   3.656  1.9239 -0.8520  0.5930
 5510SOL    HW228164   2.614   2.180   3.596  0.2016  0.5973 -0.1582
 5511SOL     OW28165   2.943   2.996  16.430 -0.6400 -0.3212  0.3930
 5511SOL    HW128166   2.984   2.910  16.443 -1.5323 -0.9498 -0.9099
 5511SOL    HW228167   2.867   2.996  16.488 -0.5236  2.0921  0.5090
 5512SOL     OW28168   0.774   1.906   3.878 -0.4592  0.2082 -0.3213
 5512SOL    HW128169   0.858   1.914   3.923  0.1246 -0.3225 -1.3463
 5512SOL    HW228170   0.749   1.815   3.895 -1.9956  0.9013  1.2069
 5513SOL     OW28171   2.665   1.671  16.573  0.1114  0.4585 -0.4816
 5513SOL    HW128172   2.682   1.742  16.635  1.5377  0.7856 -1.2335
 5513SOL    HW228173   2.750   1.629  16.587 -0.6907 -1.3194 -0.9699
 5514SOL     OW28174   0.612   1.321   6.350  0.0313 -0.1202 -0.3196
 5514SOL    HW128175   0.543   1.282   6.297  0.7413 -0.5618 -0.9156
 5514SOL    HW228176   0.584   1.413   6.345  0.8339  0.1026 -0.8009
 5515SOL     OW28177   0.826   3.920   5.119 -0.8200 -0.3965  0.2771
 5515SOL    HW128178   0.733   3.931   5.100 -0.6413  0.3740 -0.1602
 5515SOL    HW228179   0.820   3.942   5.212  2.5264  0.9029  0.1831
 5516SOL     OW28180   1.464   1.770  15.398 -0.2466  0.0386 -0.2733
 5516SOL    HW128181   1.546   1.811  15.369 -0.6457  0.5703 -0.6445
 5516SOL    HW228182   1.493   1.768  15.489 -0.8604  2.4185 -0.0252
 5517SOL     OW28183   3.915   0.397  17.284  0.3559 -0.1218  0.0327
 5517SOL    HW128184   3.874   0.310  17.279  1.3739 -0.6623  1.2042
 5517SOL    HW228185   3.842   0.451  17.253 -0.3617 -0.1068  1.7380
 5518SOL     OW28186   4.166   1.723   3.155 -0.2244  0.1858 -0.8186
 5518SOL    HW128187   4.162   1.633   3.122 -2.1666 -0.1946  0.4755
 5518SOL    HW228188   4.076   1.755   3.145 -0.1908  0.7198  0.5091
 5519SOL     OW28189   2.905   2.027   4.422 -0.9361 -0.6084  0.2367
 5519SOL    HW128190   2.895   2.077   4.504  0.0884 -0.3800  0.2281
 5519SOL    HW228191   2.977   1.969   4.447 -1.3916 -0.7240  1.3205
 5520SOL     OW28192   4.026   2.858   0.544  0.6313 -0.8773  0.2585
 5520SOL    HW128193   4.057   2.769   0.529  3.4110  0.1004  0.3304
 5520SOL    HW228194   3.977   2.878   0.464 -0.0211 -0.7128  0.7039
 5521SOL     OW28195   0.027   1.877   3.045 -0.3224  0.7533 -0.3547
 5521SOL    HW128196   4.735   1.967   3.028 -2.5276  0.8159  3.5174
 5521SOL    HW228197   0.087   1.860   2.972 -0.7452  0.9317 -0.7429
 5522SOL     OW28198   2.196   0.362   7.603 -0.1519 -0.3828 -0.0521
 5522SOL    HW128199   2.279   0.323   7.573 -1.5654 -2.6754 -1.0191
 5522SOL    HW228200   2.231   0.446   7.632  3.6467 -2.1709  0.5113
 5523SOL     OW28201   1.852   4.466  12.147  0.1480  0.3112  0.0991
 5523SOL    HW128202   1.759   4.445  12.148 -0.2841  2.2119 -0.4178
 5523SOL    HW228203   1.860   4.498  12.237  0.7187 -0.8368  0.4533
 5524SOL     OW28204   2.857   3.962   8.482 -0.5273  0.3417  0.0108
 5524SOL    HW128205   2.902   4.044   8.460  3.2223 -1.5829  0.5101
 5524SOL    HW228206   2.876   3.945   8.574  0.3683  0.9296 -0.0651
 5525SOL     OW28207   3.623   0.427   6.314 -0.0205 -0.1129 -0.8070
 5525SOL    HW128208   3.652   0.518   6.322  0.6123 -0.2837 -1.1458
 5525SOL    HW228209   3.558   0.423   6.385 -2.3600 -1.4765 -3.0666
 5526SOL     OW28210   3.221   2.510   3.533  0.0183  0.2606  0.0215
 5526SOL    HW128211   3.276   2.538   3.606  1.1135 -0.4617 -0.5347
 5526SOL    HW228212   3.203   2.593   3.489 -0.5861  0.5164  0.7437
 5527SOL     OW28213   1.689   0.416   1.478  0.1814  0.1170  0.8099
 5527SOL    HW128214   1.769   0.462   1.504  0.3070  0.4277 -0.1042
 5527SOL    HW228215   1.674   0.357   1.551  0.8361 -2.0830 -0.8424
 5528SOL     OW28216   0.309   3.076  11.988 -0.1994  0.0652 -0.1252
 5528SOL    HW128217   0.263   3.123  11.918  0.0182  0.3369 -0.0866
 5528SOL    HW228218   0.269   2.990  11.975  0.2942  0.0147 -1.3197
 5529SOL     OW28219   0.366   1.307   5.607 -0.3088  0.7477 -0.3222
 5529SOL    HW128220   0.351   1.400   5.587  0.8516  0.9106 -0.4678
 5529SOL    HW228221   0.436   1.281   5.547 -0.2770 -1.4839  0.6995
 5530SOL     OW28222   0.507   2.711   6.119  0.2213 -0.3263 -0.1205
 5530SOL    HW128223   0.581   2.757   6.159 -0.8550 -0.1348  1.6469
 5530SOL    HW228224   0.441   2.779   6.110 -0.2332 -0.1743  4.0853
 5531SOL     OW28225   0.560   2.334   2.440 -0.5099  0.3136  0.0814
 5531SOL    HW128226   0.607   2.415   2.423  2.4782 -1.6536 -1.1670
 5531SOL    HW228227   0.472   2.359   2.412 -0.3050  1.4646  0.4986
 5532SOL     OW28228   2.428   0.512  14.047 -0.0426  0.0751  0.3593
 5532SOL    HW128229   2.349   0.518  13.992 -1.3909 -1.0927  2.1991
 5532SOL    HW228230   2.454   0.421  14.031 -0.5649  0.0306 -0.2740
 5533SOL     OW28231   3.270   2.424   4.864 -0.0174 -0.5170 -1.2005
 5533SOL    HW128232   3.254   2.490   4.796  0.7482 -0.9514 -1.8001
 5533SOL    HW228233   3.195   2.454   4.915  0.8139  0.1852 -0.3976
 5534SOL     OW28234   2.917   0.307   4.797  0.6934 -0.0811 -0.0293
 5534SOL    HW128235   2.933   0.324   4.889  0.0324 -0.1896  0.1036
 5534SOL    HW228236   2.900   0.394   4.763  1.0857 -0.5109 -1.3633
 5535SOL     OW28237   1.150   1.626   9.928 -0.1427  0.0137  0.0190
 5535SOL    HW128238   1.203   1.667   9.996  1.5169 -0.8016 -0.7951
 5535SOL    HW228239   1.209   1.612   9.854 -1.5610 -3.4671 -0.4116
 5536SOL     OW28240   0.086   1.646   6.613 -0.2812 -0.0854  0.3947
 5536SOL    HW128241   0.034   1.629   6.692  0.3261  1.1196  1.0441
 5536SOL    HW228242   0.073   1.737   6.586 -2.1049 -0.5734 -0.3720
 5537SOL     OW28243   1.429   4.626   4.114  0.4752  0.2812  0.2735
 5537SOL    HW128244   1.391   4.569   4.047  3.1310 -1.6297  0.4159
 5537SOL    HW228245   1.382   4.598   4.193  2.3444 -1.2264  0.8561
 5538SOL     OW28246   2.494   3.206  13.331 -0.1349 -0.3899  0.3936
 5538SOL    HW128247   2.568   3.200  13.392 -1.3487 -0.6697  1.8440
 5538SOL    HW228248   2.547   3.222  13.253 -1.9780 -1.0362 -0.9902
 5539SOL     OW28249   2.756   0.138   9.097  0.0598 -0.0123 -0.0696
 5539SOL    HW128250   2.681   0.079   9.109 -1.2364  1.3089 -1.7667
 5539SOL    HW228251   2.809   0.087   9.037  0.3396 -1.0696  1.0878
 5540SOL     OW28252   4.631   3.896   6.500  0.0470 -0.7244  0.5535
 5540SOL    HW128253   4.642   3.892   6.595 -0.9006 -0.6492  0.6690
 5540SOL    HW228254   4.599   3.986   6.495  0.8283 -0.5430 -0.9526
 5541SOL     OW28255   0.176   0.979  14.172  0.0534  0.1872 -0.4523
 5541SOL    HW128256   0.097   0.956  14.123  0.4781 -0.2042 -0.9549
 5541SOL    HW228257   0.190   0.896  14.218 -0.4300  1.9703  2.8859
 5542SOL     OW28258   2.090   4.380   2.894 -0.4560 -0.0507 -0.2076
 5542SOL    HW128259   2.141   4.330   2.957 -2.3464  1.5119  2.5977
 5542SOL    HW228260   2.036   4.314   2.849 -1.1579  0.1161  0.3892
 5543SOL     OW28261   1.816   2.440   8.683 -0.5197  0.0564  0.0097
 5543SOL    HW128262   1.907   2.438   8.714  0.5697  0.5929 -3.0772
 5543SOL    HW228263   1.789   2.350   8.696  3.5491 -0.8861  2.0276
 5544SOL     OW28264   0.340   2.394   2.284 -0.1979 -0.2031  0.0249
 5544SOL    HW128265   0.254   2.356   2.266 -1.0579  2.0525 -0.6393
 5544SOL    HW228266   0.391   2.342   2.222  3.0782  2.9781  0.0875
 5545SOL     OW28267   3.428   1.830   1.897 -0.0824  0.1807  0.0850
 5545SOL    HW128268   3.396   1.783   1.974 -0.6435 -2.4021 -1.7271
 5545SOL    HW228269   3.402   1.768   1.829 -1.5079  0.0065  0.7899
 5546SOL     OW28270   4.473   4.418   0.156  0.3915  0.2731 -0.1145
 5546SOL    HW128271   4.445   4.357   0.088 -0.6724 -0.5499  1.0665
 5546SOL    HW228272   4.453   4.363   0.231  0.4280 -0.4783 -0.6616
 5547SOL     OW28273   1.511   0.756  11.632 -0.5748  0.2195 -0.2933
 5547SOL    HW128274   1.529   0.717  11.718  0.4324 -1.4939 -1.2732
 5547SOL    HW228275   1.548   0.844  11.644  0.4969 -0.2540 -0.0869
 5548SOL     OW28276   3.390   2.343   5.243 -0.6802 -0.4872  0.2067
 5548SOL    HW128277   3.417   2.333   5.334  1.9632  0.2987 -0.4799
 5548SOL    HW228278   3.321   2.409   5.249 -0.2705 -0.1264  0.9420
 5549SOL     OW28279   0.309   0.404   7.509  0.5334 -0.4535 -0.3083
 5549SOL    HW128280   0.273   0.382   7.595 -0.1250 -0.8407 -0.6799
 5549SOL    HW228281   0.237   0.405   7.446 -0.0870  0.8679  0.4300
 5550SOL     OW28282   3.975   1.069   9.076 -0.3998 -0.1847 -0.8083
 5550SOL    HW128283   3.895   1.022   9.098  0.3918 -0.6348  1.0997
 5550SOL    HW228284   4.028   1.025   9.142 -0.8671  0.0092 -0.3075
 5551SOL     OW28285   3.185   3.187   5.717  0.0143 -0.5106  0.3448
 5551SOL    HW128286   3.153   3.131   5.645  0.9656  1.2057 -1.4105
 5551SOL    HW228287   3.199   3.119   5.783 -0.4602 -1.6418 -0.7014
 5552SOL     OW28288   2.847   4.709   8.656  0.0655  0.0027  0.3803
 5552SOL    HW128289   2.798   4.647   8.601  1.9401  0.9304 -2.3024
 5552SOL    HW228290   2.924   4.719   8.600 -0.6699 -1.6620 -0.9193
 5553SOL     OW28291   2.184   2.630   7.087  0.3512 -0.6057 -0.0704
 5553SOL    HW128292   2.147   2.646   7.173  0.1269 -1.3126 -0.0323
 5553SOL    HW228293   2.134   2.691   7.033 -2.3981 -1.3200  1.7252
 5554SOL     OW28294   2.850   0.131   6.702 -0.5304  0.1445 -0.1087
 5554SOL    HW128295   2.825   0.192   6.633 -0.9404  1.9254  1.6248
 5554SOL    HW228296   2.931   0.167   6.737  0.1051 -1.5389  0.1374
 5555SOL     OW28297   4.653   4.211   4.538 -0.1420  0.4569 -0.3825
 5555SOL    HW128298   4.717   4.240   4.602  0.8288 -1.9758 -0.2330
 5555SOL    HW228299   4.580   4.272   4.550 -0.6902 -0.6573  1.8086
 5556SOL     OW28300   2.953   0.851   7.010 -0.4795 -0.9841  0.0931
 5556SOL    HW128301   2.995   0.765   7.017 -0.9389 -1.1449  0.7816
 5556SOL    HW228302   3.025   0.909   6.986 -0.1448 -1.2901  0.3533
 5557SOL     OW28303   1.779   0.627   6.713 -0.2413 -0.5454 -0.0448
 5557SOL    HW128304   1.811   0.581   6.634  0.7456  0.8731 -0.4789
 5557SOL    HW228305   1.741   0.706   6.676  0.2236 -0.1429  0.3459
 5558SOL     OW28306   3.544   1.995   9.283  0.0737  0.3201  0.0958
 5558SOL    HW128307   3.563   2.088   9.272  1.4342  0.3279  2.4723
 5558SOL    HW228308   3.538   1.979   9.377 -1.9214  1.3031  0.1240
 5559SOL     OW28309   1.557   0.740  13.415  0.2669 -0.4635  0.2060
 5559SOL    HW128310   1.485   0.690  13.452  2.6537 -2.2841  2.3766
 5559SOL    HW228311   1.535   0.766  13.326  0.9483  0.6060  0.3493
 5560SOL     OW28312   0.227   1.714   8.464 -0.4096  0.6351 -0.2664
 5560SOL    HW128313   0.273   1.740   8.544 -0.5819 -1.6597  0.5856
 5560SOL    HW228314   0.286   1.755   8.401  2.1125  1.0403  2.3357
 5561SOL     OW28315   0.884   3.680   1.828 -0.0441  0.3373 -0.7095
 5561SOL    HW128316   0.909   3.605   1.882  0.0592 -0.2568 -1.5914
 5561SOL    HW228317   0.852   3.623   1.758 -0.9943 -0.2921  0.2311
 5562SOL     OW28318   4.503   1.211   7.135  0.3161 -0.0983 -0.0407
 5562SOL    HW128319   4.540   1.292   7.170 -0.9871 -0.2123  1.5813
 5562SOL    HW228320   4.588   1.172   7.112 -0.0414 -1.4280  0.8855
 5563SOL     OW28321   4.000   4.721   6.294 -0.2649 -0.2717 -0.3542
 5563SOL    HW128322   3.914   0.018   6.322 -0.5856 -1.1337 -0.3030
 5563SOL    HW228323   4.029   0.039   6.221  0.2833 -0.3023 -0.1608
 5564SOL     OW28324   1.641   2.532   9.087  0.4758 -0.2279  0.4155
 5564SOL    HW128325   1.618   2.570   9.002  0.6445 -5.5288 -1.9729
 5564SOL    HW228326   1.600   2.447   9.099  1.5396 -1.0910 -2.0013
 5565SOL     OW28327   3.494   0.789  16.943 -0.2586  0.1445 -0.2200
 5565SOL    HW128328   3.583   0.770  16.915 -0.0428 -0.2360  0.7294
 5565SOL    HW228329   3.471   0.863  16.886 -2.5648 -0.4782 -0.0752
 5566SOL     OW28330   0.999   2.150   7.625  0.2375 -0.0528  0.5429
 5566SOL    HW128331   1.048   2.123   7.703  0.3513 -0.9189  0.1636
 5566SOL    HW228332   0.932   2.084   7.609 -0.6929  0.6976  1.3041
 5567SOL     OW28333   2.214   4.643  13.362 -0.0766  0.0665 -0.2411
 5567SOL    HW128334   2.160   4.660  13.439 -1.0890  0.6070 -1.0674
 5567SOL    HW228335   2.173   4.573  13.311 -1.9836 -1.6518  3.6454
 5568SOL     OW28336   1.434   2.326   7.817 -0.0555 -0.1329 -0.3925
 5568SOL    HW128337   1.349   2.362   7.844 -1.4052 -3.0589 -0.7365
 5568SOL    HW228338   1.415   2.281   7.735 -2.1871  1.5024 -0.7915
 5569SOL     OW28339   2.813   4.283  12.093 -0.3455 -0.3318 -0.0206
 5569SOL    HW128340   2.868   4.357  12.120 -0.7949  0.6432 -1.8357
 5569SOL    HW228341   2.775   4.327  12.018 -0.4919 -3.1219 -1.5902
 5570SOL     OW28342   4.026   2.104   2.780  0.0552 -0.4950 -0.3656
 5570SOL    HW128343   4.102   2.123   2.835 -0.9849 -0.7358  1.1524
 5570SOL    HW228344   4.048   2.061   2.697  0.8263  0.6829 -0.7688
 5571SOL     OW28345   4.513   4.559  12.017 -0.1398 -0.1504 -0.6753
 5571SOL    HW128346   4.488   4.642  12.059 -1.5275 -1.4282  1.0212
 5571SOL    HW228347   4.576   4.594  11.954 -0.8986 -1.2300 -2.0291
 5572SOL     OW28348   1.523   0.817  17.281  0.8349 -0.0845  0.1930
 5572SOL    HW128349   1.449   0.785  17.332  0.2858 -0.7181 -0.9972
 5572SOL    HW228350   1.573   0.871  17.342 -0.2198 -0.4213  1.3485
 5573SOL     OW28351   2.557   2.359  12.753 -0.3085 -0.2661  0.2599
 5573SOL    HW128352   2.622   2.319  12.811  0.4005  1.0610  0.3717
 5573SOL    HW228353   2.583   2.336  12.663 -1.9595 -2.5100  0.3522
 5574SOL     OW28354   1.418   3.766   7.092  0.4711 -0.5740 -0.3502
 5574SOL    HW128355   1.490   3.707   7.072 -0.5173 -1.1620 -2.1134
 5574SOL    HW228356   1.371   3.768   7.009  0.4403  0.8808 -0.3061
 5575SOL     OW28357   3.675   1.446   4.739  0.1347 -0.1584 -0.4077
 5575SOL    HW128358   3.617   1.373   4.761 -1.3145  1.0652 -0.2335
 5575SOL    HW228359   3.760   1.410   4.764 -0.4377 -0.3472  1.2470
 5576SOL     OW28360   4.077   0.887   9.230  0.1543 -0.0287  0.2792
 5576SOL    HW128361   4.008   0.842   9.280 -1.6880  2.6390  0.1495
 5576SOL    HW228362   4.101   0.818   9.167  0.3033  0.9922 -0.7741
 5577SOL     OW28363   1.094   1.975   2.554  0.3780 -0.3617  0.2257
 5577SOL    HW128364   1.020   1.937   2.507 -0.5843  2.4928 -0.5561
 5577SOL    HW228365   1.168   1.985   2.494  1.3719  0.7562  1.6206
 5578SOL     OW28366   1.103   4.452   3.637 -0.0105  0.3996 -0.0609
 5578SOL    HW128367   1.039   4.501   3.688  0.0138 -0.9284  1.2363
 5578SOL    HW228368   1.052   4.370   3.640 -0.6500  0.8099  0.4103
 5579SOL     OW28369   3.910   4.237   3.346 -0.0551 -0.2569  0.1252
 5579SOL    HW128370   3.890   4.196   3.262  0.3667 -1.1627  0.4685
 5579SOL    HW228371   3.950   4.319   3.318  1.2171 -1.9557 -2.9899
 5580SOL     OW28372   3.434   0.869  12.152  0.4584 -0.5045 -0.2291
 5580SOL    HW128373   3.411   0.877  12.060 -1.1950 -0.0249  0.2100
 5580SOL    HW228374   3.489   0.947  12.161  0.3898 -0.5726  0.8067
 5581SOL     OW28375   4.080   4.024   8.924  0.1867  0.0224 -0.0930
 5581SOL    HW128376   4.172   4.048   8.913  0.2519  0.6188  1.6546
 5581SOL    HW228377   4.095   3.930   8.924  0.2213  0.0216  2.3292
 5582SOL     OW28378   3.298   2.359   7.136  0.1466 -0.6308 -0.2042
 5582SOL    HW128379   3.234   2.407   7.083  1.5555  0.8372 -0.5874
 5582SOL    HW228380   3.254   2.389   7.215  2.5087 -1.7531  1.5412
 5583SOL     OW28381   4.375   1.960   5.441 -0.1585  0.6810  0.1291
 5583SOL    HW128382   4.386   2.030   5.377 -1.5892 -0.5749 -1.4807
 5583SOL    HW228383   4.410   1.883   5.396 -0.6090  1.3143 -1.2937
 5584SOL     OW28384   3.513   0.980   5.143 -0.2191 -0.2899  0.2717
 5584SOL    HW128385   3.570   1.056   5.155  1.9974 -1.9175 -0.0715
 5584SOL    HW228386   3.429   1.020   5.118 -0.5732  0.2883  2.3979
 5585SOL     OW28387   1.215   1.068   4.313  0.4102  0.5380  0.0122
 5585SOL    HW128388   1.127   1.033   4.323  0.8585 -0.6194 -0.1415
 5585SOL    HW228389   1.194   1.152   4.354  1.2683  0.4290  0.6635
 5586SOL     OW28390   0.010   3.685   7.628  0.0577  0.3974  0.0217
 5586SOL    HW128391   0.092   3.734   7.617 -0.4156  0.6649 -2.4197
 5586SOL    HW228392   4.710   3.755   7.682 -4.0592 -2.8684  1.5008
 5587SOL     OW28393   2.997   4.335   8.927  0.2648  0.7930 -0.0480
 5587SOL    HW128394   3.053   4.271   8.970  2.5669 -0.2749 -4.5932
 5587SOL    HW228395   3.036   4.420   8.950 -0.5235  0.9642  0.6457
 5588SOL     OW28396   1.277   0.160   5.160  0.0334  0.6320 -0.5099
 5588SOL    HW128397   1.196   0.193   5.197  1.0737  0.2974  2.1217
 5588SOL    HW228398   1.338   0.176   5.233 -1.2944  0.4797  0.6239
 5589SOL     OW28399   3.217   2.961   5.087  0.1414 -0.0477 -0.5171
 5589SOL    HW128400   3.276   3.000   5.022  0.9504 -1.3746 -0.5670
 5589SOL    HW228401   3.206   3.042   5.137 -0.5494  0.7209 -1.9069
 5590SOL     OW28402   0.793   3.200  13.033 -0.5600 -0.5451 -0.4450
 5590SOL    HW128403   0.864   3.229  13.090 -1.4807  0.5478  0.1350
 5590SOL    HW228404   0.717   3.206  13.091 -0.8557  3.9071 -1.3388
 5591SOL     OW28405   3.814   2.467  10.052 -0.0497  0.0918 -0.1088
 5591SOL    HW128406   3.761   2.425  10.119 -0.7450  0.6617 -0.3003
 5591SOL    HW228407   3.904   2.444  10.075  0.5848  1.5403 -1.1053
 5592SOL     OW28408   3.060   3.918   9.459 -0.5121  0.4643  0.1754
 5592SOL    HW128409   2.993   3.985   9.473  0.8810  2.2823 -1.8448
 5592SOL    HW228410   3.024   3.869   9.386  2.3821 -0.8917 -0.3542
 5593SOL     OW28411   1.692   0.611   8.157  0.1339  0.1022  0.3737
 5593SOL    HW128412   1.606   0.569   8.153 -1.2855  2.9794  0.7448
 5593SOL    HW228413   1.739   0.572   8.083 -1.0664  0.1755 -0.4206
 5594SOL     OW28414   3.756   1.422   1.865 -0.2426  0.4412 -0.0017
 5594SOL    HW128415   3.741   1.381   1.780  1.3338  3.3361 -1.6896
 5594SOL    HW228416   3.812   1.359   1.910 -0.2596  0.2907 -0.1925
 5595SOL     OW28417   2.309   1.821   2.249  0.1444  0.2247 -0.2301
 5595SOL    HW128418   2.307   1.846   2.156 -1.2932 -0.2626 -0.3246
 5595SOL    HW228419   2.249   1.889   2.279 -0.5364 -0.0842 -0.9054
 5596SOL     OW28420   1.047   1.226   5.143  0.0945 -0.0812 -0.3499
 5596SOL    HW128421   1.061   1.305   5.195 -0.4974 -0.3633  0.2276
 5596SOL    HW228422   0.952   1.221   5.152  0.0259  0.8762 -0.4784
 5597SOL     OW28423   1.143   1.662   5.610 -0.0859 -0.0551  0.2169
 5597SOL    HW128424   1.069   1.648   5.550 -0.6034 -2.3597  1.3751
 5597SOL    HW228425   1.182   1.574   5.606 -0.9747 -0.5349  2.1616
 5598SOL     OW28426   3.191   1.214   6.925  0.1035  0.4812 -0.3144
 5598SOL    HW128427   3.162   1.252   6.843  1.2474 -1.2185 -1.4990
 5598SOL    HW228428   3.247   1.281   6.964 -2.1584  0.8992  2.2559
 5599SOL     OW28429   3.415   3.141   3.723  0.1336  0.3032  0.1809
 5599SOL    HW128430   3.488   3.197   3.698  2.3763 -3.0223 -0.7038
 5599SOL    HW228431   3.342   3.164   3.665  1.0974 -1.3577 -1.7240
 5600SOL     OW28432   4.012   0.168  16.699 -0.5060  0.1690 -0.2245
 5600SOL    HW128433   4.038   0.258  16.720 -0.3043 -0.1582  0.8964
 5600SOL    HW228434   4.084   0.145  16.639 -0.1835  1.7712 -0.4470
 5601SOL     OW28435   1.063   0.690   1.909  0.4352  0.3355 -0.2295
 5601SOL    HW128436   1.159   0.695   1.907  0.5274 -1.4568 -0.2358
 5601SOL    HW228437   1.048   0.753   1.980  0.7817  1.1044 -0.8352
 5602SOL     OW28438   2.688   2.054  16.211  0.7155  0.0440  0.2962
 5602SOL    HW128439   2.733   2.058  16.127 -1.4053  1.5808 -0.7384
 5602SOL    HW228440   2.634   2.133  16.212  0.1647 -0.3185 -0.8485
 5603SOL     OW28441   0.717   3.263  17.690 -0.6718 -0.1543  0.1626
 5603SOL    HW128442   0.667   3.330  17.643  0.7906  1.9932  1.6637
 5603SOL    HW228443   0.802   3.304  17.707 -0.3056  0.1281 -2.4025
 5604SOL     OW28444   4.691   3.042   8.694  0.0902  0.2507  0.1524
 5604SOL    HW128445   4.712   2.975   8.629  3.2258  0.3136  1.1056
 5604SOL    HW228446   0.015   3.033   8.769 -1.6097  2.4228  1.7968
 5605SOL     OW28447   3.761   2.722  16.303  0.0423 -0.3536  0.0632
 5605SOL    HW128448   3.727   2.638  16.273  1.2497 -0.8944  0.2348
 5605SOL    HW228449   3.846   2.716  16.260  1.2018  1.9735  2.0249
 5606SOL     OW28450   0.427   3.614   4.584  0.0730  0.2254 -0.5345
 5606SOL    HW128451   0.343   3.570   4.569  0.4820 -1.3203  1.7028
 5606SOL    HW228452   0.479   3.572   4.516 -2.3892  0.5198 -2.6365
 5607SOL     OW28453   3.022   2.478   1.090 -0.8757  0.4744 -0.0909
 5607SOL    HW128454   3.101   2.516   1.051 -1.3235  0.7405 -0.7417
 5607SOL    HW228455   3.047   2.392   1.127  1.0345  1.1782  0.2593
 5608SOL     OW28456   2.012   0.757   4.249 -0.3495  0.1199  0.4386
 5608SOL    HW128457   2.021   0.818   4.323 -0.7178 -0.5254  1.0140
 5608SOL    HW228458   1.996   0.680   4.303 -1.8695 -0.4745 -0.8536
 5609SOL     OW28459   3.288   4.092   5.025  0.6261 -0.5919  1.1545
 5609SOL    HW128460   3.307   4.110   5.117  0.4591  1.5811  0.7522
 5609SOL    HW228461   3.331   4.008   5.009 -0.1658 -1.0554  1.4396
 5610SOL     OW28462   2.586   1.287   8.404 -0.2159 -0.2923 -0.5488
 5610SOL    HW128463   2.606   1.240   8.323  1.5896 -0.7521  0.1578
 5610SOL    HW228464   2.600   1.220   8.471  2.5551  1.6534  0.7902
 5611SOL     OW28465   0.264   0.176   8.367 -0.0141 -0.0994 -0.0519
 5611SOL    HW128466   0.216   0.245   8.321  1.8836  1.7975  0.8872
 5611SOL    HW228467   0.274   0.211   8.455  1.9737 -0.3228 -0.2071
 5612SOL     OW28468   3.967   2.399   2.160  0.2611 -0.2817  0.1573
 5612SOL    HW128469   4.053   2.432   2.184  1.5368 -3.2642 -0.2472
 5612SOL    HW228470   3.921   2.402   2.244 -0.4108  0.4998 -0.2388
 5613SOL     OW28471   2.122   0.186   6.991  0.3681 -0.6312 -0.5504
 5613SOL    HW128472   2.044   0.212   6.941  0.7043  0.5573 -0.4611
 5613SOL    HW228473   2.082   0.150   7.071 -0.4011 -1.4109 -1.2807
 5614SOL     OW28474   4.364   2.865  13.264  0.5879  1.0082 -0.0489
 5614SOL    HW128475   4.361   2.851  13.359 -0.6742  0.4439 -0.1702
 5614SOL    HW228476   4.444   2.917  13.257  0.5681  0.7245 -2.3253
 5615SOL     OW28477   2.781   3.564   4.082  0.0181 -0.0093  0.3436
 5615SOL    HW128478   2.696   3.597   4.113  0.0191  1.4103 -1.1704
 5615SOL    HW228479   2.790   3.618   4.004  0.2486 -1.8072 -0.8879
 5616SOL     OW28480   1.900   3.537  10.888 -0.2120  0.3700 -0.9411
 5616SOL    HW128481   1.853   3.533  10.804 -1.1692  0.7937 -0.4250
 5616SOL    HW228482   1.868   3.454  10.924  1.7654  0.2331  0.4621
 5617SOL     OW28483   2.735   3.068   5.044  0.3664  0.3416 -0.7516
 5617SOL    HW128484   2.730   3.160   5.019 -0.4422  0.9206  1.5978
 5617SOL    HW228485   2.734   3.034   4.954 -1.0731 -2.0896  0.1700
 5618SOL     OW28486   1.977   1.832   5.821  0.7973 -0.1763  0.3020
 5618SOL    HW128487   2.050   1.800   5.874  1.0527  1.2581  0.8169
 5618SOL    HW228488   1.988   1.926   5.834  1.1873 -0.2777  0.7143
 5619SOL     OW28489   2.942   3.946   4.842  0.0721 -0.6548 -0.8805
 5619SOL    HW128490   2.973   3.886   4.910  1.6657 -0.0475 -1.0727
 5619SOL    HW228491   3.010   4.014   4.850 -1.0960  0.5259 -1.0858
 5620SOL     OW28492   1.874   1.567   7.752  0.2037  0.6037 -0.2775
 5620SOL    HW128493   1.956   1.599   7.715  0.2798  0.6661 -0.0578
 5620SOL    HW228494   1.883   1.595   7.843  0.7575  1.9056 -0.7451
 5621SOL     OW28495   4.651   0.514  16.150 -0.2632  0.0413 -0.6211
 5621SOL    HW128496   4.688   0.428  16.131 -0.9352 -0.1732 -0.9546
 5621SOL    HW228497   4.714   0.568  16.102  0.3374 -0.4742 -0.4155
 5622SOL     OW28498   4.512   2.727   3.940 -0.3668  0.5822 -0.4790
 5622SOL    HW128499   4.433   2.673   3.940 -0.8213  1.2456  0.5464
 5622SOL    HW228500   4.563   2.660   3.894  1.0935  1.2031  0.2047
 5623SOL     OW28501   0.659   3.793   2.025 -1.0687  0.3333 -0.1096
 5623SOL    HW128502   0.700   3.796   1.939 -2.1033 -1.8552 -0.6927
 5623SOL    HW228503   0.733   3.757   2.075 -0.0869  0.3723 -1.5505
 5624SOL     OW28504   2.039   3.559   7.215  0.2893 -0.1923 -0.1663
 5624SOL    HW128505   2.052   3.585   7.307 -0.8971  0.4478 -0.1730
 5624SOL    HW228506   1.948   3.528   7.215 -0.0651  0.8660 -3.0971
 5625SOL     OW28507   3.976   4.492   3.239  0.3006 -0.4853 -0.0199
 5625SOL    HW128508   4.020   4.476   3.156  1.8869  2.8909  0.1694
 5625SOL    HW228509   3.884   4.511   3.219 -0.2847 -3.3104 -0.1187
 5626SOL     OW28510   4.326   2.407   2.818  0.5388  0.3492  0.5520
 5626SOL    HW128511   4.288   2.447   2.896 -0.3660  0.5486  0.0051
 5626SOL    HW228512   4.304   2.321   2.852 -1.4784  0.0075 -1.6091
 5627SOL     OW28513   1.745   0.980  10.006  0.4839  0.1570 -0.4080
 5627SOL    HW128514   1.723   0.922  10.079  1.9219 -1.9198 -1.6312
 5627SOL    HW228515   1.716   0.924   9.934  0.1055  0.0992 -0.2118
 5628SOL     OW28516   1.356   0.950   8.559 -1.2776 -0.4764  0.2428
 5628SOL    HW128517   1.443   0.930   8.527 -0.2156  1.1384  2.1124
 5628SOL    HW228518   1.358   1.025   8.619  0.8681 -0.8948  0.6868
 5629SOL     OW28519   4.610   3.521   5.767 -0.1888 -0.0946  0.1758
 5629SOL    HW128520   4.607   3.613   5.792  1.0897 -0.2862  1.0199
 5629SOL    HW228521   4.703   3.503   5.751  0.1932  0.3449  1.8574
 5630SOL     OW28522   2.381   3.914   4.752  0.6099  0.0910 -0.2377
 5630SOL    HW128523   2.460   3.881   4.794  0.9778 -2.3122 -2.8361
 5630SOL    HW228524   2.402   3.920   4.659  1.3877  0.5131 -0.0346
 5631SOL     OW28525   3.265   4.679  17.455  0.0010 -0.4372  0.4561
 5631SOL    HW128526   3.354   4.714  17.452 -0.2699  0.3461  1.5003
 5631SOL    HW228527   3.212   0.015  17.489 -0.7073 -1.3256  1.2548
 5632SOL     OW28528   4.457   4.621   3.259 -0.4399  0.4042 -0.4405
 5632SOL    HW128529   4.384   4.612   3.198 -1.6391 -0.5161  1.1254
 5632SOL    HW228530   4.405   4.617   3.340 -1.6577  0.2738 -1.2310
 5633SOL     OW28531   2.615   3.593   8.838  0.0633  0.6297  0.0312
 5633SOL    HW128532   2.582   3.504   8.827 -0.4522  1.0789 -2.1400
 5633SOL    HW228533   2.540   3.615   8.894  0.8344  3.8875 -0.2326
 5634SOL     OW28534   0.487   0.161  17.256  0.9180 -0.1561  0.3266
 5634SOL    HW128535   0.525   0.083  17.297 -3.4125 -1.3343  2.1806
 5634SOL    HW228536   0.479   0.225  17.326  1.9062  0.2820  0.0444
 5635SOL     OW28537   2.449   0.414   4.886  0.5397 -0.8064 -0.2622
 5635SOL    HW128538   2.514   0.421   4.817 -0.5518  0.2753 -1.1749
 5635SOL    HW228539   2.367   0.428   4.840  0.6822  0.5919 -0.0718
 5636SOL     OW28540   1.605   0.977   5.823 -0.2264 -0.2166 -0.8379
 5636SOL    HW128541   1.561   1.029   5.891 -0.3397 -0.0003 -1.0742
 5636SOL    HW228542   1.535   0.915   5.801 -0.5669 -0.3598  0.6235
 5637SOL     OW28543   1.167   0.132   3.472 -0.4593 -0.6203  0.0635
 5637SOL    HW128544   1.097   0.197   3.478 -1.1159 -1.1369 -1.9046
 5637SOL    HW228545   1.165   0.102   3.563  1.0826  1.8428  0.9262
 5638SOL     OW28546   0.631   4.549   0.458 -0.1962 -0.1650  0.1829
 5638SOL    HW128547   0.602   4.506   0.378  0.0945  0.3189 -0.1782
 5638SOL    HW228548   0.725   4.531   0.464  0.0146  1.0763  0.5043
 5639SOL     OW28549   1.427   4.727   3.217 -0.0430  0.1352  0.8358
 5639SOL    HW128550   1.357   4.664   3.199 -0.9247  1.2134  0.5686
 5639SOL    HW228551   1.493   4.670   3.257  1.7433  0.5528 -1.5087
 5640SOL     OW28552   0.269   4.247   2.192 -0.4536  0.2616  0.6529
 5640SOL    HW128553   0.195   4.190   2.170  1.8976 -2.9810  1.2237
 5640SOL    HW228554   0.247   4.274   2.281  0.1842  1.5266  0.4288
 5641SOL     OW28555   0.032   1.780   5.608  0.0267  0.5796  0.1135
 5641SOL    HW128556   4.712   1.779   5.531  2.2296 -2.2914 -1.4709
 5641SOL    HW228557   0.036   1.687   5.630  1.7269  0.2464 -1.6531
 5642SOL     OW28558   3.859   3.656   1.510  0.0842  0.0446  0.6156
 5642SOL    HW128559   3.920   3.591   1.475  0.3380  0.7703 -0.2971
 5642SOL    HW228560   3.813   3.691   1.434  1.7491  1.6603  0.3443
 5643SOL     OW28561   3.820   1.551   3.837  0.2265  0.1813 -0.7327
 5643SOL    HW128562   3.733   1.569   3.872  1.2880  0.9709  1.4744
 5643SOL    HW228563   3.795   1.519   3.750 -0.5671 -1.5618  0.1268
 5644SOL     OW28564   3.903   3.165  11.174 -0.0872  0.8405 -0.0648
 5644SOL    HW128565   3.893   3.075  11.143  0.9484  0.7722 -0.2205
 5644SOL    HW228566   3.891   3.145  11.266 -2.6690  3.6312  0.1884
 5645SOL     OW28567   2.325   0.450   1.741  0.2916 -0.0069 -0.0877
 5645SOL    HW128568   2.401   0.491   1.700  2.0710 -3.8959 -0.6530
 5645SOL    HW228569   2.312   0.371   1.688 -0.0308 -0.7486  1.0788
 5646SOL     OW28570   2.847   3.687  11.040  0.2055  0.7808  0.0238
 5646SOL    HW128571   2.815   3.631  11.111 -2.6384  1.2940 -0.8348
 5646SOL    HW228572   2.890   3.620  10.988  0.0183 -0.0463  0.9412
 5647SOL     OW28573   3.592   2.878  11.630  0.6253  0.2036  0.3740
 5647SOL    HW128574   3.584   2.850  11.539  0.5844  1.1904  0.0829
 5647SOL    HW228575   3.508   2.919  11.651  0.5923  1.5393 -2.3953
 5648SOL     OW28576   3.459   3.063  12.344  0.0454 -0.4875 -0.3510
 5648SOL    HW128577   3.440   3.120  12.419 -1.0735  3.3760 -3.5928
 5648SOL    HW228578   3.526   3.010  12.387  1.0995  1.2097  0.0466
 5649SOL     OW28579   3.559   0.453   6.853  0.6948 -0.1981 -0.1043
 5649SOL    HW128580   3.534   0.394   6.782 -4.2695  1.8934 -0.0770
 5649SOL    HW228581   3.611   0.511   6.797 -1.4542  2.8080  1.0058
 5650SOL     OW28582   0.290   2.099  12.535  0.2927 -0.0790 -0.4317
 5650SOL    HW128583   0.312   2.052  12.454  0.3209 -1.4409  0.3630
 5650SOL    HW228584   0.198   2.123  12.522 -0.1824 -1.1146  1.0151
 5651SOL     OW28585   3.311   0.905   6.660  0.2690 -0.0155 -0.5694
 5651SOL    HW128586   3.373   0.835   6.637 -0.4148 -0.3971 -1.2314
 5651SOL    HW228587   3.339   0.939   6.745 -1.2231 -3.0081  1.1351
 5652SOL     OW28588   1.333   0.596   4.080  0.4379 -0.0769  0.4484
 5652SOL    HW128589   1.412   0.638   4.046 -0.3584 -0.6962 -2.2008
 5652SOL    HW228590   1.360   0.516   4.124  1.1373 -1.5684 -2.6858
 5653SOL     OW28591   0.617   0.308  13.306 -0.0562  0.0493  0.1127
 5653SOL    HW128592   0.687   0.247  13.325  1.3602  1.7983  0.4899
 5653SOL    HW228593   0.544   0.248  13.289 -0.5686  0.4079  1.0269
 5654SOL     OW28594   3.604   0.539   2.410 -0.1366 -0.6560 -0.0955
 5654SOL    HW128595   3.583   0.632   2.401  0.4113 -0.5717 -0.4947
 5654SOL    HW228596   3.562   0.503   2.332  0.0513 -0.9747 -0.0452
 5655SOL     OW28597   3.755   3.962   0.731  0.3450 -0.5856  0.0101
 5655SOL    HW128598   3.692   3.890   0.733  0.4744 -0.7001 -0.0887
 5655SOL    HW228599   3.716   4.026   0.791  0.4487  0.7300 -1.3177
 5656SOL     OW28600   0.945   4.529   9.634  0.7169  0.2275 -0.0106
 5656SOL    HW128601   0.902   4.573   9.560 -0.3734 -0.8611 -0.0239
 5656SOL    HW228602   0.997   4.458   9.597 -0.5467 -1.6705  1.8377
 5657SOL     OW28603   2.185   4.470   4.527 -0.0148  0.2218  0.1764
 5657SOL    HW128604   2.151   4.395   4.479 -2.0627 -0.0552  2.0185
 5657SOL    HW228605   2.108   4.524   4.548  0.5024  0.5058  1.3743
 5658SOL     OW28606   1.453   2.039   6.220 -0.2656 -0.3046  0.0731
 5658SOL    HW128607   1.469   2.130   6.247  0.3937 -0.4873  0.2933
 5658SOL    HW228608   1.424   2.040   6.129  2.0840  0.1079 -0.6821
 5659SOL     OW28609   1.182   1.729   4.062  0.4868 -0.1850  0.3632
 5659SOL    HW128610   1.159   1.749   4.153 -0.9364  0.0952 -0.0584
 5659SOL    HW228611   1.103   1.694   4.020 -1.1822  2.8728  0.9727
 5660SOL     OW28612   4.254   0.423  17.007  0.2442  0.1050 -0.1385
 5660SOL    HW128613   4.317   0.396  17.074 -0.3960 -1.1113 -0.0204
 5660SOL    HW228614   4.233   0.514  17.030  1.8305  0.3871  0.1492
 5661SOL     OW28615   4.205   0.105   2.858 -0.4138  0.2278 -0.2888
 5661SOL    HW128616   4.287   0.064   2.831  0.4918  0.1564  2.5860
 5661SOL    HW228617   4.139   0.050   2.816 -2.3547  1.8068  0.6842
 5662SOL     OW28618   1.522   3.508  12.185 -0.3027 -0.8004  0.4280
 5662SOL    HW128619   1.491   3.435  12.130 -2.8769  0.4764  0.1860
 5662SOL    HW228620   1.616   3.493  12.175 -0.1985 -0.2989  0.7062
 5663SOL     OW28621   3.906   2.569  11.354 -0.1032  0.3820  0.1010
 5663SOL    HW128622   3.921   2.521  11.436  0.3242 -1.5355 -1.1011
 5663SOL    HW228623   3.994   2.601  11.332 -0.8878  2.6400  0.1803
 5664SOL     OW28624   0.911   2.210   2.622  0.8797  1.0321  0.0074
 5664SOL    HW128625   1.000   2.232   2.650  0.1673  1.1950  2.1225
 5664SOL    HW228626   0.919   2.119   2.593 -0.0073  0.6467  0.9526
 5665SOL     OW28627   4.205   1.679   6.320 -0.0196 -0.0494 -0.5162
 5665SOL    HW128628   4.166   1.721   6.396  2.1556  2.2966 -0.7092
 5665SOL    HW228629   4.233   1.596   6.359  0.4322  0.0342 -0.6595
 5666SOL     OW28630   0.401   1.362   7.415 -0.4211  0.1633 -0.7447
 5666SOL    HW128631   0.470   1.411   7.370 -1.3155  1.2987 -0.8932
 5666SOL    HW228632   0.417   1.285   7.361  1.6248  0.5889 -0.7521
 5667SOL     OW28633   2.286   0.919   3.001 -0.8346 -0.4087 -0.1864
 5667SOL    HW128634   2.336   0.997   3.027 -0.6781 -1.0605  1.4722
 5667SOL    HW228635   2.335   0.843   3.032  0.0234  0.1413 -0.1868
 5668SOL     OW28636   4.274   3.775   3.516  0.6495  0.6353 -0.6099
 5668SOL    HW128637   4.282   3.864   3.481 -2.0615  0.3742 -1.9365
 5668SOL    HW228638   4.245   3.727   3.439  1.4087 -0.4783 -0.1886
 5669SOL     OW28639   1.347   4.058   9.699  0.0399 -0.3084 -0.5076
 5669SOL    HW128640   1.387   4.051   9.786 -0.1159  1.5181 -0.2848
 5669SOL    HW228641   1.352   3.973   9.656 -0.9107  0.2283 -1.6822
 5670SOL     OW28642   0.498   4.293   7.525  0.5758  0.1297 -0.3575
 5670SOL    HW128643   0.442   4.297   7.447  1.2458 -0.7301 -0.8771
 5670SOL    HW228644   0.444   4.350   7.580  1.5527 -0.2225  0.9670
 5671SOL     OW28645   2.989   3.772  10.729 -0.0256 -0.0125 -0.2070
 5671SOL    HW128646   2.961   3.829  10.801  0.2112 -0.8451  0.5293
 5671SOL    HW228647   3.084   3.784  10.726  0.2661 -2.4270 -0.1430
 5672SOL     OW28648   1.508   2.698   4.849  0.6212 -0.4745 -0.6499
 5672SOL    HW128649   1.601   2.678   4.838  1.3850  2.5535  0.2914
 5672SOL    HW228650   1.506   2.762   4.777 -1.6561 -1.2539 -1.2927
 5673SOL     OW28651   1.959   1.406  16.667 -0.0719  0.0307  0.2595
 5673SOL    HW128652   2.053   1.388  16.657 -0.4150 -2.0931  0.9344
 5673SOL    HW228653   1.930   1.319  16.692  2.4973 -0.3738  1.8649
 5674SOL     OW28654   3.080   3.135   0.780  0.7726 -0.2192  0.1957
 5674SOL    HW128655   2.993   3.124   0.743  1.2234 -1.4365 -0.4963
 5674SOL    HW228656   3.112   3.045   0.774 -0.7617 -0.8582  1.4559
 5675SOL     OW28657   2.693   4.316   4.180  0.3174 -0.5048  0.3087
 5675SOL    HW128658   2.708   4.411   4.178 -2.7801 -0.0445 -0.8215
 5675SOL    HW228659   2.760   4.290   4.117  0.3724 -1.6625  0.8533
 5676SOL     OW28660   3.208   0.367   8.331  0.4903  0.4325 -0.2884
 5676SOL    HW128661   3.114   0.378   8.348  0.4709  0.9225 -0.7097
 5676SOL    HW228662   3.222   0.293   8.390  0.7861  0.6719 -0.0652
 5677SOL     OW28663   1.405   2.428  16.073 -0.1682 -0.5450  0.1618
 5677SOL    HW128664   1.465   2.428  15.998 -1.5310  0.8698 -0.9052
 5677SOL    HW228665   1.401   2.516  16.108 -0.5664 -0.9004  0.9922
 5678SOL     OW28666   2.215   1.971   6.438 -0.1815 -0.0332 -0.0229
 5678SOL    HW128667   2.178   1.883   6.442 -1.2335  0.4355  0.7687
 5678SOL    HW228668   2.134   2.022   6.435  1.5811  2.7629 -0.0668
 5679SOL     OW28669   1.157   0.792  17.304 -0.4479 -0.3140  0.3630
 5679SOL    HW128670   1.176   0.713  17.353 -1.4027 -0.7223  0.0701
 5679SOL    HW228671   1.062   0.779  17.297 -0.8167  2.0330  0.8297
 5680SOL     OW28672   1.224   4.606  11.098  0.2336 -0.2685  0.5252
 5680SOL    HW128673   1.177   4.688  11.094  1.0579  0.1494 -0.5935
 5680SOL    HW228674   1.278   4.619  11.176 -0.2633  0.8727  0.6698
 5681SOL     OW28675   0.182   4.280   8.046 -0.0799 -0.0371  0.5138
 5681SOL    HW128676   0.192   4.199   7.996  0.6775  1.6000 -1.9947
 5681SOL    HW228677   0.277   4.289   8.059 -0.1663  1.2119  0.2836
 5682SOL     OW28678   1.752   4.599   5.707 -0.0510 -0.0387 -0.6445
 5682SOL    HW128679   1.816   4.569   5.642  0.3978  1.9645 -1.1244
 5682SOL    HW228680   1.696   4.522   5.715  1.4070 -0.8041  2.2883
 5683SOL     OW28681   4.462   2.207   9.500  0.1733 -0.1667 -0.0846
 5683SOL    HW128682   4.432   2.298   9.487  1.7096  0.2284 -0.8237
 5683SOL    HW228683   4.556   2.221   9.495  0.2072 -1.3091 -2.7190
 5684SOL     OW28684   0.227   3.459   9.639 -0.0126  0.5460 -0.1564
 5684SOL    HW128685   0.167   3.533   9.649 -0.1100  0.6884 -1.9247
 5684SOL    HW228686   0.217   3.448   9.545  1.4163 -0.1031 -0.2325
 5685SOL     OW28687   4.401   4.308   4.969 -0.0608 -0.5241 -0.5630
 5685SOL    HW128688   4.476   4.338   5.021 -1.1339 -0.3999  0.9071
 5685SOL    HW228689   4.351   4.253   5.030 -0.0348 -0.5004 -0.5204
 5686SOL     OW28690   3.568   1.958   8.682  0.5700 -0.2516 -0.1714
 5686SOL    HW128691   3.617   1.922   8.757  0.0059  0.9710  0.7738
 5686SOL    HW228692   3.486   1.976   8.728  0.7478 -0.5964  0.2860
 5687SOL     OW28693   1.678   2.521  15.954 -0.2676 -0.1795 -0.5211
 5687SOL    HW128694   1.609   2.529  15.888 -1.5019 -1.3150  0.6067
 5687SOL    HW228695   1.749   2.552  15.899  0.0704 -0.4589 -0.2425
 5688SOL     OW28696   3.438   3.566   0.485  0.1512  0.1642  0.5537
 5688SOL    HW128697   3.444   3.513   0.405 -2.3714 -0.9365  1.1078
 5688SOL    HW228698   3.350   3.602   0.476  0.0074 -0.0373  1.2201
 5689SOL     OW28699   4.069   2.793  15.623 -0.6651 -0.7508 -0.1180
 5689SOL    HW128700   4.160   2.798  15.594 -0.5026 -1.6094  0.2309
 5689SOL    HW228701   4.034   2.804  15.534 -1.6958  2.1163  0.6618
 5690SOL     OW28702   3.171   2.733   2.508  0.0066 -0.0914 -0.7496
 5690SOL    HW128703   3.148   2.817   2.468 -0.4472 -0.6192 -1.5785
 5690SOL    HW228704   3.254   2.765   2.545  0.3061  0.3367 -1.7863
 5691SOL     OW28705   4.288   2.423   7.119  0.2945 -0.0517  0.0603
 5691SOL    HW128706   4.263   2.493   7.179 -1.3015 -0.0660 -0.5970
 5691SOL    HW228707   4.201   2.395   7.094  1.0782  0.1669 -2.9822
 5692SOL     OW28708   2.315   4.681   5.696  0.3005 -0.1740 -0.3878
 5692SOL    HW128709   2.301   0.030   5.654 -2.5520  1.0118  2.9881
 5692SOL    HW228710   2.264   4.622   5.639 -2.4792  1.8188  0.0370
 5693SOL     OW28711   2.218   2.263   2.232 -0.4881  0.0813 -0.4116
 5693SOL    HW128712   2.246   2.309   2.154 -1.8811 -0.4049 -1.2038
 5693SOL    HW228713   2.258   2.180   2.206 -2.3196 -0.5571 -1.2241
 5694SOL     OW28714   0.198   0.984  17.627 -0.0225 -0.0193  0.5160
 5694SOL    HW128715   0.164   0.953  17.711 -1.9357  0.0723 -0.2403
 5694SOL    HW228716   0.290   1.001  17.647  0.2495 -1.4537  0.4641
 5695SOL     OW28717   1.169   4.037   2.307  0.1866 -0.3107  0.0387
 5695SOL    HW128718   1.199   3.949   2.283 -1.0284 -0.6774 -0.1549
 5695SOL    HW228719   1.238   4.093   2.270 -2.9119  3.9640  0.7258
 5696SOL     OW28720   2.814   2.809  12.023  0.4046  0.7823  0.0250
 5696SOL    HW128721   2.815   2.804  11.927  0.6782 -2.9722  0.2039
 5696SOL    HW228722   2.739   2.754  12.045  0.6937  0.1749 -0.4856
 5697SOL     OW28723   0.260   3.088   4.060 -0.0649 -0.2486 -0.1317
 5697SOL    HW128724   0.341   3.040   4.075 -0.1482 -0.3569 -0.0221
 5697SOL    HW228725   0.255   3.095   3.964  1.2095 -0.3043 -0.1933
 5698SOL     OW28726   0.777   1.533   8.020 -0.4321 -0.1369 -0.4714
 5698SOL    HW128727   0.773   1.550   8.114  0.8085 -1.3043 -0.2075
 5698SOL    HW228728   0.776   1.437   8.011 -0.3637  0.1533 -3.5559
 5699SOL     OW28729   2.246   0.537  12.449 -0.1033 -0.5923 -0.0881
 5699SOL    HW128730   2.305   0.480  12.500 -1.9601 -0.3234  2.3483
 5699SOL    HW228731   2.265   0.493  12.366  0.6603 -0.2570 -0.0940
 5700SOL     OW28732   3.798   4.553  14.591 -0.2512  0.5693 -0.4594
 5700SOL    HW128733   3.876   4.539  14.537  0.6011  2.6531  0.2321
 5700SOL    HW228734   3.730   4.531  14.527  0.2575 -2.0463 -0.1031
 5701SOL     OW28735   1.283   1.914   9.743 -0.0921 -0.2251  0.2555
 5701SOL    HW128736   1.287   1.870   9.828 -0.9007  0.8188  0.8245
 5701SOL    HW228737   1.365   1.869   9.720  0.5314  2.0468 -2.0097
 5702SOL     OW28738   1.123   1.912   2.825 -0.6256 -0.3145  0.0540
 5702SOL    HW128739   1.113   1.968   2.748 -1.6563  1.5153  1.5091
 5702SOL    HW228740   1.201   1.863   2.797 -2.0087 -0.9275 -2.7472
 5703SOL     OW28741   4.280   2.650   6.908 -0.0052 -0.6490  0.4211
 5703SOL    HW128742   4.346   2.709   6.871  0.8726 -1.2636  1.0031
 5703SOL    HW228743   4.324   2.610   6.983  1.9518  0.2432 -0.2517
 5704SOL     OW28744   0.153   4.054   5.547  0.2953  0.3675  0.1461
 5704SOL    HW128745   0.182   3.964   5.565  1.8050  0.8211  0.0106
 5704SOL    HW228746   0.125   4.040   5.456 -1.1163  1.6939  0.3809
 5705SOL     OW28747   1.178   1.538  15.120 -0.0896 -0.8133 -0.1713
 5705SOL    HW128748   1.194   1.630  15.139 -1.7190 -0.9364  1.8098
 5705SOL    HW228749   1.271   1.528  15.101 -0.4151 -1.8409 -1.2428
 5706SOL     OW28750   2.068   4.494  11.960  0.0997  0.6970 -0.4032
 5706SOL    HW128751   1.993   4.478  12.017  0.3760  0.4653 -0.1046
 5706SOL    HW228752   2.033   4.481  11.872 -0.3738 -1.5813  0.1409
 5707SOL     OW28753   3.576   4.221   0.669 -0.2814  0.0015  0.1379
 5707SOL    HW128754   3.540   4.299   0.627 -2.0748 -0.0424  1.6255
 5707SOL    HW228755   3.657   4.257   0.706  1.1985 -2.4206 -0.6907
 5708SOL     OW28756   1.025   0.712   1.305 -0.1368  0.3906  0.0590
 5708SOL    HW128757   1.033   0.800   1.342  0.9169  0.6646 -0.8084
 5708SOL    HW228758   1.112   0.675   1.321 -1.1406 -2.2799 -0.7417
 5709SOL     OW28759   3.090   3.752   1.767 -0.0865 -0.5875 -0.4757
 5709SOL    HW128760   3.092   3.842   1.797 -0.2688 -0.6774 -0.1960
 5709SOL    HW228761   3.112   3.709   1.849  0.5568 -1.2296 -0.9766
 5710SOL     OW28762   3.476   3.450   4.788  0.5009 -0.1400  0.2398
 5710SOL    HW128763   3.521   3.519   4.837 -0.1033 -0.6579  1.5108
 5710SOL    HW228764   3.384   3.459   4.809  0.7929  3.3357  0.1413
 5711SOL     OW28765   0.728   4.092   1.991  0.3748  0.2127 -0.0750
 5711SOL    HW128766   0.682   4.011   1.968  1.6205 -0.0997 -1.5019
 5711SOL    HW228767   0.733   4.080   2.085  0.6038 -0.3511 -0.1565
 5712SOL     OW28768   1.829   0.715  13.493 -0.7206  0.4336 -0.2356
 5712SOL    HW128769   1.799   0.638  13.543 -0.1052  1.0294  1.0366
 5712SOL    HW228770   1.749   0.742  13.449 -1.4542  0.5871  1.1733
 5713SOL     OW28771   0.575   2.686   7.844 -0.1183 -0.4157  0.2769
 5713SOL    HW128772   0.487   2.720   7.859  0.8738  1.5209  1.7325
 5713SOL    HW228773   0.615   2.750   7.785 -0.7516  0.1054  0.4137
 5714SOL     OW28774   3.558   0.703   6.368  0.0710 -0.2204 -0.2010
 5714SOL    HW128775   3.489   0.729   6.307  0.1144  0.5062  0.0605
 5714SOL    HW228776   3.627   0.765   6.342  2.0061 -1.6768  1.4161
 5715SOL     OW28777   3.780   1.599  16.431 -0.5759 -0.0352 -0.0742
 5715SOL    HW128778   3.826   1.599  16.515 -0.4246 -1.3310 -0.1617
 5715SOL    HW228779   3.698   1.556  16.458 -1.0169  0.7221 -0.1974
 5716SOL     OW28780   1.879   0.370   8.609  0.0230  0.2978  0.3847
 5716SOL    HW128781   1.836   0.305   8.665 -3.0296  1.8022 -0.2245
 5716SOL    HW228782   1.964   0.326   8.599  0.0499  0.6311 -0.8551
 5717SOL     OW28783   4.047   1.918  13.334 -0.4973 -0.4172  0.2204
 5717SOL    HW128784   3.965   1.952  13.300  0.8694  0.8193 -1.8861
 5717SOL    HW228785   4.029   1.935  13.426  3.0069  1.3070  0.6035
 5718SOL     OW28786   0.326   0.433   2.410 -1.0764 -0.9289  0.6981
 5718SOL    HW128787   0.291   0.487   2.340 -1.5707  1.0782  2.4718
 5718SOL    HW228788   0.360   0.352   2.373  2.3512  0.4081  0.9715
 5719SOL     OW28789   0.403   4.082   3.484  0.1805 -0.2773  0.5500
 5719SOL    HW128790   0.377   4.089   3.576  0.6392  0.9069  0.5853
 5719SOL    HW228791   0.395   4.169   3.447 -1.8328  0.1055  1.8752
 5720SOL     OW28792   1.681   3.497   3.329  0.5443  0.2005  0.2999
 5720SOL    HW128793   1.776   3.509   3.329  0.2726  2.2332 -1.5581
 5720SOL    HW228794   1.648   3.581   3.299  1.8434  0.1121 -1.3378
 5721SOL     OW28795   2.046   4.733   3.400  0.1727  0.4708  0.2627
 5721SOL    HW128796   2.018   4.661   3.457  0.6549  0.6458  0.7257
 5721SOL    HW228797   2.137   0.014   3.426 -1.2399  2.1273  4.2583
 5722SOL     OW28798   3.012   0.325  17.086  0.1910 -0.2724 -0.3208
 5722SOL    HW128799   3.047   0.265  17.019 -1.7613  0.5248 -2.0666
 5722SOL    HW228800   3.096   0.364  17.112 -0.6194  0.6339  0.9100
 5723SOL     OW28801   1.641   3.402   4.029 -0.4816 -0.0143  0.0194
 5723SOL    HW128802   1.641   3.381   3.936 -0.3012  0.7756 -0.1633
 5723SOL    HW228803   1.645   3.312   4.059  0.4552  0.5961  1.7275
 5724SOL     OW28804   4.142   4.218   3.075  0.9965  0.5512  0.2071
 5724SOL    HW128805   4.061   4.193   3.118  0.2773 -2.1253 -2.7224
 5724SOL    HW228806   4.201   4.146   3.098  0.3284  0.1028  0.4909
 5725SOL     OW28807   2.576   0.094   4.275  0.2837  0.3728  0.0428
 5725SOL    HW128808   2.495   0.115   4.322  0.3663  1.5242 -0.3315
 5725SOL    HW228809   2.558   0.144   4.196  1.2404 -1.5892 -1.3996
 5726SOL     OW28810   2.102   2.497   0.164 -0.2690 -0.5901  0.2385
 5726SOL    HW128811   2.072   2.463   0.080  1.9145  0.3179 -0.9004
 5726SOL    HW228812   2.099   2.415   0.213  2.6459 -1.1884 -0.5895
 5727SOL     OW28813   3.259   2.447   5.634 -0.4666  0.5107 -0.2207
 5727SOL    HW128814   3.328   2.466   5.698  0.4801 -0.6399 -0.9126
 5727SOL    HW228815   3.286   2.499   5.558  1.9464  1.8848  1.5690
 5728SOL     OW28816   3.491   4.453  10.105  0.1511 -0.0087  0.0600
 5728SOL    HW128817   3.411   4.504  10.122  1.6476  1.8584  1.4585
 5728SOL    HW228818   3.491   4.468  10.011  1.0311  0.2751  0.1139
 5729SOL     OW28819   0.929   3.751   3.262 -0.5662  0.1299  0.0488
 5729SOL    HW128820   0.872   3.732   3.336  1.5139 -0.3357  1.5522
 5729SOL    HW228821   0.879   3.763   3.181  0.9305 -0.4769 -0.9658
 5730SOL     OW28822   1.083   3.172  10.002  0.1915  0.1519  0.6625
 5730SOL    HW128823   1.044   3.085   9.993 -0.1171  0.0178  3.2271
 5730SOL    HW228824   1.144   3.172   9.928 -0.3728 -1.0456  0.2078
 5731SOL     OW28825   1.191   0.282   5.895  0.0463  0.0178 -0.3215
 5731SOL    HW128826   1.227   0.251   5.977 -0.9707 -1.0237 -0.2731
 5731SOL    HW228827   1.221   0.212   5.837  0.3658  0.6345 -0.9159
 5732SOL     OW28828   1.382   3.416   5.444 -0.3673 -0.2058 -0.0592
 5732SOL    HW128829   1.325   3.493   5.438 -0.6536 -0.5083 -1.2384
 5732SOL    HW228830   1.346   3.357   5.510  2.2246 -2.3155 -0.5522
 5733SOL     OW28831   3.781   0.245   3.869 -0.2716  0.1228 -0.6339
 5733SOL    HW128832   3.868   0.206   3.878 -0.6553 -0.6402 -0.3337
 5733SOL    HW228833   3.795   0.328   3.915 -1.9028 -0.3583  0.7085
 5734SOL     OW28834   1.667   3.480   5.433  0.0917  0.0907 -0.1352
 5734SOL    HW128835   1.595   3.422   5.409 -0.9788  1.1294  0.5778
 5734SOL    HW228836   1.681   3.530   5.352 -0.0885 -2.2478 -1.6003
 5735SOL     OW28837   1.998   2.689   1.652 -0.4549 -0.1865  0.1881
 5735SOL    HW128838   2.075   2.636   1.631  0.0381  0.8916 -0.7320
 5735SOL    HW228839   2.012   2.773   1.608  0.7471 -0.5038 -0.0567
 5736SOL     OW28840   3.619   2.845   3.224 -0.4305  0.2609  0.0972
 5736SOL    HW128841   3.590   2.765   3.180 -0.9609  1.3167 -1.5052
 5736SOL    HW228842   3.710   2.863   3.200 -0.1237  0.9445  1.7663
 5737SOL     OW28843   2.506   1.631   6.510 -0.5202  0.1015 -0.2642
 5737SOL    HW128844   2.438   1.695   6.489 -1.3765 -1.1620 -1.2680
 5737SOL    HW228845   2.558   1.670   6.580 -1.4781  1.0378 -0.0657
 5738SOL     OW28846   1.588   2.137   4.056  0.0851  0.2224 -0.4423
 5738SOL    HW128847   1.534   2.098   3.988  1.1231  0.1942 -1.2468
 5738SOL    HW228848   1.578   2.228   4.027 -2.9595  0.0803  0.1435
 5739SOL     OW28849   4.560   1.014   8.544 -0.2787 -0.5642  0.0525
 5739SOL    HW128850   4.622   1.045   8.609 -1.1455  1.6016 -0.1454
 5739SOL    HW228851   4.502   1.090   8.538 -0.8037 -1.0279 -0.7726
 5740SOL     OW28852   3.490   0.107   7.059  0.2170 -0.4410 -0.1357
 5740SOL    HW128853   3.505   0.098   6.965  4.4718  2.0499  0.3072
 5740SOL    HW228854   3.427   0.039   7.083  1.3252 -1.2552  0.4459
 5741SOL     OW28855   3.563   1.618   4.987 -0.1785  0.9171 -0.6447
 5741SOL    HW128856   3.566   1.594   4.895  0.1656  0.2488 -0.4605
 5741SOL    HW228857   3.493   1.563   5.020 -0.6950  1.8002 -0.2650
 5742SOL     OW28858   1.765   2.176   2.694 -0.4970  0.1720  0.3044
 5742SOL    HW128859   1.785   2.155   2.603  1.6254  0.2232  0.7615
 5742SOL    HW228860   1.745   2.094   2.738  0.7404 -0.4886 -0.3582
 5743SOL     OW28861   1.086   1.752   9.165  0.3557  0.0304  0.1728
 5743SOL    HW128862   1.176   1.782   9.151  0.2109 -0.5200 -2.0157
 5743SOL    HW228863   1.060   1.814   9.232  0.7929 -3.2004  3.3217
 5744SOL     OW28864   2.901   1.102   4.120 -0.0152 -0.1948  0.0046
 5744SOL    HW128865   2.903   1.164   4.193 -0.8853  0.0660 -0.1965
 5744SOL    HW228866   2.895   1.157   4.042  1.4853 -0.1610 -0.0786
 5745SOL     OW28867   0.482   0.894   9.299 -0.3701 -0.0839  0.5384
 5745SOL    HW128868   0.550   0.865   9.361 -0.9409  1.5326  1.9287
 5745SOL    HW228869   0.508   0.841   9.223  1.2314 -0.3455  1.2668
 5746SOL     OW28870   4.003   0.958   3.837 -0.0591 -0.3456  0.0155
 5746SOL    HW128871   4.090   0.925   3.863  0.5097  2.3753  1.5217
 5746SOL    HW228872   4.029   1.042   3.800 -1.2809  0.3568  0.7474
 5747SOL     OW28873   0.418   3.858   3.326 -0.5612 -0.2159  0.5713
 5747SOL    HW128874   0.412   3.942   3.370  0.6635  0.5567 -0.7462
 5747SOL    HW228875   0.469   3.802   3.385  0.0084 -0.6798 -0.3651
 5748SOL     OW28876   3.190   2.580   6.780  0.4682 -0.4799 -0.0530
 5748SOL    HW128877   3.138   2.540   6.850  0.4137 -1.6225 -0.7394
 5748SOL    HW228878   3.195   2.670   6.812  3.2056 -0.2617 -1.1773
 5749SOL     OW28879   3.355   2.183   8.715  0.4963  0.4113 -0.1324
 5749SOL    HW128880   3.277   2.238   8.717  0.4794  0.4138 -0.9836
 5749SOL    HW228881   3.348   2.136   8.798  0.2405  1.6153  0.5336
 5750SOL     OW28882   4.189   2.963   5.082 -0.2768  0.1490  0.1250
 5750SOL    HW128883   4.220   3.024   5.150 -0.1712  2.0685 -1.6414
 5750SOL    HW228884   4.254   2.972   5.012 -0.9785 -1.3605 -0.6977
 5751SOL     OW28885   1.265   4.407   9.850 -0.3696  0.6242  0.7541
 5751SOL    HW128886   1.310   4.362   9.921 -0.5971  0.6642  0.9208
 5751SOL    HW228887   1.289   4.353   9.774  1.1765  0.8595  1.0610
 5752SOL     OW28888   4.645   2.031  16.732 -0.0075  0.1802 -0.5730
 5752SOL    HW128889   4.622   1.943  16.763 -1.8856 -0.1640 -2.9067
 5752SOL    HW228890   4.560   2.074  16.738  1.1873  2.3311  1.2230
 5753SOL     OW28891   0.258   1.072   8.741 -0.2998 -0.7047 -0.4081
 5753SOL    HW128892   0.290   1.105   8.826 -1.5506 -0.7839  0.0976
 5753SOL    HW228893   0.224   1.157   8.713 -1.6579 -1.3749 -0.7408
 5754SOL     OW28894   0.707   3.262   5.709 -0.1673  0.5452 -0.1431
 5754SOL    HW128895   0.761   3.219   5.643 -0.1695  0.6088 -0.1864
 5754SOL    HW228896   0.639   3.194   5.717  1.3634 -1.2550 -2.4906
 5755SOL     OW28897   3.314   4.100   4.624  0.0439  0.3229 -0.3545
 5755SOL    HW128898   3.278   4.124   4.709 -0.6395 -0.1688 -0.5053
 5755SOL    HW228899   3.315   4.182   4.576 -2.5935  0.0430 -0.8604
 5756SOL     OW28900   4.020   3.459   2.048 -0.3998  0.2714 -0.0824
 5756SOL    HW128901   4.099   3.493   2.089 -1.0454  0.4407  1.0265
 5756SOL    HW228902   3.959   3.528   2.075  0.6934  0.9690  0.6153
 5757SOL     OW28903   0.236   2.157   8.788 -0.3359  0.0782  0.0775
 5757SOL    HW128904   0.189   2.123   8.865 -4.3885 -1.2288 -2.9532
 5757SOL    HW228905   0.201   2.103   8.718 -0.3272 -1.1425  1.0009
 5758SOL     OW28906   4.667   4.650   4.386  0.1367  0.0418 -0.1295
 5758SOL    HW128907   4.609   4.591   4.435 -0.6122  2.1800  1.5508
 5758SOL    HW228908   4.625   4.734   4.400  2.2471  1.1414 -0.4208
 5759SOL     OW28909   0.861   0.193   5.208  0.1896 -0.2441  0.9984
 5759SOL    HW128910   0.772   0.196   5.173 -0.6573 -0.7952  3.0493
 5759SOL    HW228911   0.889   0.282   5.187 -0.4038 -0.1330  0.6852
 5760SOL     OW28912   1.474   1.705   4.677 -0.0364  0.3664 -0.1375
 5760SOL    HW128913   1.506   1.615   4.684 -3.6188 -1.0107 -1.2771
 5760SOL    HW228914   1.381   1.687   4.694  0.0595 -0.7681 -0.8154
 5761SOL     OW28915   3.054   0.446  17.559 -0.0142  0.1511 -0.3942
 5761SOL    HW128916   3.088   0.535  17.566  1.4852 -0.2807 -2.0913
 5761SOL    HW228917   2.970   0.460  17.514 -0.4134  1.1088  0.6608
 5762SOL     OW28918   3.917   2.451   3.120 -0.1544  0.5379 -0.4491
 5762SOL    HW128919   3.863   2.500   3.182  2.1248  1.9842  0.3840
 5762SOL    HW228920   3.899   2.496   3.037 -1.2112  1.0190  0.0415
 5763SOL     OW28921   2.027   4.679   5.899 -0.3189 -0.4333 -0.3649
 5763SOL    HW128922   1.974   4.689   5.820  1.1018  3.0817 -0.8814
 5763SOL    HW228923   2.057   0.034   5.908  2.0748 -1.4536  2.0674
 5764SOL     OW28924   2.041   1.091   8.047 -0.2237 -0.2209 -0.5498
 5764SOL    HW128925   2.067   1.156   7.982 -0.0964 -1.0283 -1.3141
 5764SOL    HW228926   2.091   1.017   8.013 -2.8842 -1.1887 -2.3309
 5765SOL     OW28927   3.442   0.648   6.598 -0.2594 -0.2913  0.7219
 5765SOL    HW128928   3.514   0.655   6.661  0.2875 -1.3841  0.2091
 5765SOL    HW228929   3.491   0.654   6.516  1.4775  0.0310  1.7667
 5766SOL     OW28930   4.167   1.318   4.471  0.7726 -0.3711 -0.0353
 5766SOL    HW128931   4.107   1.288   4.539  0.1306 -0.5948 -0.6983
 5766SOL    HW228932   4.170   1.411   4.494 -2.1109 -0.2772 -0.0267
 5767SOL     OW28933   3.599   4.699   1.670  0.3417  0.2766 -0.4062
 5767SOL    HW128934   3.575   4.727   1.758  1.0888  1.2162 -0.4877
 5767SOL    HW228935   3.622   4.607   1.681 -1.9916 -0.1436  0.7896
 5768SOL     OW28936   2.007   4.408   0.648  0.2062 -0.9229 -0.1978
 5768SOL    HW128937   1.978   4.345   0.582 -0.8338  0.1708 -0.7594
 5768SOL    HW228938   2.102   4.412   0.638  0.1512  1.8388  0.4799
 5769SOL     OW28939   2.890   1.951   1.209  0.4334  0.2361  0.4691
 5769SOL    HW128940   2.935   2.035   1.196 -0.0578  0.3895 -0.2410
 5769SOL    HW228941   2.864   1.938   1.118  0.7718  0.2360  0.3726
 5770SOL     OW28942   0.137   2.926   6.483  0.4044 -0.0238  0.2957
 5770SOL    HW128943   0.097   2.899   6.565 -3.2093  2.0315 -0.7825
 5770SOL    HW228944   0.185   3.000   6.521  1.1519 -0.7173  0.6845
 5771SOL     OW28945   0.740   4.544   9.867  0.3320  0.2786  0.2338
 5771SOL    HW128946   0.739   4.638   9.847  0.1667 -0.1418 -1.6967
 5771SOL    HW228947   0.811   4.517   9.809  1.0873 -0.6524  1.5879
 5772SOL     OW28948   0.952   3.015   5.328 -0.3455  0.2331 -0.1280
 5772SOL    HW128949   0.998   2.933   5.345 -2.2543 -0.1695  3.0640
 5772SOL    HW228950   1.005   3.053   5.258 -1.2842  1.8180  0.0210
 5773SOL     OW28951   2.897   2.616   2.675 -0.0835 -0.0426  0.5506
 5773SOL    HW128952   2.980   2.640   2.634  0.0869 -0.6570  0.5405
 5773SOL    HW228953   2.838   2.667   2.620 -2.5139 -0.9252  2.3680
 5774SOL     OW28954   1.446   4.269   7.574  0.2307  0.3132  0.2603
 5774SOL    HW128955   1.449   4.178   7.544 -1.3863  0.6242 -0.8698
 5774SOL    HW228956   1.358   4.288   7.540  0.5412  0.3675 -0.5223
 5775SOL     OW28957   0.491   4.329  15.885  0.1483 -0.5329 -0.6738
 5775SOL    HW128958   0.469   4.238  15.866  1.2169 -0.7266 -1.0315
 5775SOL    HW228959   0.557   4.321  15.955  0.7974  0.3294 -1.1777
 5776SOL     OW28960   0.573   3.702   3.494 -0.0563  0.2789 -0.4100
 5776SOL    HW128961   0.535   3.657   3.570  3.3997 -0.7141  0.7608
 5776SOL    HW228962   0.666   3.682   3.505 -0.3595 -0.5232  0.7041
 5777SOL     OW28963   2.693   0.956  14.298  0.0865  0.1311 -0.2992
 5777SOL    HW128964   2.626   0.888  14.295 -0.8517  1.2272 -3.5677
 5777SOL    HW228965   2.702   0.989  14.209 -2.5517 -1.5817 -1.1825
 5778SOL     OW28966   3.302   1.488   6.335  0.1362  1.0386 -0.5489
 5778SOL    HW128967   3.249   1.517   6.261 -1.4989  2.4300  1.1792
 5778SOL    HW228968   3.342   1.421   6.279 -2.2428  0.1011 -1.1371
 5779SOL     OW28969   1.421   3.315  10.116  0.3422  0.5861  0.4114
 5779SOL    HW128970   1.393   3.227  10.138 -1.9585  0.9740 -0.9653
 5779SOL    HW228971   1.429   3.301  10.022  2.3837 -0.3979  0.7460
 5780SOL     OW28972   1.617   1.642   0.105  0.1119 -0.6646 -0.2608
 5780SOL    HW128973   1.572   1.718   0.142  0.0100 -1.5018  1.3314
 5780SOL    HW228974   1.596   1.649   0.012 -1.0298  1.3749  0.1385
 5781SOL     OW28975   2.362   1.398  15.024 -0.5449  0.0338  0.2940
 5781SOL    HW128976   2.441   1.452  15.028 -0.7981  0.3887  0.5159
 5781SOL    HW228977   2.299   1.470  15.030  1.0255  1.2773  1.8627
 5782SOL     OW28978   0.434   0.736  12.909 -0.1622  0.2808 -0.1794
 5782SOL    HW128979   0.411   0.645  12.891 -1.7795  1.1050 -2.2520
 5782SOL    HW228980   0.518   0.721  12.953 -0.4187 -1.8357 -0.4215
 5783SOL     OW28981   3.774   1.281   5.854 -0.2566 -0.0408  0.0624
 5783SOL    HW128982   3.715   1.209   5.875  0.9374 -0.9775  0.1966
 5783SOL    HW228983   3.849   1.235   5.816 -0.6443 -0.5594 -0.0651
 5784SOL     OW28984   0.971   3.945   1.893 -0.3228 -0.0736  0.3528
 5784SOL    HW128985   0.884   3.984   1.883  0.1521  0.8447 -0.3123
 5784SOL    HW228986   0.950   3.854   1.874 -0.3159 -0.2999  1.4642
 5785SOL     OW28987   0.237   4.650   6.778 -0.0859 -0.0085  0.6495
 5785SOL    HW128988   0.268   4.713   6.712 -1.2306 -0.9396 -0.7740
 5785SOL    HW228989   0.181   4.600   6.719  3.0926 -2.5833 -0.1991
 5786SOL     OW28990   2.103   3.663   8.419  0.0694 -0.4376  0.5224
 5786SOL    HW128991   2.173   3.656   8.484 -0.8213 -1.0898  1.4090
 5786SOL    HW228992   2.080   3.755   8.433  1.3662 -0.3633  2.1439
 5787SOL     OW28993   3.399   0.549   7.035  0.4665 -0.0139 -0.5480
 5787SOL    HW128994   3.376   0.476   7.092  2.5216 -0.1181  0.1383
 5787SOL    HW228995   3.453   0.504   6.970  1.0654  1.7912 -1.2917
 5788SOL     OW28996   4.406   4.328   8.186 -0.3776  0.1403  0.4855
 5788SOL    HW128997   4.424   4.401   8.245 -3.7061  0.5422  1.0323
 5788SOL    HW228998   4.494   4.299   8.162 -0.6277 -0.9785  0.9455
 5789SOL     OW28999   4.683   2.794   8.537 -0.3679 -0.9483  0.0498
 5789SOL    HW129000   4.654   2.732   8.604  2.0590 -0.4954  1.5136
 5789SOL    HW229001   4.643   2.767   8.454 -0.2983  0.0090 -0.3018
 5790SOL     OW29002   1.543   4.378   5.535 -0.2899  0.7317  1.1443
 5790SOL    HW129003   1.564   4.346   5.622  0.5627  1.0970  1.0756
 5790SOL    HW229004   1.523   4.295   5.493 -3.0273  1.0242  1.8569
 5791SOL     OW29005   0.376   2.855   8.253 -0.3359  0.1352 -0.1109
 5791SOL    HW129006   0.297   2.907   8.262  0.1788  1.1514 -1.5818
 5791SOL    HW229007   0.437   2.918   8.292  0.2380 -0.7999  0.5147
 5792SOL     OW29008   2.546   1.047  11.795  0.0418  0.2279  0.4441
 5792SOL    HW129009   2.459   1.081  11.819 -0.9514 -1.6801 -0.4927
 5792SOL    HW229010   2.566   1.004  11.877  3.4465 -1.7945 -1.4774
 5793SOL     OW29011   3.532   4.599   4.536 -0.1148 -0.2275  0.1600
 5793SOL    HW129012   3.551   4.648   4.617  0.8321  0.0471 -0.2319
 5793SOL    HW229013   3.584   4.645   4.470  0.9643 -0.1651  1.0549
 5794SOL     OW29014   4.250   0.017  13.661  0.1732  0.3400  0.0244
 5794SOL    HW129015   4.296   4.673  13.635 -2.1226 -1.4942  1.5934
 5794SOL    HW229016   4.225   0.056  13.577  1.6547  0.5105 -0.3517
 5795SOL     OW29017   0.538   2.962  14.306  0.3572  0.0689 -0.2723
 5795SOL    HW129018   0.572   3.013  14.380 -0.7476  0.8512 -0.2940
 5795SOL    HW229019   0.473   2.903  14.343  1.6500 -1.1779 -0.0081
 5796SOL     OW29020   4.641   4.711  11.838  0.1713  0.2387 -0.2338
 5796SOL    HW129021   4.665   0.054  11.888 -0.0631  0.1124  0.0720
 5796SOL    HW229022   4.725   4.667  11.853  0.6641  1.7210  1.3685
 5797SOL     OW29023   1.369   3.016   6.248 -0.0181  0.6393 -0.3389
 5797SOL    HW129024   1.408   3.096   6.282  0.1703  0.5070 -0.2409
 5797SOL    HW229025   1.444   2.992   6.194 -0.6849  1.1444 -1.4918
 5798SOL     OW29026   2.726   3.678   7.261  0.1719 -0.0870  0.4838
 5798SOL    HW129027   2.734   3.759   7.210 -0.1582  0.0460  0.6469
 5798SOL    HW229028   2.709   3.618   7.189 -0.0187  1.8709 -1.1071
 5799SOL     OW29029   2.651   1.441   5.008  0.3508 -0.3792  0.0945
 5799SOL    HW129030   2.556   1.440   5.016  0.0215  0.5828 -3.4949
 5799SOL    HW229031   2.651   1.500   4.933  0.2977  0.1680  0.5242
 5800SOL     OW29032   3.525   2.031   3.499 -0.1355  0.3724  0.5038
 5800SOL    HW129033   3.572   2.108   3.531  0.5984 -0.5136  1.5579
 5800SOL    HW229034   3.585   1.958   3.512 -0.4392 -0.0995 -0.7533
 5801SOL     OW29035   3.874   2.691   6.451 -0.0477 -0.0446  0.0583
 5801SOL    HW129036   3.900   2.750   6.522  0.3473 -1.3947  1.0358
 5801SOL    HW229037   3.846   2.763   6.393 -2.5910 -1.5983 -0.6112
 5802SOL     OW29038   4.672   3.775   5.873 -0.0313  0.3864  0.2707
 5802SOL    HW129039   4.695   3.866   5.888 -1.9841  0.5296  2.2980
 5802SOL    HW229040   4.625   3.746   5.951  1.0335  1.0426  1.1419
 5803SOL     OW29041   1.879   0.796   2.262  0.2228 -0.2513  0.3574
 5803SOL    HW129042   1.852   0.733   2.329  0.1359 -1.5696 -0.9487
 5803SOL    HW229043   1.968   0.785   2.229 -0.6751  1.2773 -2.5335
 5804SOL     OW29044   3.326   3.529   3.300 -0.0751  0.2320  0.0245
 5804SOL    HW129045   3.397   3.474   3.267 -2.0700 -2.4358  0.2039
 5804SOL    HW229046   3.360   3.618   3.285  0.0100  0.4804  1.6457
 5805SOL     OW29047   3.582   2.571  14.736 -0.1776  0.6167  0.3561
 5805SOL    HW129048   3.525   2.513  14.787 -1.6078  0.4081 -1.4925
 5805SOL    HW229049   3.660   2.567  14.790 -1.6274 -1.0391  2.3407
 5806SOL     OW29050   4.265   2.060   8.923 -0.0362 -0.0056  0.0742
 5806SOL    HW129051   4.206   2.101   8.860 -1.1503 -0.8665  0.5552
 5806SOL    HW229052   4.221   2.063   9.008  0.4204 -3.8975  0.4690
 5807SOL     OW29053   2.766   0.878   7.225  0.5004  0.5125  0.4452
 5807SOL    HW129054   2.736   0.803   7.277 -0.3925  0.3010 -0.3772
 5807SOL    HW229055   2.817   0.833   7.159 -0.2726 -0.5228  0.5454
 5808SOL     OW29056   3.103   0.572   7.743 -0.0716  0.5185  0.4352
 5808SOL    HW129057   3.084   0.625   7.665 -1.1559  0.1197  0.4271
 5808SOL    HW229058   3.195   0.584   7.767  0.2406  0.7499 -0.8421
 5809SOL     OW29059   3.455   3.060  13.367 -0.6749 -0.7098 -0.4240
 5809SOL    HW129060   3.448   3.063  13.271 -1.1922  0.5389 -0.3496
 5809SOL    HW229061   3.410   3.140  13.394  1.1490  0.3725 -0.6440
 5810SOL     OW29062   3.656   3.536   7.435  0.3138  0.6091  0.3230
 5810SOL    HW129063   3.742   3.575   7.454  0.1925  0.4238  1.2655
 5810SOL    HW229064   3.632   3.492   7.517 -1.4240  0.8530 -0.0545
 5811SOL     OW29065   4.645   0.205   3.114 -0.1124 -0.0260  0.6725
 5811SOL    HW129066   4.565   0.251   3.089 -0.4538 -0.2079  1.4219
 5811SOL    HW229067   4.652   0.250   3.198 -0.2515  1.6090 -0.2024
 5812SOL     OW29068   0.378   0.236   8.598 -0.4507  0.3956  0.5751
 5812SOL    HW129069   0.389   0.309   8.658 -1.7386 -0.5793  1.9989
 5812SOL    HW229070   0.392   0.170   8.666  0.9634  0.0981 -0.0219
 5813SOL     OW29071   3.574   0.001   0.219 -0.1361  0.1873 -0.0135
 5813SOL    HW129072   3.610   0.009   0.130 -0.1100 -3.8433 -0.3634
 5813SOL    HW229073   3.649   4.705   0.270  0.4459  0.7525 -0.5123
 5814SOL     OW29074   3.746   2.478   7.041 -0.3856  0.2386 -0.5868
 5814SOL    HW129075   3.771   2.570   7.047 -1.6156  0.5074  0.5061
 5814SOL    HW229076   3.726   2.466   6.948 -1.9876  0.2198 -0.2469
 5815SOL     OW29077   0.949   1.040   4.142 -0.0392 -0.5311  0.0743
 5815SOL    HW129078   1.019   0.984   4.111 -2.0761 -1.9149 -2.0621
 5815SOL    HW229079   0.876   0.978   4.140  0.1348 -0.6629 -2.0048
 5816SOL     OW29080   0.988   4.166   7.398 -0.3675 -0.3047  0.1209
 5816SOL    HW129081   0.914   4.219   7.368  0.3392  2.0301  2.5196
 5816SOL    HW229082   0.955   4.151   7.486 -0.4988  1.4747  0.3875
 5817SOL     OW29083   2.905   4.516  15.072  1.0573 -0.5055 -0.4852
 5817SOL    HW129084   2.877   4.544  15.159  1.8835  0.6273 -0.5905
 5817SOL    HW229085   2.935   4.428  15.097 -0.9435 -0.5926  1.5787
 5818SOL     OW29086   2.553   1.643  15.770 -0.0241  0.0628 -0.2971
 5818SOL    HW129087   2.626   1.620  15.828 -0.0479  1.7580  0.4010
 5818SOL    HW229088   2.496   1.679  15.837  0.3669 -1.6375  0.9376
 5819SOL     OW29089   0.180   3.966  13.355  0.9471 -0.0599  0.2365
 5819SOL    HW129090   0.253   3.989  13.296  1.3943  1.5882  1.4086
 5819SOL    HW229091   0.186   4.042  13.413  1.7908  0.8814 -1.0748
 5820SOL     OW29092   2.291   3.348   2.171 -0.0203 -0.2069  0.3923
 5820SOL    HW129093   2.304   3.363   2.264  0.3814  0.0202  0.2993
 5820SOL    HW229094   2.291   3.252   2.168 -1.4664 -0.1680 -0.8222
 5821SOL     OW29095   4.156   0.082   9.465 -0.5383 -0.3125 -0.0055
 5821SOL    HW129096   4.219   0.010   9.460  1.6362  1.3228  4.2332
 5821SOL    HW229097   4.077   0.033   9.441 -1.7697  1.9519 -0.5480
 5822SOL     OW29098   1.077   1.870   6.540  0.2225  0.1551  1.1199
 5822SOL    HW129099   1.071   1.964   6.521  3.1635  0.3645  1.2516
 5822SOL    HW229100   1.045   1.820   6.465 -0.3132  0.4745  1.1349
 5823SOL     OW29101   1.105   2.549  10.166  0.6633  0.5761 -0.4231
 5823SOL    HW129102   1.085   2.542  10.259  0.2273 -0.2906 -0.5760
 5823SOL    HW229103   1.166   2.478  10.144 -0.7491 -0.1417 -1.9976
 5824SOL     OW29104   3.592   3.396   4.071  0.0533 -0.1439 -0.1893
 5824SOL    HW129105   3.677   3.361   4.045 -0.7176 -2.3949  0.2288
 5824SOL    HW229106   3.562   3.437   3.989 -0.9044 -0.1496  0.1564
 5825SOL     OW29107   1.461   4.640   7.584  0.4265  0.4695 -0.3596
 5825SOL    HW129108   1.546   4.670   7.618  1.4791 -1.2181 -1.4553
 5825SOL    HW229109   1.413   4.638   7.666  1.2214 -1.5544  0.0678
 5826SOL     OW29110   2.375   0.195   8.587  0.2732  0.3985  0.1225
 5826SOL    HW129111   2.438   0.143   8.537 -1.2138 -1.3088  0.0307
 5826SOL    HW229112   2.407   0.281   8.558  0.4421  0.6917  1.1955
 5827SOL     OW29113   0.360   1.374  17.450  0.7292  0.2619  0.1535
 5827SOL    HW129114   0.425   1.409  17.390 -0.0833  0.0702 -0.8516
 5827SOL    HW229115   0.416   1.320  17.505  0.9057  0.5440  0.2468
 5828SOL     OW29116   2.819   2.730   8.582 -0.3740 -0.9154 -0.7518
 5828SOL    HW129117   2.834   2.666   8.651 -0.7959 -0.1336  0.0639
 5828SOL    HW229118   2.855   2.686   8.505  0.8777  2.4709 -2.1157
 5829SOL     OW29119   4.161   2.892   8.659 -0.4240  0.0558 -0.2222
 5829SOL    HW129120   4.245   2.875   8.700  1.3205 -2.6453 -4.8853
 5829SOL    HW229121   4.111   2.898   8.740 -1.4582  0.0528 -0.8481
 5830SOL     OW29122   2.882   1.254   3.067  0.0041  0.3782  0.3652
 5830SOL    HW129123   2.965   1.286   3.031 -0.6657  0.8047 -0.8201
 5830SOL    HW229124   2.847   1.337   3.099 -1.0085  0.7510 -1.6876
 5831SOL     OW29125   1.252   0.633   6.082 -0.5537 -0.2950 -0.3972
 5831SOL    HW129126   1.323   0.588   6.037  0.5152  1.1363 -0.1630
 5831SOL    HW229127   1.180   0.588   6.038  0.3413 -0.4310 -1.7203
 5832SOL     OW29128   1.791   3.394  15.471 -0.2810  0.3236  0.2563
 5832SOL    HW129129   1.712   3.373  15.521 -0.9971 -1.1687 -1.4950
 5832SOL    HW229130   1.800   3.484  15.500  1.2870  1.3038 -3.3480
 5833SOL     OW29131   4.692   2.628   3.270  0.1274  0.0333  0.3326
 5833SOL    HW129132   4.658   2.540   3.289 -1.8480  0.8388  0.5021
 5833SOL    HW229133   4.684   2.628   3.175  0.7282  0.7298  0.2868
 5834SOL     OW29134   2.363   1.437   4.969 -0.0641 -0.1260 -0.0204
 5834SOL    HW129135   2.318   1.479   5.042  0.3064  0.6744 -0.2517
 5834SOL    HW229136   2.346   1.499   4.899  0.9523  0.3913  0.1816
 5835SOL     OW29137   1.231   3.270  14.758 -0.4703 -0.0626  0.2403
 5835SOL    HW129138   1.162   3.332  14.780  0.6065  0.2341  2.7929
 5835SOL    HW229139   1.179   3.191  14.742 -4.7753  3.1572 -1.7594
 5836SOL     OW29140   2.736   1.395   2.331  0.2686  0.4874 -0.6564
 5836SOL    HW129141   2.642   1.412   2.322  0.4846  0.6690 -2.6426
 5836SOL    HW229142   2.758   1.483   2.361 -2.6180  0.4597  1.4908
 5837SOL     OW29143   3.458   3.907   8.821  0.8127 -0.2055 -0.3724
 5837SOL    HW129144   3.507   3.986   8.842 -0.0364  0.3467 -0.4556
 5837SOL    HW229145   3.477   3.859   8.901  0.5123  1.0813  0.4748
 5838SOL     OW29146   1.808   2.672   5.193 -0.0395  0.0347 -0.5382
 5838SOL    HW129147   1.874   2.607   5.168 -1.3549 -2.2272  1.9328
 5838SOL    HW229148   1.730   2.619   5.176  0.1314  0.5710 -3.0604
 5839SOL     OW29149   1.025   1.209   3.505 -1.0603  0.1150  0.1429
 5839SOL    HW129150   1.057   1.299   3.498 -1.6215  0.2163 -1.0437
 5839SOL    HW229151   1.112   1.171   3.520 -1.0351  0.2503  0.3476
 5840SOL     OW29152   3.591   2.557   4.588  0.5277 -0.8303 -0.0816
 5840SOL    HW129153   3.592   2.620   4.659 -0.2682  2.6921 -3.1993
 5840SOL    HW229154   3.498   2.535   4.579 -0.1905  1.6339  1.2983
 5841SOL     OW29155   2.178   1.147   2.360 -0.1000  0.4498 -0.5167
 5841SOL    HW129156   2.174   1.094   2.281  1.2438 -1.8208  0.9388
 5841SOL    HW229157   2.146   1.090   2.430  0.2333 -2.2920 -2.5877
 5842SOL     OW29158   0.230   0.234   4.261  0.5346  0.0667 -0.1224
 5842SOL    HW129159   0.269   0.320   4.272 -1.3433  0.8267  0.7181
 5842SOL    HW229160   0.146   0.253   4.304  0.5553 -0.0788 -0.0173
 5843SOL     OW29161   0.402   3.229   1.792 -0.4859  0.2207 -0.5863
 5843SOL    HW129162   0.344   3.221   1.868 -0.1602  2.3162 -0.1090
 5843SOL    HW229163   0.357   3.174   1.728  1.8910 -1.1421 -1.1016
 5844SOL     OW29164   0.501   0.243   4.896 -0.0467 -0.5999  0.3937
 5844SOL    HW129165   0.507   0.234   4.801  0.1182 -0.6151  0.4054
 5844SOL    HW229166   0.593   0.263   4.913 -0.0761  1.1553 -1.5398
 5845SOL     OW29167   4.575   0.471  12.753  0.7206  0.2030 -0.2001
 5845SOL    HW129168   4.510   0.509  12.695  0.4044  0.4166  0.2953
 5845SOL    HW229169   4.609   0.551  12.794 -0.9213 -0.3240  2.2277
 5846SOL     OW29170   3.729   0.232   7.898 -0.1796  0.1556  0.3468
 5846SOL    HW129171   3.768   0.262   7.816 -1.0276 -0.2412 -0.2058
 5846SOL    HW229172   3.799   0.173   7.926  1.2491  1.0079 -1.4587
 5847SOL     OW29173   4.187   0.372   9.047 -0.0936  0.3181  0.1270
 5847SOL    HW129174   4.167   0.295   9.101 -1.1395  0.1231 -0.5412
 5847SOL    HW229175   4.169   0.433   9.118 -0.7833  0.5453 -0.2420
 5848SOL     OW29176   1.155   3.586   5.493  0.5755  0.4546 -0.2054
 5848SOL    HW129177   1.066   3.613   5.516  0.2411  0.0396 -1.0189
 5848SOL    HW229178   1.148   3.491   5.481 -1.1536  0.2979  1.9889
 5849SOL     OW29179   2.377   2.125  14.787 -0.2001 -0.1398  0.1488
 5849SOL    HW129180   2.413   2.057  14.844  1.2474 -0.9639 -1.7483
 5849SOL    HW229181   2.287   2.092  14.785  0.1642 -1.1511  0.3542
 5850SOL     OW29182   4.324   0.360  16.691 -0.6183  0.1707  0.3282
 5850SOL    HW129183   4.241   0.359  16.738 -0.9149 -0.3836 -0.2102
 5850SOL    HW229184   4.295   0.392  16.606 -0.4364 -0.5082  0.0126
 5851SOL     OW29185   2.635   2.158  14.181 -0.4231 -0.1792 -0.0329
 5851SOL    HW129186   2.660   2.227  14.121 -3.1833  0.7549 -0.0989
 5851SOL    HW229187   2.608   2.092  14.117  0.1702  0.8021 -1.2897
 5852SOL     OW29188   4.076   1.564  16.948 -0.8511  0.1283  0.2696
 5852SOL    HW129189   4.071   1.498  17.016 -0.1017 -2.5666 -2.3140
 5852SOL    HW229190   4.119   1.517  16.877 -1.5973 -0.4441  0.2072
 5853SOL     OW29191   3.873   3.878   6.267  0.0570  0.2120 -0.1746
 5853SOL    HW129192   3.872   3.927   6.348 -1.1179  0.1296 -0.1343
 5853SOL    HW229193   3.928   3.808   6.302 -1.8328 -0.9000  0.5488
 5854SOL     OW29194   3.539   1.456   7.007  0.1495  0.6156 -0.0465
 5854SOL    HW129195   3.446   1.439   7.023  0.5540 -2.3509 -0.7249
 5854SOL    HW229196   3.543   1.549   7.027  0.7308  0.6569 -0.3636
 5855SOL     OW29197   1.295   2.348  10.110 -0.3945 -0.0774  0.3363
 5855SOL    HW129198   1.344   2.330  10.030 -2.4235  0.6745 -1.0749
 5855SOL    HW229199   1.368   2.320  10.165  0.5528  0.2782 -0.7550
 5856SOL     OW29200   3.251   3.856  15.140  1.1417 -0.2880  0.0475
 5856SOL    HW129201   3.239   3.773  15.093 -0.2063 -1.1929  1.9857
 5856SOL    HW229202   3.232   3.925  15.077 -1.7263 -1.1867 -0.0695
 5857SOL     OW29203   1.425   1.976  13.110 -0.1887 -0.4011 -0.2796
 5857SOL    HW129204   1.455   1.886  13.118  0.2846 -0.2904 -0.7833
 5857SOL    HW229205   1.334   1.961  13.084 -0.4953  2.1094 -0.6857
 5858SOL     OW29206   4.140   0.576   5.408 -0.7637 -0.3960  0.1435
 5858SOL    HW129207   4.112   0.484   5.405 -0.3249 -0.5998  1.8517
 5858SOL    HW229208   4.076   0.611   5.470  0.5881  0.8539  0.8447
 5859SOL     OW29209   3.138   2.501   2.817  0.4415  0.1402 -0.5732
 5859SOL    HW129210   3.209   2.558   2.787  0.0089  0.5257 -0.8558
 5859SOL    HW229211   3.058   2.552   2.834  0.7911  0.5235 -0.0606
 5860SOL     OW29212   2.552   0.753  14.031 -1.1175 -0.1353 -0.1263
 5860SOL    HW129213   2.537   0.755  14.125  0.3712 -0.0978  0.1185
 5860SOL    HW229214   2.536   0.659  14.019 -0.2295 -0.3108  0.0909
 5861SOL     OW29215   3.965   4.172   3.607 -0.4384 -0.2986 -0.4679
 5861SOL    HW129216   3.995   4.211   3.525 -0.6301 -1.1176 -0.9238
 5861SOL    HW229217   3.871   4.188   3.600 -0.2026  1.0861 -0.4847
 5862SOL     OW29218   4.532   2.845   6.372  0.2823 -0.3054 -0.2727
 5862SOL    HW129219   4.481   2.791   6.312  1.0833 -1.8472  0.4350
 5862SOL    HW229220   4.564   2.772   6.425  1.7093  0.5323  0.0183
 5863SOL     OW29221   3.990   3.715   8.601 -0.1199 -0.0853  0.0718
 5863SOL    HW129222   4.006   3.624   8.577  0.6012  1.0477 -3.7642
 5863SOL    HW229223   3.904   3.709   8.643 -0.7256  0.3720 -1.0742
 5864SOL     OW29224   1.118   0.869  17.015  0.0104 -0.1312  0.0346
 5864SOL    HW129225   1.136   0.838  17.104  1.3755  1.5551  0.3381
 5864SOL    HW229226   1.163   0.953  17.017 -1.8919  0.9041 -0.6603
 5865SOL     OW29227   1.971   3.944  12.965  0.4089 -0.2021  0.5280
 5865SOL    HW129228   2.065   3.931  12.955  0.6091  2.2924 -0.8144
 5865SOL    HW229229   1.945   3.853  12.978 -0.6662  0.0834  0.4023
 5866SOL     OW29230   4.009   2.808  15.363 -0.4125  0.3958 -0.8224
 5866SOL    HW129231   4.037   2.790  15.273  1.0944  2.2453 -0.7296
 5866SOL    HW229232   3.935   2.748  15.373 -2.1478  2.3509 -1.9061
 5867SOL     OW29233   0.076   0.054   8.167 -0.2571 -0.1877  0.2995
 5867SOL    HW129234   0.144   0.016   8.222  0.2614  0.2720 -0.0198
 5867SOL    HW229235   0.101   0.146   8.173 -1.8295  0.1956  0.9533
 5868SOL     OW29236   4.133   1.631   9.101 -0.4385  0.4153  0.1243
 5868SOL    HW129237   4.190   1.555   9.110  0.3700  0.8630 -1.3045
 5868SOL    HW229238   4.186   1.693   9.151 -0.4465  1.2757 -0.9411
 5869SOL     OW29239   3.478   2.951   2.901 -0.4468 -1.3956 -0.7208
 5869SOL    HW129240   3.479   2.914   2.989  0.7487  1.9299  0.6296
 5869SOL    HW229241   3.524   2.881   2.854 -0.6673 -0.5263 -2.2279
 5870SOL     OW29242   3.405   1.158   6.473  0.2363  0.2387 -0.1677
 5870SOL    HW129243   3.314   1.187   6.464 -0.2637 -1.4523 -0.4247
 5870SOL    HW229244   3.416   1.111   6.555  0.2650  0.9126  0.2122
 5871SOL     OW29245   0.527   2.801   8.613  0.7271  0.3185  0.5560
 5871SOL    HW129246   0.452   2.858   8.597  1.2305  0.9130  0.3164
 5871SOL    HW229247   0.485   2.726   8.655  1.8582 -0.0542  1.0150
 5872SOL     OW29248   1.580   2.923   6.057  0.2307 -0.5302 -0.6113
 5872SOL    HW129249   1.619   2.835   6.057  0.1655 -0.5595  0.8587
 5872SOL    HW229250   1.562   2.933   5.964 -0.1887  0.0365 -0.4696
 5873SOL     OW29251   4.713   2.893   4.086 -0.5355  0.3946  0.0355
 5873SOL    HW129252   4.638   2.847   4.046 -1.6753  0.0949  2.5267
 5873SOL    HW229253   0.030   2.816   4.103  0.9625  0.9254 -2.2374
 5874SOL     OW29254   0.031   0.345   4.770  0.4806 -0.0784  0.3247
 5874SOL    HW129255   0.032   0.438   4.792 -0.2669  0.0227 -0.0549
 5874SOL    HW229256   0.095   0.304   4.828  0.6098  0.4935  0.5863
 5875SOL     OW29257   4.701   0.821   7.321  0.4223 -0.3580  0.3576
 5875SOL    HW129258   4.626   0.876   7.345  2.3039  2.3129  0.0990
 5875SOL    HW229259   4.694   0.810   7.226  0.7989 -1.8027  0.5061
 5876SOL     OW29260   1.395   3.782  10.115 -0.1288 -0.2935 -0.1547
 5876SOL    HW129261   1.347   3.724  10.175 -0.4187 -0.1756 -0.2715
 5876SOL    HW229262   1.484   3.763  10.142 -0.0331  0.9826  0.4291
 5877SOL     OW29263   3.054   3.336  13.642  0.5708  0.1867 -0.0838
 5877SOL    HW129264   3.001   3.304  13.715 -1.4489  1.4048 -1.0273
 5877SOL    HW229265   3.105   3.407  13.680  1.5711  0.2757 -1.5588
 5878SOL     OW29266   4.724   1.856   3.311 -0.0905  0.2369  0.6707
 5878SOL    HW129267   4.712   1.876   3.218  0.3111 -0.8866  0.3743
 5878SOL    HW229268   0.007   1.765   3.290  0.6909  1.0115 -2.1394
 5879SOL     OW29269   2.461   0.008  15.658  0.5424 -0.1496 -0.0313
 5879SOL    HW129270   2.448   4.678  15.590 -0.6045 -0.8319  0.8450
 5879SOL    HW229271   2.556   0.005  15.667  0.8455  0.6843 -3.0058
 5880SOL     OW29272   1.087   3.264  14.101 -0.2327 -0.8632 -0.5071
 5880SOL    HW129273   1.148   3.297  14.166 -2.1391 -2.9150  2.3382
 5880SOL    HW229274   1.019   3.212  14.145 -0.2659  0.3541  0.8750
 5881SOL     OW29275   1.114   1.053   9.021 -0.2318 -0.1860  0.3111
 5881SOL    HW129276   1.149   0.965   9.012 -1.9517 -0.9544  1.1415
 5881SOL    HW229277   1.194   1.088   9.059 -0.2812  0.1103  0.1469
 5882SOL     OW29278   0.604   4.271  11.408 -0.0658  0.6520 -0.3898
 5882SOL    HW129279   0.587   4.211  11.335 -5.4125 -1.1595  2.3449
 5882SOL    HW229280   0.697   4.261  11.426 -0.4139 -0.6135  0.7080
 5883SOL     OW29281   3.668   4.371   2.022  0.1255 -0.3021 -0.2036
 5883SOL    HW129282   3.621   4.289   2.006  0.8074 -0.8987  0.8589
 5883SOL    HW229283   3.679   4.401   1.932 -1.8133 -0.3017 -0.4529
 5884SOL     OW29284   2.038   0.402   7.383  1.0140 -0.1675 -0.1668
 5884SOL    HW129285   2.085   0.368   7.459 -2.6282 -2.1303  1.1919
 5884SOL    HW229286   2.113   0.390   7.325 -0.3079 -0.5937 -1.7695
 5885SOL     OW29287   1.545   1.259   4.346 -0.0532 -0.3782 -0.4023
 5885SOL    HW129288   1.511   1.280   4.259 -1.0765 -1.9777 -0.3777
 5885SOL    HW229289   1.530   1.348   4.380 -1.7298 -0.9405  0.3514
 5886SOL     OW29290   4.524   3.565   8.497 -0.0899 -0.3409 -0.2200
 5886SOL    HW129291   4.483   3.489   8.537 -1.4007  0.1329 -0.6679
 5886SOL    HW229292   4.498   3.542   8.408  0.7001  0.6611 -0.7140
 5887SOL     OW29293   2.984   2.411   8.544  0.4551  0.4379 -0.0140
 5887SOL    HW129294   3.075   2.398   8.518  0.4934 -0.8151  0.7722
 5887SOL    HW229295   2.935   2.432   8.465 -1.7774  1.4308  1.6228
 5888SOL     OW29296   3.922   0.133   3.418 -0.4508 -0.0837  0.0595
 5888SOL    HW129297   3.923   0.229   3.421  2.2232 -0.0912 -0.7645
 5888SOL    HW229298   3.834   0.113   3.387 -1.2403  2.8059  0.4412
 5889SOL     OW29299   3.140   1.858  16.830  0.0603 -0.1828 -0.4992
 5889SOL    HW129300   3.148   1.795  16.758 -1.3572 -0.8477 -0.0770
 5889SOL    HW229301   3.049   1.854  16.860  0.2224  2.2046  0.2596
 5890SOL     OW29302   4.702   1.468   9.340 -0.3300 -0.0666 -0.4167
 5890SOL    HW129303   4.649   1.389   9.350 -2.5025  1.1892 -2.0574
 5890SOL    HW229304   0.026   1.473   9.414 -0.2996  1.4840 -0.5458
 5891SOL     OW29305   1.378   1.760   9.181  0.1964  0.0021  0.3790
 5891SOL    HW129306   1.458   1.812   9.186  0.1192  0.1036  0.5617
 5891SOL    HW229307   1.393   1.694   9.248  0.7610  1.8399  2.0565
 5892SOL     OW29308   1.037   3.534   0.886 -0.6022 -0.1297  0.1682
 5892SOL    HW129309   1.034   3.549   0.791  1.7458  0.1509  0.1496
 5892SOL    HW229310   0.943   3.514   0.897 -0.6214  1.0052  2.0308
 5893SOL     OW29311   4.066   4.502   2.422  0.3358 -0.2816 -0.4511
 5893SOL    HW129312   4.123   4.579   2.425 -0.6559  0.4054  0.8319
 5893SOL    HW229313   4.083   4.464   2.336  0.7723 -1.1253  0.0113
 5894SOL     OW29314   2.347   2.419   7.575  0.0542 -0.4471 -0.7345
 5894SOL    HW129315   2.364   2.354   7.643 -0.7039 -0.4518 -0.5472
 5894SOL    HW229316   2.411   2.387   7.512  1.8698  0.6226  0.5594
 5895SOL     OW29317   0.740   4.563   4.093  0.5000  0.0780 -0.0190
 5895SOL    HW129318   0.682   4.544   4.019 -1.5812 -1.6071  2.0532
 5895SOL    HW229319   0.704   4.516   4.169 -1.3316 -0.3734 -1.1600
 5896SOL     OW29320   1.771   3.008  15.246 -0.2172  0.0459  0.1708
 5896SOL    HW129321   1.757   2.939  15.182 -0.7952 -1.5715  2.0354
 5896SOL    HW229322   1.737   3.090  15.209  1.2300  0.1889 -0.8120
 5897SOL     OW29323   4.438   1.969   0.058  0.0439 -0.1836 -0.6982
 5897SOL    HW129324   4.485   2.048   0.084 -0.2947 -0.7260  1.5870
 5897SOL    HW229325   4.490   1.892   0.082 -0.0050  0.4136  1.3862
 5898SOL     OW29326   0.410   4.652   1.011  0.2023 -0.3802  0.3818
 5898SOL    HW129327   0.419   4.558   1.026  0.3033 -0.2970  0.8282
 5898SOL    HW229328   0.360   4.680   1.088  0.9265  0.7399  0.4412
 5899SOL     OW29329   0.087   2.919   5.050 -0.0766 -0.2517  0.0060
 5899SOL    HW129330   0.119   2.832   5.074  2.0983  0.9534  1.4723
 5899SOL    HW229331   0.016   2.917   5.114 -0.5732  1.7679 -0.4741
 5900SOL     OW29332   2.808   1.660   2.445  0.6898  0.0234  0.2221
 5900SOL    HW129333   2.750   1.650   2.521  0.8093 -1.3822  0.1385
 5900SOL    HW229334   2.873   1.721   2.479 -2.2011  0.6811  4.5642
 5901SOL     OW29335   1.040   1.943   9.937 -0.0586 -0.2784  0.0489
 5901SOL    HW129336   0.950   1.913   9.949 -0.2287  1.1594  2.2687
 5901SOL    HW229337   1.088   1.863   9.961  0.2363  1.0252  3.8020
 5902SOL     OW29338   1.112   1.432   5.279  0.0833  0.2299  0.1375
 5902SOL    HW129339   1.107   1.528   5.276  0.1679  0.2558  0.9972
 5902SOL    HW229340   1.204   1.410   5.292  0.3253  1.2036  0.0677
 5903SOL     OW29341   4.499   3.967   3.416 -0.4981 -0.1511 -0.3753
 5903SOL    HW129342   4.555   3.983   3.493 -0.2927 -0.5358 -0.4411
 5903SOL    HW229343   4.533   3.884   3.382 -0.1894 -0.2918  0.2611
 5904SOL     OW29344   0.085   2.473  14.032 -0.3163 -0.2058  0.2934
 5904SOL    HW129345   0.177   2.485  14.010 -0.0449  0.4877  1.8257
 5904SOL    HW229346   0.088   2.447  14.124  2.4834 -0.6516  0.0609
 5905SOL     OW29347   0.190   2.955   2.039  0.1725 -0.1224  0.5457
 5905SOL    HW129348   0.182   2.955   1.944 -1.0152 -0.6168  0.6457
 5905SOL    HW229349   0.279   2.920   2.046  0.3395  0.0483 -0.7751
 5906SOL     OW29350   0.392   3.483   8.078  0.2103  0.5650 -0.1376
 5906SOL    HW129351   0.326   3.439   8.131  0.7981  1.2025  1.1115
 5906SOL    HW229352   0.466   3.485   8.138 -0.1807 -1.1171  0.4077
 5907SOL     OW29353   2.539   0.497   3.517 -0.3629  0.2938  0.0545
 5907SOL    HW129354   2.575   0.549   3.589  0.3110  1.3923 -1.0930
 5907SOL    HW229355   2.536   0.415   3.566 -1.1201 -1.2883 -2.6558
 5908SOL     OW29356   2.966   2.915   7.901  0.1549 -0.5384  0.3223
 5908SOL    HW129357   2.872   2.932   7.891  0.2714 -0.1340 -0.0625
 5908SOL    HW229358   2.985   2.943   7.812 -0.6023 -0.3694  0.2116
 5909SOL     OW29359   4.595   0.930   5.762  0.0014 -0.5713 -0.0576
 5909SOL    HW129360   4.650   0.865   5.806 -0.5898 -0.9509  0.1228
 5909SOL    HW229361   4.624   0.920   5.671  0.2504 -2.6025  0.2417
 5910SOL     OW29362   1.940   3.958  12.297 -0.1735 -0.0685  0.2979
 5910SOL    HW129363   2.010   4.019  12.276 -1.1539  1.1639  0.6712
 5910SOL    HW229364   1.861   4.010  12.281  0.7556  1.2303 -0.0289
 5911SOL     OW29365   0.757   0.846  15.221 -0.0272 -0.3355  0.4536
 5911SOL    HW129366   0.765   0.869  15.314  0.3076 -2.9392  1.0596
 5911SOL    HW229367   0.773   0.753  15.236 -4.6337 -1.2599 -0.2538
 5912SOL     OW29368   4.238   2.616   3.984  0.0188  0.4638  0.7711
 5912SOL    HW129369   4.165   2.586   4.038 -1.6774 -0.8188 -2.2301
 5912SOL    HW229370   4.213   2.596   3.894  2.2465  3.1369 -0.4440
 5913SOL     OW29371   3.557   4.226   4.971 -0.3029  0.4155 -0.0410
 5913SOL    HW129372   3.613   4.273   5.032 -1.8970  3.9430 -1.2784
 5913SOL    HW229373   3.470   4.238   5.009  0.0432 -0.9704  1.1911
 5914SOL     OW29374   2.596   0.624   5.506 -0.2097 -0.2842  0.5953
 5914SOL    HW129375   2.674   0.638   5.560  0.4069 -0.0042 -0.3621
 5914SOL    HW229376   2.623   0.574   5.428 -2.3468 -0.7894  0.1824
 5915SOL     OW29377   1.325   0.093   2.581 -0.3425 -0.0235 -0.5315
 5915SOL    HW129378   1.259   0.027   2.558 -1.2837  1.6086 -2.4680
 5915SOL    HW229379   1.351   0.056   2.666  0.1690  1.1499 -0.1810
 5916SOL     OW29380   1.163   2.072   7.843 -0.3688 -0.0692  0.1378
 5916SOL    HW129381   1.145   2.036   7.930 -2.3357  0.0236 -0.2283
 5916SOL    HW229382   1.207   1.994   7.808  0.0872 -1.2411  3.3345
 5917SOL     OW29383   1.111   4.400   7.181 -0.2768 -0.4133  0.2411
 5917SOL    HW129384   1.170   4.475   7.170 -0.6098 -0.6687 -3.2255
 5917SOL    HW229385   1.159   4.346   7.244  0.5698 -0.7019 -0.6541
 5918SOL     OW29386   0.659   4.095   8.654 -0.5107  0.4673  0.6094
 5918SOL    HW129387   0.685   4.053   8.736  1.5258 -1.3763 -0.9978
 5918SOL    HW229388   0.722   4.166   8.641  1.0478 -1.3020 -1.4703
 5919SOL     OW29389   2.689   2.775   1.787  0.0092 -0.1520  0.3312
 5919SOL    HW129390   2.755   2.831   1.748  0.4554 -2.5714 -2.3684
 5919SOL    HW229391   2.748   2.728   1.846  1.1305  0.2418 -0.4921
 5920SOL     OW29392   2.364   2.917   6.236 -0.2188 -0.0891 -0.8803
 5920SOL    HW129393   2.431   2.946   6.174 -1.1767  1.0574 -1.3903
 5920SOL    HW229394   2.395   2.956   6.317 -0.3066 -2.7145  0.4045
 5921SOL     OW29395   3.929   0.032   0.890 -0.1098  0.2037  0.5452
 5921SOL    HW129396   4.023   0.021   0.904 -0.2767 -0.9428  0.7486
 5921SOL    HW229397   3.890   4.683   0.867 -0.2128 -0.2594  2.4248
 5922SOL     OW29398   0.846   3.709   1.248 -0.6521  0.0846 -0.4150
 5922SOL    HW129399   0.828   3.629   1.198  1.3375 -1.0480  0.7048
 5922SOL    HW229400   0.918   3.673   1.300 -1.1720 -0.6552 -0.2001
 5923SOL     OW29401   1.640   0.483   3.472  0.5541 -0.8078  0.6475
 5923SOL    HW129402   1.721   0.471   3.423 -0.0519  1.8201 -1.0038
 5923SOL    HW229403   1.592   0.412   3.429 -2.1119  0.8863  0.8158
 5924SOL     OW29404   1.066   3.025   2.461  0.1533 -0.2740  0.0095
 5924SOL    HW129405   1.028   2.937   2.457  0.5125 -0.4570  0.6451
 5924SOL    HW229406   1.145   3.009   2.513  1.2162 -0.7380 -1.7465
 5925SOL     OW29407   2.770   3.233  11.196 -0.0618 -0.2720  0.4006
 5925SOL    HW129408   2.700   3.178  11.161 -1.5303  2.1184 -0.4067
 5925SOL    HW229409   2.853   3.186  11.186  0.6948  1.2367 -0.4953
 5926SOL     OW29410   3.254   0.843   3.970 -0.1394  0.2354 -0.0907
 5926SOL    HW129411   3.187   0.787   3.930 -0.4163  2.0904 -2.2025
 5926SOL    HW229412   3.335   0.819   3.923 -0.8866  4.0513 -3.3258
 5927SOL     OW29413   1.708   4.412  16.736  0.2334  1.0220  0.0116
 5927SOL    HW129414   1.726   4.412  16.830 -0.3425  1.3617  0.1195
 5927SOL    HW229415   1.702   4.507  16.727 -0.9978  0.9874  0.4903
 5928SOL     OW29416   1.747   1.407   1.066 -0.3803  0.2022 -0.1296
 5928SOL    HW129417   1.726   1.453   0.984  0.3420  1.0883  0.1776
 5928SOL    HW229418   1.676   1.344   1.069  0.6897 -1.0142 -0.2858
 5929SOL     OW29419   1.627   4.371   7.755  0.2532  0.3192  0.1718
 5929SOL    HW129420   1.586   4.314   7.690 -0.7292  1.8969 -0.5696
 5929SOL    HW229421   1.655   4.432   7.688 -0.4151  0.5659  0.1153
 5930SOL     OW29422   4.653   0.262   9.237  0.0368 -0.6489 -0.0467
 5930SOL    HW129423   4.731   0.256   9.181  1.1715 -0.1456  1.5013
 5930SOL    HW229424   4.579   0.216   9.197 -0.4736 -1.4020  1.7683
 5931SOL     OW29425   1.616   3.320   7.965  0.0403  0.2333  0.1250
 5931SOL    HW129426   1.532   3.313   8.011 -0.1243 -2.7735 -0.6115
 5931SOL    HW229427   1.624   3.227   7.945 -0.4014  0.5244 -1.3691
 5932SOL     OW29428   0.471   3.151   6.840  0.1563  0.5217 -0.2294
 5932SOL    HW129429   0.524   3.108   6.906  0.4553  0.5401 -0.4580
 5932SOL    HW229430   0.524   3.229   6.822  3.8191 -2.1285 -0.9382
 5933SOL     OW29431   3.630   0.991   3.483 -0.2188  0.0443 -0.4968
 5933SOL    HW129432   3.539   1.000   3.454 -0.3356  0.5469  0.0256
 5933SOL    HW229433   3.622   0.907   3.527  2.9685 -0.5531 -1.1018
 5934SOL     OW29434   4.613   3.945  12.609  0.4005 -0.3140  0.4609
 5934SOL    HW129435   4.541   4.004  12.585  0.5224 -0.0830  0.6674
 5934SOL    HW229436   4.557   3.867  12.614 -0.6248  0.2122 -2.6534
 5935SOL     OW29437   0.351   0.695   5.402 -0.4774  0.4147  0.1410
 5935SOL    HW129438   0.277   0.637   5.418  0.5021 -1.2547 -1.4195
 5935SOL    HW229439   0.341   0.737   5.317 -0.5961  0.1928  0.0456
 5936SOL     OW29440   1.478   1.946  16.168 -0.3230 -0.4775 -0.0584
 5936SOL    HW129441   1.562   1.934  16.214 -2.6739 -3.8997  3.3594
 5936SOL    HW229442   1.451   2.017  16.226  1.2658 -0.4521  0.6638
 5937SOL     OW29443   2.206   2.685   5.823 -0.1857  0.1687  0.1259
 5937SOL    HW129444   2.159   2.759   5.784 -0.9781 -0.7501 -0.6938
 5937SOL    HW229445   2.192   2.696   5.917  0.3593 -4.6158  0.7984
 5938SOL     OW29446   1.948   0.825   3.717 -0.6868  0.8064  0.1208
 5938SOL    HW129447   2.026   0.874   3.745 -1.0590  0.2072  2.1908
 5938SOL    HW229448   1.938   0.770   3.795 -1.9618  1.9293  0.7454
 5939SOL     OW29449   3.774   0.731   3.074  0.3033 -0.7721  0.1106
 5939SOL    HW129450   3.784   0.756   2.983  0.8900 -0.6614  0.2065
 5939SOL    HW229451   3.861   0.701   3.102  0.1137 -1.2473  0.2019
 5940SOL     OW29452   3.657   0.247   5.352 -0.1081 -0.3327  0.3445
 5940SOL    HW129453   3.641   0.341   5.344 -1.0007 -0.5460 -0.3828
 5940SOL    HW229454   3.604   0.220   5.277 -1.1275  0.3454  0.8257
 5941SOL     OW29455   1.774   3.872   2.367  0.9604  0.3301 -0.0704
 5941SOL    HW129456   1.804   3.952   2.323 -1.8901  0.5190 -1.6443
 5941SOL    HW229457   1.684   3.899   2.382  0.6768  0.9139 -2.9555
 5942SOL     OW29458   3.326   0.676   8.095  0.1546  0.2578  0.1967
 5942SOL    HW129459   3.381   0.598   8.105 -1.1039 -0.4467  1.7030
 5942SOL    HW229460   3.384   0.739   8.136  1.3091  2.1409 -4.3273
 5943SOL     OW29461   0.301   2.745  17.165 -0.7296  0.1304  0.7313
 5943SOL    HW129462   0.329   2.757  17.256 -1.6361  1.3381  0.8428
 5943SOL    HW229463   0.216   2.701  17.166  0.9162 -3.1196 -1.5221
 5944SOL     OW29464   2.526   0.362   2.415 -0.4678 -0.1061 -0.0034
 5944SOL    HW129465   2.580   0.435   2.387  1.9197 -1.3516  1.3932
 5944SOL    HW229466   2.564   0.348   2.502  1.8705  0.4970 -0.9416
 5945SOL     OW29467   4.274   4.599   3.039  0.6304 -0.3010  0.1285
 5945SOL    HW129468   4.223   4.560   2.968  2.3625 -0.7185 -0.9101
 5945SOL    HW229469   4.353   4.624   2.990 -0.4062 -1.0091 -1.9140
 5946SOL     OW29470   4.157   2.410  15.993 -0.2951 -0.1208  0.7027
 5946SOL    HW129471   4.237   2.399  16.044 -0.9908  0.8570  1.9901
 5946SOL    HW229472   4.164   2.495  15.949  0.2769  0.6473  2.2762
 5947SOL     OW29473   4.083   0.338   6.237 -0.7120  0.0179  0.0602
 5947SOL    HW129474   4.040   0.394   6.172 -0.5306  0.1051  0.0148
 5947SOL    HW229475   4.175   0.329   6.213 -0.9239  1.5421 -1.3468
 5948SOL     OW29476   0.289   0.623   8.989  0.0860 -0.1488  0.0748
 5948SOL    HW129477   0.271   0.614   9.082  0.7726 -0.0804  0.2119
 5948SOL    HW229478   0.380   0.652   8.994  0.2498 -0.5923 -0.2865
 5949SOL     OW29479   1.364   2.863   7.469 -0.6213 -0.2881  0.3948
 5949SOL    HW129480   1.336   2.952   7.488 -1.4703 -0.4880  0.0706
 5949SOL    HW229481   1.317   2.807   7.531 -2.6553 -0.4660 -1.2859
 5950SOL     OW29482   1.699   1.160  15.637  0.4197 -0.3637 -0.3229
 5950SOL    HW129483   1.654   1.077  15.621 -0.3320  0.2222 -1.1850
 5950SOL    HW229484   1.641   1.235  15.626  0.8196 -0.0002  0.0484
 5951SOL     OW29485   3.355   2.986   7.479 -0.0750 -0.3363 -0.6058
 5951SOL    HW129486   3.407   2.905   7.484 -2.6515 -1.9614 -0.2814
 5951SOL    HW229487   3.326   2.990   7.570 -1.0251 -0.2928 -0.9141
 5952SOL     OW29488   3.290   1.133   3.707  0.5977 -0.3485 -0.7064
 5952SOL    HW129489   3.373   1.130   3.756 -0.0757 -0.1369  0.4517
 5952SOL    HW229490   3.305   1.218   3.666 -1.5165  1.3818  2.0990
 5953SOL     OW29491   0.992   2.051   6.102 -0.2993 -0.0733 -0.1804
 5953SOL    HW129492   0.979   1.998   6.023 -0.6308 -0.2284 -0.0236
 5953SOL    HW229493   0.902   2.079   6.121 -0.5732 -0.0700 -1.4145
 5954SOL     OW29494   3.156   0.104   7.526  0.3288 -0.1672 -0.0166
 5954SOL    HW129495   3.141   0.197   7.514 -1.2832 -0.1987  1.8286
 5954SOL    HW229496   3.162   0.102   7.621  4.4357 -1.7988 -0.3089
 5955SOL     OW29497   4.361   0.181   4.192 -0.1391  0.4310 -0.2870
 5955SOL    HW129498   4.341   0.117   4.260  0.9854 -0.5286 -0.8602
 5955SOL    HW229499   4.447   0.156   4.159 -0.0812 -1.9652  1.6757
 5956SOL     OW29500   0.535   0.690   4.494 -0.4968 -0.2856  0.1994
 5956SOL    HW129501   0.574   0.622   4.438  0.6267 -0.6043  1.3763
 5956SOL    HW229502   0.533   0.645   4.578 -1.4614 -0.4971  0.0559
 5957SOL     OW29503   3.907   1.417   8.158 -0.3935 -0.1646 -0.0826
 5957SOL    HW129504   3.862   1.432   8.074  0.1854  1.0180 -0.1792
 5957SOL    HW229505   3.937   1.505   8.180  0.3608 -0.0138 -1.7365
 5958SOL     OW29506   3.677   0.824   4.998 -0.4901 -0.3139  0.1453
 5958SOL    HW129507   3.610   0.877   5.042 -0.8108  1.2977 -2.2494
 5958SOL    HW229508   3.625   0.784   4.928 -0.9421 -0.8552  0.7873
 5959SOL     OW29509   2.737   2.044   3.052 -0.2585 -0.1617 -0.1112
 5959SOL    HW129510   2.813   2.089   3.016 -0.9589  0.6456 -0.5719
 5959SOL    HW229511   2.750   2.082   3.139  0.8647  0.8242 -0.7216
 5960SOL     OW29512   2.453   1.837   5.235 -0.5688  0.3427 -1.0460
 5960SOL    HW129513   2.519   1.864   5.171 -0.0630 -0.6246 -0.9308
 5960SOL    HW229514   2.488   1.896   5.302  0.8521 -1.5719 -0.1003
 5961SOL     OW29515   3.553   0.725  14.785 -0.4879 -0.0459  0.2206
 5961SOL    HW129516   3.634   0.738  14.834 -0.5106  0.3240  0.1599
 5961SOL    HW229517   3.490   0.705  14.854  3.2556 -0.0609  3.5942
 5962SOL     OW29518   4.340   1.259   9.670 -0.3240 -0.1584 -0.3310
 5962SOL    HW129519   4.302   1.201   9.736 -0.2472  0.1421 -0.0219
 5962SOL    HW229520   4.312   1.346   9.699  3.7938  0.4334  1.9246
 5963SOL     OW29521   2.528   2.392   7.080  0.1373 -0.2717  0.0365
 5963SOL    HW129522   2.517   2.297   7.074 -1.6241  0.1161 -2.7854
 5963SOL    HW229523   2.621   2.398   7.057  0.0575 -0.3382 -0.3046
 5964SOL     OW29524   3.125   2.602   4.547 -0.6261 -0.1041 -0.3593
 5964SOL    HW129525   3.047   2.639   4.587  1.8412  2.6767  1.8668
 5964SOL    HW229526   3.160   2.676   4.498 -4.1426  0.4078 -2.0998
 5965SOL     OW29527   3.492   2.330   6.434  0.1327 -0.0563 -0.2625
 5965SOL    HW129528   3.512   2.267   6.504 -0.5978  0.3278  0.2846
 5965SOL    HW229529   3.574   2.369   6.406 -1.1895  2.4439 -0.6302
 5966SOL     OW29530   1.184   1.082  14.565  0.8180 -0.0507 -0.0458
 5966SOL    HW129531   1.247   1.043  14.625  0.4091  0.0815  0.4603
 5966SOL    HW229532   1.175   1.167  14.607 -2.1335 -0.1751 -0.4521
 5967SOL     OW29533   1.309   1.283   2.368  0.0107  0.1538 -0.3360
 5967SOL    HW129534   1.359   1.243   2.439  0.2216  0.0265 -0.5577
 5967SOL    HW229535   1.333   1.373   2.387  0.1995  0.2853 -1.1948
 5968SOL     OW29536   1.954   3.638   5.973 -0.1088 -0.2514  0.2732
 5968SOL    HW129537   1.932   3.672   5.886  0.6398  0.4912  0.3753
 5968SOL    HW229538   2.003   3.707   6.017 -2.4078  2.0708 -0.7289
 5969SOL     OW29539   2.091   1.374  15.165  0.6579  0.0332  0.4661
 5969SOL    HW129540   2.047   1.303  15.116 -0.5831  0.6353  0.7019
 5969SOL    HW229541   2.062   1.450  15.115 -1.2458 -1.0054 -0.0195
 5970SOL     OW29542   3.704   1.060  13.641  0.1796 -0.2523  0.3808
 5970SOL    HW129543   3.785   1.065  13.591 -0.6328 -0.0783 -0.9353
 5970SOL    HW229544   3.676   1.151  13.628 -1.0797 -0.4450  1.7370
 5971SOL     OW29545   3.641   4.267   6.119  0.1408 -0.0919  0.2397
 5971SOL    HW129546   3.686   4.345   6.086 -0.3228  0.2024  0.2936
 5971SOL    HW229547   3.571   4.304   6.174  0.6082 -0.5413  1.1399
 5972SOL     OW29548   0.656   1.582  12.362  0.0733  0.2749 -0.7058
 5972SOL    HW129549   0.749   1.560  12.361 -0.2533 -1.1266 -0.7603
 5972SOL    HW229550   0.648   1.649  12.430  0.8998  0.6934 -1.0184
 5973SOL     OW29551   3.718   3.253   1.867  0.2071  0.0500  0.3378
 5973SOL    HW129552   3.811   3.253   1.843  0.2086 -0.9249  0.3520
 5973SOL    HW229553   3.708   3.335   1.915 -0.4275  1.4996 -2.2554
 5974SOL     OW29554   0.201   3.578   8.307  0.5035  0.0347  0.5502
 5974SOL    HW129555   0.170   3.643   8.244  0.5587  1.4608  2.0002
 5974SOL    HW229556   0.164   3.502   8.262 -0.4621  0.5485  0.4703
 5975SOL     OW29557   2.142   3.888  10.900 -0.0987  0.4568 -0.6196
 5975SOL    HW129558   2.178   3.968  10.860  3.4738 -0.2519  1.1971
 5975SOL    HW229559   2.203   3.885  10.974 -0.4253 -0.4463 -0.3914
 5976SOL     OW29560   1.002   1.244   8.867  0.1876  0.3564 -0.2807
 5976SOL    HW129561   1.040   1.164   8.903  0.7432 -0.2480 -2.2086
 5976SOL    HW229562   0.992   1.289   8.951 -0.4344 -0.9607  0.3432
 5977SOL     OW29563   4.336   1.198   5.852  0.1725 -0.7208 -0.0082
 5977SOL    HW129564   4.289   1.118   5.874 -1.3201  0.5030  1.1761
 5977SOL    HW229565   4.273   1.265   5.879  1.1069  0.4842 -0.7958
 5978SOL     OW29566   2.924   0.584   6.811  0.3752  0.0951 -0.2509
 5978SOL    HW129567   2.872   0.660   6.838 -0.3978 -0.2824 -0.6902
 5978SOL    HW229568   3.013   0.611   6.834  0.0331  2.6815 -1.9198
 5979SOL     OW29569   1.944   0.254   2.783 -0.3413 -0.2722 -0.0968
 5979SOL    HW129570   1.921   0.346   2.792 -1.8131 -0.7048  0.6416
 5979SOL    HW229571   1.863   0.238   2.735  0.3642  0.3006 -1.4577
 5980SOL     OW29572   2.488   2.698   2.755  0.0297  0.1304 -0.5510
 5980SOL    HW129573   2.508   2.672   2.666  1.0401  2.8461 -1.1175
 5980SOL    HW229574   2.442   2.619   2.784 -2.9111  2.4992  1.2659
 5981SOL     OW29575   4.367   1.102  12.601 -0.4801  0.4153  0.0770
 5981SOL    HW129576   4.285   1.066  12.634 -0.0460 -0.4414  0.2128
 5981SOL    HW229577   4.413   1.018  12.597  0.8309  1.0811  1.1966
 5982SOL     OW29578   2.596   0.620   4.048  0.1322 -0.1512  0.2309
 5982SOL    HW129579   2.616   0.545   4.104 -0.8221 -0.3115  0.3613
 5982SOL    HW229580   2.614   0.696   4.104  2.3154  0.0942 -0.8079
 5983SOL     OW29581   3.421   2.275   7.890 -0.1029  0.1016 -0.2284
 5983SOL    HW129582   3.466   2.340   7.944  0.9791 -2.3760  1.8890
 5983SOL    HW229583   3.341   2.325   7.873  0.2232 -0.3937 -3.1438
 5984SOL     OW29584   2.075   1.732   6.469  0.1739  0.3991  0.4683
 5984SOL    HW129585   1.981   1.742   6.458  0.3488  0.6677 -0.7533
 5984SOL    HW229586   2.088   1.734   6.564 -0.6357  0.4107  0.5764
 5985SOL     OW29587   1.641   0.759   1.620 -0.1215  0.0256  0.1143
 5985SOL    HW129588   1.583   0.707   1.566 -2.2635 -0.4993  2.9118
 5985SOL    HW229589   1.720   0.706   1.614 -1.5305 -2.0978  0.5726
 5986SOL     OW29590   3.044   1.554   0.195 -0.0267  0.1961  0.4120
 5986SOL    HW129591   3.051   1.459   0.200  2.8205  0.4189  0.7182
 5986SOL    HW229592   3.047   1.558   0.099  0.4933 -1.0714  0.3829
 5987SOL     OW29593   4.412   1.825   8.586 -0.1056  0.2159 -0.2907
 5987SOL    HW129594   4.330   1.874   8.578 -0.6576 -0.3711  1.9579
 5987SOL    HW229595   4.444   1.853   8.500 -0.9233  1.8837 -0.0552
 5988SOL     OW29596   1.624   0.646   5.209 -0.0826  0.3548  0.5264
 5988SOL    HW129597   1.609   0.730   5.254 -1.8332  0.3297  0.0159
 5988SOL    HW229598   1.676   0.677   5.135 -2.2071 -1.1668 -1.6075
 5989SOL     OW29599   4.514   2.140   8.843  0.0006 -0.0065  0.0481
 5989SOL    HW129600   4.430   2.098   8.861 -0.3306  0.3337 -0.7131
 5989SOL    HW229601   4.528   2.192   8.922  3.0019 -1.3651  0.4144
 5990SOL     OW29602   1.715   2.223  16.770  0.0123  0.0133  0.3196
 5990SOL    HW129603   1.789   2.260  16.722 -0.1905  1.1851  0.8995
 5990SOL    HW229604   1.644   2.271  16.727  0.4478  0.2111 -0.1760
 5991SOL     OW29605   2.575   2.997   6.077  0.4987 -0.2228  0.0765
 5991SOL    HW129606   2.595   3.090   6.075 -0.6964  0.0167 -0.7872
 5991SOL    HW229607   2.665   2.967   6.067 -0.3646 -2.5959 -0.8014
 5992SOL     OW29608   3.979   0.925   4.290 -0.3064  0.4341 -0.8251
 5992SOL    HW129609   3.965   1.016   4.263  0.2537  0.3580 -1.3590
 5992SOL    HW229610   3.985   0.885   4.204  0.1413  2.3320 -1.6795
 5993SOL     OW29611   1.252   1.813   5.849  0.7982  0.5350 -0.2675
 5993SOL    HW129612   1.326   1.756   5.868 -0.1263 -0.4687  0.3114
 5993SOL    HW229613   1.183   1.746   5.855 -1.0393  2.1218 -3.7161
 5994SOL     OW29614   0.273   2.152   6.763  0.0521  0.2565  0.6181
 5994SOL    HW129615   0.239   2.223   6.708  1.9404  0.3895 -0.3931
 5994SOL    HW229616   0.202   2.143   6.826 -0.4836  1.4153  0.1892
 5995SOL     OW29617   3.978   0.950   0.515 -0.1270 -0.2498 -0.4013
 5995SOL    HW129618   3.969   0.858   0.539 -1.7080  0.7404  2.7977
 5995SOL    HW229619   3.982   0.937   0.420  1.4837  0.6827 -0.4570
 5996SOL     OW29620   2.039   4.496  16.701 -0.2019  0.3715  0.2840
 5996SOL    HW129621   2.063   4.428  16.764 -0.0061  0.0581 -0.1302
 5996SOL    HW229622   1.955   4.463  16.668 -0.9715  1.6450  0.9631
 5997SOL     OW29623   4.435   0.355  17.511  0.3233  0.1484 -0.4530
 5997SOL    HW129624   4.502   0.308  17.561 -1.1501 -1.4999  0.0045
 5997SOL    HW229625   4.481   0.388  17.434  0.2158  0.2431 -0.4771
 5998SOL     OW29626   3.354   1.070   8.823 -0.0666 -0.5717  0.0620
 5998SOL    HW129627   3.398   0.992   8.855  0.5214  0.1843  1.1090
 5998SOL    HW229628   3.342   1.111   8.909  0.2180  0.4831 -0.3953
 5999SOL     OW29629   1.514   1.944   4.804 -0.2790 -0.0017  0.2292
 5999SOL    HW129630   1.509   1.853   4.772  0.4179  0.0031  0.0992
 5999SOL    HW229631   1.570   1.982   4.735 -2.6023  0.6861 -1.2713
 6000SOL     OW29632   0.271   2.477   1.944 -0.1285 -0.5317  0.1265
 6000SOL    HW129633   0.305   2.388   1.939 -0.6559 -0.7787  1.1385
 6000SOL    HW229634   0.177   2.468   1.957 -0.0007 -0.6580  0.9249
 6001SOL     OW29635   4.270   3.203   6.666  0.0631  0.7701 -0.3322
 6001SOL    HW129636   4.348   3.258   6.675  1.5491 -1.1749 -1.3551
 6001SOL    HW229637   4.244   3.206   6.758  0.7851 -3.1900  0.0046
 6002SOL     OW29638   1.171   3.680   9.425  0.3184 -0.2673  0.2419
 6002SOL    HW129639   1.149   3.772   9.434 -0.3057 -0.5000  1.0219
 6002SOL    HW229640   1.083   3.645   9.411 -0.1908  0.8979  0.6058
 6003SOL     OW29641   0.571   3.363   9.470 -0.2996 -0.0461 -0.0343
 6003SOL    HW129642   0.534   3.283   9.431  0.0167 -0.9978  1.5959
 6003SOL    HW229643   0.587   3.337   9.560 -1.1494 -0.5846 -0.0362
 6004SOL     OW29644   0.331   3.747  16.429  0.2506 -0.0190 -0.0523
 6004SOL    HW129645   0.261   3.737  16.363 -0.6527  0.4037  0.8445
 6004SOL    HW229646   0.290   3.819  16.478 -1.3878  0.7924 -2.5820
 6005SOL     OW29647   1.001   4.298  17.644  0.2354  0.0826  0.3793
 6005SOL    HW129648   1.087   4.318  17.607  1.1966 -0.7671  2.1967
 6005SOL    HW229649   0.970   4.233  17.581 -1.7021  0.7095  0.7009
 6006SOL     OW29650   2.141   1.380   3.648  0.3548  0.5342 -0.1855
 6006SOL    HW129651   2.197   1.353   3.721 -1.4909 -0.7227  0.7634
 6006SOL    HW229652   2.060   1.337   3.674  1.1368  0.0567  1.4892
 6007SOL     OW29653   1.925   1.782   4.866 -0.2148  0.8514  0.0941
 6007SOL    HW129654   1.990   1.833   4.818 -1.1800  0.7896 -1.2819
 6007SOL    HW229655   1.879   1.843   4.924  2.1734  1.7603  1.0025
 6008SOL     OW29656   2.061   4.116   7.002  0.0864  0.1077  0.3739
 6008SOL    HW129657   1.976   4.129   7.044  0.5161 -0.2141  1.3548
 6008SOL    HW229658   2.073   4.208   6.977  0.4994  0.3380  1.4245
 6009SOL     OW29659   4.033   1.158  11.347 -0.0813 -0.5858 -0.2495
 6009SOL    HW129660   4.046   1.252  11.356  0.8852 -0.7615  0.0698
 6009SOL    HW229661   3.943   1.162  11.313 -1.3050 -0.5375  3.0762
 6010SOL     OW29662   0.775   2.781   3.338 -0.6452  0.3214 -0.4440
 6010SOL    HW129663   0.767   2.870   3.302  1.7046 -0.3169 -2.5170
 6010SOL    HW229664   0.693   2.788   3.387  0.2982 -0.5351  1.2251
 6011SOL     OW29665   2.379   1.809   3.610 -0.1045  0.1010  0.7293
 6011SOL    HW129666   2.399   1.723   3.571  0.0060  0.8077 -0.7662
 6011SOL    HW229667   2.387   1.798   3.704 -3.0493  0.1704  0.9725
 6012SOL     OW29668   1.654   0.339   1.805 -0.8222  0.1671 -0.1043
 6012SOL    HW129669   1.574   0.319   1.854  1.8188 -2.2987  3.2432
 6012SOL    HW229670   1.642   0.262   1.748  0.8862  0.0116 -0.2392
 6013SOL     OW29671   0.933   0.703   8.892 -0.6519 -0.4767 -0.6785
 6013SOL    HW129672   0.941   0.659   8.808 -1.7563 -2.5990  0.3430
 6013SOL    HW229673   1.023   0.724   8.918 -1.0603  1.4249 -0.7863
 6014SOL     OW29674   0.380   3.319  15.771  0.0978  0.0238  0.2819
 6014SOL    HW129675   0.473   3.336  15.785  0.1621 -0.2360  0.1698
 6014SOL    HW229676   0.359   3.387  15.707  0.6887  1.6659  1.8218
 6015SOL     OW29677   2.328   4.262   4.620 -0.0578  0.3810  0.3013
 6015SOL    HW129678   2.272   4.330   4.582 -0.6505  0.7464  1.8105
 6015SOL    HW229679   2.397   4.322   4.648 -0.6290  1.2882 -0.2161
 6016SOL     OW29680   3.620   1.835   4.614 -0.4903  0.5505  0.4212
 6016SOL    HW129681   3.557   1.773   4.577  0.3853 -1.4944  2.3786
 6016SOL    HW229682   3.671   1.774   4.667 -0.2017  0.5131  0.1099
 6017SOL     OW29683   3.333   3.239   1.672  0.0765  0.5396 -0.2136
 6017SOL    HW129684   3.393   3.168   1.694  0.6592  1.4928  1.2027
 6017SOL    HW229685   3.399   3.308   1.668  0.6238 -0.0403 -1.1718
 6018SOL     OW29686   3.330   4.101   8.429 -0.3984 -0.3774 -0.2798
 6018SOL    HW129687   3.238   4.125   8.436  0.0630  0.5828  2.3644
 6018SOL    HW229688   3.334   4.015   8.388  0.4173 -0.6990  0.4821
 6019SOL     OW29689   1.239   4.299  14.089  0.0511  0.1740  0.0969
 6019SOL    HW129690   1.316   4.245  14.102 -2.3301 -3.4980 -0.9998
 6019SOL    HW229691   1.207   4.317  14.178 -2.8895 -2.0400 -0.5113
 6020SOL     OW29692   3.257   3.851   9.011 -0.3587 -0.2337  0.4032
 6020SOL    HW129693   3.273   3.825   9.101 -2.3792 -1.2112  0.4766
 6020SOL    HW229694   3.173   3.807   8.996 -0.1220 -0.7274  0.5454
 6021SOL     OW29695   3.344   2.136   3.711  0.3938 -0.0574 -0.1749
 6021SOL    HW129696   3.323   2.080   3.786  0.5172  1.3976  0.9283
 6021SOL    HW229697   3.438   2.122   3.694  0.7036 -0.1677  1.6919
 6022SOL     OW29698   4.451   0.375  15.706  0.1112  0.5383  0.0239
 6022SOL    HW129699   4.430   0.417  15.789  2.1932 -1.1971  1.4283
 6022SOL    HW229700   4.542   0.357  15.728  0.4968  0.2029 -1.8481
 6023SOL     OW29701   1.627   4.255   2.988 -0.3249  0.7547 -0.2729
 6023SOL    HW129702   1.670   4.341   2.991 -1.3097  1.1626  2.0976
 6023SOL    HW229703   1.634   4.240   2.894  0.0756 -0.2921 -0.0752
 6024SOL     OW29704   1.612   4.292   5.208  0.1592 -0.1942  0.5580
 6024SOL    HW129705   1.659   4.222   5.252 -1.1517 -0.3675  1.6748
 6024SOL    HW229706   1.680   4.308   5.143  0.2393  0.4162  0.7861
 6025SOL     OW29707   3.294   1.262   0.769  0.8942 -0.1090  0.3737
 6025SOL    HW129708   3.347   1.247   0.847 -0.2515  1.2582  1.4122
 6025SOL    HW229709   3.363   1.255   0.703 -0.8838 -3.4855 -1.1211
 6026SOL     OW29710   1.017   4.065   2.857  0.2564 -0.0026 -0.0019
 6026SOL    HW129711   1.092   4.012   2.885 -0.3717 -1.2975 -0.7849
 6026SOL    HW229712   1.057   4.103   2.778 -0.9968 -0.6962 -0.9691
 6027SOL     OW29713   0.738   3.043   3.262 -0.1807 -0.3828  0.0621
 6027SOL    HW129714   0.682   3.055   3.185 -0.0781 -0.0783  0.0351
 6027SOL    HW229715   0.794   3.119   3.249  0.4302 -0.6089  1.3181
 6028SOL     OW29716   4.576   0.541   3.522  0.2245  0.4019  0.1059
 6028SOL    HW129717   4.639   0.557   3.452 -0.0437  0.9209 -0.0219
 6028SOL    HW229718   4.554   0.454   3.492  0.4558  0.1944  0.5296
 6029SOL     OW29719   1.709   4.216   8.146 -0.2855 -0.2046  0.6486
 6029SOL    HW129720   1.663   4.299   8.156 -0.5999  0.0712 -3.1431
 6029SOL    HW229721   1.650   4.158   8.194  0.0007  0.1469  1.4300
 6030SOL     OW29722   0.607   4.719   1.822 -0.6805  0.0928 -0.2604
 6030SOL    HW129723   0.666   4.646   1.839 -0.1048  0.6662  0.2045
 6030SOL    HW229724   0.532   4.660   1.826 -0.3781 -0.1085  2.6712
 6031SOL     OW29725   2.651   1.629   4.822 -0.2405  0.2303  0.2024
 6031SOL    HW129726   2.723   1.688   4.798 -0.3771  0.3452  0.0713
 6031SOL    HW229727   2.604   1.632   4.739  0.1547 -1.0466 -0.0647
 6032SOL     OW29728   0.141   3.684   6.752  0.2089 -0.2248  0.3297
 6032SOL    HW129729   0.215   3.666   6.809  0.0881  1.3421  0.9895
 6032SOL    HW229730   0.177   3.669   6.664 -0.1613 -1.4157  0.3885
 6033SOL     OW29731   2.048   3.049   6.149 -0.1164  0.1017 -0.7650
 6033SOL    HW129732   1.955   3.041   6.169 -0.1215  0.2325 -0.7357
 6033SOL    HW229733   2.095   3.044   6.232 -2.2884 -1.1427  0.3877
 6034SOL     OW29734   3.480   2.914  13.827  0.1579 -0.0035 -0.1057
 6034SOL    HW129735   3.415   2.968  13.782  1.1740 -0.2339 -1.8635
 6034SOL    HW229736   3.486   2.964  13.909  1.5474 -0.6790  0.2000
 6035SOL     OW29737   3.663   2.161   8.109 -0.0525 -0.4929  0.1941
 6035SOL    HW129738   3.601   2.129   8.175 -0.2385  0.2171  0.3705
 6035SOL    HW229739   3.632   2.252   8.111 -1.5147 -0.9649 -0.8302
 6036SOL     OW29740   2.077   4.641   3.010 -1.0781  0.8867 -0.0421
 6036SOL    HW129741   2.057   4.557   2.970  1.3505  0.3261 -0.1070
 6036SOL    HW229742   2.162   4.618   3.049 -0.6215  2.1781 -0.2548
 6037SOL     OW29743   2.962   1.466   8.180  0.2256  0.1519 -0.3704
 6037SOL    HW129744   2.919   1.399   8.128  1.1878  0.3967 -1.4541
 6037SOL    HW229745   2.928   1.455   8.269  0.2900  1.6237 -0.1552
 6038SOL     OW29746   3.777   4.401   9.003 -0.0654  0.7647 -0.7936
 6038SOL    HW129747   3.852   4.414   9.061 -0.9253 -2.4553  1.0112
 6038SOL    HW229748   3.807   4.323   8.957 -0.9560  0.0229 -0.1234
 6039SOL     OW29749   3.955   3.084   5.453  0.2708  0.0923 -0.4857
 6039SOL    HW129750   3.882   3.033   5.487 -1.3904  2.4422 -0.5139
 6039SOL    HW229751   3.941   3.082   5.359 -0.1207  1.3613 -0.4553
 6040SOL     OW29752   3.458   2.769   1.679 -0.0416 -0.7762  0.6579
 6040SOL    HW129753   3.365   2.761   1.657  0.1840  0.4724 -0.8072
 6040SOL    HW229754   3.491   2.685   1.646  0.9540  0.2033 -0.8569
 6041SOL     OW29755   1.643   0.897   8.572  0.6914 -0.0130  0.5543
 6041SOL    HW129756   1.609   0.838   8.639 -0.2288 -1.9120 -1.6190
 6041SOL    HW229757   1.700   0.838   8.523 -0.5213 -2.4797  2.1391
 6042SOL     OW29758   3.937   1.033  13.511  0.3211 -0.2207  0.3470
 6042SOL    HW129759   3.978   1.072  13.588  0.4497  0.1166  0.1028
 6042SOL    HW229760   3.947   1.099  13.442 -1.5862 -1.4389 -1.0997
 6043SOL     OW29761   2.976   0.345   7.788  0.2921  0.0176  0.0641
 6043SOL    HW129762   3.007   0.428   7.752  1.2764  0.7455  2.5722
 6043SOL    HW229763   3.060   0.314   7.820 -0.9265 -1.4802  1.7746
 6044SOL     OW29764   3.358   4.733   2.744 -0.1186  0.1514 -0.1909
 6044SOL    HW129765   3.439   0.044   2.727  0.6091 -0.8107  0.6877
 6044SOL    HW229766   3.309   0.067   2.788  1.5968  0.0731  1.7988
 6045SOL     OW29767   1.766   2.267   3.140 -0.1211  0.0594  0.2247
 6045SOL    HW129768   1.804   2.297   3.057 -1.2576 -0.3326 -0.4272
 6045SOL    HW229769   1.852   2.250   3.180 -1.2116 -0.9946  2.0878
 6046SOL     OW29770   2.784   0.583   3.071 -0.0460 -0.3012 -0.3020
 6046SOL    HW129771   2.836   0.545   3.142  0.5317  0.5159 -0.2937
 6046SOL    HW229772   2.831   0.543   2.998 -3.7447 -0.1574 -2.7421
 6047SOL     OW29773   3.173   1.100   4.094  0.3117  0.3633  0.4586
 6047SOL    HW129774   3.200   1.011   4.072  0.0921  0.3722  0.1528
 6047SOL    HW229775   3.079   1.084   4.106  1.0454 -2.2382  2.7000
 6048SOL     OW29776   2.659   4.334   6.649 -0.2085  0.3825  0.2922
 6048SOL    HW129777   2.697   4.310   6.733 -0.6481 -2.0251 -0.2099
 6048SOL    HW229778   2.719   4.400   6.614  1.3225 -1.6811 -0.9590
 6049SOL     OW29779   4.300   3.492   3.934  0.1841 -0.1117  0.4339
 6049SOL    HW129780   4.389   3.482   3.900 -1.4510 -2.2322 -3.2596
 6049SOL    HW229781   4.277   3.568   3.880 -0.1845 -1.1265 -0.8425
 6050SOL     OW29782   2.423   0.721   5.269  0.2716  0.0413 -0.0704
 6050SOL    HW129783   2.458   0.798   5.225  0.9929 -1.6862 -2.5657
 6050SOL    HW229784   2.335   0.719   5.232 -0.3405  0.4238  1.3849
 6051SOL     OW29785   1.336   1.598   9.706 -0.4769  0.2936  0.1149
 6051SOL    HW129786   1.344   1.510   9.742 -1.6064  1.3317  2.8614
 6051SOL    HW229787   1.266   1.584   9.642 -0.2235  1.2836 -0.3786
 6052SOL     OW29788   0.768   3.289   4.863 -1.3264  0.4058  0.3376
 6052SOL    HW129789   0.798   3.368   4.819 -3.9047  0.2183 -1.7562
 6052SOL    HW229790   0.674   3.300   4.845 -1.5405 -1.1015  0.5143
 6053SOL     OW29791   2.870   3.731   5.625 -0.6190  0.3002 -0.5282
 6053SOL    HW129792   2.925   3.680   5.685 -0.8074  1.8613  0.9705
 6053SOL    HW229793   2.784   3.688   5.630 -0.3745  0.1184  2.1926
 6054SOL     OW29794   0.139   2.260   4.430  0.1046 -0.4248  0.5767
 6054SOL    HW129795   0.049   2.258   4.462  0.3570  0.2193  1.3194
 6054SOL    HW229796   0.185   2.306   4.500 -1.2142  1.7766  0.0011
 6055SOL     OW29797   2.576   4.656   3.999  0.4435  0.0874 -0.3540
 6055SOL    HW129798   2.620   4.610   3.929 -1.3960  0.4444 -1.7449
 6055SOL    HW229799   2.627   0.002   3.999 -0.8535  0.9088  0.4033
 6056SOL     OW29800   2.995   0.462   4.537  0.2973 -0.8003  0.8571
 6056SOL    HW129801   2.936   0.533   4.511  1.5607 -0.4391 -1.0575
 6056SOL    HW229802   2.995   0.407   4.458  0.3818  0.0201  0.2880
 6057SOL     OW29803   1.951   2.735   1.921  0.1745 -0.4975  1.0105
 6057SOL    HW129804   1.923   2.826   1.929 -0.5203 -0.5234 -1.1073
 6057SOL    HW229805   1.980   2.719   1.831 -0.2780  0.8370  0.6206
 6058SOL     OW29806   3.578   3.355   7.736  0.3517 -0.2340 -0.4024
 6058SOL    HW129807   3.614   3.333   7.823  1.9143  1.2051 -0.6892
 6058SOL    HW229808   3.550   3.446   7.748 -0.8301 -0.4574 -1.3997
 6059SOL     OW29809   1.052   2.164   5.448 -0.2137  0.2851  0.9359
 6059SOL    HW129810   1.099   2.216   5.383 -0.3759  1.2684  1.6111
 6059SOL    HW229811   1.055   2.082   5.399 -0.0807 -0.1034  1.6069
 6060SOL     OW29812   1.951   1.883   3.236 -0.1757  0.0274 -0.1853
 6060SOL    HW129813   2.039   1.865   3.270 -0.2633 -1.3755 -0.6853
 6060SOL    HW229814   1.972   1.874   3.143 -1.1217  0.7803 -0.4681
 6061SOL     OW29815   3.465   3.247   6.298  0.1570 -0.2078 -0.1938
 6061SOL    HW129816   3.397   3.212   6.355  0.7858  1.1264  1.3810
 6061SOL    HW229817   3.427   3.206   6.220  1.0043 -0.3506 -0.5382
 6062SOL     OW29818   4.272   1.164   3.905  0.0504  0.7007 -0.1564
 6062SOL    HW129819   4.238   1.206   3.827 -0.0601  1.8523  0.5227
 6062SOL    HW229820   4.306   1.083   3.866  0.6252  0.4958  0.7465
 6063SOL     OW29821   3.396   0.032   7.423  0.2868 -0.5211  0.6202
 6063SOL    HW129822   3.309   0.063   7.446 -0.1412  0.5778 -2.5122
 6063SOL    HW229823   3.379   4.709   7.350 -1.5004  0.5081  0.2146
 6064SOL     OW29824   2.223   2.901   4.695  0.0212  0.3521 -0.1512
 6064SOL    HW129825   2.137   2.894   4.737  0.2837  1.2878  0.5345
 6064SOL    HW229826   2.283   2.891   4.769  2.0936  1.0004 -1.7604
 6065SOL     OW29827   2.517   1.343   3.143 -0.3824  0.7026  0.0216
 6065SOL    HW129828   2.572   1.364   3.067  0.7687 -1.9548  0.1451
 6065SOL    HW229829   2.449   1.290   3.101  0.1278  1.7293 -2.1207
 6066SOL     OW29830   1.054   2.433   1.037 -0.4566 -0.1645  0.0250
 6066SOL    HW129831   1.008   2.507   0.999 -1.3262 -1.0019 -0.5504
 6066SOL    HW229832   1.054   2.441   1.133  0.9702  1.1368 -0.0876
 6067SOL     OW29833   3.549   3.856   5.720 -0.2645 -0.1044 -0.9396
 6067SOL    HW129834   3.539   3.765   5.747  1.8225 -0.0974 -0.1519
 6067SOL    HW229835   3.636   3.878   5.751 -0.0597  1.8094 -2.8111
 6068SOL     OW29836   2.356   3.120   3.681  0.0375  0.2053  0.3224
 6068SOL    HW129837   2.369   3.026   3.698  0.4849  0.2125  0.0224
 6068SOL    HW229838   2.439   3.126   3.633  0.9164 -0.9017  1.7046
 6069SOL     OW29839   2.107   0.569   1.457  1.0304 -0.4298  0.0320
 6069SOL    HW129840   2.152   0.511   1.396  2.9170  0.1561  0.8538
 6069SOL    HW229841   2.082   0.642   1.400  2.5837  1.1646  1.4053
 6070SOL     OW29842   1.130   1.224   2.180  0.0441  0.6399 -0.7865
 6070SOL    HW129843   1.204   1.247   2.236  0.3994 -0.4181 -0.8184
 6070SOL    HW229844   1.161   1.150   2.128  5.7985  2.1598  0.4605
 6071SOL     OW29845   2.020   4.056   0.612  0.0454  0.3183 -0.1407
 6071SOL    HW129846   1.998   4.126   0.551  0.1336  0.3711 -0.1118
 6071SOL    HW229847   2.079   4.100   0.673  0.6403  0.2151 -0.6421
 6072SOL     OW29848   1.393   1.154  10.237  0.0600  0.6707 -0.2113
 6072SOL    HW129849   1.314   1.203  10.213 -0.1756  0.9960  1.2326
 6072SOL    HW229850   1.455   1.192  10.175  2.2515 -0.1330  1.4899
 6073SOL     OW29851   0.465   2.218   1.410  0.1559 -0.1626 -0.7366
 6073SOL    HW129852   0.502   2.130   1.406  1.3826  0.2610  1.4464
 6073SOL    HW229853   0.545   2.265   1.385  0.6594  0.1996  1.5449
 6074SOL     OW29854   1.280   2.810  16.784 -0.2761  0.4406  0.0642
 6074SOL    HW129855   1.217   2.746  16.817  1.0207 -0.5289  0.6910
 6074SOL    HW229856   1.329   2.751  16.726 -1.2515 -1.6436  1.3341
 6075SOL     OW29857   3.449   1.949   1.391 -0.2426  0.0996 -0.4554
 6075SOL    HW129858   3.396   1.977   1.466  0.7639 -0.9487  0.6416
 6075SOL    HW229859   3.509   1.888   1.432 -1.5683 -1.4976 -0.8968
 6076SOL     OW29860   1.601   4.616  11.767 -0.3524  0.1921  0.6630
 6076SOL    HW129861   1.679   4.634  11.819  0.6210 -1.4324 -0.2273
 6076SOL    HW229862   1.637   4.625  11.679  1.0276 -0.3587  1.1829
 6077SOL     OW29863   1.770   1.756  11.290 -0.1549  0.1274  0.3739
 6077SOL    HW129864   1.828   1.788  11.221 -2.4566 -1.6990 -2.3906
 6077SOL    HW229865   1.695   1.805  11.259 -0.1690 -0.5618 -0.6915
 6078SOL     OW29866   4.591   0.976   1.951 -0.2275  0.1064 -0.0570
 6078SOL    HW129867   4.607   0.883   1.938 -1.5095 -0.2252  0.7518
 6078SOL    HW229868   4.571   0.974   2.045  1.7491 -0.0264  0.3650
 6079SOL     OW29869   1.385   1.456   5.268  0.1139 -0.0438  0.4237
 6079SOL    HW129870   1.385   1.469   5.173  0.6316  0.6051  0.5134
 6079SOL    HW229871   1.456   1.391   5.260  0.1757  0.2036 -1.0036
 6080SOL     OW29872   1.036   1.725  11.188  0.3018  0.5087  0.0957
 6080SOL    HW129873   0.950   1.759  11.162 -0.0094 -0.3559 -0.0018
 6080SOL    HW229874   1.085   1.733  11.105  0.0212 -0.8831 -0.2131
 6081SOL     OW29875   4.595   3.383   7.792 -0.3033  0.4818  0.5781
 6081SOL    HW129876   4.530   3.417   7.853 -2.2909 -0.7898 -0.8077
 6081SOL    HW229877   4.572   3.291   7.805 -0.0757 -0.0827 -2.8392
 6082SOL     OW29878   0.526   3.104   7.751 -0.1741 -0.1600 -0.0411
 6082SOL    HW129879   0.536   3.037   7.684 -1.2101  0.2621 -0.6314
 6082SOL    HW229880   0.586   3.061   7.811 -0.0623  0.4508  0.2839
 6083SOL     OW29881   2.105   0.634   6.364  0.2725 -0.1981 -0.2689
 6083SOL    HW129882   2.088   0.646   6.271 -0.4146 -1.2463 -0.2790
 6083SOL    HW229883   2.024   0.589   6.389  0.6523 -0.5809  0.2600
 6084SOL     OW29884   2.035   3.470   3.652 -0.1393  0.2271  0.0223
 6084SOL    HW129885   2.123   3.445   3.623 -0.0236 -1.6224  1.9760
 6084SOL    HW229886   2.006   3.515   3.573 -0.7460  0.5230  0.4143
 6085SOL     OW29887   3.322   0.244   3.884  0.6700 -0.3469  0.3456
 6085SOL    HW129888   3.387   0.301   3.844 -1.2907  0.6825 -1.3822
 6085SOL    HW229889   3.285   0.309   3.943 -0.8590 -0.9734  0.0771
 6086SOL     OW29890   1.601   4.026   4.868 -0.0404  0.3268 -0.6362
 6086SOL    HW129891   1.535   3.997   4.931  2.1092 -1.2091  0.9006
 6086SOL    HW229892   1.626   3.941   4.830 -0.3719 -0.3737  0.7282
 6087SOL     OW29893   1.015   3.429   2.917 -0.3695 -0.4152  0.0029
 6087SOL    HW129894   1.082   3.485   2.957 -0.5774 -1.2963  1.5507
 6087SOL    HW229895   1.076   3.376   2.865 -2.4399  0.6996 -3.5590
 6088SOL     OW29896   0.040   3.947   5.296  0.6414 -0.0045  0.1615
 6088SOL    HW129897   4.708   3.889   5.332  0.8948 -0.2297  0.2810
 6088SOL    HW229898   0.110   3.882   5.286  1.7366  0.8000  2.4677
 6089SOL     OW29899   1.753   3.004  10.395  0.1137  0.5707  0.0708
 6089SOL    HW129900   1.813   2.940  10.434  0.7473  1.2524  0.2133
 6089SOL    HW229901   1.760   3.070  10.464 -0.0974  0.4570  0.2008
 6090SOL     OW29902   0.884   0.340   7.256  0.0044  0.0743 -0.7197
 6090SOL    HW129903   0.910   0.333   7.348  0.3166  2.2811 -0.6519
 6090SOL    HW229904   0.910   0.251   7.230  0.2723  0.1425 -0.6886
 6091SOL     OW29905   1.042   2.105   0.779 -0.1804  0.0007 -0.1485
 6091SOL    HW129906   0.960   2.059   0.763  0.9302 -2.3526  1.0444
 6091SOL    HW229907   1.088   2.070   0.703  0.0763 -0.7356  0.3508
 6092SOL     OW29908   3.801   3.706   4.386  0.6195 -0.0852  0.1810
 6092SOL    HW129909   3.716   3.680   4.351 -0.4792 -1.1198  3.6149
 6092SOL    HW229910   3.776   3.733   4.474 -1.6666 -0.5622 -0.3241
 6093SOL     OW29911   4.257   1.093   9.880  0.2713  0.6363  0.1448
 6093SOL    HW129912   4.236   1.022   9.940 -0.8854 -0.2916 -1.3457
 6093SOL    HW229913   4.217   1.167   9.926 -1.0951 -0.3557  0.5625
 6094SOL     OW29914   3.448   4.661   5.904  0.0306 -0.2714 -0.1314
 6094SOL    HW129915   3.385   4.734   5.908  0.0229 -0.2765 -0.1531
 6094SOL    HW229916   3.505   4.684   5.830 -1.0182 -2.5778 -1.6598
 6095SOL     OW29917   0.578   0.246   5.564  0.2591 -0.0934  0.4003
 6095SOL    HW129918   0.575   0.325   5.510 -1.4874  0.0958  0.7977
 6095SOL    HW229919   0.484   0.228   5.569 -0.0135  1.1306 -0.4126
 6096SOL     OW29920   2.396   4.560  15.391  0.5299 -0.1568  0.0210
 6096SOL    HW129921   2.341   4.547  15.314  0.3917  1.5148 -0.1602
 6096SOL    HW229922   2.328   4.569  15.457  0.2731 -3.3057  0.1861
 6097SOL     OW29923   1.479   1.499  15.412  0.1892 -0.3109  0.0852
 6097SOL    HW129924   1.478   1.590  15.383 -1.0091 -1.1581 -2.5317
 6097SOL    HW229925   1.459   1.448  15.334 -0.7193  0.6349 -0.2854
 6098SOL     OW29926   4.601   4.639   0.133  0.3251  0.5205  0.4915
 6098SOL    HW129927   4.552   4.557   0.144  0.5305  0.4727  1.0336
 6098SOL    HW229928   4.581   4.687   0.214 -1.8398  0.7797 -0.1780
 6099SOL     OW29929   4.026   0.635   6.814 -0.1832 -0.0087 -0.4034
 6099SOL    HW129930   4.046   0.628   6.720 -0.8250  1.6513 -0.6564
 6099SOL    HW229931   3.938   0.600   6.826 -1.0869  1.6546 -2.0245
 6100SOL     OW29932   0.574   0.322   4.254  0.1724 -0.2924  0.2378
 6100SOL    HW129933   0.497   0.379   4.246  0.1044 -0.2819  1.0326
 6100SOL    HW229934   0.537   0.247   4.300 -1.4362  0.4917  0.2253
 6101SOL     OW29935   4.293   2.104  12.220  0.2471 -0.3518  0.3081
 6101SOL    HW129936   4.354   2.032  12.202  2.2161  1.3764  0.1317
 6101SOL    HW229937   4.276   2.077  12.311 -1.3180 -1.1337 -0.2058
 6102SOL     OW29938   1.565   1.856   6.888 -0.1267 -0.1614 -0.3111
 6102SOL    HW129939   1.502   1.790   6.915 -1.4120  1.6919  1.2251
 6102SOL    HW229940   1.501   1.927   6.886  1.9102  1.6647 -1.4254
 6103SOL     OW29941   1.027   2.730   1.741 -0.0617  0.1760  0.1288
 6103SOL    HW129942   1.006   2.815   1.705 -1.8140 -0.9277 -1.4251
 6103SOL    HW229943   0.962   2.669   1.705 -0.4868  0.5531  0.2568
 6104SOL     OW29944   3.739   3.831  11.600 -0.0906 -0.0032 -0.6096
 6104SOL    HW129945   3.822   3.858  11.640 -0.4195  0.3318 -0.1499
 6104SOL    HW229946   3.768   3.771  11.531 -1.3304  0.0410 -1.1728
 6105SOL     OW29947   3.101   4.532   3.806 -0.6449  0.0152 -0.9887
 6105SOL    HW129948   3.171   4.466   3.812 -1.8962 -1.1182  1.0337
 6105SOL    HW229949   3.129   4.588   3.878  0.7922 -2.1908  0.1814
 6106SOL     OW29950   4.318   0.871   8.596 -0.0019 -0.7864 -0.2854
 6106SOL    HW129951   4.295   0.891   8.506  0.1677 -3.1491 -0.8659
 6106SOL    HW229952   4.413   0.878   8.591 -0.1586  0.5075 -1.2791
 6107SOL     OW29953   2.607   3.250   1.682  0.9500  0.0022 -0.0439
 6107SOL    HW129954   2.658   3.188   1.734  1.8814  0.0901 -0.8481
 6107SOL    HW229955   2.649   3.335   1.695  0.8097 -0.2344  2.0886
 6108SOL     OW29956   2.157   3.590   2.383 -0.5088 -0.0696 -0.5139
 6108SOL    HW129957   2.200   3.505   2.392 -0.6596 -0.1789 -0.8406
 6108SOL    HW229958   2.169   3.619   2.474 -0.3817  0.9915 -0.8681
 6109SOL     OW29959   2.814   0.653   4.475 -0.1796  0.0850  0.0664
 6109SOL    HW129960   2.770   0.708   4.540 -0.6500  1.6277 -1.5679
 6109SOL    HW229961   2.764   0.689   4.401 -0.8762 -0.6879  0.1581
 6110SOL     OW29962   1.922   1.487   0.378  0.1337  0.0818 -0.1267
 6110SOL    HW129963   1.845   1.468   0.323 -0.3630  0.9229  0.2821
 6110SOL    HW229964   1.937   1.404   0.424  0.3612 -0.3832 -1.0141
 6111SOL     OW29965   1.236   1.828  15.753 -0.1624  0.4732 -0.1327
 6111SOL    HW129966   1.221   1.733  15.752 -0.1939  0.4864 -1.5242
 6111SOL    HW229967   1.152   1.863  15.783 -1.8078 -1.5964 -2.2754
 6112SOL     OW29968   0.296   0.457   8.751  0.2975 -0.4091 -0.7529
 6112SOL    HW129969   0.210   0.426   8.723  0.0578 -2.6340  2.4719
 6112SOL    HW229970   0.271   0.517   8.821  1.3360 -2.2002  1.1516
 6113SOL     OW29971   0.989   2.768   7.415 -0.0124 -0.0632  0.2344
 6113SOL    HW129972   1.046   2.750   7.490  0.2494  1.1463  0.3169
 6113SOL    HW229973   1.043   2.829   7.366 -0.8231 -2.0538 -3.1302
 6114SOL     OW29974   2.734   4.727  16.021 -0.4359 -0.3416  0.4063
 6114SOL    HW129975   2.790   0.001  16.097  1.6695  1.0727 -1.3411
 6114SOL    HW229976   2.750   4.635  15.998  0.7603  0.4263 -1.8652
 6115SOL     OW29977   2.172   0.993   0.079 -0.8227 -0.4519 -0.2424
 6115SOL    HW129978   2.199   1.048   0.006 -0.5830 -0.8996 -0.4883
 6115SOL    HW229979   2.086   1.023   0.108  0.3242  1.5572  1.1015
 6116SOL     OW29980   4.372   0.619   2.108  0.1990 -0.2305 -0.1673
 6116SOL    HW129981   4.393   0.534   2.146  0.2685 -1.3528 -2.7621
 6116SOL    HW229982   4.359   0.688   2.173 -1.7316  1.6465 -2.5374
 6117SOL     OW29983   1.610   3.855   3.540 -0.7888  0.7544  0.6136
 6117SOL    HW129984   1.571   3.819   3.460 -0.1503 -0.8220  0.9963
 6117SOL    HW229985   1.595   3.789   3.608 -0.4898  0.5940  0.5219
 6118SOL     OW29986   3.085   2.916   3.000  0.1142  0.0488 -0.4524
 6118SOL    HW129987   3.159   2.920   3.061 -0.5163  0.4096  0.2920
 6118SOL    HW229988   3.039   2.999   3.014  2.1266  0.6951  2.5025
 6119SOL     OW29989   1.038   3.547  12.536  0.1556 -0.0429 -0.0373
 6119SOL    HW129990   1.104   3.573  12.471  0.2605 -2.4651 -0.9079
 6119SOL    HW229991   1.000   3.473  12.488 -1.1366  2.1881 -2.4506
 6120SOL     OW29992   0.241   0.022   4.499 -0.6302 -0.2812  0.3534
 6120SOL    HW129993   0.269   0.105   4.461  1.8259 -1.6601 -0.8618
 6120SOL    HW229994   0.159   0.002   4.454 -0.4055 -2.3474  0.8858
 6121SOL     OW29995   2.325   0.232   8.187  0.4180 -0.3413 -0.5177
 6121SOL    HW129996   2.239   0.274   8.184  0.8031  0.4213 -0.8725
 6121SOL    HW229997   2.313   0.167   8.256  1.2475 -0.9621 -0.9519
 6122SOL     OW29998   4.622   4.395   3.433 -0.0029 -0.0068 -0.8138
 6122SOL    HW129999   4.597   4.399   3.341  1.8239  0.5824 -1.2689
 6122SOL    HW230000   4.547   4.440   3.471  1.4755  0.5791  1.4149
 6123SOL     OW30001   4.734   1.223   8.148  0.2425 -0.4956  0.9717
 6123SOL    HW130002   4.707   1.182   8.066  2.0844  2.2144 -0.9984
 6123SOL    HW230003   4.695   1.159   8.208 -1.2914 -0.2380  0.2664
 6124SOL     OW30004   1.926   0.334   6.787 -0.4825  0.1361 -0.4394
 6124SOL    HW130005   1.925   0.401   6.719 -0.3724  1.9553  1.3307
 6124SOL    HW230006   1.871   0.269   6.745 -1.0529  0.0084  0.5031
 6125SOL     OW30007   0.551   4.715   3.688 -0.4793  0.1268  0.0395
 6125SOL    HW130008   0.513   4.629   3.705  2.4360 -1.0451  0.5626
 6125SOL    HW230009   0.543   0.023   3.773  3.0345  2.5090 -0.8528
 6126SOL     OW30010   2.156   2.376   7.028 -0.2691  0.1258  0.2167
 6126SOL    HW130011   2.179   2.468   7.046 -1.4455  0.2049  1.3459
 6126SOL    HW230012   2.194   2.336   7.106 -0.2087 -0.0096  0.1162
 6127SOL     OW30013   3.775   3.645   0.663  0.0719  0.2993 -0.1255
 6127SOL    HW130014   3.763   3.553   0.640 -2.1444  0.3478  0.8197
 6127SOL    HW230015   3.683   3.672   0.668 -0.3554 -1.1984  0.1160
 6128SOL     OW30016   4.275   3.944  15.351  0.3090 -0.1419  0.3669
 6128SOL    HW130017   4.285   3.949  15.256  1.8657 -2.2170  0.4048
 6128SOL    HW230018   4.180   3.928  15.350  0.2850  0.0403 -0.8067
 6129SOL     OW30019   3.605   1.719   7.092  0.7340 -0.1680  0.4914
 6129SOL    HW130020   3.632   1.792   7.148  1.7806 -0.2051  0.0334
 6129SOL    HW230021   3.559   1.764   7.022  2.4518  0.4471 -0.2473
 6130SOL     OW30022   0.366   2.702  12.288  0.6070  0.2156 -0.0634
 6130SOL    HW130023   0.459   2.694  12.309  1.1099  1.5850 -1.7814
 6130SOL    HW230024   0.346   2.790  12.321 -0.0006 -0.1331  0.4963
 6131SOL     OW30025   2.806   2.171   6.219  0.6887 -0.3154  0.0632
 6131SOL    HW130026   2.729   2.198   6.269  3.0416  1.4200  2.7376
 6131SOL    HW230027   2.844   2.258   6.207  2.5529 -1.1068  0.3151
 6132SOL     OW30028   4.713   0.477   5.846 -0.3584 -0.4174 -0.0656
 6132SOL    HW130029   0.022   0.515   5.771 -1.3278  1.5708  0.3819
 6132SOL    HW230030   4.714   0.382   5.833 -2.4591 -0.2972 -1.1148
 6133SOL     OW30031   0.116   3.736   5.683  0.3510 -0.3813  0.4588
 6133SOL    HW130032   0.086   3.656   5.640  1.1592 -0.8863  0.8256
 6133SOL    HW230033   0.058   3.746   5.758 -0.2034  0.1804 -0.0497
 6134SOL     OW30034   1.684   3.500   0.764 -0.5913 -0.3115  0.3814
 6134SOL    HW130035   1.678   3.595   0.757  2.6983 -0.1836 -0.7692
 6134SOL    HW230036   1.718   3.501   0.853  1.8688  1.1364 -0.5715
 6135SOL     OW30037   2.447   1.780   3.012 -0.3811  0.5008  0.3058
 6135SOL    HW130038   2.480   1.785   3.102  0.7412 -0.4080 -0.0427
 6135SOL    HW230039   2.446   1.685   2.998 -0.4201  0.8398 -1.8934
 6136SOL     OW30040   2.246   3.569   7.814  0.0803  0.0521  0.0551
 6136SOL    HW130041   2.258   3.661   7.789 -0.9813  0.2538  0.2630
 6136SOL    HW230042   2.181   3.578   7.884  0.6417 -0.2037  0.6055
 6137SOL     OW30043   2.287   2.638   2.135  0.2881  0.7887 -0.1870
 6137SOL    HW130044   2.377   2.647   2.165 -0.2814  1.5505  1.2697
 6137SOL    HW230045   2.286   2.550   2.098 -0.1504  0.5413  0.4316
 6138SOL     OW30046   2.060   2.494   6.242 -0.1905  0.7745 -0.1349
 6138SOL    HW130047   1.999   2.426   6.213 -2.1007  1.3977  2.4134
 6138SOL    HW230048   2.079   2.464   6.331 -0.5417 -1.9286 -0.9886
 6139SOL     OW30049   0.972   3.310   0.044 -0.5389 -0.4674 -0.5128
 6139SOL    HW130050   0.985   3.328   0.137  1.5013  1.1918 -1.1449
 6139SOL    HW230051   0.954   3.216   0.051 -0.7639 -0.3168  0.8650
 6140SOL     OW30052   1.297   4.258   8.209 -0.2062  0.0296 -0.2821
 6140SOL    HW130053   1.281   4.170   8.174  1.7098  0.2976 -1.8606
 6140SOL    HW230054   1.298   4.310   8.128 -0.1144  2.7988  1.4997
 6141SOL     OW30055   4.666   4.093   1.145 -0.5239 -0.2207  0.3425
 6141SOL    HW130056   4.611   4.170   1.134 -0.0801 -0.1494 -1.3853
 6141SOL    HW230057   4.733   4.125   1.206 -0.6683 -1.0170  0.9318
 6142SOL     OW30058   3.931   3.837   6.773  0.1729  0.1219 -0.4465
 6142SOL    HW130059   3.895   3.838   6.862 -0.8570 -2.3026 -0.8152
 6142SOL    HW230060   4.024   3.859   6.785  0.1554 -0.7180  1.2481
 6143SOL     OW30061   3.769   2.507   6.079 -0.2459 -0.5065  0.3451
 6143SOL    HW130062   3.844   2.449   6.089 -1.2666 -2.2938 -2.2426
 6143SOL    HW230063   3.754   2.502   5.985 -0.8631 -1.5685  0.5041
 6144SOL     OW30064   1.597   1.222  10.061  0.0293  0.2244  0.3168
 6144SOL    HW130065   1.639   1.150  10.014 -1.0923 -0.1980 -0.0464
 6144SOL    HW230066   1.687   1.246  10.085 -0.7886  0.8330  2.7896
 6145SOL     OW30067   3.757   2.771   4.415  0.2497 -0.2398  0.1697
 6145SOL    HW130068   3.783   2.828   4.342  0.1927 -2.9841 -2.0101
 6145SOL    HW230069   3.677   2.734   4.378  1.1767 -0.8249 -1.2468
 6146SOL     OW30070   1.407   4.513   0.507  0.1521 -0.1998 -0.6147
 6146SOL    HW130071   1.471   4.444   0.523 -0.8850 -0.9624  0.2801
 6146SOL    HW230072   1.452   4.560   0.437 -1.4207 -0.4005 -1.7529
 6147SOL     OW30073   0.697   0.578   6.191  0.4576 -0.0202  0.2747
 6147SOL    HW130074   0.672   0.670   6.206  2.0036  0.2012  1.4632
 6147SOL    HW230075   0.697   0.541   6.279  1.3210 -3.0177 -1.0132
 6148SOL     OW30076   1.306   2.842  10.126  0.1332  0.1419 -0.0699
 6148SOL    HW130077   1.268   2.815  10.043 -0.5365 -0.1489  0.3253
 6148SOL    HW230078   1.400   2.852  10.109  0.4269 -2.3342  0.0123
 6149SOL     OW30079   2.778   0.171   7.137 -0.3108  0.1202  1.0057
 6149SOL    HW130080   2.718   0.162   7.063 -0.7772 -1.0831  1.5238
 6149SOL    HW230081   2.850   0.223   7.101 -0.4233 -0.1095  0.4531
 6150SOL     OW30082   2.838   0.755   5.942  0.2461 -0.2293  0.3552
 6150SOL    HW130083   2.838   0.809   6.021  0.3813  0.5390 -0.1701
 6150SOL    HW230084   2.813   0.673   5.984 -1.9052  0.8846  1.1996
 6151SOL     OW30085   1.926   3.235   3.783  0.4754  0.9509  0.0491
 6151SOL    HW130086   1.913   3.166   3.718  0.9541  0.6379  0.2883
 6151SOL    HW230087   1.948   3.310   3.728 -1.7955  0.8729 -0.9692
 6152SOL     OW30088   0.211   4.271   4.694  0.4102 -0.3572 -0.0829
 6152SOL    HW130089   0.285   4.242   4.747 -0.0811 -0.6239  0.4655
 6152SOL    HW230090   0.184   4.344   4.748 -0.3829 -1.3152  0.8232
 6153SOL     OW30091   4.402   4.455   5.489 -0.0094 -0.4326 -0.3034
 6153SOL    HW130092   4.495   4.432   5.486  0.5313  1.7163  0.1900
 6153SOL    HW230093   4.356   4.378   5.523  0.0549 -1.3565 -2.3136
 6154SOL     OW30094   3.914   0.614   3.297  0.8924 -0.3389 -0.0744
 6154SOL    HW130095   3.984   0.581   3.353  0.1879 -0.8412  0.5004
 6154SOL    HW230096   3.881   0.534   3.255  2.4375 -1.3445  0.6547
 6155SOL     OW30097   3.931   2.614   7.932 -0.8058 -0.1023 -0.2417
 6155SOL    HW130098   3.919   2.700   7.894 -0.5380 -0.2360 -0.6254
 6155SOL    HW230099   3.977   2.635   8.013 -2.8664  1.8502  0.4016
 6156SOL     OW30100   0.353   2.294  13.101 -0.1643 -0.7867 -0.2234
 6156SOL    HW130101   0.291   2.223  13.085  0.0500 -0.8863 -0.6067
 6156SOL    HW230102   0.330   2.313  13.192  0.4808  0.4600 -0.3192
 6157SOL     OW30103   0.277   2.700   9.181  0.5590  0.1447 -0.8558
 6157SOL    HW130104   0.370   2.721   9.170  0.8613  0.9968  3.2055
 6157SOL    HW230105   0.285   2.623   9.238  0.0693 -0.2487 -1.3141
 6158SOL     OW30106   2.564   3.604   8.514 -0.3471  0.7282  0.4562
 6158SOL    HW130107   2.486   3.555   8.490  0.2656 -0.6670  1.2993
 6158SOL    HW230108   2.543   3.695   8.497 -2.1004  0.0294 -1.0306
 6159SOL     OW30109   1.951   0.843   1.842 -0.0386 -0.2715  0.4127
 6159SOL    HW130110   1.872   0.788   1.846 -0.1668 -0.1144  0.0877
 6159SOL    HW230111   2.017   0.776   1.823 -0.2034 -0.6104  1.0331
 6160SOL     OW30112   1.617   4.427  11.297 -0.0393  0.2039 -0.0758
 6160SOL    HW130113   1.554   4.355  11.295  0.7726 -0.4730 -1.9398
 6160SOL    HW230114   1.559   4.502  11.313 -0.3451  0.1300 -0.8421
 6161SOL     OW30115   0.456   2.277   2.077 -0.5919 -0.3494 -0.6829
 6161SOL    HW130116   0.462   2.191   2.036 -1.3155 -0.0077 -1.4908
 6161SOL    HW230117   0.511   2.327   2.016 -1.0649 -1.2006 -1.8144
 6162SOL     OW30118   2.940   3.972   7.627  0.2885  0.2080  0.3588
 6162SOL    HW130119   3.003   3.903   7.608 -0.9969 -0.8179 -0.1130
 6162SOL    HW230120   2.914   3.999   7.539  0.2271 -1.4819 -0.1404
 6163SOL     OW30121   0.496   3.608  14.144 -0.3406 -0.4457  0.5993
 6163SOL    HW130122   0.542   3.611  14.228 -1.9360 -0.6537  1.4899
 6163SOL    HW230123   0.506   3.695  14.107 -0.9003  1.5932  5.1567
 6164SOL     OW30124   1.651   1.398  12.724 -0.3389  1.1033 -0.2799
 6164SOL    HW130125   1.735   1.431  12.756 -0.6189  1.5308  0.0080
 6164SOL    HW230126   1.597   1.474  12.744 -1.6531  0.2145 -0.4497
 6165SOL     OW30127   1.861   1.563  12.475  0.9655 -0.2888  0.0060
 6165SOL    HW130128   1.881   1.536  12.565 -1.7970 -0.7704  0.4615
 6165SOL    HW230129   1.829   1.488  12.426 -0.9992  0.6163 -0.0963
 6166SOL     OW30130   2.015   2.992  12.802  0.8909 -0.6594 -0.4328
 6166SOL    HW130131   1.940   3.051  12.794  0.6285 -1.0814 -1.0809
 6166SOL    HW230132   2.032   2.996  12.896 -0.3903  3.1083 -0.3497
 6167SOL     OW30133   0.970   2.940   6.353  0.0893  0.2946 -0.1218
 6167SOL    HW130134   0.891   2.994   6.347 -0.7920 -0.8673  0.8857
 6167SOL    HW230135   0.989   2.958   6.445 -0.0114 -0.1501 -0.0131
 6168SOL     OW30136   3.083   1.777   6.381 -0.1650 -0.2744 -0.2119
 6168SOL    HW130137   3.068   1.746   6.292  1.8576  0.0392 -0.6584
 6168SOL    HW230138   3.048   1.865   6.368  2.0138  0.3388 -1.8419
 6169SOL     OW30139   0.114   3.158   6.093  0.4273 -0.0421  0.2040
 6169SOL    HW130140   0.087   3.073   6.128  0.7176 -1.1853 -2.3608
 6169SOL    HW230141   0.127   3.146   5.999  0.7687 -3.9616  0.7588
 6170SOL     OW30142   4.092   0.067   6.035  0.4173  0.1521 -0.1970
 6170SOL    HW130143   4.177   0.026   6.050  0.1630 -0.7022 -1.0609
 6170SOL    HW230144   4.112   0.124   5.961 -2.4214  0.1792 -0.9495
 6171SOL     OW30145   2.849   2.655   1.956 -0.3717  0.4109  0.4574
 6171SOL    HW130146   2.944   2.648   1.945 -0.6536 -1.6040 -0.7562
 6171SOL    HW230147   2.845   2.687   2.046 -0.9801 -0.9027  0.9112
 6172SOL     OW30148   2.644   4.095   3.553  0.6548 -0.1003 -0.0143
 6172SOL    HW130149   2.729   4.119   3.589  0.4581 -0.1436  0.4715
 6172SOL    HW230150   2.660   4.105   3.459 -1.7266 -2.1754 -0.6499
 6173SOL     OW30151   4.575   2.469   4.128  0.1361 -0.4887  0.0361
 6173SOL    HW130152   4.632   2.412   4.077  1.8368  0.5379  0.7578
 6173SOL    HW230153   4.485   2.450   4.101 -1.1024  2.2129  2.2027
 6174SOL     OW30154   2.635   2.303  13.884  0.3372  0.0345 -0.7921
 6174SOL    HW130155   2.577   2.364  13.930  2.4310  0.2618  1.5276
 6174SOL    HW230156   2.676   2.366  13.825  0.3905  2.3065  1.6694
 6175SOL     OW30157   3.330   1.172  13.575 -0.5574 -0.1837  0.0770
 6175SOL    HW130158   3.244   1.209  13.597 -1.2922 -0.8303 -1.7110
 6175SOL    HW230159   3.379   1.189  13.656  0.2547 -0.6655 -0.3208
 6176SOL     OW30160   2.895   1.761   4.247  0.5896  0.0471 -0.6729
 6176SOL    HW130161   2.935   1.683   4.208 -2.0985 -1.5521 -0.2357
 6176SOL    HW230162   2.963   1.795   4.306  1.4480 -2.0462 -0.4709
 6177SOL     OW30163   2.249   3.450   7.537 -0.7786  0.7100  0.3507
 6177SOL    HW130164   2.263   3.474   7.629  1.0675  1.1538 -0.0556
 6177SOL    HW230165   2.289   3.526   7.496  1.7574  0.1044  1.6692
 6178SOL     OW30166   3.362   3.775   9.272 -0.7282  0.6430 -0.0949
 6178SOL    HW130167   3.375   3.842   9.338 -0.0812  0.1811  0.2441
 6178SOL    HW230168   3.338   3.696   9.321 -1.4757  0.1966 -1.1587
 6179SOL     OW30169   1.445   4.202  11.343  0.1418  0.2616  0.0361
 6179SOL    HW130170   1.367   4.216  11.397 -1.4839 -2.3445 -1.6588
 6179SOL    HW230171   1.399   4.162  11.269 -1.5926  0.0672  1.2183
 6180SOL     OW30172   1.767   4.301   8.434 -0.0956 -0.5144 -0.1489
 6180SOL    HW130173   1.835   4.245   8.394 -0.3030  0.5421 -1.9654
 6180SOL    HW230174   1.690   4.247   8.418 -0.4040  0.1451 -0.8633
 6181SOL     OW30175   1.212   1.103   6.249 -0.4032  0.8669  0.2243
 6181SOL    HW130176   1.120   1.085   6.232 -0.0650 -0.3914 -0.3265
 6181SOL    HW230177   1.203   1.197   6.259  0.1102  1.0958 -1.6359
 6182SOL     OW30178   4.336   3.603   9.640  0.1176  0.1444  0.7155
 6182SOL    HW130179   4.394   3.548   9.589 -1.8202 -0.4210 -0.8754
 6182SOL    HW230180   4.303   3.664   9.574 -0.1777 -2.2314 -1.2964
 6183SOL     OW30181   0.454   0.010  10.091 -0.2944  0.0719 -0.0280
 6183SOL    HW130182   0.542   0.045  10.106 -0.1065 -0.2018 -0.4616
 6183SOL    HW230183   0.415   0.007  10.178 -2.5305 -0.1550 -1.0345
 6184SOL     OW30184   2.565   3.701   2.993  0.0099  0.1673  0.2718
 6184SOL    HW130185   2.576   3.792   3.020 -0.8849  1.4924 -3.8392
 6184SOL    HW230186   2.600   3.697   2.904  0.2526 -1.3387  0.4286
 6185SOL     OW30187   4.402   3.009   9.042  0.5212 -0.3950  0.7109
 6185SOL    HW130188   4.361   3.082   9.088  0.6991  0.1003  0.0891
 6185SOL    HW230189   4.414   2.935   9.101 -1.2182 -0.7716  0.6028
 6186SOL     OW30190   0.232   2.358   7.252  0.6491 -0.3395  0.9392
 6186SOL    HW130191   0.239   2.446   7.215 -0.8440 -1.1795 -1.3149
 6186SOL    HW230192   0.152   2.379   7.300 -1.5593 -1.4718 -2.2490
 6187SOL     OW30193   3.068   4.411  15.446 -0.1294  0.1943 -0.2311
 6187SOL    HW130194   3.150   4.411  15.496  1.5600  1.4954 -2.9914
 6187SOL    HW230195   3.026   4.334  15.484 -2.2119  1.1406 -0.6389
 6188SOL     OW30196   2.149   4.019   2.067  0.5276 -0.3299  0.3304
 6188SOL    HW130197   2.241   3.998   2.077  0.3356 -1.2334  0.1823
 6188SOL    HW230198   2.154   4.111   2.041  0.7540 -0.8186 -1.3551
 6189SOL     OW30199   1.745   3.230   6.374 -0.5864  0.6730  0.3169
 6189SOL    HW130200   1.757   3.193   6.287  0.7207 -3.9078  2.4675
 6189SOL    HW230201   1.724   3.321   6.350 -1.7657  0.5890  1.0220
 6190SOL     OW30202   1.822   0.307   7.103 -0.1941  0.3583 -0.3761
 6190SOL    HW130203   1.819   0.380   7.165  0.7657  1.9694 -2.2315
 6190SOL    HW230204   1.785   0.356   7.030 -1.2564 -0.5033 -0.4192
 6191SOL     OW30205   2.546   0.557   1.613  0.3337 -0.4882  0.0412
 6191SOL    HW130206   2.531   0.651   1.620 -0.9227 -0.6675 -0.2737
 6191SOL    HW230207   2.580   0.546   1.524  1.7712 -1.1528  0.6849
 6192SOL     OW30208   4.102   3.288   0.788  0.3049 -0.3387  0.2635
 6192SOL    HW130209   4.030   3.245   0.742 -1.1348  3.8115 -1.3975
 6192SOL    HW230210   4.152   3.294   0.706  0.0065 -0.0754  0.0992
 6193SOL     OW30211   2.907   4.717   7.403  0.1473  0.5697 -0.3849
 6193SOL    HW130212   2.853   4.683   7.473  2.2781  0.5297  1.2331
 6193SOL    HW230213   2.957   0.051   7.446  3.0231 -1.9430  0.3203
 6194SOL     OW30214   4.304   3.081   2.871 -0.7073  0.2504 -0.3979
 6194SOL    HW130215   4.391   3.041   2.866  0.3761  2.6464 -0.8584
 6194SOL    HW230216   4.320   3.170   2.839  2.1010  0.3521  1.2671
 6195SOL     OW30217   1.540   3.177  11.913  0.5866  0.1145 -0.7803
 6195SOL    HW130218   1.557   3.146  12.002 -2.2167 -0.2218 -0.3424
 6195SOL    HW230219   1.490   3.103  11.878  0.8884 -0.4547 -0.0110
 6196SOL     OW30220   4.226   4.496   2.706 -0.4405 -0.0337 -0.1120
 6196SOL    HW130221   4.250   4.408   2.733  0.3384  0.0131 -0.6854
 6196SOL    HW230222   4.311   4.518   2.669  1.4306 -0.6925  3.7908
 6197SOL     OW30223   3.644   2.664  15.652  0.0483 -0.4690  0.5216
 6197SOL    HW130224   3.553   2.693  15.653  0.7519  1.7683  0.3364
 6197SOL    HW230225   3.645   2.591  15.714  0.9383 -2.0504 -1.3630
 6198SOL     OW30226   2.832   3.797   5.188  0.0827  0.3241  0.3585
 6198SOL    HW130227   2.885   3.877   5.190 -1.2014  1.1562  1.3318
 6198SOL    HW230228   2.748   3.828   5.153 -1.2705 -0.7574  2.7018
 6199SOL     OW30229   3.675   1.071   4.171 -0.9625 -0.1127  0.0728
 6199SOL    HW130230   3.594   1.107   4.134 -0.1736  0.6014 -0.9839
 6199SOL    HW230231   3.720   1.024   4.100 -1.9730 -2.0472  0.7178
 6200SOL     OW30232   1.901   3.406   7.828  0.1393  0.3244 -0.2447
 6200SOL    HW130233   1.847   3.369   7.897 -1.9868 -0.7356 -2.4683
 6200SOL    HW230234   1.992   3.377   7.834  0.5019  1.6313  0.5474
 6201SOL     OW30235   2.263   3.916   8.273 -0.3153  0.0380  0.1951
 6201SOL    HW130236   2.342   3.864   8.258 -0.3133 -0.2506  1.2174
 6201SOL    HW230237   2.290   4.007   8.261  2.3005 -0.6888  0.4873
 6202SOL     OW30238   0.167   0.088   2.560 -0.0663 -0.8534  0.0020
 6202SOL    HW130239   0.105   0.156   2.587 -0.0217 -1.6677  2.1795
 6202SOL    HW230240   0.218   0.130   2.491  1.2384 -1.5074  0.5741
 6203SOL     OW30241   1.098   1.433   8.471  0.5758 -0.3245  0.0884
 6203SOL    HW130242   1.126   1.461   8.558  2.3589  0.5110 -0.7697
 6203SOL    HW230243   1.088   1.343   8.502 -1.2790 -0.1399  0.0812
 6204SOL     OW30244   3.329   1.194  10.855  0.1742  0.2717 -0.3937
 6204SOL    HW130245   3.369   1.276  10.882 -0.8146 -0.0870  2.1585
 6204SOL    HW230246   3.339   1.201  10.760  1.7782 -4.1960 -0.5628
 6205SOL     OW30247   3.395   3.409   7.990 -0.2047  0.4182 -0.2719
 6205SOL    HW130248   3.489   3.401   8.002 -0.2226 -0.2949 -0.5809
 6205SOL    HW230249   3.371   3.465   8.064 -0.6294  0.9506 -0.8148
 6206SOL     OW30250   0.183   4.555   2.629 -0.0334  0.1767 -0.1475
 6206SOL    HW130251   0.183   4.650   2.618  0.9405  0.3589  1.4363
 6206SOL    HW230252   0.274   4.544   2.657 -0.3336  3.4007  2.1497
 6207SOL     OW30253   2.005   1.507   8.357  0.1704  0.1179 -0.0373
 6207SOL    HW130254   2.062   1.505   8.280  2.3972  3.8392  1.5239
 6207SOL    HW230255   1.954   1.429   8.336  0.8714 -0.1977 -0.5827
 6208SOL     OW30256   3.616   0.833   2.426 -0.0325 -0.8031 -0.0951
 6208SOL    HW130257   3.595   0.907   2.483  1.1521 -1.2927  0.9822
 6208SOL    HW230258   3.628   0.885   2.347  2.6855  1.6654  1.9054
 6209SOL     OW30259   1.580   2.497   5.152 -0.4818 -0.1391 -0.8016
 6209SOL    HW130260   1.509   2.544   5.196 -0.3376 -0.7242  0.0541
 6209SOL    HW230261   1.553   2.411   5.184 -4.0720  1.2333 -0.1468
 6210SOL     OW30262   2.397   0.038   0.987  0.0015  0.4375 -0.2642
 6210SOL    HW130263   2.483   4.732   0.981  0.0473  0.5617 -0.4767
 6210SOL    HW230264   2.336   4.700   0.987 -1.2676  1.4879  1.1676
 6211SOL     OW30265   2.041   3.794   9.743  0.4837 -0.2189 -0.0809
 6211SOL    HW130266   1.997   3.837   9.817  0.2097 -1.6009  0.5720
 6211SOL    HW230267   2.090   3.733   9.799  0.3282  0.3350  0.6525
 6212SOL     OW30268   1.740   1.732   8.711  0.5587 -0.2936  0.4402
 6212SOL    HW130269   1.742   1.675   8.634 -1.7396  2.2392 -1.4912
 6212SOL    HW230270   1.648   1.756   8.716  0.8184  0.7706  0.1118
 6213SOL     OW30271   2.117   0.953  16.250  0.0457 -0.4079 -0.3738
 6213SOL    HW130272   2.173   1.012  16.201 -0.4817  1.1406  0.9086
 6213SOL    HW230273   2.037   0.967  16.200 -0.8457 -0.5130  1.0191
 6214SOL     OW30274   4.132   0.636   3.489  0.9947  0.1971 -0.0913
 6214SOL    HW130275   4.215   0.677   3.513 -0.2335  1.3009  2.3091
 6214SOL    HW230276   4.077   0.654   3.565 -1.4239 -0.2889 -1.7282
 6215SOL     OW30277   0.771   1.837   8.905 -0.2451 -0.4301 -0.0835
 6215SOL    HW130278   0.724   1.803   8.829  4.2715 -1.8610 -2.2302
 6215SOL    HW230279   0.827   1.760   8.912 -1.1135 -1.1713 -1.2714
 6216SOL     OW30280   1.009   1.901  15.869  0.5963  0.6521  0.1343
 6216SOL    HW130281   0.984   1.836  15.935  0.0706 -0.9324 -1.6514
 6216SOL    HW230282   0.951   1.975  15.886 -1.5485 -1.4875  2.1395
 6217SOL     OW30283   1.345   0.750   9.999 -0.0551 -0.5651  0.4542
 6217SOL    HW130284   1.297   0.682  10.046 -0.2537 -1.3443 -0.8948
 6217SOL    HW230285   1.419   0.737  10.058 -0.8340  1.2091  1.8484
 6218SOL     OW30286   0.777   4.624  12.913 -0.1984 -0.2476  0.9813
 6218SOL    HW130287   0.780   4.613  12.818 -0.5016  0.6922  0.8687
 6218SOL    HW230288   0.865   4.593  12.932  0.0933  1.2304  2.0372
 6219SOL     OW30289   0.070   0.602   6.522 -0.0884  0.2726  0.2919
 6219SOL    HW130290   0.158   0.585   6.490 -1.9151 -1.6745 -3.6763
 6219SOL    HW230291   0.028   0.516   6.515  1.8605 -0.7396  1.2726
 6220SOL     OW30292   4.671   4.432   2.724  0.0874 -0.2915 -0.3786
 6220SOL    HW130293   4.685   4.352   2.672 -0.3754 -0.5600 -0.0950
 6220SOL    HW230294   0.012   4.481   2.698  0.0414 -0.3435 -0.6114
 6221SOL     OW30295   3.087   3.923  15.365  0.0986  0.4078  0.3897
 6221SOL    HW130296   3.046   3.837  15.360 -1.3334  1.0394  1.6757
 6221SOL    HW230297   3.143   3.923  15.287  3.0107  1.7833  2.4822
 6222SOL     OW30298   1.512   2.408   8.464 -0.3035  0.3831  0.2115
 6222SOL    HW130299   1.563   2.369   8.393 -1.8004 -0.3485 -0.4653
 6222SOL    HW230300   1.438   2.443   8.414 -2.1739 -4.2666 -0.2535
 6223SOL     OW30301   1.660   0.683  12.824 -0.0764  0.6184 -0.8260
 6223SOL    HW130302   1.722   0.757  12.829  2.5810 -1.6153 -0.6798
 6223SOL    HW230303   1.720   0.618  12.788  2.8874  2.2954  1.0255
 6224SOL     OW30304   2.518   2.971   1.701 -0.1822  0.3345  0.2984
 6224SOL    HW130305   2.548   2.976   1.610 -0.8416  0.6874  0.0991
 6224SOL    HW230306   2.567   2.898   1.739  1.7974  2.4514  1.7899
 6225SOL     OW30307   2.433   3.100   2.286 -0.4147 -1.0890 -0.6876
 6225SOL    HW130308   2.458   3.123   2.197  1.0966 -1.4662 -0.3645
 6225SOL    HW230309   2.339   3.089   2.273 -0.4828  2.2640 -3.1233
 6226SOL     OW30310   3.708   0.955   2.822 -0.4882  0.3094  0.9967
 6226SOL    HW130311   3.616   0.938   2.802  0.0819  0.0531 -1.4514
 6226SOL    HW230312   3.746   0.873   2.789  0.3137  2.4337 -3.3976
 6227SOL     OW30313   3.348   2.016   4.091  0.1962 -0.1922 -0.1223
 6227SOL    HW130314   3.437   2.032   4.122  0.4733  1.9710 -1.9817
 6227SOL    HW230315   3.322   2.108   4.088 -1.1727 -0.5778  0.0243
 6228SOL     OW30316   2.695   0.390   7.344  0.1535  0.2983  0.4533
 6228SOL    HW130317   2.770   0.339   7.313  0.0765  0.2713  0.3073
 6228SOL    HW230318   2.740   0.474   7.352  2.6155 -0.8718 -1.0096
 6229SOL     OW30319   1.506   1.699   5.929 -0.3866  0.3423 -1.0908
 6229SOL    HW130320   1.501   1.642   6.006  1.1896 -0.4363 -1.5696
 6229SOL    HW230321   1.583   1.669   5.881  0.3598 -0.1442  0.4127
 6230SOL     OW30322   3.747   3.722   4.660  0.2148 -0.5230 -0.2986
 6230SOL    HW130323   3.749   3.818   4.666  1.1337 -0.6126  0.9033
 6230SOL    HW230324   3.655   3.708   4.679  0.4314 -3.5464 -1.5204
 6231SOL     OW30325   3.629   2.787  11.054  0.1885  0.1106  0.0086
 6231SOL    HW130326   3.653   2.702  11.091 -0.7175  0.3395  1.0915
 6231SOL    HW230327   3.538   2.794  11.081 -0.2340  1.3959 -1.7179
 6232SOL     OW30328   1.945   2.765  16.562 -0.0631 -0.5508  0.0008
 6232SOL    HW130329   2.007   2.799  16.498 -1.1099  0.2375 -0.6004
 6232SOL    HW230330   1.964   2.823  16.635 -0.4361 -1.2023  0.6190
 6233SOL     OW30331   3.448   3.498   5.349 -0.0268 -0.1474 -0.2018
 6233SOL    HW130332   3.450   3.533   5.260 -0.4207  0.1940 -0.0745
 6233SOL    HW230333   3.517   3.432   5.354  0.2667  0.4706  3.6205
 6234SOL     OW30334   1.381   3.593   3.295  0.1646 -0.3415  0.1084
 6234SOL    HW130335   1.451   3.652   3.269 -0.6713 -0.5970 -2.6898
 6234SOL    HW230336   1.342   3.646   3.365 -1.4308 -0.2957 -0.8101
 6235SOL     OW30337   2.212   3.658   9.943  0.0166 -0.5766 -0.0277
 6235SOL    HW130338   2.139   3.598   9.956  0.5549 -0.7297  2.2429
 6235SOL    HW230339   2.278   3.599   9.980  0.2844 -0.3255 -0.0997
 6236SOL     OW30340   2.720   1.886  16.748  0.2016  0.2773 -0.1554
 6236SOL    HW130341   2.718   1.935  16.666  1.3071 -0.0616 -0.3970
 6236SOL    HW230342   2.631   1.898  16.778 -0.2753 -0.8916 -1.0769
 6237SOL     OW30343   2.997   1.708   1.796 -0.3254 -0.0665 -0.0554
 6237SOL    HW130344   3.036   1.705   1.709 -1.3793 -1.0999 -0.4891
 6237SOL    HW230345   2.912   1.668   1.778  0.0954 -1.1979  0.4088
 6238SOL     OW30346   2.415   2.947   4.899 -0.0004  0.2372  0.5766
 6238SOL    HW130347   2.503   2.933   4.863  0.0056  1.2160  0.1905
 6238SOL    HW230348   2.422   2.900   4.981 -0.4320  0.0979  0.5297
 6239SOL     OW30349   1.189   2.435   7.884 -0.0208  0.0689 -0.2827
 6239SOL    HW130350   1.225   2.524   7.883 -2.0203  0.8711 -0.1115
 6239SOL    HW230351   1.098   2.451   7.860 -0.5056 -1.8417  0.2483
 6240SOL     OW30352   2.542   1.599   1.945 -0.1874 -0.1380  0.6484
 6240SOL    HW130353   2.466   1.552   1.978  0.0451 -1.8466 -1.2338
 6240SOL    HW230354   2.555   1.668   2.011  0.0340 -0.5192  1.0000
 6241SOL     OW30355   3.328   0.720  15.923 -0.0749  0.2535  0.2822
 6241SOL    HW130356   3.389   0.749  15.856  1.2454 -2.0862  0.4790
 6241SOL    HW230357   3.247   0.760  15.891 -0.5114 -1.6507 -0.9848
 6242SOL     OW30358   3.232   0.937  15.590 -0.8827 -0.4291 -0.8672
 6242SOL    HW130359   3.295   0.952  15.519  1.8994 -0.3812  1.6086
 6242SOL    HW230360   3.281   0.984  15.658  0.7416  1.6739 -3.4762
 6243SOL     OW30361   2.740   0.274   4.407  0.2021 -0.0402 -0.7076
 6243SOL    HW130362   2.832   0.246   4.415  0.7223  1.9378  0.2863
 6243SOL    HW230363   2.709   0.188   4.379 -0.4410  0.0897 -0.3918
 6244SOL     OW30364   3.726   4.309   9.952  0.1542 -0.1695  0.5853
 6244SOL    HW130365   3.689   4.334  10.037  0.4873  1.9858  0.0840
 6244SOL    HW230366   3.802   4.259   9.982  0.6346  0.3727  0.2659
 6245SOL     OW30367   2.158   1.390   9.848 -0.4368 -0.0120 -0.0003
 6245SOL    HW130368   2.241   1.432   9.869  0.4481 -0.6584 -2.1967
 6245SOL    HW230369   2.199   1.304   9.843 -0.1604  0.1505 -0.5157
 6246SOL     OW30370   1.453   4.145  14.112  0.2546  0.3169  0.3355
 6246SOL    HW130371   1.530   4.159  14.167  1.2928 -3.2218 -0.2197
 6246SOL    HW230372   1.479   4.075  14.053 -1.3769  0.0705 -0.1071
 6247SOL     OW30373   2.428   0.232   1.409 -0.2262  0.0812  0.2517
 6247SOL    HW130374   2.401   0.147   1.445 -1.2327  1.0639  1.8297
 6247SOL    HW230375   2.512   0.249   1.453 -0.5024 -1.3059  1.3294
 6248SOL     OW30376   2.620   2.643   8.994 -0.3559 -0.1892 -0.0511
 6248SOL    HW130377   2.708   2.664   8.961 -0.4019  1.1520  0.7047
 6248SOL    HW230378   2.562   2.691   8.934 -0.9401 -0.7597  0.0621
 6249SOL     OW30379   1.354   1.293   8.205 -0.2801 -0.0307 -0.0487
 6249SOL    HW130380   1.390   1.377   8.236 -0.5192  0.0892 -0.0989
 6249SOL    HW230381   1.273   1.323   8.165  1.8184  1.8944 -2.8246
 6250SOL     OW30382   0.870   2.838  11.282  0.3200 -0.3252  0.2233
 6250SOL    HW130383   0.808   2.865  11.214 -0.6383  1.7135  1.8903
 6250SOL    HW230384   0.841   2.898  11.352  0.3920 -0.5208  0.4216
 6251SOL     OW30385   0.634   2.700   3.715 -0.0349  0.1149 -0.1874
 6251SOL    HW130386   0.683   2.620   3.695 -0.4993 -0.3448  0.4929
 6251SOL    HW230387   0.589   2.676   3.796  0.7236  1.6809  0.6928
 6252SOL     OW30388   0.842   2.544  10.041 -0.3540 -0.6431 -0.4297
 6252SOL    HW130389   0.930   2.564  10.072 -0.5910 -0.8325  0.3816
 6252SOL    HW230390   0.864   2.518   9.952 -1.4372 -3.3440  0.0911
 6253SOL     OW30391   0.243   2.896   4.259 -0.0841  0.5503 -0.0074
 6253SOL    HW130392   0.191   2.933   4.187 -1.2511 -2.1708 -0.5321
 6253SOL    HW230393   0.223   2.803   4.257  0.3732  0.4361  0.6966
 6254SOL     OW30394   2.279   0.062   2.800 -0.4027 -0.1590  0.8199
 6254SOL    HW130395   2.323   0.099   2.876  2.7235 -0.7246 -0.7218
 6254SOL    HW230396   2.205   0.021   2.844 -1.0506  0.7516  0.5733
 6255SOL     OW30397   1.815   4.089   3.162 -0.2263 -0.7957  0.1728
 6255SOL    HW130398   1.721   4.092   3.184  0.1381  0.1406  1.6051
 6255SOL    HW230399   1.826   4.181   3.138  0.7662 -0.6517  1.1979
 6256SOL     OW30400   3.416   4.676   3.637  0.2197 -0.0626 -0.1938
 6256SOL    HW130401   3.405   4.615   3.710 -0.6190  0.9376  0.5237
 6256SOL    HW230402   3.486   4.731   3.671  1.5559 -1.6941 -0.3117
 6257SOL     OW30403   4.013   4.711   4.186  0.0591 -0.5673  0.3574
 6257SOL    HW130404   3.926   0.004   4.157  0.8085  1.6974  0.2926
 6257SOL    HW230405   4.048   4.681   4.102  0.0388 -1.4930  0.6908
 6258SOL     OW30406   4.034   0.311   7.480  0.2611  0.1070 -0.3169
 6258SOL    HW130407   3.973   0.303   7.406 -0.6167 -0.8250  0.5033
 6258SOL    HW230408   4.075   0.397   7.471 -0.5116  0.4068 -0.9310
 6259SOL     OW30409   0.540   3.039  17.680  0.2933  0.4958 -0.5904
 6259SOL    HW130410   0.464   3.072  17.727 -0.0827  2.5717 -2.6602
 6259SOL    HW230411   0.605   3.110  17.687 -1.1325  1.9603 -1.9642
 6260SOL     OW30412   3.782   0.685   3.884 -0.2430  0.2845 -0.2042
 6260SOL    HW130413   3.815   0.689   3.974 -1.3597 -2.8645  0.3427
 6260SOL    HW230414   3.701   0.635   3.895 -0.0364 -0.6798 -3.3216
 6261SOL     OW30415   2.862   2.976   8.682  0.9662  0.5111  0.2794
 6261SOL    HW130416   2.831   2.892   8.649  0.7946  0.4651  0.5532
 6261SOL    HW230417   2.868   2.968   8.778 -0.5922 -0.0076  0.3361
 6262SOL     OW30418   2.917   3.348   5.720  0.3674 -0.6617 -0.4801
 6262SOL    HW130419   2.837   3.360   5.771  1.2927  0.6530  0.6629
 6262SOL    HW230420   2.919   3.256   5.696  1.0092 -0.5902 -0.7041
 6263SOL     OW30421   2.869   1.072   6.167  0.0104  0.1749  0.0881
 6263SOL    HW130422   2.925   1.148   6.149 -1.3745  1.4128  0.9856
 6263SOL    HW230423   2.793   1.111   6.211  0.8543 -0.2102  1.8860
 6264SOL     OW30424   0.375   0.195   9.185  0.6447  0.3647 -0.4786
 6264SOL    HW130425   0.427   0.275   9.190  2.1563 -0.7098  0.7863
 6264SOL    HW230426   0.444   0.130   9.193  0.2020 -0.0891 -0.3236
 6265SOL     OW30427   1.700   2.910  14.006  0.1128 -0.5253  0.0801
 6265SOL    HW130428   1.757   2.950  13.940 -1.5799 -0.8662 -1.5862
 6265SOL    HW230429   1.639   2.981  14.027  0.4199 -0.8635  2.1056
 6266SOL     OW30430   3.176   2.258   3.514 -0.2575 -0.0320 -0.1371
 6266SOL    HW130431   3.239   2.214   3.571  0.5859  0.4426 -0.7053
 6266SOL    HW230432   3.206   2.348   3.524 -0.4052 -0.1141  1.0367
 6267SOL     OW30433   2.315   1.991   7.201  0.3285  0.4120 -0.9774
 6267SOL    HW130434   2.318   2.044   7.280  3.0616 -0.3987 -0.5350
 6267SOL    HW230435   2.379   1.920   7.210 -1.2660 -0.6389  2.1720
 6268SOL     OW30436   1.800   4.017  11.225 -0.0629  0.3076 -0.4520
 6268SOL    HW130437   1.826   4.106  11.202  1.1496 -0.4715 -2.0574
 6268SOL    HW230438   1.809   3.970  11.142 -1.1072 -0.5162 -0.1100
 6269SOL     OW30439   2.961   0.618   1.548  0.4615 -0.2679 -0.0834
 6269SOL    HW130440   2.940   0.581   1.634  2.1636  1.1168  0.9296
 6269SOL    HW230441   2.941   0.552   1.482 -0.8564 -0.5929  0.6401
 6270SOL     OW30442   2.270   1.529   3.452 -0.7992 -0.1656  0.4218
 6270SOL    HW130443   2.228   1.483   3.525 -1.9048  0.6035  0.2752
 6270SOL    HW230444   2.207   1.601   3.449  1.0657  1.4536  0.5762
 6271SOL     OW30445   4.545   2.520   9.816 -0.0589  0.4625 -0.4577
 6271SOL    HW130446   4.522   2.507   9.908 -3.1321  0.7166 -1.1672
 6271SOL    HW230447   4.503   2.606   9.804  0.2712  0.5709 -0.8487
 6272SOL     OW30448   0.051   2.465  11.755  0.3983 -0.8910 -0.5724
 6272SOL    HW130449   4.731   2.467  11.833 -0.9902 -1.1081 -1.5726
 6272SOL    HW230450   0.055   2.558  11.734  1.9228 -0.4627  1.5306
 6273SOL     OW30451   2.613   4.287  13.756 -0.2476 -0.4560  0.1022
 6273SOL    HW130452   2.595   4.256  13.845  1.3802 -2.1059 -0.1414
 6273SOL    HW230453   2.664   4.366  13.775 -0.4995 -0.0107 -1.0739
 6274SOL     OW30454   4.353   3.069   0.461 -0.7105  0.1758  0.3596
 6274SOL    HW130455   4.269   3.063   0.416 -0.0205  1.2745 -1.0719
 6274SOL    HW230456   4.361   3.163   0.478  1.3253 -0.1598  1.3909
 6275SOL     OW30457   2.249   2.286   2.495  0.2647 -0.2978  0.4122
 6275SOL    HW130458   2.208   2.303   2.410 -0.7990 -2.2744  0.5389
 6275SOL    HW230459   2.342   2.283   2.473  0.4437 -0.6929  1.2360
 6276SOL     OW30460   1.242   0.956   3.233  0.2253  0.2354 -0.0629
 6276SOL    HW130461   1.250   1.003   3.317 -1.2957  0.4071 -0.0037
 6276SOL    HW230462   1.304   0.885   3.247 -0.9657 -1.0724 -1.4813
 6277SOL     OW30463   1.525   1.736  17.627  0.2026 -0.1533 -0.0570
 6277SOL    HW130464   1.568   1.811  17.585  1.2250 -2.2068 -2.7399
 6277SOL    HW230465   1.456   1.725  17.561  1.7960  2.4246 -2.1625
 6278SOL     OW30466   0.996   4.536   8.328 -0.2573 -0.0119 -0.6202
 6278SOL    HW130467   0.920   4.542   8.270 -1.6873 -1.3861  1.1354
 6278SOL    HW230468   0.953   4.574   8.405  1.0365 -1.3349  0.7555
 6279SOL     OW30469   2.295   2.950   8.960 -0.4010 -0.0056  0.0298
 6279SOL    HW130470   2.246   2.869   8.971 -1.8635  1.1088  1.6598
 6279SOL    HW230471   2.216   3.004   8.961 -0.2291  0.2371  0.9909
 6280SOL     OW30472   3.163   2.357   8.772  0.3494 -0.8900 -0.2377
 6280SOL    HW130473   3.103   2.428   8.749  1.8575  0.3988 -0.2094
 6280SOL    HW230474   3.211   2.400   8.843  0.2525  1.5518 -1.6447
 6281SOL     OW30475   0.514   0.366  17.445 -0.1457  0.7084 -0.3827
 6281SOL    HW130476   0.502   0.360  17.539  0.5929  2.7181 -0.1583
 6281SOL    HW230477   0.509   0.461  17.434 -0.0960  0.7854  0.2582
 6282SOL     OW30478   1.284   0.730   4.846 -0.1961 -0.5692  0.5746
 6282SOL    HW130479   1.336   0.651   4.859  1.7137  0.2887 -1.8082
 6282SOL    HW230480   1.306   0.777   4.926  0.9019 -0.6464  0.3143
 6283SOL     OW30481   2.728   0.836   3.008 -0.6611  0.2884  0.1404
 6283SOL    HW130482   2.749   0.746   3.031 -1.3181  0.3911  1.1292
 6283SOL    HW230483   2.696   0.824   2.918 -0.4054 -0.9163  0.2188
 6284SOL     OW30484   2.085   4.468  17.085 -0.1726  0.1834 -0.6854
 6284SOL    HW130485   2.120   4.557  17.081  0.5209 -0.2361 -3.9311
 6284SOL    HW230486   1.995   4.497  17.070 -0.1886  0.8349  0.7238
 6285SOL     OW30487   4.280   1.496   6.944  0.4060 -0.0457 -0.1473
 6285SOL    HW130488   4.185   1.509   6.943  0.8392  3.2483  1.3921
 6285SOL    HW230489   4.317   1.569   6.993 -2.6435  2.2143 -1.2475
 6286SOL     OW30490   3.540   3.767   0.643 -0.3148  0.0485  0.3976
 6286SOL    HW130491   3.466   3.727   0.597 -1.7136  3.4572 -0.3598
 6286SOL    HW230492   3.492   3.818   0.709  0.3542  0.0432  0.8913
 6287SOL     OW30493   0.895   2.939   9.980  0.0176  0.3592 -0.4536
 6287SOL    HW130494   0.826   2.877  10.003 -0.5183 -0.2029 -3.4917
 6287SOL    HW230495   0.943   2.887   9.915 -0.5571 -0.3035 -0.3447
 6288SOL     OW30496   4.308   2.702   5.313 -0.1908  0.3895  0.1707
 6288SOL    HW130497   4.247   2.694   5.241  0.9954 -2.9155 -0.4503
 6288SOL    HW230498   4.270   2.781   5.352 -0.7749 -0.5542  1.5309
 6289SOL     OW30499   0.583   0.038   4.364  0.0958  0.4024  0.0995
 6289SOL    HW130500   0.646   4.703   4.367  1.5255  1.5834 -2.3270
 6289SOL    HW230501   0.515   4.721   4.322 -0.1336  1.9092 -1.4191
 6290SOL     OW30502   3.444   1.358  17.291 -0.3678 -0.0727 -0.1163
 6290SOL    HW130503   3.490   1.329  17.212 -2.8662 -2.3402 -0.7707
 6290SOL    HW230504   3.420   1.447  17.266  2.5384  1.2608  1.8616
 6291SOL     OW30505   0.210   3.765   3.168  0.8245  0.3055 -0.4111
 6291SOL    HW130506   0.267   3.833   3.204 -0.1588  1.2747 -0.6830
 6291SOL    HW230507   0.186   3.715   3.246 -0.9926  0.3900 -0.9240
 6292SOL     OW30508   0.516   0.863  10.233  0.4864 -0.5144 -0.3892
 6292SOL    HW130509   0.440   0.842  10.179 -0.1111  1.7602 -0.4108
 6292SOL    HW230510   0.580   0.895  10.169 -1.0183 -0.7100 -1.9911
 6293SOL     OW30511   1.176   2.399   2.508  0.6431  0.1199  0.4018
 6293SOL    HW130512   1.101   2.389   2.450 -0.0917 -1.4246  1.5965
 6293SOL    HW230513   1.223   2.472   2.468 -1.3920  2.2012  1.8764
 6294SOL     OW30514   2.223   3.840   7.739 -0.0054 -0.7419  0.5557
 6294SOL    HW130515   2.287   3.904   7.770 -0.6865  0.5253 -0.6229
 6294SOL    HW230516   2.154   3.906   7.736  0.1484 -0.5700  0.8073
 6295SOL     OW30517   4.668   1.774  11.697  0.1977 -0.1004 -0.2241
 6295SOL    HW130518   4.720   1.855  11.696 -1.7549  1.1692  2.4728
 6295SOL    HW230519   4.616   1.790  11.618 -1.2701  0.5141  0.8659
 6296SOL     OW30520   0.269   0.566   9.685  0.0157  0.3196  0.4210
 6296SOL    HW130521   0.232   0.477   9.680 -0.2717  0.3875  1.3271
 6296SOL    HW230522   0.272   0.575   9.780 -1.0746 -2.7799  0.7805
 6297SOL     OW30523   2.320   3.139   1.769 -0.9238 -0.2443  0.2916
 6297SOL    HW130524   2.390   3.083   1.738  0.1348  0.7523  0.8743
 6297SOL    HW230525   2.335   3.214   1.711 -0.4459 -1.6013 -1.3408
 6298SOL     OW30526   3.208   2.595   5.192  0.1825  0.1747 -0.0407
 6298SOL    HW130527   3.150   2.569   5.121  1.2270 -1.3204 -0.3611
 6298SOL    HW230528   3.182   2.551   5.273  2.2541 -1.9521 -0.5243
 6299SOL     OW30529   3.749   2.426   6.387  0.1171  0.1718  0.6124
 6299SOL    HW130530   3.765   2.498   6.447 -0.3330 -0.8811  1.9958
 6299SOL    HW230531   3.781   2.456   6.302 -1.3800  2.3383  0.8238
 6300SOL     OW30532   2.491   3.188  11.050  0.0610 -0.8429  0.3583
 6300SOL    HW130533   2.502   3.098  11.080  3.0136 -1.5669 -2.8949
 6300SOL    HW230534   2.411   3.218  11.095  1.5030  0.2002  2.2678
 6301SOL     OW30535   3.635   1.032   7.702 -0.9332  0.3523 -0.2482
 6301SOL    HW130536   3.547   1.066   7.691 -0.9161  0.8186  1.1845
 6301SOL    HW230537   3.682   1.084   7.637  0.4929 -0.3727  0.1831
 6302SOL     OW30538   0.755   0.904  10.428  0.3309 -0.4767  0.0699
 6302SOL    HW130539   0.687   0.926  10.366  1.4520  0.2030 -0.9210
 6302SOL    HW230540   0.784   0.988  10.463 -1.4483  0.1451  0.0198
 6303SOL     OW30541   0.768   2.886  17.685 -0.4690  0.4376  0.0432
 6303SOL    HW130542   0.750   2.818   0.008  1.1948 -1.2471 -1.2344
 6303SOL    HW230543   0.683   2.929  17.676 -1.1956 -0.5305  2.4455
 6304SOL     OW30544   3.836   2.913  11.182 -0.2339  0.1551 -0.1779
 6304SOL    HW130545   3.769   2.870  11.131  0.1670 -0.5750 -0.0861
 6304SOL    HW230546   3.886   2.835  11.204 -1.0234  0.2145  1.8202
 6305SOL     OW30547   4.485   1.905   8.344  0.4621  0.0123 -0.0315
 6305SOL    HW130548   4.564   1.852   8.336  0.2227  0.1440 -3.0737
 6305SOL    HW230549   4.528   1.989   8.332 -1.0546  0.8961  0.7225
 6306SOL     OW30550   0.124   1.224   3.001  0.4393 -0.3135 -0.4918
 6306SOL    HW130551   0.051   1.207   2.942 -1.8438  0.8878  2.0236
 6306SOL    HW230552   0.197   1.189   2.949 -0.7636  0.4794 -2.7376
 6307SOL     OW30553   4.526   3.107   6.318  0.7660 -0.1824  0.2355
 6307SOL    HW130554   4.522   3.012   6.334  2.3430 -0.4778 -1.1468
 6307SOL    HW230555   4.550   3.146   6.403 -0.3674  0.0239  0.4604
 6308SOL     OW30556   0.087   3.670  11.505  0.0219  0.5956 -0.1435
 6308SOL    HW130557   0.084   3.698  11.414 -2.8802  1.8983  0.3448
 6308SOL    HW230558   0.170   3.710  11.530 -0.2817  2.1297 -1.6092
 6309SOL     OW30559   3.264   4.060   6.861  0.7752 -0.1457  0.0041
 6309SOL    HW130560   3.349   4.101   6.878  0.2858  1.4367 -1.3409
 6309SOL    HW230561   3.286   4.035   6.771  2.4201 -1.7556  0.8488
 6310SOL     OW30562   1.047   2.425   8.752  0.1951 -0.5386  0.2840
 6310SOL    HW130563   1.074   2.371   8.827  1.0359 -1.2387 -0.5143
 6310SOL    HW230564   0.954   2.435   8.769  0.3651  1.0987  0.2892
 6311SOL     OW30565   2.222   1.686   2.479  0.3044 -0.1643 -0.4076
 6311SOL    HW130566   2.133   1.701   2.446 -0.3470 -3.9313 -0.3997
 6311SOL    HW230567   2.273   1.737   2.416 -0.5257  1.5560  0.3381
 6312SOL     OW30568   1.760   2.017   3.411 -0.4796  0.0220  0.3692
 6312SOL    HW130569   1.680   1.978   3.378  0.0555  1.9870 -3.2342
 6312SOL    HW230570   1.816   2.012   3.334  0.2795 -1.1465  0.9932
 6313SOL     OW30571   3.253   3.541   5.107 -0.2186 -0.3900  0.5534
 6313SOL    HW130572   3.245   3.470   5.044  0.5149 -0.4313  0.5060
 6313SOL    HW230573   3.348   3.556   5.103  0.0355 -2.6193 -1.1356
 6314SOL     OW30574   1.452   4.227   1.978  0.4777 -0.6861  0.1779
 6314SOL    HW130575   1.375   4.192   1.935 -1.1150 -0.7588  3.1019
 6314SOL    HW230576   1.519   4.168   1.943  1.5212  0.0458  0.9427
 6315SOL     OW30577   1.178   3.333   2.690  0.0223 -0.5362 -0.4050
 6315SOL    HW130578   1.204   3.319   2.598  0.4649  1.4241 -0.5723
 6315SOL    HW230579   1.263   3.360   2.726  1.8744 -3.7229 -2.3162
 6316SOL     OW30580   2.960   0.200  15.986  0.3175 -0.0296  0.4644
 6316SOL    HW130581   2.991   0.165  16.070 -3.2978 -1.3730  1.2386
 6316SOL    HW230582   3.043   0.191  15.940 -0.7850 -3.2016 -0.9288
 6317SOL     OW30583   0.504   2.090  13.246 -0.2071 -0.3208 -0.4927
 6317SOL    HW130584   0.444   2.016  13.254  0.4821 -0.8917 -0.6519
 6317SOL    HW230585   0.455   2.151  13.191 -0.7800  0.1496  0.5334
 6318SOL     OW30586   1.567   0.051   4.923 -0.1698  0.5149 -0.5015
 6318SOL    HW130587   1.501   0.036   4.991  2.5002 -1.1788  1.7628
 6318SOL    HW230588   1.623   4.711   4.937  1.2194  1.6589  0.1641
 6319SOL     OW30589   3.767   1.439   5.068 -0.2357 -0.6607  0.2793
 6319SOL    HW130590   3.714   1.514   5.040  0.4649 -1.5702 -3.4699
 6319SOL    HW230591   3.783   1.462   5.159  1.5948 -1.3038  0.0981
 6320SOL     OW30592   0.702   2.497   3.540  0.2432  0.5123 -0.9040
 6320SOL    HW130593   0.768   2.433   3.565  0.6640  1.7713  1.1758
 6320SOL    HW230594   0.681   2.472   3.450  0.6460 -0.8218 -0.6333
 6321SOL     OW30595   0.617   1.976   2.189  0.1097 -0.1002 -0.2868
 6321SOL    HW130596   0.536   1.933   2.161 -0.3271  0.5578 -0.0489
 6321SOL    HW230597   0.680   1.940   2.126 -0.2779 -1.7930  0.2777
 6322SOL     OW30598   3.736   2.374   2.771 -0.5117  0.1609  0.4036
 6322SOL    HW130599   3.708   2.427   2.696 -2.0057  1.3502  1.7827
 6322SOL    HW230600   3.787   2.435   2.824 -1.5301  2.0597 -0.8100
 6323SOL     OW30601   3.488   0.137  14.495  0.5097  0.1717  0.0934
 6323SOL    HW130602   3.573   0.156  14.455  0.7236  1.6552  1.2553
 6323SOL    HW230603   3.520   0.055  14.533  1.4541  0.0136 -1.0503
 6324SOL     OW30604   2.220   0.275   6.736  0.2520  0.2142  0.2038
 6324SOL    HW130605   2.214   0.208   6.804  1.3408  1.2892  1.3376
 6324SOL    HW230606   2.133   0.313   6.747  0.8836  1.4847  0.7852
 6325SOL     OW30607   4.680   0.312   8.549 -0.0284  0.2204 -0.1445
 6325SOL    HW130608   4.613   0.354   8.495 -0.0652 -0.4397 -0.6153
 6325SOL    HW230609   4.683   0.222   8.516  0.2178  0.6031 -1.1629
 6326SOL     OW30610   1.796   3.704   8.178 -0.1851  0.4470  0.2070
 6326SOL    HW130611   1.873   3.750   8.145 -0.2969  0.9343  0.6319
 6326SOL    HW230612   1.762   3.663   8.099  1.3608  1.4646 -0.9897
 6327SOL     OW30613   4.123   3.526  16.433  0.4412  0.1548 -0.0711
 6327SOL    HW130614   4.158   3.442  16.461 -1.9466 -0.3285  1.5039
 6327SOL    HW230615   4.122   3.572  16.517  2.3471  1.6912 -0.8988
 6328SOL     OW30616   2.981   3.638   0.797  0.0863 -0.3258  0.3586
 6328SOL    HW130617   3.003   3.614   0.887 -1.5675  2.6095  1.5594
 6328SOL    HW230618   2.978   3.549   0.763 -0.6386 -0.0344 -0.3485
 6329SOL     OW30619   1.517   0.881   7.322  0.4850  0.0347  0.7886
 6329SOL    HW130620   1.509   0.962   7.372  1.5979 -0.3055  1.5377
 6329SOL    HW230621   1.490   0.903   7.233  0.8035 -2.4557  0.0643
 6330SOL     OW30622   4.436   1.055  12.085  0.0421  0.6458 -0.4164
 6330SOL    HW130623   4.521   1.092  12.112 -0.2348 -0.0236  1.3601
 6330SOL    HW230624   4.453   0.966  12.114  0.5840  0.3301 -1.7089
 6331SOL     OW30625   2.034   4.555  10.625 -0.3317 -0.6545  0.3205
 6331SOL    HW130626   2.074   4.523  10.544  0.4040  1.3581 -0.0985
 6331SOL    HW230627   1.960   4.498  10.645  0.3462 -2.1536 -1.4341
 6332SOL     OW30628   3.698   1.727   4.192 -0.3005 -0.2676  0.4530
 6332SOL    HW130629   3.728   1.664   4.258  0.8918  0.8995  1.0206
 6332SOL    HW230630   3.614   1.690   4.164  0.0732 -0.5305 -0.3183
 6333SOL     OW30631   3.303   1.911   1.162 -0.1309  0.0791  0.6083
 6333SOL    HW130632   3.235   1.848   1.186 -0.2777  0.5752  1.4984
 6333SOL    HW230633   3.362   1.913   1.238 -0.4671 -1.8876  0.9244
 6334SOL     OW30634   1.612   3.901   8.100 -0.7925 -0.0310 -0.1825
 6334SOL    HW130635   1.632   3.830   8.160  1.4212  1.7154  1.1506
 6334SOL    HW230636   1.516   3.904   8.103 -0.8705 -1.5919 -1.2252
 6335SOL     OW30637   1.767   4.069  11.491 -0.1988  0.6281  0.7968
 6335SOL    HW130638   1.800   4.148  11.450  0.9091  1.0974  2.5855
 6335SOL    HW230639   1.751   4.023  11.409  0.5281  0.6996  0.6131
 6336SOL     OW30640   2.616   4.167   3.091  0.0041  0.4033 -0.3889
 6336SOL    HW130641   2.625   4.167   2.995  1.2266 -0.1889 -0.2790
 6336SOL    HW230642   2.571   4.250   3.104  0.4309  0.4836  0.5506
 6337SOL     OW30643   2.783   3.436  17.513 -0.0321  0.5707 -0.0592
 6337SOL    HW130644   2.850   3.370  17.530  0.6390  0.9904 -1.1108
 6337SOL    HW230645   2.778   3.493  17.590  0.7268  0.4469  0.0844
 6338SOL     OW30646   2.292   1.021   7.939  0.0378  1.0650  0.0220
 6338SOL    HW130647   2.293   1.033   7.844 -1.0002 -0.1284 -0.1383
 6338SOL    HW230648   2.386   1.018   7.954 -0.0454 -0.0751  0.3314
 6339SOL     OW30649   2.863   0.237  15.407  0.3064  0.2257 -0.1080
 6339SOL    HW130650   2.830   0.201  15.325 -1.2706 -1.9623  1.5101
 6339SOL    HW230651   2.787   0.284  15.441  1.3329 -0.8071  3.6071
 6340SOL     OW30652   2.383   1.459   5.322 -0.5757  0.5029  0.2616
 6340SOL    HW130653   2.319   1.501   5.264 -2.6662 -2.2503  0.5904
 6340SOL    HW230654   2.410   1.536   5.372  1.6144 -0.1584  0.0866
 6341SOL     OW30655   1.542   3.723   8.848 -0.6919 -0.1683 -0.8463
 6341SOL    HW130656   1.631   3.736   8.814 -0.0236  0.6817  1.2059
 6341SOL    HW230657   1.498   3.764   8.774  2.6031  0.3679 -2.5404
 6342SOL     OW30658   0.412   2.154   8.395  0.6564  0.4092 -0.2496
 6342SOL    HW130659   0.351   2.222   8.426  1.3572  0.1197  1.7834
 6342SOL    HW230660   0.451   2.205   8.324  1.8726 -0.7371 -0.4032
 6343SOL     OW30661   1.806   1.953   9.396 -0.0748 -0.5630  0.2730
 6343SOL    HW130662   1.718   1.915   9.389  1.2188 -3.5088 -0.2254
 6343SOL    HW230663   1.859   1.873   9.399 -1.8749 -1.7114  2.0797
 6344SOL     OW30664   4.356   2.796  15.474 -0.6716 -0.1115 -0.2250
 6344SOL    HW130665   4.336   2.887  15.452 -0.2214  0.3194  1.1845
 6344SOL    HW230666   4.425   2.799  15.539 -0.1941  0.3682 -0.7557
 6345SOL     OW30667   0.894   1.238   9.843  0.2654 -0.2001 -0.1437
 6345SOL    HW130668   0.978   1.198   9.865  0.3710  0.2190  0.2150
 6345SOL    HW230669   0.903   1.322   9.888 -1.2021  0.6046 -1.3719
 6346SOL     OW30670   2.645   2.285   8.101 -0.2598 -0.6682  0.1932
 6346SOL    HW130671   2.666   2.193   8.087  2.2428 -0.2530  1.2451
 6346SOL    HW230672   2.607   2.309   8.016  0.6549  1.4899  0.3967
 6347SOL     OW30673   3.381   3.028  16.834  0.2541 -0.5268  0.2684
 6347SOL    HW130674   3.324   3.097  16.868  1.8457  1.1913 -0.5277
 6347SOL    HW230675   3.444   3.068  16.774  1.1420 -2.1583  0.1209
 6348SOL     OW30676   2.864   1.814   1.437  0.3922 -0.0108  0.1774
 6348SOL    HW130677   2.907   1.731   1.416  0.1486 -0.1177  0.1076
 6348SOL    HW230678   2.866   1.858   1.352 -2.1100  1.7043  1.0247
 6349SOL     OW30679   2.309   1.524  15.310  0.3518 -0.4021  0.0753
 6349SOL    HW130680   2.320   1.538  15.404  2.3569  3.6187 -0.7457
 6349SOL    HW230681   2.237   1.587  15.299  0.7059 -0.1779 -0.9444
 6350SOL     OW30682   3.706   0.768   8.771  0.1942 -0.0785  0.0825
 6350SOL    HW130683   3.782   0.777   8.828 -0.6799  0.6460  1.1427
 6350SOL    HW230684   3.726   0.689   8.721  0.0478 -1.3627  2.0536
 6351SOL     OW30685   3.511   2.271   9.403 -0.0490  0.0528 -0.1050
 6351SOL    HW130686   3.555   2.312   9.478 -0.3316  2.2749 -1.1427
 6351SOL    HW230687   3.422   2.305   9.407  0.4380  1.3708 -0.1292
 6352SOL     OW30688   3.295   3.401   7.674  0.2591  0.3843 -0.2580
 6352SOL    HW130689   3.341   3.453   7.739 -0.5590  0.6216  0.1213
 6352SOL    HW230690   3.367   3.343   7.648  0.2752  0.1392  0.3215
 6353SOL     OW30691   2.035   1.036   3.528 -0.3919  0.1337 -0.4063
 6353SOL    HW130692   2.080   0.952   3.538 -0.3955  0.1922  0.1002
 6353SOL    HW230693   2.104   1.093   3.495 -1.2712  0.2658 -2.0500
 6354SOL     OW30694   0.488   1.220   8.429 -0.5446 -0.0466  0.2764
 6354SOL    HW130695   0.557   1.226   8.496 -0.2011 -0.8574 -0.0007
 6354SOL    HW230696   0.415   1.225   8.491  0.2421  0.0352  1.2126
 6355SOL     OW30697   2.202   0.244  12.420 -1.1380 -1.0057 -0.2190
 6355SOL    HW130698   2.140   0.264  12.491  0.9426 -0.5374  1.4624
 6355SOL    HW230699   2.281   0.291  12.446 -1.0148 -1.6149  0.5047
 6356SOL     OW30700   2.575   0.096  14.772  0.4091  0.2758 -0.3445
 6356SOL    HW130701   2.663   0.064  14.753  0.6897 -0.2344  1.8055
 6356SOL    HW230702   2.545   0.025  14.828  0.4466 -0.7993 -1.6904
 6357SOL     OW30703   1.641   1.708  10.911 -0.8759 -0.0191 -0.0371
 6357SOL    HW130704   1.635   1.804  10.913  1.1447  0.0697  1.1133
 6357SOL    HW230705   1.594   1.687  10.992  1.1415 -0.6605  0.9524
 6358SOL     OW30706   4.592   3.594   2.826  0.2879  0.4638  0.0505
 6358SOL    HW130707   4.620   3.507   2.795  1.1790  1.1918 -1.2098
 6358SOL    HW230708   4.657   3.597   2.897  1.7742 -0.9319 -1.2289
 6359SOL     OW30709   1.785   3.294   9.944 -0.0303  0.2575  0.8825
 6359SOL    HW130710   1.748   3.224   9.891  0.5672 -0.6866  1.7089
 6359SOL    HW230711   1.777   3.255  10.031  1.4071  1.3757  1.5176
 6360SOL     OW30712   2.941   3.104   7.693 -0.2307 -0.3932  0.3529
 6360SOL    HW130713   2.879   3.164   7.735  1.0303  0.2482  1.3083
 6360SOL    HW230714   2.882   3.080   7.622 -0.6043 -1.4413  1.0186
 6361SOL     OW30715   0.527   2.771   4.120  0.5822 -0.0672  0.1235
 6361SOL    HW130716   0.547   2.812   4.204  2.5280 -3.1128  1.1451
 6361SOL    HW230717   0.548   2.845   4.064 -0.3995  1.2975  1.5440
 6362SOL     OW30718   2.057   2.517  12.822 -0.2014 -0.3905 -0.0927
 6362SOL    HW130719   2.023   2.584  12.763  1.8507  1.3605  0.7261
 6362SOL    HW230720   2.143   2.494  12.787 -0.7188 -2.8978  0.2383
 6363SOL     OW30721   2.815   0.754   6.512  0.2199  0.7004 -0.3405
 6363SOL    HW130722   2.890   0.812   6.528  0.3508  1.0099 -2.1053
 6363SOL    HW230723   2.788   0.730   6.601  2.2343  1.0335  0.3713
 6364SOL     OW30724   2.196   1.196   1.788  0.6487  0.1992  0.0628
 6364SOL    HW130725   2.143   1.183   1.709  0.7515 -2.5801  0.4417
 6364SOL    HW230726   2.124   1.177   1.849  1.8396 -0.8862  1.1239
 6365SOL     OW30727   3.732   2.730   7.649 -0.2815 -0.0252 -0.4421
 6365SOL    HW130728   3.735   2.718   7.554 -2.3460  1.5314 -0.7200
 6365SOL    HW230729   3.700   2.648   7.685 -0.4321  1.1168  1.9825
 6366SOL     OW30730   4.388   2.034   7.754  0.2925 -0.3362  0.2848
 6366SOL    HW130731   4.482   2.049   7.756  0.2447  0.1691 -1.0838
 6366SOL    HW230732   4.365   2.017   7.845 -1.2577 -1.0990 -0.2359
 6367SOL     OW30733   3.608   3.351   5.767  0.1657  0.2958 -0.7288
 6367SOL    HW130734   3.653   3.432   5.747  0.9236 -0.0968 -0.6256
 6367SOL    HW230735   3.638   3.342   5.858 -2.0088  1.2924  0.0825
 6368SOL     OW30736   1.255   3.278   2.966  0.0461  0.1799  0.1450
 6368SOL    HW130737   1.241   3.311   3.055  1.1971  0.0560  0.3793
 6368SOL    HW230738   1.321   3.342   2.937 -0.3414  1.2517  1.6183
 6369SOL     OW30739   4.364   2.957  12.811 -0.0177  0.3104  0.3593
 6369SOL    HW130740   4.369   2.862  12.802 -0.6615  0.2664  0.4607
 6369SOL    HW230741   4.391   2.973  12.720 -4.2314  2.4032 -0.5672
 6370SOL     OW30742   0.835   3.682   8.135 -0.1665 -0.0288 -0.4529
 6370SOL    HW130743   0.839   3.589   8.157 -1.0289  0.9767  4.0331
 6370SOL    HW230744   0.742   3.699   8.124 -0.0882  1.5170  1.3416
 6371SOL     OW30745   4.688   2.711  14.058 -0.2062  0.1089  0.2599
 6371SOL    HW130746   4.731   2.628  14.039 -0.2354 -0.1599  1.3649
 6371SOL    HW230747   0.021   2.775  14.039  0.0883 -0.4455 -0.5253
 6372SOL     OW30748   1.155   0.435   8.163  0.0928 -0.0537 -0.2372
 6372SOL    HW130749   1.138   0.362   8.223 -0.7508 -1.5932 -2.3766
 6372SOL    HW230750   1.191   0.496   8.228  0.5563  1.3063 -1.7707
 6373SOL     OW30751   4.261   4.228   5.552 -0.7682  0.1195 -0.1936
 6373SOL    HW130752   4.167   4.223   5.568 -0.3053 -1.4834  1.9804
 6373SOL    HW230753   4.280   4.135   5.561  0.5950  0.2439 -1.6806
 6374SOL     OW30754   1.559   2.894   2.323  0.7161  0.1479  0.3029
 6374SOL    HW130755   1.491   2.944   2.279  1.4722  0.0337 -1.0059
 6374SOL    HW230756   1.636   2.947   2.303  0.5438 -0.4622 -1.9878
 6375SOL     OW30757   0.461   2.288   5.369 -0.8250 -0.3396 -0.0298
 6375SOL    HW130758   0.365   2.291   5.368 -0.7924  0.7637 -0.0303
 6375SOL    HW230759   0.491   2.299   5.459  1.1888  1.4749 -0.9181
 6376SOL     OW30760   2.807   4.664   6.254 -0.0668  0.2139 -0.3179
 6376SOL    HW130761   2.750   4.638   6.182 -1.7687  0.7809  0.8238
 6376SOL    HW230762   2.782   0.020   6.259  0.2715  0.2716  0.3343
 6377SOL     OW30763   1.062   2.569   5.533 -0.4345 -0.1217  0.5709
 6377SOL    HW130764   1.097   2.518   5.606 -0.4547 -0.1099  0.5891
 6377SOL    HW230765   0.991   2.511   5.506 -0.3717  0.0200  0.1020
 6378SOL     OW30766   2.747   3.096   2.181  0.0745  0.2919 -0.0177
 6378SOL    HW130767   2.715   3.173   2.134  0.9878  1.1145  0.7186
 6378SOL    HW230768   2.690   3.033   2.137  1.4512 -1.7693  1.1662
 6379SOL     OW30769   1.046   1.195   9.297 -0.6377  0.0512  0.4499
 6379SOL    HW130770   1.087   1.247   9.366 -1.2567 -0.1541  0.9690
 6379SOL    HW230771   1.090   1.110   9.302 -2.7354 -1.0455  0.2663
 6380SOL     OW30772   1.012   4.108   5.700 -0.2024 -0.2774 -0.3617
 6380SOL    HW130773   0.982   4.018   5.717  1.5080 -0.6183  0.7910
 6380SOL    HW230774   1.029   4.127   5.792  0.5960  0.3479 -0.6447
 6381SOL     OW30775   0.685   2.812   1.481  0.1725 -0.1849  0.6283
 6381SOL    HW130776   0.621   2.882   1.486  1.0549  0.6372  0.2663
 6381SOL    HW230777   0.710   2.801   1.573  1.6064 -0.3183  0.2310
 6382SOL     OW30778   4.355   4.538  16.219  0.1673 -0.4242 -0.4409
 6382SOL    HW130779   4.271   4.526  16.263  0.7280  0.6740  0.9468
 6382SOL    HW230780   4.416   4.515  16.289  0.1176  0.4170 -0.1224
 6383SOL     OW30781   1.009   1.720  16.751  0.3705 -0.5430 -0.9332
 6383SOL    HW130782   0.996   1.632  16.716  2.6189 -0.7276 -1.2811
 6383SOL    HW230783   0.922   1.737  16.789  0.9619 -2.2549  1.1272
 6384SOL     OW30784   0.930   4.335   6.531 -0.4575 -0.1626 -0.6806
 6384SOL    HW130785   1.002   4.309   6.473 -0.6802  2.1073 -1.9844
 6384SOL    HW230786   0.902   4.249   6.563 -1.3722  1.7580  3.5979
 6385SOL     OW30787   0.593   2.847  12.446  0.2717 -0.8379  0.3983
 6385SOL    HW130788   0.669   2.857  12.388  1.1009 -1.1272  1.4415
 6385SOL    HW230789   0.613   2.929  12.493 -1.1095  0.8403 -1.9477
 6386SOL     OW30790   4.125   3.075   0.281  0.0711  0.1704 -0.4708
 6386SOL    HW130791   4.106   3.122   0.199 -1.8607 -1.3481 -0.8849
 6386SOL    HW230792   4.120   2.984   0.253 -0.1353 -0.3134  1.1367
 6387SOL     OW30793   1.447   2.142   2.595  0.2946 -0.1495  0.1792
 6387SOL    HW130794   1.372   2.201   2.596  0.4114 -0.0125  1.5078
 6387SOL    HW230795   1.481   2.154   2.684  0.0686 -2.4554  0.5800
 6388SOL     OW30796   2.816   4.077   8.104 -0.2447 -0.0839  0.0955
 6388SOL    HW130797   2.880   4.063   8.033 -2.2757 -2.3833 -1.2937
 6388SOL    HW230798   2.819   3.996   8.155 -0.2290 -0.6949 -0.8665
 6389SOL     OW30799   4.232   2.292   3.232 -0.0260 -1.0849 -0.2324
 6389SOL    HW130800   4.246   2.224   3.298 -0.7491 -1.3320 -0.3352
 6389SOL    HW230801   4.263   2.375   3.268 -2.8055 -0.0705 -0.2193
 6390SOL     OW30802   2.034   2.676   6.540  0.3918 -0.5102  0.6012
 6390SOL    HW130803   2.061   2.686   6.631 -1.2808 -0.1432  1.0753
 6390SOL    HW230804   2.097   2.611   6.511  1.0010  0.7614 -0.9015
 6391SOL     OW30805   3.614   1.184   0.185  0.0814 -0.9479  0.4691
 6391SOL    HW130806   3.537   1.139   0.219 -2.3471  1.0859 -2.4030
 6391SOL    HW230807   3.621   1.137   0.102 -0.6266 -1.0345  0.4623
 6392SOL     OW30808   1.168   3.266   1.141 -0.5764  0.4288 -0.9281
 6392SOL    HW130809   1.125   3.182   1.157 -1.4709  1.1470  0.4326
 6392SOL    HW230810   1.160   3.255   1.046  1.7551  0.7046 -1.1567
 6393SOL     OW30811   0.988   1.957   4.021 -0.3644  0.2458  0.4180
 6393SOL    HW130812   0.962   2.003   4.100 -0.8900 -0.0153  0.4028
 6393SOL    HW230813   1.078   1.931   4.039  0.2224  2.3320  0.4229
 6394SOL     OW30814   3.980   3.826   7.304  0.2704 -0.1443 -0.7163
 6394SOL    HW130815   3.973   3.871   7.220  1.2290  1.6066  0.1416
 6394SOL    HW230816   4.072   3.844   7.322  0.0752  0.3002 -0.1346
 6395SOL     OW30817   4.589   4.050   5.667  0.1256 -0.1743  0.0766
 6395SOL    HW130818   4.645   4.103   5.610 -2.1743  2.3410  0.1231
 6395SOL    HW230819   4.646   4.032   5.741 -0.0761 -0.9829  0.0385
 6396SOL     OW30820   0.220   3.961   0.992 -0.4510 -0.0018  0.4394
 6396SOL    HW130821   0.151   3.895   0.999  0.7348 -1.0772  1.7559
 6396SOL    HW230822   0.288   3.900   1.018  0.1237  1.5795  2.6495
 6397SOL     OW30823   1.078   4.326   9.540 -0.9964 -0.2909 -0.2368
 6397SOL    HW130824   1.172   4.345   9.547 -1.0681 -0.3010  0.8481
 6397SOL    HW230825   1.066   4.317   9.446  0.9453  0.5273 -0.5735
 6398SOL     OW30826   1.123   2.847  15.227 -0.4155  0.9541 -0.1893
 6398SOL    HW130827   1.149   2.771  15.176 -1.1880  0.5266  0.0492
 6398SOL    HW230828   1.205   2.895  15.230 -0.7975  1.6070 -0.1871
 6399SOL     OW30829   3.364   3.481  15.165  0.2901 -0.0332 -0.2928
 6399SOL    HW130830   3.431   3.443  15.108 -0.4509 -0.7555 -0.6841
 6399SOL    HW230831   3.325   3.547  15.108 -1.0774 -1.4586 -1.0410
 6400SOL     OW30832   3.345   4.236   0.867  0.1354 -0.0594  0.7305
 6400SOL    HW130833   3.302   4.183   0.801  1.8780 -2.0568  1.2076
 6400SOL    HW230834   3.434   4.243   0.833 -0.3084 -0.8173 -0.5953
 6401SOL     OW30835   1.200   3.581   8.523  0.1186  0.1191 -0.1074
 6401SOL    HW130836   1.269   3.613   8.464  0.0404  0.6880  0.1172
 6401SOL    HW230837   1.170   3.665   8.557  0.7879 -0.0494  0.8912
 6402SOL     OW30838   1.586   0.509  14.968  0.0983  0.6005 -0.2470
 6402SOL    HW130839   1.643   0.433  14.981  0.0044  0.7750  1.2420
 6402SOL    HW230840   1.547   0.507  15.055  0.2943 -1.0284 -0.2014
 6403SOL     OW30841   1.651   3.199  12.271 -0.3008 -0.1856  0.0791
 6403SOL    HW130842   1.659   3.250  12.352  0.1889 -0.4802  0.2152
 6403SOL    HW230843   1.720   3.237  12.216 -0.8796 -2.7732 -2.4119
 6404SOL     OW30844   3.850   3.029   4.917 -0.4044 -0.0057 -0.2870
 6404SOL    HW130845   3.773   3.066   4.874  0.3771 -0.1719 -1.8152
 6404SOL    HW230846   3.918   3.095   4.904 -0.2388  0.0386  0.8445
 6405SOL     OW30847   0.596   3.381   3.448  0.0848  0.2604 -0.2876
 6405SOL    HW130848   0.518   3.416   3.492  1.3528 -0.5063  2.5894
 6405SOL    HW230849   0.554   3.310   3.399  0.2657 -0.0086 -0.0541
 6406SOL     OW30850   3.648   4.165   6.547  0.0535  0.2278 -0.1255
 6406SOL    HW130851   3.711   4.152   6.476  0.1914  2.3492 -0.4009
 6406SOL    HW230852   3.574   4.123   6.502  0.2824  0.0655 -0.3497
 6407SOL     OW30853   0.913   3.345   5.919 -0.3390  0.0558  0.8155
 6407SOL    HW130854   0.875   3.310   6.000 -0.7166 -3.1336 -0.7526
 6407SOL    HW230855   0.840   3.335   5.858  0.6138  0.0648 -0.3168
 6408SOL     OW30856   2.525   1.226   2.569  0.8617  0.4729 -0.2084
 6408SOL    HW130857   2.486   1.145   2.603 -0.5220  1.5083  0.7017
 6408SOL    HW230858   2.444   1.277   2.564  1.0933  0.9389  0.7169
 6409SOL     OW30859   3.933   0.729   8.911 -0.0715  0.0509  0.0744
 6409SOL    HW130860   4.014   0.723   8.962 -1.9892 -0.8173  3.0133
 6409SOL    HW230861   3.958   0.773   8.830  1.1837  1.2272  1.1056
 6410SOL     OW30862   3.688   4.347  10.254  0.2007 -0.0149  0.0001
 6410SOL    HW130863   3.683   4.404  10.331  2.0323  0.9448 -0.5838
 6410SOL    HW230864   3.605   4.372  10.213  0.4004  0.7349  0.0439
 6411SOL     OW30865   2.350   1.832  13.306  0.4515  0.4154 -0.3355
 6411SOL    HW130866   2.439   1.815  13.276  0.5494  0.1425  0.1155
 6411SOL    HW230867   2.371   1.898  13.372  1.0555 -0.6835  0.5593
 6412SOL     OW30868   1.117   1.873  16.542 -0.1845 -0.2175 -0.2682
 6412SOL    HW130869   1.145   1.792  16.583  1.4601  0.7788  0.5391
 6412SOL    HW230870   1.167   1.871  16.460 -0.5445 -0.6078 -0.4806
 6413SOL     OW30871   3.820   1.490   7.276  0.1632 -0.2508  0.0535
 6413SOL    HW130872   3.874   1.569   7.273  2.7097 -2.0004 -0.6112
 6413SOL    HW230873   3.853   1.445   7.354 -2.1484 -1.3685  0.3756
 6414SOL     OW30874   4.385   3.784   2.345  0.6822 -0.0212 -0.1424
 6414SOL    HW130875   4.289   3.788   2.347  0.8321  3.1766  1.5300
 6414SOL    HW230876   4.413   3.828   2.425 -0.1810  0.3265 -0.0279
 6415SOL     OW30877   3.413   1.525   5.314  0.1036  0.0661  0.6009
 6415SOL    HW130878   3.350   1.483   5.255  0.1655  0.4801  0.2435
 6415SOL    HW230879   3.413   1.618   5.293 -0.0691 -0.1984 -0.5678
 6416SOL     OW30880   1.878   2.038   5.492 -0.7182 -0.6556  0.3028
 6416SOL    HW130881   1.835   2.090   5.424 -1.3774  0.3988  1.5517
 6416SOL    HW230882   1.805   2.010   5.547  0.8720 -1.1744  2.1439
 6417SOL     OW30883   0.333   2.513  15.269 -0.1559 -0.3415 -0.2637
 6417SOL    HW130884   0.319   2.591  15.216  0.8911 -0.2944 -0.4677
 6417SOL    HW230885   0.426   2.528  15.283 -0.2053  0.0354 -0.3504
 6418SOL     OW30886   2.358   3.330   7.906 -0.5981 -0.1339  0.1990
 6418SOL    HW130887   2.336   3.416   7.869  0.1889 -0.0213 -0.0121
 6418SOL    HW230888   2.388   3.280   7.830 -1.3333 -1.7855  1.0087
 6419SOL     OW30889   1.853   1.093  10.405  0.3217  0.2455 -0.1072
 6419SOL    HW130890   1.775   1.089  10.462  0.9311 -1.3115  0.6138
 6419SOL    HW230891   1.926   1.074  10.463  0.8294  0.2903 -0.7406
 6420SOL     OW30892   0.546   0.766  11.617  0.1119  0.4890 -0.2877
 6420SOL    HW130893   0.518   0.719  11.696  0.9956 -1.0847 -0.9105
 6420SOL    HW230894   0.641   0.756  11.620  0.0852  0.1518 -0.5800
 6421SOL     OW30895   3.418   3.000   4.500 -0.2510 -0.3495  0.0790
 6421SOL    HW130896   3.450   3.060   4.433 -1.7790  0.6627  0.2497
 6421SOL    HW230897   3.501   2.967   4.533  1.0053  0.2321 -2.5391
 6422SOL     OW30898   1.619   1.816   7.570 -0.3283  0.1791  0.6542
 6422SOL    HW130899   1.687   1.769   7.521 -0.9743 -1.6925  1.5591
 6422SOL    HW230900   1.592   1.747   7.630 -1.5043 -1.3560 -1.6544
 6423SOL     OW30901   0.903   0.428   3.193  0.4423 -0.4558 -0.5028
 6423SOL    HW130902   0.906   0.392   3.281 -0.0949 -1.5811 -0.9453
 6423SOL    HW230903   0.817   0.472   3.192 -0.4857 -2.2903 -0.8042
 6424SOL     OW30904   0.110   2.333   0.660  0.3296 -0.1249 -0.3974
 6424SOL    HW130905   0.176   2.293   0.603  0.6618  1.3581 -1.0645
 6424SOL    HW230906   0.147   2.415   0.694  0.2181 -1.0374  1.8884
 6425SOL     OW30907   2.750   2.586   6.340 -0.2158  0.0501 -0.0350
 6425SOL    HW130908   2.777   2.530   6.267  0.8860 -0.3690  0.6998
 6425SOL    HW230909   2.811   2.565   6.410  1.5540  1.0984 -1.2791
 6426SOL     OW30910   0.250   0.628   2.209  0.2208 -0.1256  0.3445
 6426SOL    HW130911   0.164   0.590   2.227  0.1492 -0.2945 -0.3630
 6426SOL    HW230912   0.255   0.695   2.277  1.5607  0.7452 -0.6049
 6427SOL     OW30913   3.084   2.947   8.518 -0.4270 -0.7183 -0.4769
 6427SOL    HW130914   3.024   2.962   8.591 -0.5927 -0.0649 -0.7389
 6427SOL    HW230915   3.161   2.921   8.567  0.1340 -1.4266 -1.7363
 6428SOL     OW30916   0.343   0.533   4.903  0.1477 -0.2869  0.4034
 6428SOL    HW130917   0.281   0.582   4.849 -0.5879 -1.4721  0.1890
 6428SOL    HW230918   0.425   0.523   4.854 -0.1409 -0.5989 -0.0176
 6429SOL     OW30919   4.073   0.676   2.996  0.6890 -0.0593  0.2085
 6429SOL    HW130920   4.109   0.664   2.909 -0.3100 -4.4121  0.3910
 6429SOL    HW230921   4.039   0.765   2.992 -4.2488 -2.0064 -2.0955
 6430SOL     OW30922   3.656   3.834   5.480  0.0518 -0.0616  0.1038
 6430SOL    HW130923   3.598   3.827   5.556  0.7120 -0.4355  0.5661
 6430SOL    HW230924   3.728   3.886   5.514 -0.1866 -0.6300  1.4489
 6431SOL     OW30925   0.561   0.087   8.083 -0.1230 -0.6317  0.5079
 6431SOL    HW130926   0.593   0.048   8.002 -0.6050  0.0359 -0.0051
 6431SOL    HW230927   0.636   0.072   8.140  0.6504  1.0306 -0.0677
 6432SOL     OW30928   2.472   0.875  16.822  0.1172  0.3626 -0.5506
 6432SOL    HW130929   2.426   0.856  16.740 -0.5734 -2.0570  0.4259
 6432SOL    HW230930   2.561   0.879  16.787  0.9885 -1.6649  1.4557
 6433SOL     OW30931   1.781   1.571  15.942 -0.1712 -0.1931 -0.3179
 6433SOL    HW130932   1.796   1.481  15.971  0.0143 -0.0129  0.1518
 6433SOL    HW230933   1.828   1.577  15.860 -0.3593 -0.4624 -0.4440
 6434SOL     OW30934   0.827   0.429   4.686  0.0916  0.4164 -0.4989
 6434SOL    HW130935   0.848   0.424   4.593 -0.4185  0.5257 -0.6201
 6434SOL    HW230936   0.896   0.484   4.723 -2.8170  2.0945  2.3809
 6435SOL     OW30937   1.971   1.393  13.684  0.2432 -0.1599 -0.4720
 6435SOL    HW130938   1.999   1.321  13.628 -0.8660 -1.1246  0.2163
 6435SOL    HW230939   1.925   1.342  13.750  1.5153 -0.5959  0.0919
 6436SOL     OW30940   4.390   0.406   3.196 -0.4060 -0.0420  0.4536
 6436SOL    HW130941   4.401   0.394   3.102  1.1122  0.3699  0.5777
 6436SOL    HW230942   4.327   0.335   3.209 -0.3941 -0.2472 -0.6603
 6437SOL     OW30943   1.672   2.581  12.127 -0.0539  0.0467  0.2103
 6437SOL    HW130944   1.764   2.582  12.102 -0.6825  1.5723 -1.9843
 6437SOL    HW230945   1.655   2.488  12.144 -0.7786 -0.1373 -1.5505
 6438SOL     OW30946   1.304   4.009  17.589 -0.1040 -0.2386 -0.7009
 6438SOL    HW130947   1.264   4.006  17.502 -3.9004  0.3360  1.0034
 6438SOL    HW230948   1.226   4.033  17.639  0.5892  0.9644 -0.2009
 6439SOL     OW30949   2.939   2.253   5.294 -0.1935 -0.5266 -0.1775
 6439SOL    HW130950   2.852   2.268   5.257  0.9697  0.1618 -2.6069
 6439SOL    HW230951   2.968   2.164   5.276 -0.0024 -0.8214  1.5826
 6440SOL     OW30952   4.461   2.841  11.969 -0.3789 -0.2066  0.1659
 6440SOL    HW130953   4.527   2.907  11.948  0.3480 -1.0229 -0.1001
 6440SOL    HW230954   4.393   2.864  11.905 -1.5180 -2.0264  0.7088
 6441SOL     OW30955   1.732   0.155   7.459  0.1619 -0.0491 -0.0430
 6441SOL    HW130956   1.769   0.241   7.480  0.8085  0.3625 -2.9290
 6441SOL    HW230957   1.647   0.189   7.429  0.0496 -1.2062 -1.0382
 6442SOL     OW30958   0.796   2.083  15.918  0.2540 -0.1311  0.1160
 6442SOL    HW130959   0.844   2.166  15.922 -1.9696  1.2179 -1.5037
 6442SOL    HW230960   0.736   2.092  15.845 -0.2394 -0.5964  0.4637
 6443SOL     OW30961   4.735   0.240   2.748  0.4981 -0.0746  0.4230
 6443SOL    HW130962   4.652   0.288   2.747  1.2830  1.2332 -1.3836
 6443SOL    HW230963   0.066   0.307   2.733  2.2963 -2.9036 -4.3863
 6444SOL     OW30964   1.525   0.349   6.209  0.7211  0.3379 -0.6728
 6444SOL    HW130965   1.487   0.333   6.295  0.1827  1.4634 -0.7042
 6444SOL    HW230966   1.616   0.322   6.220  0.0058 -1.3438  1.0931
 6445SOL     OW30967   2.851   2.817   7.198 -0.3934  0.3040 -0.6056
 6445SOL    HW130968   2.774   2.811   7.255 -0.4718 -0.9939 -0.8564
 6445SOL    HW230969   2.880   2.725   7.200  1.2536  0.8205 -0.8194
 6446SOL     OW30970   1.026   0.012  13.539 -0.5343 -0.3571  0.4014
 6446SOL    HW130971   1.103   4.725  13.486 -1.0351 -0.7130 -0.1690
 6446SOL    HW230972   0.981   4.665  13.555 -0.3676  0.0272  2.8508
 6447SOL     OW30973   1.898   1.451   2.842  0.5789  0.2152  0.5220
 6447SOL    HW130974   1.929   1.513   2.776 -0.1018 -0.3619 -0.3473
 6447SOL    HW230975   1.917   1.493   2.926 -1.8106  2.1044  0.1398
 6448SOL     OW30976   1.701   4.159  12.262  0.2480  0.0331  1.0435
 6448SOL    HW130977   1.647   4.140  12.186 -1.2504 -0.9111  2.3418
 6448SOL    HW230978   1.782   4.196  12.227  0.9070 -2.4836 -0.0869
 6449SOL     OW30979   3.786   1.110   7.917  0.5668  0.2181  0.0003
 6449SOL    HW130980   3.712   1.073   7.869  1.6315 -3.0872  0.8749
 6449SOL    HW230981   3.739   1.129   7.999  0.0634 -0.9247 -0.0237
 6450SOL     OW30982   0.950   3.242   2.352 -0.5928 -0.4132  0.0506
 6450SOL    HW130983   0.993   3.250   2.267  0.5327  0.0861  0.6765
 6450SOL    HW230984   1.008   3.180   2.397  0.4756  1.4175  1.1619
 6451SOL     OW30985   2.021   3.935   2.474  0.1635 -0.4138 -0.0442
 6451SOL    HW130986   2.029   3.887   2.391 -1.8554 -0.3769 -0.2676
 6451SOL    HW230987   1.925   3.939   2.482  0.2203  0.9699 -0.1173
 6452SOL     OW30988   3.886   3.572   3.571  0.2861 -0.5642 -0.3581
 6452SOL    HW130989   3.835   3.637   3.620  1.0028 -0.1234 -0.2027
 6452SOL    HW230990   3.856   3.486   3.601 -0.2721 -0.4292 -0.5293
 6453SOL     OW30991   4.712   2.539   7.875 -0.5855 -0.3241  0.0846
 6453SOL    HW130992   4.689   2.447   7.867 -3.8081  0.5058 -0.2248
 6453SOL    HW230993   0.052   2.544   7.817  1.2527  0.1928  2.4934
 6454SOL     OW30994   1.547   2.643   2.137 -0.0817  0.3006  0.3276
 6454SOL    HW130995   1.554   2.732   2.170  0.6210  0.6300 -0.7135
 6454SOL    HW230996   1.640   2.622   2.142  0.4137  2.0889 -1.4873
 6455SOL     OW30997   0.411   2.198   7.391 -0.2155  0.2054 -0.0807
 6455SOL    HW130998   0.338   2.245   7.351  0.7766  0.2760 -1.8665
 6455SOL    HW230999   0.366   2.124   7.430  0.6149 -0.7462 -0.9115
 6456SOL     OW31000   4.061   2.811   3.427 -0.1573 -0.0214 -0.2294
 6456SOL    HW131001   4.046   2.906   3.428  3.2803  0.5377 -0.3254
 6456SOL    HW231002   3.973   2.792   3.459  0.4611 -1.2635  0.7106
 6457SOL     OW31003   0.586   1.199  11.268 -0.2897 -0.0690 -0.6520
 6457SOL    HW131004   0.566   1.230  11.356 -0.9466 -0.6243 -0.6000
 6457SOL    HW231005   0.516   1.135  11.252 -0.1934 -0.1399 -0.7885
 6458SOL     OW31006   0.172   3.686   4.261  0.3067  0.2105 -0.4429
 6458SOL    HW131007   0.250   3.695   4.207  0.6457 -0.7678 -0.1090
 6458SOL    HW231008   0.214   3.667   4.345  0.6094 -0.3242 -0.7185
 6459SOL     OW31009   3.266   2.262  12.400  0.4027  0.2503  0.2701
 6459SOL    HW131010   3.356   2.254  12.431  0.3270 -0.8696  0.2104
 6459SOL    HW231011   3.273   2.349  12.360  1.7800 -1.5792 -3.5344
 6460SOL     OW31012   3.895   2.470   0.586  0.2191 -0.0703 -0.2306
 6460SOL    HW131013   3.843   2.422   0.650  1.5564 -3.5055 -1.7497
 6460SOL    HW231014   3.916   2.408   0.517 -1.6804 -1.5884  0.5586
 6461SOL     OW31015   3.489   4.089   3.116  0.0476  0.6499 -0.1967
 6461SOL    HW131016   3.564   4.134   3.078 -1.0096  1.6184 -1.1392
 6461SOL    HW231017   3.438   4.162   3.151  0.8281  0.2927  1.6922
 6462SOL     OW31018   0.299   2.487   7.777  0.2630  0.1690 -0.0185
 6462SOL    HW131019   0.352   2.473   7.855 -0.5878  0.1852  0.5675
 6462SOL    HW231020   0.319   2.406   7.730 -0.3896 -0.3740  0.6260
 6463SOL     OW31021   2.741   4.474  16.208  0.4199  0.6204 -0.4417
 6463SOL    HW131022   2.799   4.416  16.159 -3.1495 -2.2902 -1.2473
 6463SOL    HW231023   2.754   4.434  16.294  1.5463 -1.2527 -1.5050
 6464SOL     OW31024   3.923   4.642   5.870  0.3635 -0.2588  0.1506
 6464SOL    HW131025   3.993   4.653   5.805  0.4313  0.1976  0.3019
 6464SOL    HW231026   3.932   4.714   5.932 -2.8253 -0.0573  0.3816
 6465SOL     OW31027   2.860   3.735  11.812  0.4719 -0.1933 -0.2345
 6465SOL    HW131028   2.841   3.767  11.900 -0.1839 -0.7936 -0.1515
 6465SOL    HW231029   2.781   3.769  11.770 -1.0695  0.0342  2.7842
 6466SOL     OW31030   1.022   3.456   1.258 -0.1104  0.0773  0.3422
 6466SOL    HW131031   1.086   3.387   1.240  0.4993  1.1868 -1.7911
 6466SOL    HW231032   0.950   3.397   1.282 -2.1573  2.7541  0.7079
 6467SOL     OW31033   1.722   4.048  12.992  0.0658 -0.3711  0.1609
 6467SOL    HW131034   1.743   4.097  12.913  1.8578  1.4504  1.7751
 6467SOL    HW231035   1.802   3.996  12.992  1.0343  1.1387 -0.0268
 6468SOL     OW31036   0.142   0.113  15.917 -0.4703  0.5642  0.2531
 6468SOL    HW131037   0.155   0.136  15.825  0.5397 -0.0735  0.2345
 6468SOL    HW231038   0.087   0.034  15.917  0.1988  0.0975 -0.2626
 6469SOL     OW31039   3.341   3.077   6.117  0.1144 -0.8275 -0.1472
 6469SOL    HW131040   3.335   2.982   6.118  3.0182 -0.9641  2.6918
 6469SOL    HW231041   3.294   3.092   6.035 -0.2604  0.0002  0.2122
 6470SOL     OW31042   0.054   3.883  15.481 -0.1063 -0.9185  0.2479
 6470SOL    HW131043   0.079   3.916  15.567  0.5308  2.1753 -1.1384
 6470SOL    HW231044   0.089   3.795  15.494 -0.1984 -0.8118  1.2005
 6471SOL     OW31045   1.097   2.440  16.549 -0.3938  0.2490  0.0357
 6471SOL    HW131046   1.040   2.505  16.591  0.5890  0.5177  0.9408
 6471SOL    HW231047   1.133   2.498  16.481 -0.5347  1.3417  0.8909
 6472SOL     OW31048   2.667   3.822   7.783 -0.5153 -0.5998 -0.2642
 6472SOL    HW131049   2.739   3.860   7.733 -1.7835  0.8162 -0.9983
 6472SOL    HW231050   2.629   3.899   7.825  2.2118 -0.1915  1.5061
 6473SOL     OW31051   0.481   3.425   1.607  0.5664 -0.0846 -0.5317
 6473SOL    HW131052   0.416   3.492   1.628  2.1532  0.5149  2.4490
 6473SOL    HW231053   0.476   3.364   1.681  2.0611  0.3729 -0.0637
 6474SOL     OW31054   2.747   2.387  10.748  0.3440 -0.0074  0.0754
 6474SOL    HW131055   2.785   2.306  10.780  0.1771 -0.8212 -1.8230
 6474SOL    HW231056   2.802   2.446  10.800  0.9391 -0.0510 -0.5177
 6475SOL     OW31057   2.506   0.236  14.104  0.2542 -0.3273 -0.5880
 6475SOL    HW131058   2.586   0.186  14.084  1.8425  2.7952 -2.0677
 6475SOL    HW231059   2.436   0.176  14.076 -1.3126  1.4382 -0.4252
 6476SOL     OW31060   4.042   2.922   2.514  0.2429  0.2633  0.7003
 6476SOL    HW131061   3.995   2.941   2.433  1.5902 -0.2939 -0.2078
 6476SOL    HW231062   4.093   3.002   2.520  1.7199 -0.8107  2.3387
 6477SOL     OW31063   1.178   0.304   7.069  0.7493 -0.1741  0.3240
 6477SOL    HW131064   1.187   0.250   6.990 -0.9779  0.0836 -0.0460
 6477SOL    HW231065   1.085   0.322   7.058  0.8912 -1.4289 -3.2125
 6478SOL     OW31066   1.482   4.102   4.453 -0.5681  0.1324  0.3483
 6478SOL    HW131067   1.535   4.162   4.400 -0.9558 -0.2251 -0.4418
 6478SOL    HW231068   1.426   4.171   4.489 -0.6682 -0.6166  1.6500
 6479SOL     OW31069   3.527   0.187   1.029  0.1844  0.5270 -0.1672
 6479SOL    HW131070   3.507   0.166   1.120  2.0617  0.2859  0.1933
 6479SOL    HW231071   3.533   0.283   1.034  0.8899  0.5412 -1.2958
 6480SOL     OW31072   4.153   0.374   2.504  0.2467  0.1883  0.4314
 6480SOL    HW131073   4.117   0.287   2.522  0.2554  0.3227  1.0873
 6480SOL    HW231074   4.124   0.422   2.581 -2.1047 -0.9656  0.2480
 6481SOL     OW31075   2.767   1.200   3.470  0.2073  0.3613 -0.8746
 6481SOL    HW131076   2.848   1.211   3.519 -0.4471  0.2034  0.2324
 6481SOL    HW231077   2.770   1.273   3.408  1.2940  0.0775 -1.1514
 6482SOL     OW31078   4.127   2.047  15.140 -0.6925 -0.8082  0.2815
 6482SOL    HW131079   4.141   1.954  15.122  0.5989 -0.2618 -1.5756
 6482SOL    HW231080   4.034   2.052  15.118 -0.5576 -1.4041 -0.4447
 6483SOL     OW31081   2.754   0.479   7.917 -0.1488 -0.3082 -0.3511
 6483SOL    HW131082   2.828   0.421   7.898 -0.6815 -1.3202  0.6861
 6483SOL    HW231083   2.791   0.567   7.909 -0.7031 -0.0428  0.0106
 6484SOL     OW31084   1.181   2.269  13.364 -0.4603  0.4854 -0.3366
 6484SOL    HW131085   1.187   2.177  13.337  1.0146  0.3740  0.3744
 6484SOL    HW231086   1.085   2.273  13.364 -0.4961 -0.2195 -1.6136
 6485SOL     OW31087   1.062   0.036   9.775 -0.0650  0.4410 -0.2505
 6485SOL    HW131088   1.111   0.019   9.855 -0.8661  4.0842  1.0007
 6485SOL    HW231089   1.045   4.681   9.749  1.1117  0.5991 -1.5823
 6486SOL     OW31090   2.006   3.632  11.277 -0.0404  0.4150  0.4569
 6486SOL    HW131091   1.979   3.701  11.215  1.0593  0.9711  0.6055
 6486SOL    HW231092   2.079   3.598  11.225 -1.7406 -1.6500 -0.6084
 6487SOL     OW31093   0.129   4.293  16.547 -0.5242 -0.3343 -0.9018
 6487SOL    HW131094   0.115   4.253  16.461  0.4389  0.4275 -1.4131
 6487SOL    HW231095   0.077   4.374  16.540  0.5800  0.4649  0.3015
 6488SOL     OW31096   3.353   4.453   5.390  0.1637 -0.2145  0.0047
 6488SOL    HW131097   3.397   4.471   5.473  1.4102  2.0842 -1.1398
 6488SOL    HW231098   3.264   4.487   5.392  0.4774  0.5621  0.7467
 6489SOL     OW31099   0.734   1.863   7.416 -0.0651  0.0674  0.1449
 6489SOL    HW131100   0.761   1.861   7.507 -2.1034  0.7166  0.7629
 6489SOL    HW231101   0.707   1.955   7.414  0.6092  0.2482 -0.4139
 6490SOL     OW31102   2.180   3.682  17.384  0.9673  0.2248  0.0834
 6490SOL    HW131103   2.195   3.666  17.477 -0.4613 -0.9223  0.1098
 6490SOL    HW231104   2.104   3.739  17.381  0.7942 -0.1091 -1.6323
 6491SOL     OW31105   2.697   1.558  11.205 -0.4626  0.1198  0.1579
 6491SOL    HW131106   2.786   1.536  11.179 -0.2458  1.4548 -0.2081
 6491SOL    HW231107   2.647   1.476  11.201  0.3280 -0.3685  0.2746
 6492SOL     OW31108   1.848   0.596   7.915  0.7605 -0.3590  0.6276
 6492SOL    HW131109   1.930   0.629   7.878  0.0993  1.7058  0.9904
 6492SOL    HW231110   1.787   0.666   7.891  1.3233  0.0918  0.5270
 6493SOL     OW31111   0.708   4.148   3.171  0.3136  0.2913 -0.5820
 6493SOL    HW131112   0.803   4.156   3.177  0.2477  0.7573 -0.0480
 6493SOL    HW231113   0.682   4.217   3.232 -1.1343  0.4890 -1.4126
 6494SOL     OW31114   1.182   0.020  13.060 -0.6595  0.3149  0.1012
 6494SOL    HW131115   1.217   4.723  12.977  0.3635 -1.7374  1.3433
 6494SOL    HW231116   1.097   0.060  13.039 -1.0366  0.5152  2.0418
 6495SOL     OW31117   0.692   3.863  15.437  0.5604  0.3968 -0.6403
 6495SOL    HW131118   0.733   3.780  15.417 -2.9989 -1.1219 -1.7008
 6495SOL    HW231119   0.778   3.903  15.443  0.8137 -0.2986  0.2023
 6496SOL     OW31120   4.535   4.431   2.362 -0.3868 -0.0314  0.0500
 6496SOL    HW131121   4.585   4.379   2.300 -0.1476 -0.6452  0.7627
 6496SOL    HW231122   4.475   4.488   2.313  2.1688  2.1270 -0.5445
 6497SOL     OW31123   0.689   3.614   6.798  0.2563  0.7241 -0.0465
 6497SOL    HW131124   0.728   3.679   6.740  1.2589  0.2270  0.0786
 6497SOL    HW231125   0.668   3.672   6.871  0.4015  1.5637 -0.6744
 6498SOL     OW31126   1.238   0.320   7.495  0.2902  0.1946 -0.1930
 6498SOL    HW131127   1.226   0.400   7.547  1.4988 -0.0491  0.4613
 6498SOL    HW231128   1.147   0.291   7.494 -0.6490  3.2271 -1.9786
 6499SOL     OW31129   0.263   2.556   5.879  0.2709 -0.0223  0.2117
 6499SOL    HW131130   0.199   2.594   5.940 -0.1846 -0.1053 -0.2120
 6499SOL    HW231131   0.315   2.633   5.856 -0.7849  0.3746 -0.8924
 6500SOL     OW31132   1.256   0.748  11.038  0.0814  0.0870 -0.9467
 6500SOL    HW131133   1.262   0.839  11.009 -0.7703  0.0115 -1.3607
 6500SOL    HW231134   1.315   0.717  10.969  1.8834 -0.8770  1.0538
 6501SOL     OW31135   3.963   1.969  11.601 -0.0152  0.3645  0.1024
 6501SOL    HW131136   3.974   1.887  11.648 -1.9689  0.2253  0.3345
 6501SOL    HW231137   4.053   1.997  11.585  0.2135  0.0251  0.8008
 6502SOL     OW31138   3.268   0.589   6.016  0.2519 -0.0713  0.5786
 6502SOL    HW131139   3.238   0.533   5.944  2.0924  0.0549 -0.2775
 6502SOL    HW231140   3.196   0.567   6.076 -0.7676 -0.3460 -0.7628
 6503SOL     OW31141   4.582   4.303   9.861 -0.7680  0.1355  0.2048
 6503SOL    HW131142   4.517   4.368   9.834 -0.8354 -0.4491 -1.0301
 6503SOL    HW231143   4.531   4.237   9.907 -0.7654 -0.8618 -1.2137
 6504SOL     OW31144   1.852   4.288   0.854  0.1584  0.0649  0.0214
 6504SOL    HW131145   1.882   4.330   0.774  1.0489 -0.5825  0.0204
 6504SOL    HW231146   1.757   4.285   0.840  0.0623 -4.7797  1.9096
 6505SOL     OW31147   3.352   3.126   4.738  0.2732  0.3719 -0.5679
 6505SOL    HW131148   3.256   3.119   4.734  0.4017 -0.8093 -1.7290
 6505SOL    HW231149   3.369   3.081   4.655  2.0483  0.9097 -0.4970
 6506SOL     OW31150   1.061   3.746   7.247 -0.1266  0.1592 -0.5492
 6506SOL    HW131151   1.116   3.684   7.200 -2.1490 -2.5423  0.5956
 6506SOL    HW231152   1.006   3.692   7.305  0.5081  0.9830  0.8350
 6507SOL     OW31153   4.487   1.733   3.110  0.1845  0.0983 -0.2268
 6507SOL    HW131154   4.445   1.801   3.057  2.6320  0.5128 -1.6099
 6507SOL    HW231155   4.495   1.768   3.198  1.1797  0.5160 -0.4869
 6508SOL     OW31156   3.419   1.920   6.943 -0.3636 -0.1759  0.1224
 6508SOL    HW131157   3.457   1.934   6.857 -1.6206  2.8199  0.0819
 6508SOL    HW231158   3.325   1.936   6.933 -0.2376 -0.2178 -1.0498
 6509SOL     OW31159   1.919   4.590   6.128 -0.7246  0.7233  0.4348
 6509SOL    HW131160   1.979   4.623   6.195 -1.8564  1.4145  1.1138
 6509SOL    HW231161   1.961   4.618   6.046 -3.5451  0.5273 -1.0684
 6510SOL     OW31162   1.786   0.175  14.492 -0.3136 -0.0722 -0.3028
 6510SOL    HW131163   1.711   0.131  14.452 -0.6774 -0.9615  1.3905
 6510SOL    HW231164   1.805   0.127  14.573  1.5097 -0.2519 -0.8221
 6511SOL     OW31165   3.504   4.131   3.873  0.1386 -0.1266  0.1659
 6511SOL    HW131166   3.596   4.156   3.877 -0.6142  2.8986 -1.8029
 6511SOL    HW231167   3.476   4.166   3.958 -1.0069  0.7303 -0.5678
 6512SOL     OW31168   3.168   0.403   1.954 -0.3719 -0.2047  0.5602
 6512SOL    HW131169   3.152   0.475   1.894 -1.6910 -1.1709 -0.2669
 6512SOL    HW231170   3.192   0.463   2.024 -0.1625  1.1851 -0.7201
 6513SOL     OW31171   3.632   3.911   1.485  0.2685  0.3610  0.3579
 6513SOL    HW131172   3.585   3.828   1.494 -0.2472  0.5044 -0.9995
 6513SOL    HW231173   3.683   3.893   1.406 -0.1338  1.0103 -0.0484
 6514SOL     OW31174   2.935   2.597  10.366  0.3295  0.0324  0.0978
 6514SOL    HW131175   2.972   2.539  10.299 -0.1816  1.6022 -1.5312
 6514SOL    HW231176   3.005   2.615  10.429  1.1130 -0.0715 -0.7436
 6515SOL     OW31177   2.380   1.792  11.724  0.3601 -0.0489 -0.1088
 6515SOL    HW131178   2.304   1.747  11.685  0.3803 -0.8181  0.7248
 6515SOL    HW231179   2.330   1.826  11.798  0.9652  0.3975  0.0887
 6516SOL     OW31180   0.317   2.394  13.345 -0.5245 -0.6485  0.5302
 6516SOL    HW131181   0.394   2.441  13.374  0.3149 -2.1120  0.6701
 6516SOL    HW231182   0.267   2.367  13.422 -0.2766 -0.0465  0.8982
 6517SOL     OW31183   2.874   3.127   5.546 -0.8027  0.6681 -0.4716
 6517SOL    HW131184   2.867   3.207   5.494 -0.5002 -0.3278 -2.0476
 6517SOL    HW231185   2.848   3.065   5.479 -0.4490 -0.2694  0.2603
 6518SOL     OW31186   1.963   3.063   2.876  0.2311  0.6929 -0.1919
 6518SOL    HW131187   2.033   3.006   2.842 -1.0595 -1.6221  1.0896
 6518SOL    HW231188   1.975   3.055   2.970 -0.8240  0.4462 -0.0857
 6519SOL     OW31189   3.126   3.551   4.144 -0.1842 -0.5681  0.0146
 6519SOL    HW131190   3.111   3.633   4.097  0.9661 -0.0086  0.6246
 6519SOL    HW231191   3.189   3.578   4.210 -0.8501 -0.3525  0.5563
 6520SOL     OW31192   4.238   2.083   5.620 -0.3697 -0.4489 -0.1345
 6520SOL    HW131193   4.202   2.157   5.570 -1.1361 -0.7234  0.0101
 6520SOL    HW231194   4.301   2.043   5.560  1.0729  1.1651  0.3111
 6521SOL     OW31195   1.419   1.583   9.377  0.3528  0.2853  0.0039
 6521SOL    HW131196   1.344   1.542   9.420 -0.3772  0.4322 -1.1384
 6521SOL    HW231197   1.478   1.511   9.398  2.3096  1.6502 -0.7857
 6522SOL     OW31198   4.446   2.271   3.958  0.2574 -0.4317 -0.2792
 6522SOL    HW131199   4.509   2.209   3.922  0.0106 -1.1851  0.5975
 6522SOL    HW231200   4.438   2.242   4.048  1.2677  2.1166  0.6468
 6523SOL     OW31201   3.445   1.195   4.046  0.2290  0.2022  0.1566
 6523SOL    HW131202   3.353   1.190   4.074  0.0385  1.3694 -0.2432
 6523SOL    HW231203   3.458   1.283   4.083  3.2416 -0.0308 -0.3536
 6524SOL     OW31204   3.229   3.385   9.628  0.4413 -0.4052  0.4526
 6524SOL    HW131205   3.185   3.463   9.663  0.9180  0.5039 -0.9707
 6524SOL    HW231206   3.204   3.316   9.689 -0.9533 -1.0203 -0.8148
 6525SOL     OW31207   4.263   1.201  16.546 -0.0447 -0.1092 -0.2838
 6525SOL    HW131208   4.343   1.188  16.597  0.5598 -1.3397 -1.5442
 6525SOL    HW231209   4.297   1.272  16.492  1.3933  1.3220  2.5366
 6526SOL     OW31210   4.245   2.860   2.013 -0.1113  0.1408  0.6065
 6526SOL    HW131211   4.173   2.913   1.980  0.2763  0.1881 -0.1624
 6526SOL    HW231212   4.290   2.932   2.058  2.8662 -0.7411 -0.9210
 6527SOL     OW31213   1.988   2.447   7.824  0.9539 -0.0612  0.6113
 6527SOL    HW131214   2.026   2.366   7.858 -1.7254 -1.6018 -0.0778
 6527SOL    HW231215   1.902   2.451   7.865  0.2145  0.5707 -0.9925
 6528SOL     OW31216   0.422   0.987   2.058  0.2858  0.1807 -0.3898
 6528SOL    HW131217   0.480   0.922   2.098 -1.2177 -1.3564 -0.7085
 6528SOL    HW231218   0.453   0.993   1.967 -0.2168  2.9887 -0.3624
 6529SOL     OW31219   1.483   3.876   4.293 -0.0526 -0.0343 -0.0892
 6529SOL    HW131220   1.561   3.841   4.336 -0.2632  1.3372  1.4015
 6529SOL    HW231221   1.479   3.959   4.339  0.1035 -0.2672  0.3415
 6530SOL     OW31222   2.273   3.679   4.706 -0.4916  0.5489 -0.4932
 6530SOL    HW131223   2.283   3.773   4.722  0.9863  0.4518 -0.8320
 6530SOL    HW231224   2.320   3.674   4.623  0.1580  1.5502 -0.1945
 6531SOL     OW31225   2.620   1.375   7.252  0.1145  0.5076  0.1618
 6531SOL    HW131226   2.705   1.337   7.276 -0.2147 -1.0761 -1.1299
 6531SOL    HW231227   2.635   1.469   7.260  1.6953  0.2659  0.0923
 6532SOL     OW31228   1.837   4.073   2.219  0.1424  0.0942 -0.0752
 6532SOL    HW131229   1.834   4.162   2.183 -0.1250  0.6984  1.4351
 6532SOL    HW231230   1.924   4.050   2.186 -0.1476 -0.1715 -0.6563
 6533SOL     OW31231   1.919   2.436   9.049  0.2483  0.6998 -0.1150
 6533SOL    HW131232   1.919   2.413   9.142  0.5694 -0.6562 -0.4469
 6533SOL    HW231233   1.843   2.492   9.031 -1.5110 -1.3433  0.9073
 6534SOL     OW31234   1.356   3.538  11.408  0.5529 -0.2029  0.5875
 6534SOL    HW131235   1.405   3.607  11.363 -0.4710 -0.3596 -0.7653
 6534SOL    HW231236   1.405   3.457  11.395 -0.2323 -0.3945 -1.1142
 6535SOL     OW31237   0.040   4.236   3.589 -0.9616  0.1579 -0.0684
 6535SOL    HW131238   4.702   4.277   3.544 -0.4417  1.9879  0.7486
 6535SOL    HW231239   4.726   4.173   3.640 -0.7134 -0.7597 -0.9632
 6536SOL     OW31240   0.069   2.492  16.402 -0.2709 -0.1286 -0.3966
 6536SOL    HW131241   0.053   2.559  16.335 -1.6241 -0.5931 -0.5263
 6536SOL    HW231242   4.735   2.517  16.463  0.6959 -0.9556  1.0524
 6537SOL     OW31243   4.173   0.822   6.360 -0.0705 -0.1977  0.1055
 6537SOL    HW131244   4.252   0.862   6.395  0.1995  0.5361 -1.3389
 6537SOL    HW231245   4.216   0.765   6.296 -0.7643  0.4648 -0.9574
 6538SOL     OW31246   1.229   1.739   4.891  0.2182 -0.3697  0.1539
 6538SOL    HW131247   1.139   1.751   4.920  0.1907 -1.7141  0.6232
 6538SOL    HW231248   1.233   1.786   4.808 -3.4606  1.1782  0.8566
 6539SOL     OW31249   3.473   0.469   7.785  0.2903 -0.4256  0.2849
 6539SOL    HW131250   3.465   0.404   7.715  0.3449  0.1797 -0.2842
 6539SOL    HW231251   3.493   0.407   7.855 -0.4105 -0.2186  0.6680
 6540SOL     OW31252   1.998   3.980   2.737 -0.4773  0.7475  0.2556
 6540SOL    HW131253   2.022   3.966   2.645  0.8651  0.2177  0.6807
 6540SOL    HW231254   2.001   4.075   2.742 -0.8402  0.7719  0.0138
 6541SOL     OW31255   4.636   3.374   4.875 -0.2448  0.3531 -0.0915
 6541SOL    HW131256   4.596   3.292   4.907 -1.1109  0.5566 -0.6528
 6541SOL    HW231257   4.672   3.349   4.790 -1.7395 -1.0043 -0.3245
 6542SOL     OW31258   1.303   3.135  16.035 -0.3100  0.3426  0.1102
 6542SOL    HW131259   1.227   3.188  16.061 -0.5522 -0.2578  0.6328
 6542SOL    HW231260   1.335   3.107  16.121  2.4468  0.5667 -0.8631
 6543SOL     OW31261   4.630   1.783   9.313 -0.4746 -0.0435  0.0477
 6543SOL    HW131262   4.572   1.708   9.327  0.4241 -0.8975 -0.7658
 6543SOL    HW231263   4.643   1.822   9.399  0.3258  0.7997 -0.4528
 6544SOL     OW31264   4.235   3.884   8.619 -0.8503 -0.0307  0.2133
 6544SOL    HW131265   4.149   3.844   8.629 -1.6944  1.0558 -2.8189
 6544SOL    HW231266   4.292   3.809   8.640  1.5213  1.5161 -0.7571
 6545SOL     OW31267   1.327   3.932  11.648 -0.0910 -0.4338  0.3750
 6545SOL    HW131268   1.412   3.918  11.688  1.0827  2.6270 -1.0211
 6545SOL    HW231269   1.285   3.913  11.732 -0.0734 -0.3726  0.3982
 6546SOL     OW31270   3.046   1.991   5.311 -0.0182 -0.2263 -0.1173
 6546SOL    HW131271   3.070   1.899   5.323 -0.6591 -0.5325 -1.2428
 6546SOL    HW231272   3.108   2.035   5.370 -0.0836  1.2564 -1.1633
 6547SOL     OW31273   2.150   3.289   3.400 -0.1106 -0.1470 -0.1236
 6547SOL    HW131274   2.208   3.243   3.340 -0.6027  0.2083 -0.8659
 6547SOL    HW231275   2.206   3.358   3.436 -0.4779 -0.8877  1.8917
 6548SOL     OW31276   0.316   0.734   3.433 -0.1368 -0.3025  0.5735
 6548SOL    HW131277   0.404   0.740   3.396 -0.6864 -2.2395 -1.0264
 6548SOL    HW231278   0.331   0.761   3.523 -2.5259 -1.9276  1.4717
 6549SOL     OW31279   3.627   4.323   1.381 -0.5745  0.1810  0.7066
 6549SOL    HW131280   3.606   4.304   1.473 -3.0839 -0.2088  0.0615
 6549SOL    HW231281   3.717   4.291   1.390 -0.3045  0.8642  0.4402
 6550SOL     OW31282   2.750   2.175   3.753 -0.6715 -0.2054  0.0264
 6550SOL    HW131283   2.818   2.108   3.748  0.3169  0.7433  0.7664
 6550SOL    HW231284   2.689   2.134   3.815 -0.9715 -0.2367 -0.2933
 6551SOL     OW31285   3.793   2.725   2.100  0.4290 -0.5049 -0.0883
 6551SOL    HW131286   3.883   2.731   2.132  0.0546  1.3619  0.5726
 6551SOL    HW231287   3.753   2.681   2.175 -0.2199 -0.7987 -0.6014
 6552SOL     OW31288   2.433   2.107   4.492  0.0787  0.2855  0.4322
 6552SOL    HW131289   2.437   2.043   4.563 -2.2249 -0.3923 -0.0746
 6552SOL    HW231290   2.488   2.177   4.528  0.8920 -1.2857  2.2663
 6553SOL     OW31291   3.754   0.293   6.665 -0.8496  0.2829 -0.3126
 6553SOL    HW131292   3.807   0.215   6.681 -1.1194 -0.4108 -2.8727
 6553SOL    HW231293   3.790   0.319   6.581  0.4507 -0.0549  0.1430
 6554SOL     OW31294   1.529   2.939   5.807  0.1559  0.0552  0.4581
 6554SOL    HW131295   1.579   3.010   5.767  0.5665 -0.8353 -0.6200
 6554SOL    HW231296   1.460   2.912   5.746  1.3276 -1.5656 -0.1585
 6555SOL     OW31297   0.876   2.993   2.703  0.2092  0.1903 -0.9339
 6555SOL    HW131298   0.959   2.985   2.752  0.5257  0.1797 -1.4769
 6555SOL    HW231299   0.888   3.086   2.685  2.0849  0.1992  0.3667
 6556SOL     OW31300   4.379   3.578   7.976  0.4288 -0.0402 -0.9253
 6556SOL    HW131301   4.417   3.554   8.061  1.2113 -0.4333 -1.3927
 6556SOL    HW231302   4.388   3.671   7.995  0.3016 -0.2935  0.4287
 6557SOL     OW31303   2.039   4.451  13.237  0.2008 -0.2112  0.2846
 6557SOL    HW131304   1.989   4.388  13.185  0.5784 -0.2551 -0.0229
 6557SOL    HW231305   2.044   4.407  13.322  2.0009 -0.2818  0.1598
 6558SOL     OW31306   4.198   0.964   4.916 -0.5982 -0.2421  0.0257
 6558SOL    HW131307   4.206   0.999   4.827 -0.9398  0.8087  0.4101
 6558SOL    HW231308   4.103   0.961   4.926 -0.8544 -1.4465 -2.6640
 6559SOL     OW31309   1.748   4.075   5.350  0.3047  0.1507 -0.2691
 6559SOL    HW131310   1.775   4.076   5.442 -1.0027 -0.9981  0.1401
 6559SOL    HW231311   1.827   4.113   5.312  0.1564  1.0442  0.3152
 6560SOL     OW31312   4.390   0.381   8.439  0.0198  0.1853  0.7084
 6560SOL    HW131313   4.300   0.408   8.456 -0.5476 -0.0640 -1.7777
 6560SOL    HW231314   4.422   0.466   8.407  0.4046 -0.6504 -1.1718
 6561SOL     OW31315   2.158   3.662   8.094  0.4269 -0.4887 -0.6343
 6561SOL    HW131316   2.117   3.642   8.179  2.0387  0.9533  0.4956
 6561SOL    HW231317   2.245   3.691   8.123 -0.6072  0.9103  1.1442
 6562SOL     OW31318   3.558   3.757  16.662  0.1515 -0.7808 -0.3274
 6562SOL    HW131319   3.568   3.679  16.608  2.2639 -1.1041  0.4974
 6562SOL    HW231320   3.486   3.796  16.612  0.9948 -1.1882 -1.8733
 6563SOL     OW31321   1.201   2.258   5.250 -0.3328  0.3538  0.3495
 6563SOL    HW131322   1.175   2.325   5.187  0.8719 -0.2176 -0.7651
 6563SOL    HW231323   1.295   2.252   5.231 -0.5651 -3.4746  0.3461
 6564SOL     OW31324   0.711   3.357   3.092 -0.1011 -0.3376  0.2405
 6564SOL    HW131325   0.799   3.392   3.103 -0.2026  0.1802 -0.5171
 6564SOL    HW231326   0.663   3.431   3.130 -0.0045 -0.3592  0.4024
 6565SOL     OW31327   3.150   1.525  12.699  0.4563  0.1753 -0.9345
 6565SOL    HW131328   3.233   1.497  12.738 -0.4563  0.6262  1.3502
 6565SOL    HW231329   3.184   1.586  12.634  0.7035  0.3183 -0.6688
 6566SOL     OW31330   3.274   1.683   1.375  0.3684 -0.2856  0.4207
 6566SOL    HW131331   3.270   1.703   1.469  1.8681 -1.0522  0.6422
 6566SOL    HW231332   3.315   1.597   1.381  0.4572 -0.1503  1.8750
 6567SOL     OW31333   1.554   0.287  10.102  0.1376 -0.1342  0.2052
 6567SOL    HW131334   1.540   0.233  10.024  1.5778  0.1219 -0.2215
 6567SOL    HW231335   1.626   0.251  10.154  1.1025  2.5433  0.6906
 6568SOL     OW31336   0.725   2.090   0.247  0.3126 -0.3244 -0.3435
 6568SOL    HW131337   0.801   2.110   0.194  0.1149  0.2259 -0.4180
 6568SOL    HW231338   0.663   2.074   0.176  1.1772 -1.0882 -0.9161
 6569SOL     OW31339   2.244   0.755   4.564  0.2923  0.4845  0.7472
 6569SOL    HW131340   2.304   0.782   4.633 -0.8318 -0.4174  2.0846
 6569SOL    HW231341   2.255   0.660   4.560  1.1813  0.6715 -1.5817
 6570SOL     OW31342   0.651   1.530   8.314  0.3003 -0.3644 -0.0666
 6570SOL    HW131343   0.668   1.454   8.370 -0.0470  0.9620  1.8449
 6570SOL    HW231344   0.567   1.517   8.270  0.7109 -2.1785 -0.2918
 6571SOL     OW31345   2.589   1.259   7.722  0.0799  0.0167 -0.9778
 6571SOL    HW131346   2.568   1.346   7.753 -1.0988 -0.6999  0.2278
 6571SOL    HW231347   2.668   1.280   7.671 -1.0916 -2.2835 -3.7636
 6572SOL     OW31348   4.697   3.130   5.413 -0.2675  0.0450 -0.1326
 6572SOL    HW131349   4.669   3.040   5.431 -0.9053  0.7024  2.0951
 6572SOL    HW231350   4.720   3.161   5.500 -0.5759 -0.3626  0.0922
 6573SOL     OW31351   3.440   3.931   3.692 -0.6679 -0.1874  0.5206
 6573SOL    HW131352   3.489   3.863   3.738 -0.2228 -1.9992 -2.6018
 6573SOL    HW231353   3.467   4.011   3.737  2.1122 -1.4268  1.0478
 6574SOL     OW31354   0.752   2.609   3.107  0.3307  0.3633 -0.1530
 6574SOL    HW131355   0.744   2.648   3.194  0.0721 -1.2526  0.5419
 6574SOL    HW231356   0.673   2.649   3.069 -0.3909 -2.1438 -1.2644
 6575SOL     OW31357   4.135   3.683   1.888 -0.3312  0.1730 -0.0186
 6575SOL    HW131358   4.041   3.673   1.903 -0.3013 -1.7528 -1.1179
 6575SOL    HW231359   4.140   3.778   1.881  1.5591  0.0644 -0.2571
 6576SOL     OW31360   4.415   1.215   4.460  0.0231 -0.5443 -0.0696
 6576SOL    HW131361   4.337   1.269   4.467  1.3881  1.3730  0.5047
 6576SOL    HW231362   4.403   1.177   4.373  1.3354  2.5998 -1.6254
 6577SOL     OW31363   4.058   3.644  12.442  0.4596  0.3509 -0.5526
 6577SOL    HW131364   4.142   3.608  12.472 -0.2646 -1.0410 -0.1913
 6577SOL    HW231365   4.038   3.605  12.357 -2.5041 -1.0948  0.8338
 6578SOL     OW31366   2.416   4.504  16.744  0.2876  0.2150  0.2336
 6578SOL    HW131367   2.463   4.517  16.661 -1.7863 -1.0490 -1.1528
 6578SOL    HW231368   2.323   4.508  16.724  0.8533  1.5856 -2.1071
 6579SOL     OW31369   0.264   3.416   6.586  0.6350  0.2439 -0.2963
 6579SOL    HW131370   0.305   3.450   6.665 -0.2187  1.3745 -0.3408
 6579SOL    HW231371   0.272   3.321   6.588  3.0414  0.4490 -1.0688
 6580SOL     OW31372   2.126   3.881  15.536  0.1443  0.0272  0.2735
 6580SOL    HW131373   2.162   3.849  15.618 -0.0485 -0.2907  0.2328
 6580SOL    HW231374   2.065   3.815  15.502 -4.4798  3.4164  1.8745
 6581SOL     OW31375   0.128   3.912   2.946  0.3090 -0.3967  1.0039
 6581SOL    HW131376   0.167   3.879   3.027  1.1243 -0.5278  0.5691
 6581SOL    HW231377   0.092   3.833   2.905 -0.5692  1.4649 -1.8127
 6582SOL     OW31378   2.521   0.020   2.970  0.1553 -0.3104 -0.2817
 6582SOL    HW131379   2.583   0.091   2.953  0.2958 -0.7933 -1.8403
 6582SOL    HW231380   2.556   4.679   2.924  0.4723  0.5258 -1.4408
 6583SOL     OW31381   0.615   0.525   6.854 -0.1884  0.1594 -0.1607
 6583SOL    HW131382   0.603   0.536   6.949 -1.9430 -4.2448  0.1161
 6583SOL    HW231383   0.639   0.608   6.814 -0.3734 -0.1583 -0.9228
 6584SOL     OW31384   4.163   2.523   3.007 -0.0126  0.4343 -0.5251
 6584SOL    HW131385   4.192   2.569   3.086 -1.4509 -0.8178  0.7410
 6584SOL    HW231386   4.132   2.439   3.040 -0.8640  0.0095 -2.3660
 6585SOL     OW31387   0.470   0.515  13.090 -0.1240  0.1866  0.2178
 6585SOL    HW131388   0.407   0.443  13.092  1.8696 -1.5379  1.3266
 6585SOL    HW231389   0.543   0.486  13.145 -1.6829  1.4483  2.9405
 6586SOL     OW31390   1.518   3.686   1.661  0.7603 -0.6914  0.4490
 6586SOL    HW131391   1.545   3.643   1.742  0.6157 -1.8848 -0.1472
 6586SOL    HW231392   1.461   3.753   1.698  0.5068 -0.7091  0.0873
 6587SOL     OW31393   3.702   1.054  13.294  0.2779 -0.0532  0.3223
 6587SOL    HW131394   3.739   0.999  13.363  0.7874  0.4274  0.4249
 6587SOL    HW231395   3.619   1.007  13.282 -0.2273 -0.2869  4.5706
 6588SOL     OW31396   1.940   3.883   3.043  0.0608  0.3538 -0.7087
 6588SOL    HW131397   1.885   3.953   3.078  0.1578 -0.3897  0.8917
 6588SOL    HW231398   2.014   3.896   3.102 -0.5349  2.7766 -0.4832
 6589SOL     OW31399   0.420   0.600   4.008 -0.0240 -0.1786 -0.0525
 6589SOL    HW131400   0.440   0.640   4.093 -0.0268 -0.5049  0.1038
 6589SOL    HW231401   0.370   0.674   3.974 -0.7073 -0.2987  0.6626
 6590SOL     OW31402   2.810   1.647   7.722 -0.0457  0.9540  0.4285
 6590SOL    HW131403   2.740   1.693   7.675  0.0791 -1.7061 -2.3321
 6590SOL    HW231404   2.764   1.640   7.806  0.1214  2.0885  0.6124
 6591SOL     OW31405   3.541   3.449  10.585  0.7911 -1.0010  0.4434
 6591SOL    HW131406   3.450   3.449  10.614  0.2829  2.3519 -1.1922
 6591SOL    HW231407   3.525   3.413  10.498  0.0162 -1.0007  0.5851
 6592SOL     OW31408   2.848   1.108   6.459 -0.2391 -0.2592  0.2214
 6592SOL    HW131409   2.801   1.181   6.418  0.2413  0.4858  1.0163
 6592SOL    HW231410   2.768   1.088   6.507 -0.5734  1.3606  0.3427
 6593SOL     OW31411   4.580   4.697   1.625 -0.1710  0.0525  0.0234
 6593SOL    HW131412   4.650   0.005   1.576  1.0679 -1.0988  0.7578
 6593SOL    HW231413   4.576   4.611   1.584  2.9860 -0.7585  1.3913
 6594SOL     OW31414   3.227   3.422   4.866  0.1204  0.4158  0.4990
 6594SOL    HW131415   3.210   3.328   4.856 -0.7464  0.6360 -0.1007
 6594SOL    HW231416   3.151   3.454   4.818  0.3465 -0.5563 -0.5147
 6595SOL     OW31417   3.279   3.778   8.382  0.0858  0.3672 -0.9531
 6595SOL    HW131418   3.280   3.779   8.478 -0.0359  0.9730 -0.9612
 6595SOL    HW231419   3.216   3.706   8.372 -0.1840  0.7641 -2.0993
 6596SOL     OW31420   2.296   2.639  11.710  0.3044  0.1155 -0.3864
 6596SOL    HW131421   2.279   2.611  11.800  0.4985 -1.5344 -0.8568
 6596SOL    HW231422   2.279   2.560  11.658 -2.2089 -1.8962  3.4473
 6597SOL     OW31423   4.412   0.583  10.418 -0.2509 -0.3166 -0.1303
 6597SOL    HW131424   4.458   0.641  10.479 -0.1917 -1.1991  0.6620
 6597SOL    HW231425   4.343   0.559  10.479 -0.0451 -2.1069 -0.6015
 6598SOL     OW31426   0.854   3.504   9.417 -0.0977  0.3740  0.6204
 6598SOL    HW131427   0.817   3.588   9.447  0.4716  0.3830  1.2950
 6598SOL    HW231428   0.782   3.450   9.450  1.4084 -2.6740 -1.1379
 6599SOL     OW31429   4.023   3.099   6.595 -0.7736  0.6271  0.1438
 6599SOL    HW131430   4.107   3.132   6.626 -0.4133  0.0949 -0.2519
 6599SOL    HW231431   3.977   3.153   6.659 -1.7670 -1.0979  0.8590
 6600SOL     OW31432   0.772   2.979   1.975 -0.3279  0.3338  0.3432
 6600SOL    HW131433   0.756   2.980   2.069 -1.6530  4.0705  0.0647
 6600SOL    HW231434   0.865   2.956   1.978 -0.0891  1.3269  0.3437
 6601SOL     OW31435   1.588   0.255   3.310  0.6536  0.2577 -0.1271
 6601SOL    HW131436   1.620   0.266   3.221  0.0043  0.4968 -0.3352
 6601SOL    HW231437   1.497   0.233   3.291  0.9489 -1.5794  0.5867
 6602SOL     OW31438   4.007   3.612   4.717 -0.3835 -0.3339 -0.2101
 6602SOL    HW131439   3.920   3.623   4.678 -0.5673  0.2587  0.3695
 6602SOL    HW231440   3.984   3.622   4.809 -0.4042 -0.5338 -0.1933
 6603SOL     OW31441   2.781   3.929   7.102 -0.4815  0.0982  0.0870
 6603SOL    HW131442   2.690   3.947   7.078 -1.2640 -0.2666  2.8570
 6603SOL    HW231443   2.817   3.928   7.013 -0.2661 -2.7387  0.2020
 6604SOL     OW31444   0.918   4.376  12.040  0.0381  0.0972  0.0567
 6604SOL    HW131445   0.908   4.425  12.121  1.6324 -0.5467  0.6486
 6604SOL    HW231446   1.009   4.398  12.017  1.1728 -5.6679 -0.9683
 6605SOL     OW31447   4.233   2.269   3.712  0.1490 -0.3372 -0.6213
 6605SOL    HW131448   4.301   2.251   3.776  1.2538  0.0893 -1.6754
 6605SOL    HW231449   4.180   2.333   3.760 -0.1589 -0.1654 -1.1892
 6606SOL     OW31450   0.411   4.305   8.369 -0.5255 -0.1917 -0.1683
 6606SOL    HW131451   0.324   4.342   8.355 -0.3798 -0.7960 -2.6899
 6606SOL    HW231452   0.406   4.278   8.460  2.2828 -0.9447 -0.2354
 6607SOL     OW31453   1.850   0.867   1.377 -0.6936 -0.2723  0.3147
 6607SOL    HW131454   1.772   0.907   1.338  1.0782  0.3436 -2.5634
 6607SOL    HW231455   1.840   0.907   1.463 -2.4550  2.1969 -1.0224
 6608SOL     OW31456   4.015   3.274   7.530 -0.1759  0.2597  0.3913
 6608SOL    HW131457   3.960   3.250   7.605  0.8270 -3.0128  0.0963
 6608SOL    HW231458   4.061   3.343   7.578  2.0129 -0.0723 -1.2632
 6609SOL     OW31459   0.512   3.982   3.094 -0.5836  0.4202  0.1682
 6609SOL    HW131460   0.580   4.034   3.138 -0.4423  1.4470 -1.2358
 6609SOL    HW231461   0.482   3.929   3.167  0.7189 -1.6375 -0.7935
 6610SOL     OW31462   0.860   0.714   9.388 -0.4302  0.5194  0.0247
 6610SOL    HW131463   0.901   0.651   9.446 -1.2867 -0.7430 -0.7469
 6610SOL    HW231464   0.799   0.766   9.441 -0.9456  2.3033 -2.2851
 6611SOL     OW31465   2.875   4.443   1.398  0.2939  0.9679  0.2916
 6611SOL    HW131466   2.909   4.504   1.463  2.7884 -0.3935  0.2581
 6611SOL    HW231467   2.824   4.497   1.337 -0.6275 -1.1953 -0.8480
 6612SOL     OW31468   3.984   3.170   0.555 -0.1666 -0.3686 -0.1313
 6612SOL    HW131469   3.963   3.086   0.595 -1.1955  0.3991  0.9323
 6612SOL    HW231470   4.047   3.138   0.491 -0.0456 -0.8447  0.2255
 6613SOL     OW31471   4.186   3.135   2.515  0.0639  0.2918 -0.3236
 6613SOL    HW131472   4.153   3.184   2.439 -2.0853 -2.1712 -0.9805
 6613SOL    HW231473   4.227   3.200   2.571  2.3160 -2.0705  0.7872
 6614SOL     OW31474   0.585   2.411   1.813  0.4922 -0.0513 -0.5502
 6614SOL    HW131475   0.506   2.464   1.815  0.4060 -0.2064  0.1828
 6614SOL    HW231476   0.554   2.333   1.766 -0.1666  1.2382 -2.2141
 6615SOL     OW31477   1.075   3.834   6.203  0.7826 -0.1945 -0.1594
 6615SOL    HW131478   1.141   3.877   6.256 -0.7191  1.5848  0.2623
 6615SOL    HW231479   1.000   3.894   6.202  0.7897 -0.1417  1.9094
 6616SOL     OW31480   0.280   4.028   2.771 -0.0663  0.1434 -0.3265
 6616SOL    HW131481   0.317   3.945   2.741 -3.0411 -0.9201 -1.0439
 6616SOL    HW231482   0.218   3.988   2.833  1.0338 -0.6275  0.2730
 6617SOL     OW31483   4.668   1.813   2.752  0.0647 -0.3607 -0.3372
 6617SOL    HW131484   4.711   1.896   2.731  3.0258 -1.4097  1.5335
 6617SOL    HW231485   4.632   1.831   2.839  0.9291  2.6789 -0.6349
 6618SOL     OW31486   1.200   2.150   6.492 -0.0575 -0.0329 -0.0261
 6618SOL    HW131487   1.173   2.150   6.584  0.9653 -0.8848  0.2678
 6618SOL    HW231488   1.295   2.151   6.506 -0.1472 -0.4541  0.5954
 6619SOL     OW31489   3.681   3.880   3.957  0.0126  0.3858  0.5682
 6619SOL    HW131490   3.665   3.882   4.052  3.3065  2.5428  1.0884
 6619SOL    HW231491   3.710   3.970   3.939 -2.0525  0.7667 -0.8235
 6620SOL     OW31492   0.098   3.974  12.376  0.2872 -0.3374 -0.5656
 6620SOL    HW131493   0.063   4.052  12.333 -0.2452 -0.2762 -0.0297
 6620SOL    HW231494   0.042   3.976  12.454 -0.6219  1.2212 -1.2601
 6621SOL     OW31495   2.808   1.265   8.083 -0.8038  0.3528 -0.0565
 6621SOL    HW131496   2.830   1.213   8.007 -1.3168 -1.8438  1.3011
 6621SOL    HW231497   2.739   1.209   8.121  0.1879 -0.0371  1.1722
 6622SOL     OW31498   1.891   3.534   1.499  0.1599 -0.0655 -0.2530
 6622SOL    HW131499   1.825   3.600   1.479 -0.4065 -0.4709  0.2963
 6622SOL    HW231500   1.924   3.516   1.411 -1.3077 -0.4617 -0.7098
 6623SOL     OW31501   1.403   0.268  11.476  0.8270 -0.6701 -0.1481
 6623SOL    HW131502   1.362   0.278  11.390  2.0000 -1.6725 -0.8220
 6623SOL    HW231503   1.483   0.312  11.449 -0.5422  1.8872 -0.0562
 6624SOL     OW31504   4.208   1.983   8.467 -0.1933  1.0239  0.0344
 6624SOL    HW131505   4.197   1.929   8.388 -0.3471 -0.4888  1.0901
 6624SOL    HW231506   4.238   2.069   8.437  0.5416  1.1061  1.0140
 6625SOL     OW31507   4.354   3.358   6.188  0.3131  0.4052  0.1203
 6625SOL    HW131508   4.384   3.345   6.278  1.6928  1.4713 -0.1979
 6625SOL    HW231509   4.436   3.358   6.140  0.0897  1.5899 -0.2676
 6626SOL     OW31510   1.116   2.715   3.180  0.1262 -0.0900 -0.5211
 6626SOL    HW131511   1.145   2.672   3.260  0.2791 -0.7672 -0.9319
 6626SOL    HW231512   1.025   2.685   3.172  0.8842 -2.9153  1.6728
 6627SOL     OW31513   3.301   0.925   9.184  0.2701  0.4870  0.2592
 6627SOL    HW131514   3.330   0.990   9.120 -0.4473 -0.6455 -1.2391
 6627SOL    HW231515   3.305   0.843   9.134  0.1585  1.6550 -1.6810
 6628SOL     OW31516   1.639   2.490   6.324 -0.0287 -0.0605  0.5909
 6628SOL    HW131517   1.595   2.539   6.394 -0.9108  0.2620 -0.1906
 6628SOL    HW231518   1.720   2.538   6.306 -0.2936  0.8193  1.7613
 6629SOL     OW31519   4.377   1.946   1.018  0.4695  0.0936  0.0378
 6629SOL    HW131520   4.446   1.986   0.965  0.2890  0.0158 -0.2595
 6629SOL    HW231521   4.428   1.866   1.034  0.0451 -0.4149 -1.1516
 6630SOL     OW31522   2.975   0.448   5.668  0.1286 -1.1315 -0.3087
 6630SOL    HW131523   2.935   0.429   5.753  0.1630  0.6273  0.0924
 6630SOL    HW231524   2.927   0.528   5.648  1.3182 -0.6507 -1.2104
 6631SOL     OW31525   3.284   0.089   3.081 -0.3828  0.1878  0.1240
 6631SOL    HW131526   3.244   0.139   3.010  0.1079 -2.3672 -1.9326
 6631SOL    HW231527   3.266   0.148   3.154 -3.8077  0.4549 -0.9538
 6632SOL     OW31528   3.175   2.446   7.360 -0.4903  0.5174 -0.1313
 6632SOL    HW131529   3.105   2.503   7.391 -0.0445  1.2676 -0.5055
 6632SOL    HW231530   3.231   2.448   7.438  0.7051 -0.3674 -0.9744
 6633SOL     OW31531   2.590   3.908   8.449 -0.2556 -0.4577 -0.0208
 6633SOL    HW131532   2.601   4.003   8.446 -0.0748 -0.5278 -1.4613
 6633SOL    HW231533   2.684   3.893   8.447 -0.0457  0.7459  1.2557
 6634SOL     OW31534   2.976   1.963   7.565  0.1516  1.0199  0.2134
 6634SOL    HW131535   3.004   1.902   7.634 -1.8372  1.3262  1.2953
 6634SOL    HW231536   3.049   1.963   7.503  0.1879 -0.8609  0.2587
 6635SOL     OW31537   1.092   1.601   8.717  0.0169 -0.1555  0.0280
 6635SOL    HW131538   1.135   1.681   8.686 -1.4960  0.3116 -0.8380
 6635SOL    HW231539   1.152   1.579   8.789 -0.1187 -2.6530 -0.6210
 6636SOL     OW31540   2.951   4.080   4.317 -0.0937  0.2542  0.1242
 6636SOL    HW131541   2.989   4.166   4.300  0.8690  0.4592  3.1452
 6636SOL    HW231542   2.904   4.091   4.400  0.6469  1.6067  0.3631
 6637SOL     OW31543   0.988   2.142   2.971 -0.1454 -0.4460  0.3197
 6637SOL    HW131544   0.927   2.200   2.926  0.4000 -1.1854 -1.3712
 6637SOL    HW231545   1.053   2.123   2.903 -1.5128  3.1127 -1.9354
 6638SOL     OW31546   1.050   3.024   8.613 -0.6187  0.1360  0.2848
 6638SOL    HW131547   1.003   3.106   8.627  2.2774  1.3252  3.0004
 6638SOL    HW231548   1.136   3.053   8.642 -0.3857  0.6581 -0.9677
 6639SOL     OW31549   3.856   3.605   6.055 -0.0203  0.4024  0.0251
 6639SOL    HW131550   3.883   3.562   6.137 -1.7850  1.3015  1.0684
 6639SOL    HW231551   3.935   3.653   6.030 -0.3171  1.3673  0.9514
 6640SOL     OW31552   2.844   2.974   1.670 -0.2576 -0.4501  0.3331
 6640SOL    HW131553   2.889   3.049   1.631  1.0839 -2.0511 -1.2252
 6640SOL    HW231554   2.877   2.911   1.606 -0.7720 -0.1239 -0.2612
 6641SOL     OW31555   1.722   3.899   2.772  0.0200  0.5321 -0.5038
 6641SOL    HW131556   1.717   3.831   2.706  0.6309 -0.6446  0.6660
 6641SOL    HW231557   1.809   3.886   2.808 -0.5917  0.1313  0.8444
 6642SOL     OW31558   1.020   1.176  16.033 -0.1651  0.1242  0.1865
 6642SOL    HW131559   0.962   1.112  15.991 -0.2821 -0.1269  0.7252
 6642SOL    HW231560   0.957   1.183  16.104  0.6227  1.3065  0.7650
 6643SOL     OW31561   3.221   1.215   3.307 -0.0277  0.1867  1.2449
 6643SOL    HW131562   3.268   1.166   3.375  1.7955  0.7639  0.3981
 6643SOL    HW231563   3.232   1.154   3.234 -1.0680 -1.8155  2.7676
 6644SOL     OW31564   3.847   2.015   5.950  0.4995  0.5492 -0.6286
 6644SOL    HW131565   3.900   1.988   5.875 -3.0630 -3.1474 -1.8572
 6644SOL    HW231566   3.761   1.978   5.932  0.5211  0.2559 -0.1284
 6645SOL     OW31567   0.355   4.571   7.003 -0.1912 -0.1459 -0.2479
 6645SOL    HW131568   0.387   4.657   7.029  0.8365  0.2880 -2.8837
 6645SOL    HW231569   0.316   4.593   6.918 -0.0891  1.6523  0.1642
 6646SOL     OW31570   0.584   2.358   8.525 -0.6255 -0.2898  0.4354
 6646SOL    HW131571   0.499   2.402   8.522 -0.8254 -0.6171  1.6562
 6646SOL    HW231572   0.591   2.324   8.614  1.5409  1.2464  0.8268
 6647SOL     OW31573   1.447   3.776  12.255  0.5362  0.5356  0.5966
 6647SOL    HW131574   1.460   3.840  12.185 -1.5842  0.3057 -0.0177
 6647SOL    HW231575   1.485   3.696  12.218 -3.6289 -1.1136 -0.1535
 6648SOL     OW31576   3.435   1.983   8.158  0.3454  0.5263  0.2319
 6648SOL    HW131577   3.356   2.036   8.150 -0.5536 -1.0922 -1.8425
 6648SOL    HW231578   3.406   1.913   8.218  1.6145 -0.9296 -0.8362
 6649SOL     OW31579   0.455   1.990   8.762  0.1428 -0.5063  0.1075
 6649SOL    HW131580   0.422   1.900   8.766  0.1129 -0.5429 -0.9366
 6649SOL    HW231581   0.369   2.029   8.745 -0.0225 -0.8011  0.2809
 6650SOL     OW31582   4.232   2.878  13.841 -0.4779 -0.4521  0.4966
 6650SOL    HW131583   4.264   2.957  13.884  0.9850 -0.0336 -1.3591
 6650SOL    HW231584   4.223   2.818  13.915 -0.0216  0.3233  1.1726
 6651SOL     OW31585   3.354   3.856  16.490 -0.3349 -0.3831  0.1139
 6651SOL    HW131586   3.262   3.843  16.515 -0.1825 -0.3507  0.6873
 6651SOL    HW231587   3.343   3.837  16.396 -0.5403  1.2009 -0.1744
 6652SOL     OW31588   1.359   3.839   2.618  0.2020 -0.5740  0.1356
 6652SOL    HW131589   1.281   3.787   2.635 -1.1852  1.1635 -0.9757
 6652SOL    HW231590   1.398   3.785   2.549 -0.3952  1.3971 -1.7480
 6653SOL     OW31591   4.440   4.452   6.531 -0.2917  0.1756  0.2841
 6653SOL    HW131592   4.520   4.412   6.565 -0.2994 -0.1629 -0.0876
 6653SOL    HW231593   4.378   4.380   6.538  0.2465 -0.1946  1.2209
 6654SOL     OW31594   4.689   3.847   1.048 -0.3254  0.0361  0.1452
 6654SOL    HW131595   4.732   3.818   1.129  0.4199 -0.0975 -0.2987
 6654SOL    HW231596   4.661   3.935   1.072 -2.4126 -0.4948 -0.3446
 6655SOL     OW31597   0.521   3.648   7.433 -0.5878 -0.2537  0.7077
 6655SOL    HW131598   0.495   3.739   7.416 -0.5886 -0.3241  0.3324
 6655SOL    HW231599   0.434   3.618   7.460 -0.2646 -2.0041 -0.2135
 6656SOL     OW31600   1.178   3.065   6.048 -0.1891  0.0424  0.3646
 6656SOL    HW131601   1.263   3.056   6.090 -0.0713  0.7686  0.2908
 6656SOL    HW231602   1.172   2.977   6.010 -1.5311  0.5251 -0.5346
 6657SOL     OW31603   1.822   1.306   8.299  0.2396  0.1771 -0.0380
 6657SOL    HW131604   1.751   1.282   8.358  1.1927  0.0767  1.0832
 6657SOL    HW231605   1.825   1.227   8.246 -2.3621  0.0436  0.0205
 6658SOL     OW31606   0.910   4.663   8.596  0.0393 -0.8706  0.1047
 6658SOL    HW131607   0.832   4.716   8.613  0.1894 -1.4987  2.8094
 6658SOL    HW231608   0.982   4.724   8.607  0.4973 -1.0230 -2.0891
 6659SOL     OW31609   1.523   4.323  10.299 -0.1657 -0.2914  0.5737
 6659SOL    HW131610   1.442   4.375  10.295  0.5998  0.9826  1.6651
 6659SOL    HW231611   1.579   4.378  10.353  0.6440 -0.8825  0.3290
 6660SOL     OW31612   0.795   3.737   9.551 -0.0551  0.1284  0.3470
 6660SOL    HW131613   0.887   3.742   9.576  0.0457  0.0461 -0.0049
 6660SOL    HW231614   0.794   3.767   9.459  0.2819  2.6682  1.1555
 6661SOL     OW31615   4.150   0.528   9.265 -0.0967  0.6169  0.2291
 6661SOL    HW131616   4.056   0.519   9.283  0.2475 -1.9046  0.7309
 6661SOL    HW231617   4.187   0.497   9.348  0.6980  0.2745 -0.2598
 6662SOL     OW31618   0.319   3.312  14.621 -0.4106  0.3858 -0.0619
 6662SOL    HW131619   0.329   3.327  14.714  4.3668 -0.1547 -0.5183
 6662SOL    HW231620   0.225   3.327  14.605 -0.9769 -0.0802  2.9819
 6663SOL     OW31621   2.662   3.831   0.265 -0.7732  0.3092  0.6430
 6663SOL    HW131622   2.610   3.835   0.185 -1.1023  0.2420  0.8536
 6663SOL    HW231623   2.723   3.904   0.256  0.2762 -0.7474 -0.9399
 6664SOL     OW31624   1.212   4.316   8.890 -0.0361  0.5019 -0.6634
 6664SOL    HW131625   1.163   4.273   8.821  1.0774 -0.4851 -0.8409
 6664SOL    HW231626   1.247   4.243   8.941  1.4049  2.0679  0.6240
 6665SOL     OW31627   3.139   4.263  15.710 -0.2873 -0.0462 -0.0387
 6665SOL    HW131628   3.232   4.239  15.718  0.0066  1.3228  0.6815
 6665SOL    HW231629   3.103   4.204  15.644 -3.4297  1.2940  0.5107
 6666SOL     OW31630   0.878   0.058   6.843 -0.1271  0.3745  0.2893
 6666SOL    HW131631   0.792   0.017   6.852  1.0004 -2.5323 -2.2399
 6666SOL    HW231632   0.865   0.151   6.864  2.3334  1.0237 -1.0029
 6667SOL     OW31633   4.477   1.336   8.901 -0.7271 -0.4668 -0.4576
 6667SOL    HW131634   4.451   1.311   8.990 -0.0937 -1.8750 -0.6864
 6667SOL    HW231635   4.471   1.254   8.853 -0.4780 -0.0502 -1.1932
 6668SOL     OW31636   2.526   0.918   5.850  0.0476  0.0956  0.5404
 6668SOL    HW131637   2.537   0.890   5.941  2.1365  0.9628  0.5485
 6668SOL    HW231638   2.457   0.857   5.825 -0.0397 -0.3650  1.8825
 6669SOL     OW31639   4.117   0.068   6.938  0.3825 -0.1957 -0.6814
 6669SOL    HW131640   4.188   0.116   6.895  1.4457  0.2824  1.5742
 6669SOL    HW231641   4.141   0.081   7.030 -0.9641 -2.5428  0.0008
 6670SOL     OW31642   1.305   1.967   6.878  0.0510  0.1503 -0.7365
 6670SOL    HW131643   1.267   2.042   6.832  0.8972  1.5461  0.8934
 6670SOL    HW231644   1.275   1.974   6.968 -0.0269 -0.7507 -0.6881
 6671SOL     OW31645   0.833   4.106  10.172 -0.0217  0.0497  0.0824
 6671SOL    HW131646   0.827   4.146  10.086  0.2423  0.9986  0.5038
 6671SOL    HW231647   0.911   4.051  10.177 -0.3315 -0.2000  2.2868
 6672SOL     OW31648   0.675   1.918   4.589 -0.2431  0.3551 -0.2710
 6672SOL    HW131649   0.706   2.008   4.575  1.0477 -0.0580  0.0044
 6672SOL    HW231650   0.586   1.925   4.555 -0.2287  0.4315 -0.2946
 6673SOL     OW31651   3.540   2.843   2.067 -0.2996  0.3636  0.3558
 6673SOL    HW131652   3.609   2.902   2.037  1.5018 -2.1787 -0.5411
 6673SOL    HW231653   3.601   2.774   2.095 -0.9763 -0.3370  0.1256
 6674SOL     OW31654   0.659   0.330   5.817 -0.6042  0.0053  0.6235
 6674SOL    HW131655   0.620   0.271   5.752 -1.2640  0.1376  0.8884
 6674SOL    HW231656   0.679   0.406   5.763  1.3844 -0.6829  0.3886
 6675SOL     OW31657   1.595   4.192   4.221  0.7376 -0.2683 -0.0661
 6675SOL    HW131658   1.526   4.175   4.158  1.0354 -0.2765 -0.3901
 6675SOL    HW231659   1.640   4.270   4.188 -0.8920  0.7520  0.1312
 6676SOL     OW31660   2.055   1.759   8.230 -0.3183 -0.3876  0.1926
 6676SOL    HW131661   2.027   1.716   8.310  1.4043  0.9409  1.5199
 6676SOL    HW231662   2.149   1.758   8.250  0.2807 -4.2180 -2.8538
 6677SOL     OW31663   3.036   0.114   8.449 -0.4392 -0.0352  0.4302
 6677SOL    HW131664   2.981   0.192   8.444 -0.4964 -0.0476  0.8546
 6677SOL    HW231665   2.998   0.057   8.381 -1.7383 -0.5576  1.5894
 6678SOL     OW31666   1.857   2.798  15.524  0.6173 -0.0198 -0.4571
 6678SOL    HW131667   1.844   2.755  15.440  0.2446 -1.2983  0.2532
 6678SOL    HW231668   1.768   2.823  15.547  1.7516  4.3033 -0.8942
 6679SOL     OW31669   2.057   4.052   4.413  0.4425 -0.1065 -0.1116
 6679SOL    HW131670   2.010   3.976   4.380 -1.5831  0.8768  0.5024
 6679SOL    HW231671   2.134   4.015   4.456  0.8822 -1.7866 -2.3731
 6680SOL     OW31672   3.141   4.258   0.228 -0.3281 -0.1458  0.1315
 6680SOL    HW131673   3.146   4.251   0.132  0.5983  1.8033  0.0519
 6680SOL    HW231674   3.148   4.165   0.250 -1.7729 -0.4007 -0.4826
 6681SOL     OW31675   1.367   1.147   8.771  0.2301  0.0776 -0.0670
 6681SOL    HW131676   1.349   1.148   8.865  0.2224 -2.3069 -0.0477
 6681SOL    HW231677   1.455   1.182   8.782 -0.1738  1.0914 -0.0584
 6682SOL     OW31678   0.246   1.639   7.692  0.0866 -0.3224 -0.0312
 6682SOL    HW131679   0.161   1.624   7.652  0.5049 -1.1965 -0.5897
 6682SOL    HW231680   0.204   1.695   7.757  3.2076  2.8951 -0.7996
 6683SOL     OW31681   1.679   1.818  14.933  0.4220 -0.8588 -0.3419
 6683SOL    HW131682   1.659   1.746  14.873 -0.7897  0.0859 -1.0749
 6683SOL    HW231683   1.735   1.880  14.886 -1.4722  1.7857  0.8475
 6684SOL     OW31684   0.064   4.668   4.153 -0.0532 -0.5893  0.1937
 6684SOL    HW131685   0.026   4.657   4.066  1.9653  0.4290 -0.8093
 6684SOL    HW231686   4.735   4.655   4.222  0.1210 -0.6917  0.3378
 6685SOL     OW31687   4.681   1.339   7.668 -0.3195 -0.1866 -0.2966
 6685SOL    HW131688   4.681   1.434   7.682 -0.7449 -0.0225 -1.4199
 6685SOL    HW231689   4.720   1.338   7.581  2.4889 -0.1863  0.9504
 6686SOL     OW31690   1.409   4.569  16.531  0.2667  0.2332 -0.2136
 6686SOL    HW131691   1.461   4.489  16.521  0.4597  0.5492 -1.7626
 6686SOL    HW231692   1.397   4.594  16.440  0.1154 -2.1845 -0.8654
 6687SOL     OW31693   2.758   4.621   4.339 -0.3304 -0.4406 -0.5403
 6687SOL    HW131694   2.679   4.674   4.327  0.3187  0.9108  1.1288
 6687SOL    HW231695   2.824   4.677   4.298 -1.3058  1.3893  0.3792
 6688SOL     OW31696   4.091   4.389   5.228  0.5649  0.3024  0.9324
 6688SOL    HW131697   4.059   4.336   5.155  0.1738 -0.7482  1.8634
 6688SOL    HW231698   4.117   4.331   5.300  0.1614 -2.1028 -0.8497
 6689SOL     OW31699   3.501   1.688   6.326 -0.5597 -0.1516  0.5903
 6689SOL    HW131700   3.427   1.627   6.331  0.7019 -1.5553  1.9487
 6689SOL    HW231701   3.561   1.639   6.381 -1.2819 -1.5120  0.1659
 6690SOL     OW31702   2.729   3.169   3.259 -0.3321  0.3572  0.1688
 6690SOL    HW131703   2.664   3.179   3.330 -0.8968  0.2242 -0.3267
 6690SOL    HW231704   2.728   3.077   3.231  1.2679  0.0843  1.0507
 6691SOL     OW31705   1.879   0.494   6.232  0.3116  0.1059 -0.5528
 6691SOL    HW131706   1.915   0.553   6.165 -1.6884  1.1937 -0.6685
 6691SOL    HW231707   1.925   0.413   6.210  1.4556  0.5993  0.0417
 6692SOL     OW31708   1.700   0.077   0.835  0.3043  0.1374 -0.1713
 6692SOL    HW131709   1.635   0.132   0.791 -0.8973 -0.8227  0.4104
 6692SOL    HW231710   1.744   0.023   0.770 -0.6167  1.7904 -2.1818
 6693SOL     OW31711   1.175   1.922   3.114  0.3471  0.1232 -0.5574
 6693SOL    HW131712   1.268   1.909   3.097  0.8136  1.1316  1.1685
 6693SOL    HW231713   1.138   1.926   3.026 -2.5093 -1.6384  0.5310
 6694SOL     OW31714   2.727   4.501   8.510  0.0267 -0.0358  0.3723
 6694SOL    HW131715   2.662   4.564   8.481 -1.1774 -1.2089  0.5057
 6694SOL    HW231716   2.676   4.424   8.536 -0.8642  0.5400  0.3257
 6695SOL     OW31717   4.060   3.630  13.116 -0.0890 -0.2027 -0.1170
 6695SOL    HW131718   3.972   3.650  13.148 -0.4415  0.0502 -1.2354
 6695SOL    HW231719   4.098   3.717  13.129  0.2114 -0.3376 -0.0977
 6696SOL     OW31720   3.271   0.276   3.296  0.1330 -0.0200 -0.3804
 6696SOL    HW131721   3.313   0.261   3.381  2.1162  1.6969 -1.0409
 6696SOL    HW231722   3.179   0.289   3.318  0.4672  2.0149 -0.1541
 6697SOL     OW31723   3.267   0.700   5.748  0.3821  0.1265  1.1764
 6697SOL    HW131724   3.327   0.774   5.749  0.2775  0.2146  0.6856
 6697SOL    HW231725   3.203   0.740   5.807  0.1336 -1.3914  1.9517
 6698SOL     OW31726   1.260   0.300  15.610 -0.1916  0.0361  0.1993
 6698SOL    HW131727   1.212   0.239  15.554  0.4829 -0.9692  0.7117
 6698SOL    HW231728   1.350   0.269  15.594 -1.5704 -3.0635 -1.6166
 6699SOL     OW31729   4.278   2.392   9.130  0.0535  0.0214 -0.2013
 6699SOL    HW131730   4.192   2.383   9.171  0.3740 -1.1915  0.2067
 6699SOL    HW231731   4.256   2.386   9.037  0.0804  1.4648 -0.3003
 6700SOL     OW31732   1.193   4.677   2.855 -0.1222 -0.2471 -0.2543
 6700SOL    HW131733   1.269   4.733   2.870 -0.3069 -0.3078  0.8791
 6700SOL    HW231734   1.119   0.003   2.861 -0.5378 -0.8772  1.0923
 6701SOL     OW31735   2.143   2.019   4.421  0.0944  0.0456 -0.0178
 6701SOL    HW131736   2.188   2.088   4.372  0.6688 -0.6309 -0.4673
 6701SOL    HW231737   2.210   2.003   4.488  0.4921 -4.1629 -1.3571
 6702SOL     OW31738   0.369   4.558   1.784 -0.2791 -0.1181 -0.5434
 6702SOL    HW131739   0.398   4.501   1.712 -2.4207  0.0456 -1.5577
 6702SOL    HW231740   0.302   4.498   1.817  0.0641  0.2204  0.7420
 6703SOL     OW31741   4.517   0.087  16.473  0.0330 -0.0016 -0.1974
 6703SOL    HW131742   4.423   0.077  16.493  0.2322 -0.8583  0.3280
 6703SOL    HW231743   4.567   0.067  16.551  1.2232  0.0239 -0.9593
 6704SOL     OW31744   4.161   4.372   4.137 -0.5756 -0.1952  0.4281
 6704SOL    HW131745   4.162   4.293   4.191  1.9136  0.1050  0.8150
 6704SOL    HW231746   4.191   4.442   4.196 -0.7873  1.0702 -0.9514
 6705SOL     OW31747   1.105   3.742   0.355 -0.2731 -0.6899 -0.3240
 6705SOL    HW131748   1.170   3.730   0.423 -0.9528 -1.1786  0.2381
 6705SOL    HW231749   1.046   3.814   0.381 -2.6637 -3.7738  2.7544
 6706SOL     OW31750   0.063   3.726   8.128  0.5127 -0.2427  0.1670
 6706SOL    HW131751   0.099   3.814   8.126 -0.5780  0.2288  1.1154
 6706SOL    HW231752   0.039   3.734   8.036  0.9479 -0.6902  0.0179
 6707SOL     OW31753   1.654   3.509   9.611  0.2053  0.4441  0.5098
 6707SOL    HW131754   1.722   3.567   9.577 -0.3586  0.4733 -0.5573
 6707SOL    HW231755   1.569   3.540   9.582 -0.8155 -0.6712  2.2690
 6708SOL     OW31756   4.236   3.683  12.754  0.8805 -0.1648  0.0526
 6708SOL    HW131757   4.221   3.633  12.834  0.2450  1.2635  0.8186
 6708SOL    HW231758   4.233   3.611  12.690  1.1709 -0.1117 -0.0198
 6709SOL     OW31759   3.323   2.099   1.914  0.1787 -0.2511  0.1499
 6709SOL    HW131760   3.233   2.070   1.930 -0.4086  0.9655 -1.0081
 6709SOL    HW231761   3.368   2.015   1.903 -0.8797 -0.4523 -2.8046
 6710SOL     OW31762   1.698   3.144   4.159 -0.1985 -0.4329  0.5724
 6710SOL    HW131763   1.788   3.169   4.138 -0.2852 -1.8309 -1.4904
 6710SOL    HW231764   1.716   3.082   4.229  0.2858 -1.4316 -0.4421
 6711SOL     OW31765   1.689   0.737   4.928  0.1699  0.1086  0.1407
 6711SOL    HW131766   1.721   0.647   4.936 -1.3516 -0.4730 -0.3425
 6711SOL    HW231767   1.669   0.746   4.835  0.5088  0.6321  0.1177
 6712SOL     OW31768   1.810   4.428   7.276  0.3412  0.0014  0.1104
 6712SOL    HW131769   1.781   4.371   7.205  0.1014 -0.6899  0.7626
 6712SOL    HW231770   1.750   4.502   7.280  0.1349 -0.2650  2.2066
 6713SOL     OW31771   4.465   4.368   6.875 -0.3699 -0.1627 -0.4452
 6713SOL    HW131772   4.501   4.279   6.868 -1.1164 -0.6940  2.8385
 6713SOL    HW231773   4.387   4.354   6.821 -0.4562  0.3133 -0.4410
 6714SOL     OW31774   1.257   2.763  15.894  0.3198 -0.7551  0.2120
 6714SOL    HW131775   1.201   2.728  15.825 -1.2992  0.6768  0.7796
 6714SOL    HW231776   1.276   2.850  15.857 -0.3673 -0.0578  1.5107
 6715SOL     OW31777   1.565   1.391   3.241 -0.4895 -0.0212 -0.3782
 6715SOL    HW131778   1.651   1.351   3.248  0.6572  2.3968 -0.7448
 6715SOL    HW231779   1.518   1.337   3.305 -1.2680  2.4456  1.1304
 6716SOL     OW31780   4.632   3.744  16.984 -0.4294  0.1205 -0.0421
 6716SOL    HW131781   4.550   3.793  16.994 -0.8150 -0.7702  1.1512
 6716SOL    HW231782   4.690   3.801  17.034 -0.0136 -2.7065  2.6871
 6717SOL     OW31783   3.032   4.286  11.063  0.3336 -0.2366 -0.3487
 6717SOL    HW131784   2.984   4.226  11.121  0.7800  0.3377  0.6213
 6717SOL    HW231785   3.119   4.249  11.045  0.1285 -1.2633  0.7381
 6718SOL     OW31786   4.126   3.174   8.605  0.2466  0.0655  0.2102
 6718SOL    HW131787   4.037   3.156   8.637 -0.0599  1.9387  0.4147
 6718SOL    HW231788   4.166   3.089   8.587 -0.5634 -0.1775 -0.4137
 6719SOL     OW31789   0.372   4.331   8.959  0.2536  0.1227 -0.3449
 6719SOL    HW131790   0.345   4.240   8.953 -0.9206  0.3787  1.0028
 6719SOL    HW231791   0.367   4.360   8.868 -1.1189  1.0471  0.0153
 6720SOL     OW31792   0.263   3.071   3.041  0.1055 -0.7717  0.7355
 6720SOL    HW131793   0.328   3.124   2.995  0.6223 -0.5307  1.7355
 6720SOL    HW231794   0.278   2.984   3.002 -1.6348 -1.0787  0.7555
 6721SOL     OW31795   0.797   0.676   5.491  0.1848  0.2276  0.2479
 6721SOL    HW131796   0.765   0.733   5.420 -0.3535  0.3149  0.5598
 6721SOL    HW231797   0.711   0.638   5.508  0.3419 -0.6626 -0.9655
 6722SOL     OW31798   4.211   0.797   1.777  0.0511  0.7126 -0.2717
 6722SOL    HW131799   4.288   0.775   1.830  0.0675  0.9519 -0.1967
 6722SOL    HW231800   4.146   0.835   1.837  1.1573 -0.1613  1.5020
 6723SOL     OW31801   3.059   2.141   1.697 -0.0743 -0.3173  0.0491
 6723SOL    HW131802   2.994   2.210   1.712  0.7911  0.1457  1.7055
 6723SOL    HW231803   3.055   2.102   1.785  1.4368 -1.2101 -0.2829
 6724SOL     OW31804   1.272   3.184   8.643 -0.1699 -0.4618 -0.4889
 6724SOL    HW131805   1.243   3.238   8.570 -2.0308  0.8099  1.1676
 6724SOL    HW231806   1.306   3.249   8.704 -1.0526 -2.6164  2.3470
 6725SOL     OW31807   1.013   4.372   1.380  0.3314 -0.2300 -0.1926
 6725SOL    HW131808   1.059   4.424   1.315 -2.2092  0.9202 -1.0724
 6725SOL    HW231809   0.946   4.342   1.319  1.9592 -1.2274 -1.4874
 6726SOL     OW31810   1.968   2.280   8.458 -0.0551 -0.5499 -0.0001
 6726SOL    HW131811   1.963   2.248   8.368  2.4685 -1.6743  0.2382
 6726SOL    HW231812   1.876   2.292   8.481  0.3494  1.5053  0.5038
 6727SOL     OW31813   2.309   3.926   5.648  0.6683 -0.3162  0.4272
 6727SOL    HW131814   2.372   3.963   5.585  0.4456 -0.1542  0.3028
 6727SOL    HW231815   2.352   3.939   5.733  1.1705  1.2681 -0.0601
 6728SOL     OW31816   4.526   0.731   7.676  0.0270  0.1254 -0.0823
 6728SOL    HW131817   4.471   0.796   7.632 -1.8613 -1.5683 -0.2059
 6728SOL    HW231818   4.501   0.659   7.618 -0.6356 -1.5767  2.3303
 6729SOL     OW31819   1.673   4.006   6.465  0.0226 -0.4781  0.1886
 6729SOL    HW131820   1.607   4.036   6.401  1.8914  2.1453 -0.5194
 6729SOL    HW231821   1.694   3.918   6.436 -1.7380 -1.5665  2.2297
 6730SOL     OW31822   0.959   0.015   5.914  0.1488 -0.3360 -0.0371
 6730SOL    HW131823   1.004   4.668   5.934 -0.2765 -0.6643 -0.4627
 6730SOL    HW231824   0.878   4.713   5.880  0.4930 -0.9581 -0.1683
 6731SOL     OW31825   3.148   4.038  14.661 -0.0293 -0.1772 -0.7100
 6731SOL    HW131826   3.072   4.082  14.699  2.3349  1.8488  1.6442
 6731SOL    HW231827   3.217   4.054  14.725  0.1185 -2.0282 -0.3806
 6732SOL     OW31828   0.050   1.344   5.266  0.1943  0.4729 -0.0066
 6732SOL    HW131829   0.118   1.402   5.231 -0.6454  0.8177 -1.0686
 6732SOL    HW231830   0.012   1.392   5.340  0.5364  0.4687  0.1742
 6733SOL     OW31831   2.435   0.857   4.760 -0.7437  0.4212 -0.1140
 6733SOL    HW131832   2.363   0.815   4.807 -0.6567 -0.7860 -1.0454
 6733SOL    HW231833   2.462   0.919   4.828 -0.6936 -1.5667  1.6742
 6734SOL     OW31834   4.128   0.401  10.412 -0.0873 -0.2544 -0.5383
 6734SOL    HW131835   4.174   0.317  10.423 -0.5899 -0.6815 -1.6914
 6734SOL    HW231836   4.071   0.381  10.338 -0.9437  0.0087  0.0537
 6735SOL     OW31837   4.500   1.818   2.523 -0.0186 -0.4350 -0.1620
 6735SOL    HW131838   4.571   1.789   2.581 -1.5335  0.0534  1.9458
 6735SOL    HW231839   4.461   1.884   2.580  0.0049 -0.0731 -0.5739
 6736SOL     OW31840   4.106   3.630  16.119  0.1238  0.6155 -0.5019
 6736SOL    HW131841   4.038   3.639  16.051 -0.5866  0.3435  0.1638
 6736SOL    HW231842   4.175   3.593  16.065  0.9367 -0.9406  1.6127
 6737SOL     OW31843   1.226   2.324   7.217 -0.3097 -0.3645  0.4423
 6737SOL    HW131844   1.147   2.312   7.269 -0.8129 -3.1546 -0.9373
 6737SOL    HW231845   1.241   2.417   7.230  1.4015 -0.4278 -1.0711
 6738SOL     OW31846   2.981   4.296   1.655  0.2750 -0.4098 -0.1548
 6738SOL    HW131847   2.958   4.315   1.746  0.2973  0.8941 -0.4239
 6738SOL    HW231848   3.031   4.376   1.639  0.1663 -0.3409 -0.1445
 6739SOL     OW31849   1.690   0.018   7.700  0.9391  0.2004 -0.4328
 6739SOL    HW131850   1.744   0.058   7.632  0.6979 -1.1960 -1.4584
 6739SOL    HW231851   1.746   4.686   7.738 -0.5618  1.3111  3.7206
 6740SOL     OW31852   0.497   0.259   7.359  0.1445 -0.5278 -0.1488
 6740SOL    HW131853   0.442   0.330   7.391  1.7030  1.3792 -1.7041
 6740SOL    HW231854   0.458   0.248   7.272 -2.2592  1.4443  0.6906
 6741SOL     OW31855   4.277   2.513   5.690 -0.0252 -0.3119 -0.1683
 6741SOL    HW131856   4.342   2.442   5.691 -0.9763 -1.1748  0.5873
 6741SOL    HW231857   4.212   2.477   5.751 -0.6072 -1.4269 -1.4600
 6742SOL     OW31858   1.954   4.095  15.044 -0.1561  0.1598 -0.6269
 6742SOL    HW131859   2.016   4.160  15.078 -0.8748  1.1790 -1.2733
 6742SOL    HW231860   1.944   4.048  15.127 -0.6285 -0.8903 -1.2810
 6743SOL     OW31861   1.190   0.133   3.953  0.1919 -0.0271 -0.4153
 6743SOL    HW131862   1.263   0.113   3.894  0.9206  0.5436  0.2985
 6743SOL    HW231863   1.111   0.137   3.899  0.8727  1.2730 -1.3145
 6744SOL     OW31864   3.087   3.866  12.199  0.0592 -0.4544 -0.6993
 6744SOL    HW131865   3.036   3.877  12.119 -2.0154  2.3493  1.0161
 6744SOL    HW231866   3.081   3.770  12.196 -1.7763 -0.3565 -0.1617
 6745SOL     OW31867   1.895   1.712   6.991  0.5259 -0.2306 -0.3379
 6745SOL    HW131868   1.868   1.778   6.928 -0.5664  0.1594  0.5438
 6745SOL    HW231869   1.958   1.767   7.037  1.5910 -1.3610 -0.4376
 6746SOL     OW31870   0.249   2.266   6.361 -0.3382 -0.8040  0.6222
 6746SOL    HW131871   0.283   2.177   6.348  0.3929 -0.6677  1.6049
 6746SOL    HW231872   0.315   2.296   6.424  0.4948  1.1702 -1.2018
 6747SOL     OW31873   2.722   0.779   6.902  0.3511 -0.2607  0.3527
 6747SOL    HW131874   2.655   0.848   6.902 -1.8367 -2.3890 -2.2784
 6747SOL    HW231875   2.798   0.834   6.922  1.0607 -0.1158 -2.7132
 6748SOL     OW31876   1.492   1.139   2.551 -0.9716  0.2935  0.2526
 6748SOL    HW131877   1.486   1.054   2.595 -3.4285 -0.0099 -0.6638
 6748SOL    HW231878   1.506   1.204   2.620  0.3683 -0.1339  0.3713
 6749SOL     OW31879   3.957   3.260   4.772  0.1520 -0.0917 -0.5236
 6749SOL    HW131880   4.027   3.210   4.731  1.1211  1.8722 -1.2461
 6749SOL    HW231881   3.902   3.285   4.698 -0.9063 -4.2739 -1.1450
 6750SOL     OW31882   3.496   2.780   9.126  0.3244  0.1074 -0.3999
 6750SOL    HW131883   3.452   2.751   9.207  1.8503 -0.1563  0.3345
 6750SOL    HW231884   3.573   2.724   9.136  0.1808 -0.0629 -0.2305
 6751SOL     OW31885   0.842   2.541  11.824 -0.6715 -0.2729  0.1303
 6751SOL    HW131886   0.859   2.526  11.917 -1.0098 -0.0150  0.2336
 6751SOL    HW231887   0.903   2.607  11.791 -0.0020 -0.5412  0.8297
 6752SOL     OW31888   2.932   0.040   4.173  0.0579 -0.2203  0.1267
 6752SOL    HW131889   2.992   4.734   4.111  2.5158  0.3361  2.1187
 6752SOL    HW231890   2.869   0.076   4.111 -3.3989 -1.4490  2.9860
 6753SOL     OW31891   3.930   4.189  10.068  1.0726 -0.2861  0.0881
 6753SOL    HW131892   3.953   4.098  10.085 -1.2231 -0.4116  2.6871
 6753SOL    HW231893   4.016   4.231  10.069  0.8595  0.1095  1.7263
 6754SOL     OW31894   2.474   3.773   0.429  0.4072  0.0901 -0.0629
 6754SOL    HW131895   2.546   3.796   0.370 -1.8142 -0.6216 -2.9861
 6754SOL    HW231896   2.521   3.769   0.513  1.2559  0.6039 -0.5066
 6755SOL     OW31897   1.629   0.121   3.512 -0.0522 -0.0883 -0.6012
 6755SOL    HW131898   1.638   0.026   3.506 -0.5276 -0.2509  1.3358
 6755SOL    HW231899   1.619   0.153   3.422  0.0053  0.5040 -0.3963
 6756SOL     OW31900   2.769   0.404   5.862 -0.0136 -0.5703  0.5810
 6756SOL    HW131901   2.677   0.395   5.840 -0.0979  4.7982 -1.2369
 6756SOL    HW231902   2.760   0.459   5.940 -1.0098  0.3429 -0.1878
 6757SOL     OW31903   1.768   3.048   5.189  0.0439 -0.7013  0.3342
 6757SOL    HW131904   1.812   2.999   5.259  0.3418 -0.8801  0.0238
 6757SOL    HW231905   1.772   2.983   5.119 -1.6286 -0.2417 -0.1683
 6758SOL     OW31906   2.972   0.208   6.195  0.1746  0.5648 -0.1783
 6758SOL    HW131907   2.973   0.182   6.103  1.0579  1.8545 -0.5366
 6758SOL    HW231908   3.033   0.148   6.237 -1.8557 -0.5999  1.0754
 6759SOL     OW31909   0.794   0.371  10.207  0.2852 -0.5564 -0.4355
 6759SOL    HW131910   0.814   0.454  10.249  1.0903 -0.4154 -1.1075
 6759SOL    HW231911   0.879   0.328  10.219 -0.3542 -1.3165  1.4601
 6760SOL     OW31912   1.947   3.951   1.173 -0.5688 -0.8741  0.1618
 6760SOL    HW131913   1.957   4.021   1.238 -1.5062 -1.0503  0.4862
 6760SOL    HW231914   1.969   3.997   1.092 -1.8134 -3.5410 -1.6728
 6761SOL     OW31915   0.799   2.901   4.198  0.1129  0.1846  0.1464
 6761SOL    HW131916   0.847   2.824   4.169  0.4496  0.1499  0.8009
 6761SOL    HW231917   0.767   2.880   4.286  0.5593 -1.7391 -0.1422
 6762SOL     OW31918   2.484   0.226   6.734 -0.3124  0.1325 -0.3165
 6762SOL    HW131919   2.393   0.256   6.724 -0.5482  0.5800  3.1471
 6762SOL    HW231920   2.478   0.148   6.789 -0.7255 -0.4718 -1.2057
 6763SOL     OW31921   4.259   2.712   9.979 -0.5063  0.3296 -0.1113
 6763SOL    HW131922   4.291   2.774  10.045  0.7626 -0.1888 -0.2461
 6763SOL    HW231923   4.332   2.705   9.918  0.4870 -3.3799  1.5253
 6764SOL     OW31924   1.755   3.948   0.873  0.3223 -0.0083 -0.1490
 6764SOL    HW131925   1.664   3.953   0.904  0.5604  1.5020  0.2815
 6764SOL    HW231926   1.735   3.878   0.811 -0.3205 -0.5827  0.6959
 6765SOL     OW31927   3.280   1.531   8.400 -0.6384  0.5552 -0.4079
 6765SOL    HW131928   3.210   1.540   8.465  0.4332 -0.6417  0.9069
 6765SOL    HW231929   3.315   1.446   8.428  0.0012  0.9791  0.0869
 6766SOL     OW31930   0.996   1.561   3.952  0.4136  0.4187 -0.1947
 6766SOL    HW131931   1.033   1.485   3.997  1.8253  0.6743 -0.9407
 6766SOL    HW231932   0.910   1.571   3.992 -0.1460  0.4931 -1.4215
 6767SOL     OW31933   2.808   1.697  13.415  0.0542 -0.2891 -0.5898
 6767SOL    HW131934   2.834   1.712  13.324  1.0790  0.3735 -0.1960
 6767SOL    HW231935   2.894   1.677  13.453  0.4599 -0.3559 -1.5353
 6768SOL     OW31936   2.209   2.978   5.786  0.2041 -0.0315 -0.1080
 6768SOL    HW131937   2.161   2.983   5.868  1.8632  2.3164  0.7038
 6768SOL    HW231938   2.239   3.068   5.775 -1.3742  0.2531 -2.2146
 6769SOL     OW31939   3.262   2.360  13.738 -0.1922  0.6714  0.0536
 6769SOL    HW131940   3.209   2.319  13.806  1.1362  1.8313  1.7977
 6769SOL    HW231941   3.321   2.415  13.789  0.9172  0.1319 -0.6552
 6770SOL     OW31942   1.445   3.395   3.811  0.5790  0.1411 -0.2349
 6770SOL    HW131943   1.458   3.310   3.854 -0.1358  0.9616  1.5881
 6770SOL    HW231944   1.359   3.422   3.842  0.6514  0.6038 -0.4353
 6771SOL     OW31945   0.905   0.752  10.893 -0.0002 -0.7989 -0.3394
 6771SOL    HW131946   0.817   0.758  10.855 -0.2375  0.7972  0.4705
 6771SOL    HW231947   0.959   0.784  10.820  0.8577 -0.6598  0.3621
 6772SOL     OW31948   0.101   0.710   6.769  0.4502  0.5154  0.1753
 6772SOL    HW131949   0.014   0.682   6.797  0.8918  0.0367  1.0610
 6772SOL    HW231950   0.097   0.703   6.673  2.0534 -1.4636  0.2396
 6773SOL     OW31951   0.799   2.571   1.827 -0.2933  0.2310  1.1784
 6773SOL    HW131952   0.869   2.522   1.870 -0.1543  0.0007  0.6821
 6773SOL    HW231953   0.722   2.515   1.837  0.0439 -0.5019 -0.3139
 6774SOL     OW31954   3.988   2.453  13.492 -0.4858 -0.5005 -0.0302
 6774SOL    HW131955   4.024   2.364  13.490  0.1308 -0.2617  0.8956
 6774SOL    HW231956   4.002   2.478  13.583  0.2150  0.1891 -0.3340
 6775SOL     OW31957   1.979   1.492   4.398  0.1810  0.1495 -0.6135
 6775SOL    HW131958   1.938   1.406   4.402 -2.7466  1.6678  1.7614
 6775SOL    HW231959   1.899   1.545   4.400  0.7208  1.0067 -1.5106
 6776SOL     OW31960   2.239   4.422  12.862 -0.6132 -0.7779 -0.1615
 6776SOL    HW131961   2.187   4.342  12.874  0.7340 -1.5530  0.5786
 6776SOL    HW231962   2.278   4.435  12.949 -2.6093 -0.3369  0.6607
 6777SOL     OW31963   1.507   4.279  11.608 -0.2260 -0.2342  0.0941
 6777SOL    HW131964   1.522   4.235  11.525  0.6513 -0.9219  0.6160
 6777SOL    HW231965   1.596   4.279  11.641  0.3834 -0.4180 -1.5504
 6778SOL     OW31966   0.565   1.784   3.291 -0.6696  0.1152 -0.4442
 6778SOL    HW131967   0.578   1.703   3.242  0.7444 -1.0500  1.8726
 6778SOL    HW231968   0.475   1.774   3.324  0.1692  0.4709  1.9515
 6779SOL     OW31969   2.261   0.379   6.439  0.2218 -0.5047  0.0344
 6779SOL    HW131970   2.250   0.319   6.513  0.8268 -0.3186  0.2736
 6779SOL    HW231971   2.251   0.456   6.495 -0.5594  0.1672 -1.0029
 6780SOL     OW31972   3.978   2.461   9.215  0.5990  0.2672  0.7135
 6780SOL    HW131973   4.000   2.399   9.285 -2.7796 -2.3681 -0.5460
 6780SOL    HW231974   3.983   2.543   9.263  0.9926 -0.2793  1.6020
 6781SOL     OW31975   3.552   1.594   3.967 -0.3128 -0.1518 -0.3599
 6781SOL    HW131976   3.461   1.586   3.940 -0.8036  0.1347  1.2142
 6781SOL    HW231977   3.552   1.525   4.033 -2.0326  2.1212  2.0170
 6782SOL     OW31978   1.042   3.582  15.112 -0.6244  0.1234  0.4497
 6782SOL    HW131979   0.992   3.511  15.152 -1.2773  1.1171  1.4136
 6782SOL    HW231980   0.988   3.655  15.142 -0.3358  0.7949 -0.6602
 6783SOL     OW31981   3.884   2.393   2.414  0.5088  0.4834  0.6060
 6783SOL    HW131982   3.943   2.386   2.489  0.0083 -0.4971  0.9118
 6783SOL    HW231983   3.828   2.316   2.416 -0.3810  1.1889  2.8286
 6784SOL     OW31984   2.097   1.308  10.449 -0.2632 -0.2701 -0.2044
 6784SOL    HW131985   2.071   1.384  10.503  1.3592 -1.0179  1.6193
 6784SOL    HW231986   2.064   1.332  10.362  0.9610  1.6569 -0.1439
 6785SOL     OW31987   4.244   1.494   9.759  0.2009 -0.3393 -0.7193
 6785SOL    HW131988   4.173   1.484   9.823  0.0271  1.7974 -0.5581
 6785SOL    HW231989   4.200   1.535   9.684 -1.1961  2.0721  1.3987
 6786SOL     OW31990   0.194   1.391  12.291  0.2305  0.2447 -0.2790
 6786SOL    HW131991   0.281   1.431  12.288  0.8641 -1.2296 -1.1573
 6786SOL    HW231992   0.168   1.421  12.379 -1.0900  0.3705 -0.7056
 6787SOL     OW31993   0.508   2.666   2.997 -0.2843 -0.4907  0.1337
 6787SOL    HW131994   0.460   2.749   2.989  1.0784  0.4829  1.9429
 6787SOL    HW231995   0.472   2.639   3.082 -0.7033  0.7356  0.3532
 6788SOL     OW31996   0.758   0.668  10.626 -0.2359  0.0376  0.5334
 6788SOL    HW131997   0.663   0.670  10.636 -0.4335 -1.5478 -0.8444
 6788SOL    HW231998   0.763   0.747  10.572  0.6742 -0.0704  0.4619
 6789SOL     OW31999   1.647   0.736   8.791  0.3902  0.6369  0.1712
 6789SOL    HW132000   1.741   0.751   8.783  0.6980 -1.6155 -0.4847
 6789SOL    HW232001   1.637   0.642   8.805  1.0702  0.2728 -1.8278
 6790SOL     OW32002   3.275   4.000   6.608 -0.3608  0.2754 -0.0392
 6790SOL    HW132003   3.350   3.970   6.556 -1.2738 -2.4500  0.1994
 6790SOL    HW232004   3.224   4.033   6.535 -0.6520  2.0921  0.9835
 6791SOL     OW32005   0.424   0.350   8.071  0.0747 -0.4241 -0.4884
 6791SOL    HW132006   0.467   0.379   7.991 -0.6811 -0.4283 -0.9012
 6791SOL    HW232007   0.475   0.270   8.082  0.8872  0.3673  1.5918
 6792SOL     OW32008   1.217   1.146   5.509 -0.3473  0.2924  0.1891
 6792SOL    HW132009   1.141   1.113   5.556 -1.0912  1.6067 -0.0790
 6792SOL    HW232010   1.281   1.108   5.569  1.1024 -0.1275 -1.6445
 6793SOL     OW32011   1.250   2.343   4.910 -0.3053 -0.6362  0.2725
 6793SOL    HW132012   1.266   2.433   4.883 -3.2833  0.4855  2.2588
 6793SOL    HW232013   1.173   2.359   4.965 -0.5274 -2.9481  0.6637
 6794SOL     OW32014   0.752   0.291   2.932 -0.2470 -0.1504  0.1615
 6794SOL    HW132015   0.690   0.259   2.998  1.5207  2.4605  3.1069
 6794SOL    HW232016   0.712   0.375   2.911 -0.2372 -0.1008  0.3385
 6795SOL     OW32017   0.919   4.079   7.654  0.6297  0.2507  0.2374
 6795SOL    HW132018   0.949   4.000   7.698  0.4266 -0.5736 -1.1360
 6795SOL    HW232019   0.911   4.134   7.733  0.2236 -1.3393  1.2929
 6796SOL     OW32020   4.702   0.319   3.363 -0.4799  0.3669 -0.7875
 6796SOL    HW132021   4.723   0.390   3.302 -2.4218 -0.3704 -2.3288
 6796SOL    HW232022   0.030   0.338   3.432 -2.0691 -0.3721  0.9068
 6797SOL     OW32023   0.735   0.350   4.965 -0.0299 -0.3775 -0.4490
 6797SOL    HW132024   0.734   0.434   4.919  2.5939  0.5831  1.2094
 6797SOL    HW232025   0.792   0.389   5.032 -1.7806  1.0534  0.1863
 6798SOL     OW32026   1.525   4.181   1.335  0.3010  0.2088 -0.3004
 6798SOL    HW132027   1.489   4.221   1.414 -0.1354  0.2309 -0.5090
 6798SOL    HW232028   1.569   4.101   1.365  1.6464  0.5382 -1.4024
 6799SOL     OW32029   3.176   4.331   9.622  0.1749 -0.1932 -0.6232
 6799SOL    HW132030   3.209   4.404   9.570  0.2741 -1.8905 -2.9588
 6799SOL    HW232031   3.104   4.309   9.564 -1.0418 -0.1783  0.8832
 6800SOL     OW32032   3.449   0.913   8.211 -0.5550  0.0181  0.1128
 6800SOL    HW132033   3.428   0.982   8.148 -0.6114  0.1861  0.3149
 6800SOL    HW232034   3.522   0.953   8.258 -1.6060  0.8604  1.0385
 6801SOL     OW32035   3.026   3.529   2.744 -0.0764  0.0681  0.4017
 6801SOL    HW132036   3.062   3.445   2.716 -1.1578 -0.0189 -0.7308
 6801SOL    HW232037   3.091   3.556   2.808  2.9304 -1.3187 -2.0784
 6802SOL     OW32038   1.982   0.297   1.855 -0.3989  0.6432 -0.0120
 6802SOL    HW132039   2.000   0.273   1.946 -0.0477 -0.4890 -0.3746
 6802SOL    HW232040   1.888   0.315   1.856 -0.5225 -0.1493  2.8965
 6803SOL     OW32041   3.007   3.713   6.837  0.2684 -0.6094 -0.2084
 6803SOL    HW132042   3.022   3.644   6.901 -0.7140 -0.8744 -0.2575
 6803SOL    HW232043   3.039   3.662   6.763 -0.3674 -0.2394 -0.7425
 6804SOL     OW32044   4.091   1.477  10.499 -0.6816  0.1236  0.4917
 6804SOL    HW132045   4.093   1.415  10.426  0.5025  0.6882  0.0447
 6804SOL    HW232046   4.084   1.419  10.574 -0.1255  1.5871  1.6687
 6805SOL     OW32047   0.421   1.162   6.902 -0.0737 -0.0049  0.0357
 6805SOL    HW132048   0.458   1.143   6.988 -1.1271 -1.2174  0.2205
 6805SOL    HW232049   0.352   1.221   6.932  1.6236  0.8741  2.1726
 6806SOL     OW32050   4.644   1.618   6.905  0.3143  0.9175 -0.0138
 6806SOL    HW132051   4.708   1.670   6.954  1.1162 -0.4478  0.3648
 6806SOL    HW232052   4.684   1.531   6.907  1.3673  1.4303  1.2530
 6807SOL     OW32053   1.173   4.358  11.980  0.2215  0.2742 -0.4619
 6807SOL    HW132054   1.242   4.391  11.923 -1.0212  0.4966 -1.8339
 6807SOL    HW232055   1.186   4.263  11.975  3.9793  0.7449  0.2098
 6808SOL     OW32056   0.169   1.330   2.035 -0.4941 -0.1699 -0.2079
 6808SOL    HW132057   0.093   1.290   2.078 -0.9151 -0.9330 -1.6558
 6808SOL    HW232058   0.132   1.416   2.018  1.2710  0.9513  1.5672
 6809SOL     OW32059   2.418   1.762  15.151 -0.1863  0.1354  0.1687
 6809SOL    HW132060   2.346   1.813  15.187  1.0556 -0.3024  3.2792
 6809SOL    HW232061   2.371   1.722  15.078 -0.5404  0.9886 -0.0685
 6810SOL     OW32062   3.752   0.527   4.551 -0.5674  0.6309  0.2731
 6810SOL    HW132063   3.736   0.447   4.502 -0.8822  0.7723  0.1486
 6810SOL    HW232064   3.806   0.487   4.620  0.1393  0.0108 -0.6397
 6811SOL     OW32065   3.477   2.641   7.178  0.2854  0.1663  0.3029
 6811SOL    HW132066   3.469   2.547   7.192  1.2355 -0.0203 -0.3905
 6811SOL    HW232067   3.537   2.640   7.103  0.0754  1.7593  0.1069
 6812SOL     OW32068   0.285   3.494   3.300  0.3238  0.1522  0.3850
 6812SOL    HW132069   0.273   3.485   3.206 -0.2180  2.2101  0.2459
 6812SOL    HW232070   0.273   3.402   3.324 -0.7564 -0.2665 -1.8063
 6813SOL     OW32071   1.467   0.045   5.610 -0.1356 -0.0093  0.1018
 6813SOL    HW132072   1.508   4.715   5.553  0.0532 -1.8804  2.4162
 6813SOL    HW232073   1.535   0.111   5.624 -1.1707  1.0902 -0.0920
 6814SOL     OW32074   4.502   4.394   4.719  0.3711  0.4963 -0.3089
 6814SOL    HW132075   4.460   4.371   4.802  1.7296  1.9141  0.7640
 6814SOL    HW232076   4.570   4.458   4.740  0.7222  0.4603 -1.3269
 6815SOL     OW32077   4.619   1.883  10.130  0.7101  0.4081 -0.5912
 6815SOL    HW132078   4.710   1.879  10.161  0.7097  1.5677 -0.4279
 6815SOL    HW232079   4.636   1.914  10.041  2.8000  0.4320 -0.2004
 6816SOL     OW32080   1.952   0.978  17.560  0.1559  0.3995  0.0871
 6816SOL    HW132081   1.935   0.936  17.645 -1.2257  0.5524 -0.1252
 6816SOL    HW232082   2.041   0.960  17.530 -0.2964 -0.3095 -0.8398
 6817SOL     OW32083   0.798   4.578   2.879 -0.6373 -0.8936 -0.3129
 6817SOL    HW132084   0.783   4.657   2.828  3.7027  0.2880  0.2832
 6817SOL    HW232085   0.798   4.516   2.807 -0.8646 -2.0542  0.6790
 6818SOL     OW32086   2.266   2.537   5.073  0.5220  0.1194 -0.1868
 6818SOL    HW132087   2.332   2.599   5.044 -0.3805  1.4637  0.6481
 6818SOL    HW232088   2.293   2.462   5.020 -0.1323  0.1575 -0.5702
 6819SOL     OW32089   1.893   1.224  17.639 -0.2776  0.6442  0.8125
 6819SOL    HW132090   1.874   1.145  17.588 -1.1574  0.6219  1.1737
 6819SOL    HW232091   1.825   1.288  17.620  1.5550  1.8551 -1.5836
 6820SOL     OW32092   3.360   2.003   4.386  0.0658 -0.2978 -0.0323
 6820SOL    HW132093   3.370   2.038   4.474  0.2410 -1.2064  0.3098
 6820SOL    HW232094   3.420   2.063   4.342  0.5950 -1.6605 -1.1515
 6821SOL     OW32095   0.164   1.026   5.872 -0.4772  0.5764 -0.3645
 6821SOL    HW132096   0.243   0.995   5.827 -1.6491 -1.4114 -1.0354
 6821SOL    HW232097   0.102   0.954   5.860  0.6006 -0.1791 -1.4528
 6822SOL     OW32098   1.546   0.756   3.531 -0.3104  0.1395 -0.1804
 6822SOL    HW132099   1.598   0.809   3.591  0.4418 -1.6926  0.7786
 6822SOL    HW232100   1.604   0.684   3.509 -0.3920 -0.3110  1.0549
 6823SOL     OW32101   1.308   1.802   3.826 -0.2849 -0.3481  0.1445
 6823SOL    HW132102   1.249   1.816   3.752  0.0598 -2.2692 -0.4859
 6823SOL    HW232103   1.252   1.760   3.891 -1.2054 -0.6362 -0.8436
 6824SOL     OW32104   3.445   1.863   7.925  0.1686 -0.1930  0.2382
 6824SOL    HW132105   3.460   1.917   8.002 -3.4851 -1.2330  1.7047
 6824SOL    HW232106   3.536   1.838   7.912 -0.1270 -0.3859 -1.5313
 6825SOL     OW32107   1.454   4.545   9.020  0.5867  0.0758 -0.3613
 6825SOL    HW132108   1.450   4.462   9.068  0.1674 -0.5935 -1.5422
 6825SOL    HW232109   1.376   4.539   8.965 -0.6698 -0.1866  1.4567
 6826SOL     OW32110   3.108   0.016   2.042 -0.0540 -0.1496  0.1247
 6826SOL    HW132111   3.148   4.667   2.025  2.6649  1.3536 -0.8973
 6826SOL    HW232112   3.062   0.017   1.958 -1.4608 -1.8333  0.8889
 6827SOL     OW32113   0.591   0.017   3.260 -0.8099  0.0501  0.4372
 6827SOL    HW132114   0.512   0.004   3.313 -1.3562 -0.4181 -0.4900
 6827SOL    HW232115   0.602   4.666   3.222 -0.0323 -0.8673  2.7612
 6828SOL     OW32116   3.863   0.355   1.951 -0.0860  0.2050  0.0101
 6828SOL    HW132117   3.912   0.385   1.874  0.9468  1.2518  1.0717
 6828SOL    HW232118   3.923   0.295   1.996 -1.8524 -1.6851 -0.1593
 6829SOL     OW32119   2.392   3.147   6.426 -0.7492  0.2399 -0.4094
 6829SOL    HW132120   2.404   3.231   6.471 -0.9919 -0.9521  1.8799
 6829SOL    HW232121   2.435   3.169   6.344  1.2574 -0.2364  0.4979
 6830SOL     OW32122   1.444   4.637  11.333  0.0408  0.3672 -0.5320
 6830SOL    HW132123   1.360   4.663  11.370  1.1186  0.1778  2.0565
 6830SOL    HW232124   1.466   4.720  11.291  1.5868  0.3871  0.2832
 6831SOL     OW32125   3.042   4.548   8.516 -0.1230 -0.2701 -1.1562
 6831SOL    HW132126   3.135   4.526   8.513 -0.2365 -1.0181  0.6519
 6831SOL    HW232127   3.007   4.475   8.567 -0.3163 -0.1344 -1.0938
 6832SOL     OW32128   4.432   2.097  12.556  0.2383  0.5999 -1.1925
 6832SOL    HW132129   4.395   2.163  12.497 -1.7725  0.2305 -0.3579
 6832SOL    HW232130   4.460   2.024  12.502 -2.8095 -1.0161 -0.6145
 6833SOL     OW32131   1.904   0.287  10.463  0.4497  0.6413 -0.3211
 6833SOL    HW132132   1.910   0.356  10.529 -2.3128  1.1329 -0.5631
 6833SOL    HW232133   1.956   0.218  10.503 -1.8094 -1.1601 -0.4462
 6834SOL     OW32134   0.790   3.260   2.669  0.0115  0.1418 -0.5624
 6834SOL    HW132135   0.834   3.266   2.754  1.9910  1.0865 -1.6763
 6834SOL    HW232136   0.750   3.347   2.670  2.8105  1.4187 -0.6924
 6835SOL     OW32137   1.553   0.419   7.641  0.3492 -0.0392  0.0067
 6835SOL    HW132138   1.490   0.450   7.576  0.2413  0.9168  0.5813
 6835SOL    HW232139   1.631   0.420   7.585  1.2431  1.0645  1.2543
 6836SOL     OW32140   1.720   1.009   5.577 -0.1658 -0.1179 -0.1406
 6836SOL    HW132141   1.773   1.088   5.565  1.2474 -0.8373  1.4145
 6836SOL    HW232142   1.724   0.991   5.671  1.8485 -0.0627 -0.2179
 6837SOL     OW32143   0.394   0.820   6.522 -0.3923  0.1465  0.1636
 6837SOL    HW132144   0.419   0.904   6.483  0.7055 -0.0471  0.4621
 6837SOL    HW232145   0.363   0.837   6.611 -1.2409 -0.2492 -0.0549
 6838SOL     OW32146   3.481   4.550   2.484 -0.2585  0.3338  0.1837
 6838SOL    HW132147   3.512   4.477   2.431 -0.5558 -0.6819  1.4140
 6838SOL    HW232148   3.501   4.501   2.564 -0.6572  0.1329  0.1561
 6839SOL     OW32149   3.744   1.997   6.967 -0.5078  0.4947  0.0202
 6839SOL    HW132150   3.689   2.075   6.960 -0.9582 -0.0329 -2.3368
 6839SOL    HW232151   3.826   2.030   6.931 -0.4775 -0.1702 -0.5067
 6840SOL     OW32152   1.119   0.993  15.737  0.4120 -0.2145 -0.3328
 6840SOL    HW132153   1.080   1.064  15.685  1.2631  0.2549 -0.3393
 6840SOL    HW232154   1.205   1.029  15.759 -0.0434  1.5183 -1.3922
 6841SOL     OW32155   0.840   2.420   6.980  0.2944  0.3693  0.4111
 6841SOL    HW132156   0.907   2.352   6.968  0.6634  0.9181 -0.5910
 6841SOL    HW232157   0.852   2.422   7.075  2.1561 -4.1062  0.2723
 6842SOL     OW32158   3.334   0.112   9.010 -0.0543 -0.0643  0.0335
 6842SOL    HW132159   3.292   0.045   8.956 -1.1060  0.8382 -0.2544
 6842SOL    HW232160   3.390   0.138   8.936 -0.9461 -3.2128 -1.7769
 6843SOL     OW32161   4.460   4.112  13.562  0.2734  0.1841  0.4139
 6843SOL    HW132162   4.425   4.034  13.605  2.6465 -1.4802 -0.6983
 6843SOL    HW232163   4.389   4.123  13.498  0.2993  0.5037  0.4370
 6844SOL     OW32164   2.590   3.560   3.478  0.1190 -0.1128 -0.0734
 6844SOL    HW132165   2.625   3.530   3.394  0.8006  1.4837 -0.3673
 6844SOL    HW232166   2.620   3.487   3.532  0.7145 -0.4300 -0.8334
 6845SOL     OW32167   0.097   2.449   9.101  0.1889 -0.6952 -0.5729
 6845SOL    HW132168   0.127   2.361   9.080  1.7071 -0.2364 -0.2930
 6845SOL    HW232169   0.098   2.496   9.018 -1.3328 -0.0912 -0.2427
 6846SOL     OW32170   2.899   3.340   3.982 -0.1022  0.2636  0.0144
 6846SOL    HW132171   2.866   3.419   4.023  0.2163 -0.3049  1.3466
 6846SOL    HW232172   2.910   3.367   3.890  3.0009  1.9467  0.8809
 6847SOL     OW32173   0.254   0.370   6.249 -0.4690  0.2752 -0.1099
 6847SOL    HW132174   0.262   0.434   6.320 -1.5944 -2.3920  2.3718
 6847SOL    HW232175   0.245   0.424   6.170 -1.8640 -0.0095 -0.1334
 6848SOL     OW32176   3.901   1.510  15.935 -0.0953  0.1612  0.4538
 6848SOL    HW132177   3.901   1.464  15.852  1.4693 -0.1959  0.6532
 6848SOL    HW232178   3.829   1.573  15.930 -0.2568 -0.3041 -3.0728
 6849SOL     OW32179   0.599   2.445   5.618  0.1086 -0.2621  0.3668
 6849SOL    HW132180   0.529   2.499   5.582  1.0654 -0.0501 -1.2256
 6849SOL    HW232181   0.595   2.480   5.707 -0.7195  1.4885 -0.3596
 6850SOL     OW32182   4.669   1.559   9.094  0.2104  0.1117 -0.0077
 6850SOL    HW132183   4.587   1.607   9.091  1.0051  1.4105 -1.0638
 6850SOL    HW232184   4.671   1.528   9.184  0.6503  1.1793  0.3476
 6851SOL     OW32185   2.184   4.295  17.263  0.5539 -0.3688  0.3013
 6851SOL    HW132186   2.147   4.335  17.185  2.4299 -0.3985 -0.6167
 6851SOL    HW232187   2.167   4.203  17.242 -0.1316  0.1488 -1.4013
 6852SOL     OW32188   4.505   2.461   3.797  0.4257 -0.0941 -0.0539
 6852SOL    HW132189   4.542   2.395   3.738 -1.0027 -0.7818 -0.1667
 6852SOL    HW232190   4.462   2.403   3.860  1.6407  0.7701  1.5872
 6853SOL     OW32191   3.121   2.967  13.183  0.1347  0.1666 -0.0735
 6853SOL    HW132192   3.087   3.041  13.132 -0.7361  0.1315  0.4473
 6853SOL    HW232193   3.197   3.006  13.226  1.1680 -1.3317 -0.5567
 6854SOL     OW32194   3.159   4.675  11.577  0.4154  0.3144  0.8924
 6854SOL    HW132195   3.240   4.677  11.629  1.0990 -2.4316 -0.0177
 6854SOL    HW232196   3.097   4.663  11.648 -1.8868  1.9942 -0.8612
 6855SOL     OW32197   1.694   3.010   6.832 -0.7875  0.0094  0.3701
 6855SOL    HW132198   1.735   3.068   6.897  2.5813  1.0955 -2.7179
 6855SOL    HW232199   1.772   2.999   6.778 -1.2023 -0.3928 -0.1499
 6856SOL     OW32200   0.506   2.848   9.185  0.2014 -0.1259 -0.6700
 6856SOL    HW132201   0.594   2.814   9.198  0.2077 -1.3037 -3.6718
 6856SOL    HW232202   0.520   2.913   9.115 -0.3721 -0.9799 -1.5846
 6857SOL     OW32203   1.038   0.072   7.533  0.7497  0.6911 -0.1665
 6857SOL    HW132204   1.012   0.127   7.607 -1.7712  0.1474 -0.6588
 6857SOL    HW232205   1.041   4.721   7.573 -1.3026  0.2849 -0.8842
 6858SOL     OW32206   0.489   0.989   4.837  0.1057 -0.1144  0.0588
 6858SOL    HW132207   0.513   1.082   4.840 -0.9119  0.0944  1.4230
 6858SOL    HW232208   0.567   0.946   4.800 -0.4748  0.6956 -2.0836
 6859SOL     OW32209   3.267   4.572  12.714  0.1314 -0.1343  0.0040
 6859SOL    HW132210   3.314   4.636  12.768  1.7803 -0.2478 -1.3224
 6859SOL    HW232211   3.283   4.494  12.768  0.6686 -0.4518 -0.6129
 6860SOL     OW32212   2.397   1.487   2.526 -0.2490 -0.0313 -0.3106
 6860SOL    HW132213   2.346   1.565   2.504 -1.1674  0.2008  2.6172
 6860SOL    HW232214   2.427   1.454   2.441  0.3156 -1.3964  0.4189
 6861SOL     OW32215   0.630   1.531   5.385 -0.2185 -0.4507 -0.1998
 6861SOL    HW132216   0.550   1.543   5.435  1.1818 -0.6507  2.1216
 6861SOL    HW232217   0.698   1.518   5.452 -1.1083  3.2748  1.3863
 6862SOL     OW32218   2.768   1.759   5.106  0.4349 -0.4714 -0.0620
 6862SOL    HW132219   2.837   1.712   5.153  0.8831  0.2592  0.0194
 6862SOL    HW232220   2.732   1.687   5.054 -1.1133  0.3209 -0.0825
 6863SOL     OW32221   2.576   2.653   2.200  0.4051 -0.2714 -0.0733
 6863SOL    HW132222   2.596   2.568   2.161 -0.4220  0.0649 -1.2268
 6863SOL    HW232223   2.662   2.688   2.222  0.7933 -1.1350 -0.2205
 6864SOL     OW32224   4.354   3.274   9.164  0.5933  0.4546 -0.1989
 6864SOL    HW132225   4.435   3.326   9.170 -1.7325  4.0127 -0.1057
 6864SOL    HW232226   4.291   3.329   9.119  3.0935  0.2681 -3.8631
 6865SOL     OW32227   2.839   0.995   2.403  0.3003  0.5851 -0.6319
 6865SOL    HW132228   2.809   1.083   2.425  0.8588  0.3228  1.1683
 6865SOL    HW232229   2.761   0.943   2.382  0.0591  0.2591  1.0757
 6866SOL     OW32230   1.046   1.785   9.638  0.6159 -0.3890  0.6534
 6866SOL    HW132231   1.137   1.814   9.649  0.6925 -0.7139  0.8488
 6866SOL    HW232232   1.004   1.846   9.698  2.2804 -0.5850  2.0137
 6867SOL     OW32233   2.576   4.395  10.978 -0.5647  0.0922  0.4935
 6867SOL    HW132234   2.565   4.325  10.914  0.3817 -0.4596  0.9403
 6867SOL    HW232235   2.671   4.400  10.987 -0.3512  0.0331 -1.8815
 6868SOL     OW32236   4.365   3.001   9.641 -0.3216 -0.3279  0.1913
 6868SOL    HW132237   4.275   3.032   9.654 -0.1357 -0.6851  2.4179
 6868SOL    HW232238   4.357   2.906   9.630 -3.4104 -0.2963  1.9627
 6869SOL     OW32239   3.297   0.384   5.162 -0.4459  0.3221  1.0565
 6869SOL    HW132240   3.272   0.331   5.238 -0.6096 -0.1604  0.6681
 6869SOL    HW232241   3.373   0.338   5.126 -1.2153  1.7925 -2.4689
 6870SOL     OW32242   3.829   1.961   8.270  0.8871  0.0111 -0.4435
 6870SOL    HW132243   3.780   1.930   8.346  2.1348 -1.2816 -0.1586
 6870SOL    HW232244   3.766   1.998   8.209 -2.1546 -2.3986  1.2743
 6871SOL     OW32245   2.835   2.577   4.062 -0.2843 -0.3776  0.2239
 6871SOL    HW132246   2.863   2.592   3.972  0.8657 -0.3107  0.5922
 6871SOL    HW232247   2.830   2.662   4.105 -2.2176 -1.3331  1.9219
 6872SOL     OW32248   1.523   2.031   7.427  0.2612 -0.5510 -0.0428
 6872SOL    HW132249   1.588   2.003   7.362  0.2228  3.1329 -1.6184
 6872SOL    HW232250   1.534   1.957   7.488 -1.0613 -0.2935  0.5064
 6873SOL     OW32251   0.398   2.212  10.210 -0.0036 -0.6509  0.3056
 6873SOL    HW132252   0.445   2.234  10.129  0.0992 -0.6293  0.3703
 6873SOL    HW232253   0.472   2.203  10.271  0.8801 -0.1581 -0.6768
 6874SOL     OW32254   1.875   3.721   5.694 -0.5196 -0.2053 -0.5282
 6874SOL    HW132255   1.904   3.792   5.636  1.0977 -1.1881 -0.9017
 6874SOL    HW232256   1.876   3.654   5.626 -0.5870  0.0964 -0.8281
 6875SOL     OW32257   1.988   4.239   0.419  0.5399 -0.1364 -0.3046
 6875SOL    HW132258   2.016   4.294   0.346  1.5627 -0.6223 -0.2747
 6875SOL    HW232259   1.897   4.226   0.393  1.3520 -0.6025 -2.8969
 6876SOL     OW32260   4.716   3.842  15.963 -0.7530  0.1842  0.3463
 6876SOL    HW132261   4.723   3.935  15.982 -0.2861  0.3614 -0.6935
 6876SOL    HW232262   4.677   3.854  15.877  2.4425 -1.3292 -1.3167
 6877SOL     OW32263   1.834   2.092  15.506 -0.9652 -0.3530 -0.8634
 6877SOL    HW132264   1.789   2.063  15.585  0.5820  1.9074  0.8165
 6877SOL    HW232265   1.838   2.187  15.509 -1.8711 -0.3645  0.5946
 6878SOL     OW32266   2.969   4.360   9.372 -0.5743  0.3969 -0.4074
 6878SOL    HW132267   2.887   4.408   9.375 -0.3140  0.7595  0.8536
 6878SOL    HW232268   3.017   4.430   9.327  1.2672 -1.9904 -2.2127
 6879SOL     OW32269   3.727   2.262   7.198  0.4339 -1.0168 -0.2286
 6879SOL    HW132270   3.735   2.343   7.148  0.0385 -1.5419 -1.1547
 6879SOL    HW232271   3.648   2.226   7.157  0.1615 -0.9959  0.2808
 6880SOL     OW32272   1.877   2.620  15.778 -0.0460  0.2795 -0.5780
 6880SOL    HW132273   1.911   2.671  15.705  1.4405 -1.3196 -1.0121
 6880SOL    HW232274   1.954   2.590  15.826 -0.3504 -0.1706 -0.3634
 6881SOL     OW32275   1.370   3.825  11.404  0.1884 -0.1586 -0.7432
 6881SOL    HW132276   1.340   3.884  11.474  1.3201  1.0603 -1.2687
 6881SOL    HW232277   1.461   3.805  11.427 -0.1547 -0.9561 -0.1213
 6882SOL     OW32278   2.278   4.626   8.557  0.5772  0.0668  0.0716
 6882SOL    HW132279   2.235   4.664   8.634  2.3097  0.0546  1.0419
 6882SOL    HW232280   2.260   4.689   8.487  0.1184  0.2141  0.3242
 6883SOL     OW32281   0.819   4.146   8.340 -0.0417 -0.0843 -0.8614
 6883SOL    HW132282   0.845   4.195   8.418  0.7915  1.2818 -1.9877
 6883SOL    HW232283   0.758   4.211   8.304 -0.7977 -0.8177 -0.9143
 6884SOL     OW32284   3.746   1.910   9.105  0.9822 -0.7653 -0.7572
 6884SOL    HW132285   3.674   1.939   9.161  0.5722 -0.2885 -1.5291
 6884SOL    HW232286   3.766   1.822   9.138  1.3609 -0.6590 -0.7079
 6885SOL     OW32287   3.290   2.322   7.605  0.0440 -0.0549 -0.0255
 6885SOL    HW132288   3.244   2.331   7.688  0.5473 -1.7073  0.4485
 6885SOL    HW232289   3.259   2.237   7.574 -0.6061  1.1371 -2.6045
 6886SOL     OW32290   1.935   4.183  11.702 -0.1430  0.7099  0.1188
 6886SOL    HW132291   1.927   4.110  11.641  1.5821 -0.6264  1.5140
 6886SOL    HW232292   1.997   4.150  11.767  0.3644  2.1238  0.3665
 6887SOL     OW32293   1.930   3.546   6.228  0.2893 -1.1398  0.0748
 6887SOL    HW132294   2.022   3.526   6.211  0.5539 -0.5327  0.7701
 6887SOL    HW232295   1.912   3.573   6.138 -0.3972  1.1405  0.8856
 6888SOL     OW32296   4.485   3.563   5.002 -0.1995  0.0412 -0.5527
 6888SOL    HW132297   4.540   3.522   4.935 -1.5869 -0.0317 -1.6615
 6888SOL    HW232298   4.408   3.514   4.974  1.3772 -0.5875 -3.8423
 6889SOL     OW32299   4.185   1.909   4.615 -0.4414 -0.2453  0.1003
 6889SOL    HW132300   4.218   1.904   4.525  0.9627  0.9457  0.5453
 6889SOL    HW232301   4.091   1.898   4.603 -0.6007  0.9247  0.3371
 6890SOL     OW32302   4.471   2.217   6.540  0.8361  0.3116 -0.4495
 6890SOL    HW132303   4.457   2.148   6.476  0.8692  1.7865 -2.0352
 6890SOL    HW232304   4.464   2.170   6.623  1.6644  0.8306 -0.0837
 6891SOL     OW32305   3.586   1.660   5.859  0.3285  0.8719 -0.0945
 6891SOL    HW132306   3.659   1.623   5.809 -0.3586 -1.8953  0.9779
 6891SOL    HW232307   3.602   1.601   5.932 -0.2282  1.3864  0.4477
 6892SOL     OW32308   1.034   2.110   9.352  0.0272 -0.3330 -0.2173
 6892SOL    HW132309   1.079   2.105   9.436 -0.5144  1.1864  0.1563
 6892SOL    HW232310   0.954   2.066   9.381 -1.2954  2.2116  0.0029
 6893SOL     OW32311   3.593   3.968   2.329  0.4213  0.1159  0.4498
 6893SOL    HW132312   3.584   4.050   2.280  2.1459  0.2372  0.3377
 6893SOL    HW232313   3.534   3.986   2.402  0.3275  2.0879 -0.1270
 6894SOL     OW32314   1.329   0.331   4.504 -0.1682 -0.3267 -0.2098
 6894SOL    HW132315   1.384   0.307   4.578  0.5045  1.7320 -0.0356
 6894SOL    HW232316   1.336   0.255   4.445  0.4410 -0.2156 -0.2760
 6895SOL     OW32317   4.144   2.653  15.862  0.3911 -0.6510 -0.1286
 6895SOL    HW132318   4.139   2.697  15.778 -0.0072  2.5182  1.5751
 6895SOL    HW232319   4.123   2.719  15.928 -0.9406 -1.2397  0.0444
 6896SOL     OW32320   1.302   0.533   0.240  0.1285  0.4782 -0.0078
 6896SOL    HW132321   1.278   0.532   0.147  0.0088 -1.4701  0.0467
 6896SOL    HW232322   1.397   0.518   0.240  0.1489  0.6110 -2.7058
 6897SOL     OW32323   4.469   3.269  16.675  0.1378 -0.2993  0.3037
 6897SOL    HW132324   4.449   3.215  16.751  1.5357 -1.1456  0.0550
 6897SOL    HW232325   4.524   3.331  16.723 -2.6918  1.6688  1.0304
 6898SOL     OW32326   0.771   4.128  15.897  0.5818  0.6898  0.1130
 6898SOL    HW132327   0.773   4.215  15.938  0.4365  1.6794 -1.9657
 6898SOL    HW232328   0.676   4.118  15.889  0.4787  2.7622 -1.2441
 6899SOL     OW32329   4.000   1.736   2.673 -0.2184 -0.1823 -0.2382
 6899SOL    HW132330   3.987   1.677   2.599 -1.8502 -0.9961  0.7097
 6899SOL    HW232331   3.925   1.715   2.728 -1.3018  0.6759 -1.3834
 6900SOL     OW32332   4.484   1.517   4.606  0.0896 -0.1574 -0.7793
 6900SOL    HW132333   4.394   1.520   4.575 -1.0245 -3.8950  2.1914
 6900SOL    HW232334   4.497   1.423   4.603 -0.0425 -0.2594  1.7471
 6901SOL     OW32335   2.006   2.134   6.814 -0.7810  0.4327  0.0131
 6901SOL    HW132336   2.018   2.040   6.822  0.2626  0.7557  2.1347
 6901SOL    HW232337   2.092   2.170   6.790 -0.0169 -0.2548  1.7181
 6902SOL     OW32338   4.471   4.124   2.730  0.3692  0.2553 -0.5008
 6902SOL    HW132339   4.419   4.189   2.777  0.7798  0.6491 -0.5901
 6902SOL    HW232340   4.549   4.114   2.784  0.5929 -1.5202 -1.1350
 6903SOL     OW32341   0.235   3.557   1.523 -0.2353  0.5555 -0.3590
 6903SOL    HW132342   0.168   3.501   1.562  0.9416  0.5677  1.7135
 6903SOL    HW232343   0.177   3.632   1.525 -1.1688 -0.1721 -0.3730
 6904SOL     OW32344   2.567   1.740   1.308  0.0484 -0.1176  0.7273
 6904SOL    HW132345   2.539   1.830   1.289  4.1944  0.7740 -1.1558
 6904SOL    HW232346   2.511   1.708   1.379 -1.6023  2.6927  0.6713
 6905SOL     OW32347   1.856   3.271   6.627 -0.6551  0.1716 -0.0303
 6905SOL    HW132348   1.823   3.258   6.538 -0.0288 -0.6011 -0.1478
 6905SOL    HW232349   1.948   3.286   6.604 -0.7634 -0.2629 -0.7448
 6906SOL     OW32350   3.220   4.256   2.928  0.0156  0.1971  0.4795
 6906SOL    HW132351   3.136   4.278   2.969  0.3164 -0.2975  1.3583
 6906SOL    HW232352   3.198   4.228   2.839 -1.4247  0.2650  0.8211
 6907SOL     OW32353   2.309   1.880   1.482  0.4938 -0.9751  0.0301
 6907SOL    HW132354   2.281   1.789   1.492 -3.1682  0.2718  1.2602
 6907SOL    HW232355   2.338   1.885   1.390  0.5782  1.0120  0.1614
 6908SOL     OW32356   3.097   4.611   6.025 -0.0106 -0.3492 -0.2962
 6908SOL    HW132357   3.043   4.618   5.946  0.6514 -0.4203 -0.7599
 6908SOL    HW232358   3.121   4.703   6.034  0.6655 -0.3276 -2.2677
 6909SOL     OW32359   2.188   4.150   1.276  0.1515  0.4876 -0.0084
 6909SOL    HW132360   2.275   4.189   1.278 -0.5246  1.9641  0.9062
 6909SOL    HW232361   2.170   4.153   1.370 -2.3300 -1.6159 -0.4341
 6910SOL     OW32362   3.948   3.605   3.232  0.8663 -0.2903  0.4756
 6910SOL    HW132363   3.931   3.580   3.323  1.9156  1.2153  1.0885
 6910SOL    HW232364   4.042   3.617   3.244  0.9593 -0.4704 -0.0756
 6911SOL     OW32365   0.463   1.303   7.695 -0.1825 -0.0332 -0.2450
 6911SOL    HW132366   0.559   1.306   7.692 -0.0793 -1.1444  1.4838
 6911SOL    HW232367   0.435   1.342   7.613  1.1383  2.4906  0.4977
 6912SOL     OW32368   4.071   2.761  16.946 -0.1481  0.0238 -0.3438
 6912SOL    HW132369   3.987   2.744  16.988  0.1299  1.2162  0.6793
 6912SOL    HW232370   4.047   2.729  16.859 -0.7039  0.0172 -0.1845
 6913SOL     OW32371   3.206   2.120  16.785 -0.2924 -0.0198 -0.8496
 6913SOL    HW132372   3.193   2.027  16.803  1.3856 -0.7716 -3.4446
 6913SOL    HW232373   3.269   2.122  16.713  0.4897  0.4916 -0.1493
 6914SOL     OW32374   1.481   3.177   7.721 -0.5545  0.5300 -0.5131
 6914SOL    HW132375   1.503   3.106   7.781  0.9894 -0.8136 -2.6631
 6914SOL    HW232376   1.572   3.201   7.702 -0.6440  2.0075  0.9769
 6915SOL     OW32377   4.641   2.164   0.693 -0.1364  0.0041  0.0463
 6915SOL    HW132378   4.636   2.138   0.601 -1.6727  1.7827 -0.3849
 6915SOL    HW232379   4.715   2.225   0.690  1.0679 -1.5012 -1.1091
 6916SOL     OW32380   3.351   1.619   7.747  0.0811 -0.5961  0.4841
 6916SOL    HW132381   3.321   1.659   7.666  0.8253  1.3654  1.1783
 6916SOL    HW232382   3.365   1.691   7.808 -1.2224  0.4472 -0.4611
 6917SOL     OW32383   1.631   3.622  15.552 -0.0613  0.1359  0.4470
 6917SOL    HW132384   1.568   3.607  15.482  1.4071 -1.4243 -0.5462
 6917SOL    HW232385   1.577   3.598  15.626  2.2796  0.2060  2.1942
 6918SOL     OW32386   2.273   0.008   0.687  0.1093 -0.6051  0.6814
 6918SOL    HW132387   2.231   0.094   0.684  0.4808 -0.4546 -0.0598
 6918SOL    HW232388   2.340   0.017   0.755  0.5065  0.4301  0.1486
 6919SOL     OW32389   4.261   3.800   8.244 -0.2508 -0.2404 -0.1053
 6919SOL    HW132390   4.175   3.788   8.284 -0.5820 -1.9644 -1.2902
 6919SOL    HW232391   4.297   3.868   8.300  2.7451 -1.6581 -0.2834
 6920SOL     OW32392   1.859   0.431   3.319  0.1190  0.1766  0.2350
 6920SOL    HW132393   1.951   0.416   3.339  0.4692  1.8107 -0.1383
 6920SOL    HW232394   1.836   0.343   3.289 -1.2950  0.6371 -0.0371
 6921SOL     OW32395   0.822   0.261   6.024 -0.0834 -0.1021 -0.9820
 6921SOL    HW132396   0.872   0.187   5.989  0.6601  0.6126 -1.4394
 6921SOL    HW232397   0.768   0.288   5.950 -1.7603  1.5395  0.8477
 6922SOL     OW32398   4.275   4.733  12.337  0.0437 -0.4049  0.2445
 6922SOL    HW132399   4.185   0.027  12.345  0.1539  0.5291 -2.0129
 6922SOL    HW232400   4.248   4.644  12.316  0.6515 -0.9737  1.9484
 6923SOL     OW32401   0.054   2.381  15.867 -0.5965  0.2498 -0.1676
 6923SOL    HW132402   0.126   2.439  15.888 -0.4159 -0.0996  0.1857
 6923SOL    HW232403   0.080   2.379  15.774  0.6707  2.2151  0.1494
 6924SOL     OW32404   2.335   4.532   3.946  0.7026  0.0126 -0.1322
 6924SOL    HW132405   2.392   4.599   3.984 -2.4099  0.8784  3.0199
 6924SOL    HW232406   2.402   4.479   3.903  0.6421  0.6514 -1.0144
 6925SOL     OW32407   0.807   0.769   3.844 -0.0591  0.2879  0.4067
 6925SOL    HW132408   0.887   0.821   3.832 -0.4282  0.4504 -1.3904
 6925SOL    HW232409   0.790   0.798   3.933 -2.2370 -3.1304  1.0729
 6926SOL     OW32410   1.595   0.415  11.301  0.5631 -0.1611  0.0408
 6926SOL    HW132411   1.588   0.501  11.342  0.7537  0.7372 -1.8083
 6926SOL    HW232412   1.685   0.405  11.270 -0.4949  0.5904 -3.2290
 6927SOL     OW32413   4.506   3.726   9.271  0.3203  0.2032 -0.1149
 6927SOL    HW132414   4.517   3.654   9.333 -1.8279  0.0196  0.0509
 6927SOL    HW232415   4.522   3.799   9.331 -1.2977  0.3563  0.1401
 6928SOL     OW32416   0.683   1.550   6.737  0.0785  0.1614  0.2041
 6928SOL    HW132417   0.773   1.572   6.763  0.7884 -0.5955 -1.5915
 6928SOL    HW232418   0.667   1.621   6.674  2.2676 -0.0589 -0.6146
 6929SOL     OW32419   0.104   1.376   0.390 -0.0325  0.6597  0.1481
 6929SOL    HW132420   0.132   1.291   0.423  0.1613  0.8821  0.5593
 6929SOL    HW232421   0.019   1.380   0.434  0.5568  0.3677  1.3169
 6930SOL     OW32422   3.759   3.230   2.600  0.4250  0.3219  0.2594
 6930SOL    HW132423   3.665   3.246   2.611  0.4268  1.1282 -0.9983
 6930SOL    HW232424   3.756   3.150   2.548  0.4977  0.7759 -0.4446
 6931SOL     OW32425   2.410   1.218   0.032 -0.3887 -0.6242 -0.4827
 6931SOL    HW132426   2.392   1.254   0.119  2.9910  2.3545 -1.0477
 6931SOL    HW232427   2.331   1.235  17.724  0.2229 -0.1865 -1.2941
 6932SOL     OW32428   2.571   4.432   7.872  0.1638 -0.3628 -0.4185
 6932SOL    HW132429   2.497   4.454   7.814 -0.0927 -1.1088 -0.3784
 6932SOL    HW232430   2.637   4.408   7.807  1.4444  1.8526  0.0635
 6933SOL     OW32431   0.884   3.970   4.666 -0.2323 -0.0682  0.0140
 6933SOL    HW132432   0.902   4.032   4.736  1.8722  0.2738 -0.8341
 6933SOL    HW232433   0.937   3.901   4.705  1.7794  1.3304 -0.2564
 6934SOL     OW32434   2.125   1.208  15.387 -0.3454 -0.0883 -0.5676
 6934SOL    HW132435   2.053   1.269  15.404 -0.4124 -0.2644 -0.2222
 6934SOL    HW232436   2.089   1.160  15.313  1.8845 -2.0894 -0.3435
 6935SOL     OW32437   1.959   0.692   7.630 -0.5411 -0.4945 -0.5954
 6935SOL    HW132438   1.888   0.629   7.619 -2.2602  1.2148  0.6610
 6935SOL    HW232439   1.922   0.763   7.578  0.0244  1.8040  2.1433
 6936SOL     OW32440   1.608   0.450   8.746  0.2723 -0.4710  0.2419
 6936SOL    HW132441   1.525   0.409   8.726 -1.0627  1.9963  0.6763
 6936SOL    HW232442   1.672   0.414   8.685 -0.1092 -0.8023  0.0475
 6937SOL     OW32443   3.125   4.054   1.778  0.1515  0.1052  0.8373
 6937SOL    HW132444   3.073   4.052   1.858 -1.7108  0.0429 -0.3779
 6937SOL    HW232445   3.077   4.112   1.718  2.1171 -0.2043 -1.0413
 6938SOL     OW32446   3.340   4.547   0.169  0.9557  0.4954 -0.0219
 6938SOL    HW132447   3.410   4.610   0.156  0.1547  0.9095 -2.2794
 6938SOL    HW232448   3.335   4.504   0.084 -1.4183 -0.9750  0.8402
 6939SOL     OW32449   2.114   1.909   7.546  0.6710  0.0635 -0.6010
 6939SOL    HW132450   2.179   1.874   7.485 -1.8174  0.9754 -3.7923
 6939SOL    HW232451   2.039   1.865   7.506  0.5018 -1.5038  1.4392
 6940SOL     OW32452   0.254   2.224   9.417  0.6142  0.0514  0.5182
 6940SOL    HW132453   0.240   2.129   9.426 -1.1229  0.1637 -0.9979
 6940SOL    HW232454   0.334   2.229   9.365  1.0403  0.1729  1.1860
 6941SOL     OW32455   2.750   2.198   9.193  0.2614 -0.7000 -0.5896
 6941SOL    HW132456   2.711   2.115   9.221 -0.3043  0.2447  1.4372
 6941SOL    HW232457   2.688   2.215   9.123 -0.2208 -1.5253 -0.3750
 6942SOL     OW32458   1.181   2.338   1.815  0.1531 -0.0012 -0.2302
 6942SOL    HW132459   1.163   2.275   1.884  3.4777 -1.0254 -0.2527
 6942SOL    HW232460   1.227   2.407   1.862  0.4321  1.2379 -2.3179
 6943SOL     OW32461   0.217   3.395   9.363 -0.0977 -0.2539 -0.3636
 6943SOL    HW132462   0.138   3.395   9.309 -1.2731  1.2786  1.3386
 6943SOL    HW232463   0.291   3.398   9.302  0.7515  2.1003  0.8033
 6944SOL     OW32464   1.081   4.659   1.963  0.1080  0.4435 -0.2821
 6944SOL    HW132465   1.102   0.016   1.972 -1.0697  0.7717 -0.9243
 6944SOL    HW232466   0.988   4.658   1.939 -0.0247 -1.0692  0.3279
 6945SOL     OW32467   4.734   1.902   9.684 -0.3420  0.1727  0.0702
 6945SOL    HW132468   4.656   1.916   9.629  0.8080 -2.0001 -2.0820
 6945SOL    HW232469   4.711   1.944   9.767 -0.1762 -0.5081  0.4510
 6946SOL     OW32470   1.075   1.739   5.309 -0.2061 -0.0951 -0.4085
 6946SOL    HW132471   1.073   1.833   5.295  0.8278 -0.5426 -3.3940
 6946SOL    HW232472   0.982   1.733   5.285 -0.4307 -0.8203  0.5873
 6947SOL     OW32473   2.241   2.847   8.299  0.7033  0.1272  0.1272
 6947SOL    HW132474   2.245   2.939   8.273 -0.3089 -0.1032 -0.8878
 6947SOL    HW232475   2.250   2.841   8.394 -1.3020 -1.6274  0.2103
 6948SOL     OW32476   2.116   4.298   7.880 -0.8254  0.1620 -0.8466
 6948SOL    HW132477   2.137   4.271   7.791  2.1059  1.6073 -0.5782
 6948SOL    HW232478   2.020   4.290   7.882 -0.7509 -0.7439 -0.7200
 6949SOL     OW32479   0.371   1.234   2.198 -0.8982  0.3139 -0.1283
 6949SOL    HW132480   0.298   1.266   2.146 -0.5369 -1.8907 -2.0295
 6949SOL    HW232481   0.400   1.164   2.138  2.2795  0.6963  0.9404
 6950SOL     OW32482   4.170   2.218   4.417 -0.0554 -0.0078  0.3235
 6950SOL    HW132483   4.245   2.199   4.473  0.1357  2.1829  0.8318
 6950SOL    HW232484   4.117   2.281   4.467  2.7186  1.3387  1.5466
 6951SOL     OW32485   3.977   3.904  13.649 -0.3718 -0.1444 -0.5246
 6951SOL    HW132486   3.976   3.965  13.576 -0.1415 -0.1884 -0.5639
 6951SOL    HW232487   3.955   3.967  13.718  0.5501 -0.7690  0.3517
 6952SOL     OW32488   3.912   4.387   8.178 -0.7861  0.2927 -0.5902
 6952SOL    HW132489   3.874   4.304   8.147  0.1095 -0.9616  1.6409
 6952SOL    HW232490   3.950   4.420   8.097  2.5076 -0.1759  0.7684
 6953SOL     OW32491   2.276   3.500   5.630 -0.0432 -0.3484 -0.0197
 6953SOL    HW132492   2.319   3.477   5.547 -3.4283  2.4334 -2.5965
 6953SOL    HW232493   2.249   3.591   5.613 -0.8592 -0.3034  1.5296
 6954SOL     OW32494   0.563   2.585   7.333  0.0550 -0.0901  0.1557
 6954SOL    HW132495   0.581   2.677   7.312  1.5780  0.3371  3.2582
 6954SOL    HW232496   0.480   2.595   7.378  0.6663 -0.6045  1.4065
 6955SOL     OW32497   1.313   3.484   9.802  0.6460 -0.0030 -0.6562
 6955SOL    HW132498   1.375   3.418   9.833  0.4666  1.2010  2.2496
 6955SOL    HW232499   1.304   3.435   9.720 -0.7106 -2.9359  1.2172
 6956SOL     OW32500   3.468   1.910   0.941 -0.3183  0.8145  0.2711
 6956SOL    HW132501   3.407   1.896   1.013 -2.7185 -1.4719 -2.2206
 6956SOL    HW232502   3.451   2.002   0.923 -1.4199  0.2456 -1.5822
 6957SOL     OW32503   2.315   3.679   6.300  0.1883 -0.3666  0.6393
 6957SOL    HW132504   2.256   3.612   6.267  1.3555 -0.6601 -0.8309
 6957SOL    HW232505   2.383   3.653   6.238 -1.2553  0.1088 -1.1217
 6958SOL     OW32506   1.323   3.223   5.225 -0.7007 -0.3012  0.3028
 6958SOL    HW132507   1.417   3.237   5.219 -0.5589 -2.1029 -1.5550
 6958SOL    HW232508   1.307   3.269   5.307  2.0779 -1.1389  1.2953
 6959SOL     OW32509   0.185   2.558  13.017  0.1010 -0.2071  0.1138
 6959SOL    HW132510   0.111   2.595  12.968  0.6859 -0.4628 -0.9574
 6959SOL    HW232511   0.141   2.512  13.088  0.4268  0.6083  0.8479
 6960SOL     OW32512   2.820   2.703   2.296 -0.0315  0.6986 -0.5916
 6960SOL    HW132513   2.862   2.763   2.235  0.8952  1.4210  0.7691
 6960SOL    HW232514   2.884   2.633   2.306 -2.5257 -1.5369 -0.1625
 6961SOL     OW32515   0.188   3.985   8.141 -0.8451 -0.3894  0.3309
 6961SOL    HW132516   0.274   4.028   8.141  0.3891 -2.8070  0.2524
 6961SOL    HW232517   0.195   3.953   8.231 -1.4834  0.2355  0.6010
 6962SOL     OW32518   1.969   0.282   5.127 -0.5150 -0.3664  0.5752
 6962SOL    HW132519   1.965   0.247   5.038  2.3786 -0.9051  0.6626
 6962SOL    HW232520   2.037   0.229   5.169 -0.6963 -0.4171  0.7995
 6963SOL     OW32521   1.168   2.926   4.182 -0.1531 -0.2004  0.1234
 6963SOL    HW132522   1.195   3.014   4.156 -0.5180 -0.0482  0.2643
 6963SOL    HW232523   1.117   2.902   4.106 -1.3610  0.3574  0.7625
 6964SOL     OW32524   4.618   3.825   8.490 -0.5013 -0.4358  0.3631
 6964SOL    HW132525   4.589   3.734   8.496  1.0035 -0.9078  0.5596
 6964SOL    HW232526   4.606   3.841   8.584  0.6203  1.7887  0.1437
 6965SOL     OW32527   2.119   3.408   4.646  0.2022  0.4556 -0.1174
 6965SOL    HW132528   2.028   3.379   4.642 -0.3493  1.7663  2.6432
 6965SOL    HW232529   2.169   3.336   4.685  0.8128  1.0744  0.2455
 6966SOL     OW32530   0.860   4.652  11.379  0.3611  0.2720 -0.1079
 6966SOL    HW132531   0.839   0.010  11.379  0.2421  0.2457 -0.0239
 6966SOL    HW232532   0.780   4.622  11.335  0.0521  1.9661 -0.6939
 6967SOL     OW32533   0.167   1.148  16.122  0.0814  0.4347  0.2829
 6967SOL    HW132534   0.118   1.067  16.132  0.1080  0.3868  0.0278
 6967SOL    HW232535   0.146   1.199  16.201 -0.8733  0.0084  0.3012
 6968SOL     OW32536   3.566   2.406   3.143 -0.3252  0.2733 -0.2734
 6968SOL    HW132537   3.622   2.358   3.204  0.6183 -0.8444 -2.0383
 6968SOL    HW232538   3.613   2.400   3.060 -2.1896 -2.7607 -1.1345
 6969SOL     OW32539   3.749   2.367   4.464 -0.0992 -0.2793 -0.1119
 6969SOL    HW132540   3.714   2.448   4.500 -1.0760 -0.7900  0.0940
 6969SOL    HW232541   3.840   2.372   4.492 -0.7981 -1.7834  2.4270
 6970SOL     OW32542   4.078   3.276   5.602  0.0324  0.1379 -0.0045
 6970SOL    HW132543   4.025   3.289   5.681 -0.2820 -2.4788  0.2182
 6970SOL    HW232544   4.018   3.216   5.557 -0.8289 -0.2635  1.7048
 6971SOL     OW32545   3.748   2.898   9.409  0.0346  0.3135  0.5217
 6971SOL    HW132546   3.709   2.963   9.467  0.7087  2.7792 -1.7627
 6971SOL    HW232547   3.732   2.943   9.325  0.3780  1.0253  0.8361
 6972SOL     OW32548   3.539   1.287  12.709  0.1528  0.3873 -0.7937
 6972SOL    HW132549   3.614   1.285  12.769  0.4125  1.4587 -1.0884
 6972SOL    HW232550   3.473   1.352  12.734 -0.7897 -0.5531 -0.8453
 6973SOL     OW32551   4.336   2.423   4.700 -0.4821  0.1575  0.0710
 6973SOL    HW132552   4.295   2.489   4.645  3.4638 -0.0867 -3.1954
 6973SOL    HW232553   4.293   2.341   4.676  4.0500 -3.0641  2.7609
 6974SOL     OW32554   1.738   3.844   7.865 -0.2702 -0.0341  0.0191
 6974SOL    HW132555   1.705   3.885   7.945  0.6222 -0.3896  0.5710
 6974SOL    HW232556   1.708   3.755   7.883 -0.2451 -0.0907 -0.2097
 6975SOL     OW32557   3.783   4.589   6.666  0.3227 -0.6445 -0.4059
 6975SOL    HW132558   3.695   4.563   6.639 -0.4555  1.2021  0.3501
 6975SOL    HW232559   3.805   4.534   6.740 -0.0382  0.0094  0.1832
 6976SOL     OW32560   4.614   1.223   5.926 -0.1298 -0.2829  0.7505
 6976SOL    HW132561   4.520   1.213   5.937  0.0741 -1.1711  1.7579
 6976SOL    HW232562   4.632   1.147   5.871  2.4197  1.9048 -1.4222
 6977SOL     OW32563   0.819   4.483   1.546  0.3318  0.2586 -0.0909
 6977SOL    HW132564   0.892   4.431   1.515 -0.7451 -1.0767 -0.3818
 6977SOL    HW232565   0.824   4.548   1.476  0.3488  0.9913  0.5810
 6978SOL     OW32566   4.187   3.986   2.843 -0.0341  0.2910  0.0625
 6978SOL    HW132567   4.227   3.901   2.858 -0.6885  0.1366  0.9223
 6978SOL    HW232568   4.226   4.022   2.763  0.9230  0.8364  0.7812
 6979SOL     OW32569   1.779   4.227   9.306 -0.6122  0.3759  0.5098
 6979SOL    HW132570   1.778   4.150   9.249  2.0704  1.0649 -0.4568
 6979SOL    HW232571   1.857   4.207   9.358  0.9541  3.0817 -0.8089
 6980SOL     OW32572   1.454   3.542   9.033 -0.1873 -0.4728  0.0815
 6980SOL    HW132573   1.498   3.608   8.979 -3.2490 -0.0140 -1.8223
 6980SOL    HW232574   1.532   3.503   9.074 -1.7917 -0.4572  3.1035
 6981SOL     OW32575   1.803   2.593   2.087  0.2271 -0.0615 -0.1344
 6981SOL    HW132576   1.857   2.514   2.078 -0.2786 -0.2359 -1.6750
 6981SOL    HW232577   1.860   2.648   2.034  0.3582 -0.9923 -0.9704
 6982SOL     OW32578   4.205   4.465   4.741  0.7066  0.3354 -0.2844
 6982SOL    HW132579   4.218   4.389   4.684 -0.9862 -0.7097  0.7471
 6982SOL    HW232580   4.228   4.426   4.825 -0.3057 -0.2544 -0.2871
 6983SOL     OW32581   0.268   0.319   6.608 -0.5254 -0.3732  0.3725
 6983SOL    HW132582   0.178   0.318   6.575 -0.1095 -3.6096 -0.6712
 6983SOL    HW232583   0.284   0.411   6.631 -1.5290 -0.3659  1.0338
 6984SOL     OW32584   0.311   2.356   5.688  0.1842 -0.1229 -0.2488
 6984SOL    HW132585   0.272   2.390   5.768  0.5975 -0.0098 -0.0955
 6984SOL    HW232586   0.329   2.437   5.639  0.0745 -0.3230 -0.6210
 6985SOL     OW32587   2.734   2.507  12.131 -0.1816 -0.0708  0.1082
 6985SOL    HW132588   2.750   2.413  12.119  0.6853  0.1412 -0.4462
 6985SOL    HW232589   2.781   2.526  12.212 -0.5237  0.5700  0.1574
 6986SOL     OW32590   3.112   3.801   6.223  0.2729 -0.3533  0.3262
 6986SOL    HW132591   3.038   3.849   6.259  0.2851  0.3767 -0.6240
 6986SOL    HW232592   3.182   3.852   6.265 -1.4816  2.2642 -0.0033
 6987SOL     OW32593   1.043   0.483   5.989  0.1498  0.1901 -0.4207
 6987SOL    HW132594   1.098   0.430   5.932  0.1907  0.3579 -0.5347
 6987SOL    HW232595   1.020   0.421   6.059 -1.8379  2.7084  1.1438
 6988SOL     OW32596   3.161   2.393   5.382  0.3197 -0.3700 -0.5272
 6988SOL    HW132597   3.080   2.368   5.338  0.8775  1.4130 -2.5555
 6988SOL    HW232598   3.133   2.378   5.473  0.5318  0.9831 -0.2414
 6989SOL     OW32599   2.408   2.382   5.846 -0.0084  0.9112 -0.0852
 6989SOL    HW132600   2.359   2.463   5.834 -0.2635  0.8168  0.3261
 6989SOL    HW232601   2.402   2.344   5.758  1.9232 -0.4880  0.3871
 6990SOL     OW32602   3.934   0.142  11.018  0.9939 -0.7024 -0.5962
 6990SOL    HW132603   3.891   0.078  10.961 -1.4539  0.9582 -0.6484
 6990SOL    HW232604   3.855   0.160  11.069  0.6778 -1.0477 -0.9640
 6991SOL     OW32605   3.088   1.504   5.781 -0.1644 -0.0550 -0.0890
 6991SOL    HW132606   2.998   1.480   5.805  0.7490 -3.2943  0.0621
 6991SOL    HW232607   3.075   1.561   5.706 -0.7553  0.7499  0.6234
 6992SOL     OW32608   3.233   3.915   2.268 -0.2030 -0.8635  0.1232
 6992SOL    HW132609   3.208   3.879   2.183 -0.5048 -1.2143  0.3602
 6992SOL    HW232610   3.304   3.855   2.292 -0.5352 -0.9347  0.9286
 6993SOL     OW32611   0.846   2.303   5.853 -0.1990  0.5174 -0.1864
 6993SOL    HW132612   0.825   2.393   5.878 -1.1482 -0.3273  1.9991
 6993SOL    HW232613   0.875   2.274   5.939  0.8299  1.5041 -0.1995
 6994SOL     OW32614   0.437   4.104  10.840 -0.5188 -0.9661  0.4779
 6994SOL    HW132615   0.424   4.199  10.830  1.7711 -0.3954  2.8175
 6994SOL    HW232616   0.426   4.082  10.748 -1.8490  2.3170 -0.1587
 6995SOL     OW32617   1.894   2.269   7.021 -0.6176  0.1986 -0.0393
 6995SOL    HW132618   1.978   2.313   7.006 -0.7467  0.3842 -0.2204
 6995SOL    HW232619   1.907   2.196   6.960 -0.6032  0.3928 -0.2678
 6996SOL     OW32620   1.999   3.786   0.610 -0.0593  0.3235 -0.1119
 6996SOL    HW132621   2.067   3.771   0.545  1.7111 -0.6926  1.9863
 6996SOL    HW232622   1.988   3.881   0.601  0.6051  0.3786 -0.3813
 6997SOL     OW32623   0.899   0.322   8.366  0.3903  0.1348 -0.7676
 6997SOL    HW132624   0.962   0.373   8.416  0.3299  0.9360 -1.5057
 6997SOL    HW232625   0.871   0.263   8.435  0.1777 -0.8234 -1.6632
 6998SOL     OW32626   2.130   2.236   4.629 -0.0454 -0.2499 -0.1262
 6998SOL    HW132627   2.120   2.216   4.536 -0.0399  1.3389 -0.4649
 6998SOL    HW232628   2.203   2.298   4.621  0.8640 -1.1560  1.2377
 6999SOL     OW32629   3.898   0.030   7.898 -0.0999 -0.3241  0.0526
 6999SOL    HW132630   3.959   4.731   7.832 -0.5673  2.4601 -1.8734
 6999SOL    HW232631   3.886   4.683   7.944 -1.0860 -0.1150  0.1751
 7000SOL     OW32632   1.421   0.528   3.036 -0.0080  0.1294  0.7931
 7000SOL    HW132633   1.509   0.529   2.999 -1.4395 -1.6493 -2.6706
 7000SOL    HW232634   1.417   0.434   3.057 -2.7078 -0.1319 -0.8878
 7001SOL     OW32635   2.960   0.010  11.396 -0.1436  0.1782 -0.3708
 7001SOL    HW132636   3.031   4.717  11.453  0.9132  1.4259 -1.0456
 7001SOL    HW232637   2.930   4.657  11.380 -0.4612 -0.0414  1.3505
 7002SOL     OW32638   3.023   2.127   9.351 -0.0409 -0.3480 -0.0479
 7002SOL    HW132639   2.999   2.105   9.262  3.4384 -1.5987 -0.6587
 7002SOL    HW232640   3.090   2.061   9.369 -0.3001 -1.1177 -2.0028
 7003SOL     OW32641   3.156   1.692   8.964  0.0919  0.2029  0.2075
 7003SOL    HW132642   3.206   1.766   8.998 -0.3900  0.9552 -0.7333
 7003SOL    HW232643   3.074   1.699   9.013  1.5518  2.0531  2.3851
 7004SOL     OW32644   2.580   1.321   6.985  0.1211 -0.5108 -0.1206
 7004SOL    HW132645   2.583   1.332   7.080  0.6099 -0.4606 -0.1440
 7004SOL    HW232646   2.628   1.239   6.974 -2.4008 -2.0154 -0.1088
 7005SOL     OW32647   2.561   3.415   4.747  0.0130 -0.4290 -0.4848
 7005SOL    HW132648   2.600   3.334   4.716  2.0471 -0.0351  1.0654
 7005SOL    HW232649   2.502   3.442   4.677 -3.0380 -5.1324  0.2740
 7006SOL     OW32650   1.402   1.455   1.902  0.3700 -0.0543  0.0825
 7006SOL    HW132651   1.322   1.408   1.925 -0.2509  0.2454 -1.5256
 7006SOL    HW232652   1.441   1.472   1.988 -1.5300 -3.3879  1.6296
 7007SOL     OW32653   1.090   2.606   9.252 -0.1945  0.0619  0.0218
 7007SOL    HW132654   1.156   2.542   9.277  0.7679  0.6705 -0.9571
 7007SOL    HW232655   1.019   2.542   9.261 -1.2967  1.0166 -1.7867
 7008SOL     OW32656   0.539   4.609   5.606 -0.1845  0.1113  0.1653
 7008SOL    HW132657   0.549   4.624   5.700 -2.5370 -0.6449  0.5386
 7008SOL    HW232658   0.602   4.674   5.574 -0.9275  0.1186 -1.3026
 7009SOL     OW32659   0.311   2.224   3.237  0.3358 -0.2860 -0.2730
 7009SOL    HW132660   0.288   2.151   3.294  2.2919  0.0069  0.8701
 7009SOL    HW232661   0.242   2.277   3.278  1.5713  1.9131 -1.0669
 7010SOL     OW32662   4.484   0.811   0.400  0.5764 -0.4422  0.3476
 7010SOL    HW132663   4.534   0.893   0.397 -1.1951  0.5621 -0.8826
 7010SOL    HW232664   4.516   0.781   0.486  0.6103 -0.6751  0.2547
 7011SOL     OW32665   4.419   0.178  12.000 -0.6598 -0.8908  0.0799
 7011SOL    HW132666   4.410   0.266  12.035 -3.2554 -0.1857 -2.3429
 7011SOL    HW232667   4.483   0.131  12.055 -1.2525 -1.2187  0.4845
 7012SOL     OW32668   2.159   0.216   1.651 -0.0159 -0.1929  0.1678
 7012SOL    HW132669   2.098   0.262   1.709  0.7186  0.0676  0.7384
 7012SOL    HW232670   2.101   0.153   1.608 -1.0343  0.8389  0.0293
 7013SOL     OW32671   4.497   4.462   6.227  0.6724  0.2855 -0.5149
 7013SOL    HW132672   4.469   4.471   6.318 -0.9303  1.6362 -1.1491
 7013SOL    HW232673   4.575   4.518   6.230  0.7793  0.3275 -4.0945
 7014SOL     OW32674   1.944   3.491  17.704 -0.7752  0.0638  0.0178
 7014SOL    HW132675   1.948   3.437   0.041 -0.5332 -1.1481 -0.8266
 7014SOL    HW232676   1.871   3.451  17.657 -0.6340  0.1515 -0.2742
 7015SOL     OW32677   1.980   4.055   3.649  0.2776  0.2397 -0.0923
 7015SOL    HW132678   1.977   4.098   3.564 -2.5093 -0.3749 -0.2943
 7015SOL    HW232679   2.003   3.966   3.625  0.2790 -0.2199  1.5828
 7016SOL     OW32680   3.546   0.920   3.087  0.4179  0.5443 -0.1037
 7016SOL    HW132681   3.523   0.899   2.996  0.4288 -1.4448  0.3465
 7016SOL    HW232682   3.623   0.865   3.101  0.0288 -0.0844 -0.4164
 7017SOL     OW32683   0.174   4.643  11.878  0.1150 -0.3869 -0.0144
 7017SOL    HW132684   0.255   4.631  11.828 -1.3597 -2.5416 -1.8850
 7017SOL    HW232685   0.218   4.681  11.953 -2.3748  1.3182  0.5795
 7018SOL     OW32686   3.295   4.257  13.098 -0.1917  0.0194 -0.2707
 7018SOL    HW132687   3.335   4.292  13.178  0.3810  1.9550 -1.4371
 7018SOL    HW232688   3.205   4.234  13.121 -0.3572  0.4496 -0.5038
 7019SOL     OW32689   3.965   0.727   4.592  0.1607 -0.0676  0.5712
 7019SOL    HW132690   4.038   0.675   4.625 -0.2649 -1.7186 -1.1043
 7019SOL    HW232691   3.897   0.660   4.587  1.6885 -1.7065  1.6986
 7020SOL     OW32692   1.225   0.855   7.618 -0.6697  0.1709 -0.2908
 7020SOL    HW132693   1.299   0.888   7.669 -2.1652  2.2313  0.5302
 7020SOL    HW232694   1.241   0.903   7.537 -0.5337  1.7602  0.6741
 7021SOL     OW32695   0.457   0.658  10.605  0.3104  0.2809  0.1372
 7021SOL    HW132696   0.423   0.746  10.591  1.3183  0.4809 -1.0533
 7021SOL    HW232697   0.386   0.603  10.639  0.3218  0.1656 -0.0250
 7022SOL     OW32698   1.507   1.097   7.508 -0.0236 -0.1463  0.0551
 7022SOL    HW132699   1.420   1.113   7.471 -0.7631 -0.0720  1.7905
 7022SOL    HW232700   1.480   1.087   7.600  2.2488 -0.3346  0.6957
 7023SOL     OW32701   0.540   3.520   3.969  0.0966  0.6687 -0.2616
 7023SOL    HW132702   0.581   3.515   4.055  1.3823  0.5743 -0.8674
 7023SOL    HW232703   0.544   3.428   3.943 -1.5148 -0.0735  2.1069
 7024SOL     OW32704   4.732   2.713   1.992 -0.0433 -0.3234 -0.0775
 7024SOL    HW132705   0.056   2.751   2.055  0.4003  0.6914 -1.1178
 7024SOL    HW232706   4.701   2.637   2.042  1.2668  0.6151  2.1564
 7025SOL     OW32707   3.474   3.763  14.335  0.3708 -0.7093  0.0605
 7025SOL    HW132708   3.426   3.793  14.412  1.4096 -1.2280  0.9181
 7025SOL    HW232709   3.419   3.795  14.264  1.9132  1.1953 -0.2893
 7026SOL     OW32710   1.094   3.777  17.229  0.3926  0.5350  0.3659
 7026SOL    HW132711   1.013   3.752  17.273  1.2990 -3.6240 -0.2684
 7026SOL    HW232712   1.107   3.706  17.166 -2.7478  1.0403 -0.8522
 7027SOL     OW32713   4.277   0.840   3.920  0.0546 -0.3690  0.2466
 7027SOL    HW132714   4.253   0.749   3.940  0.3327 -0.5494 -0.2192
 7027SOL    HW232715   4.354   0.821   3.865  0.1578  1.0696 -0.0946
 7028SOL     OW32716   3.783   2.257   5.348 -0.5180  0.4665  0.4626
 7028SOL    HW132717   3.745   2.169   5.352  1.3110 -0.2597  2.0461
 7028SOL    HW232718   3.730   2.276   5.271 -2.0223  0.9191  1.6006
 7029SOL     OW32719   0.796   3.235   8.310 -0.0798  0.4888  0.0391
 7029SOL    HW132720   0.832   3.258   8.396  1.7357  0.7493 -0.7964
 7029SOL    HW232721   0.871   3.260   8.255  0.4775  1.3566  1.1995
 7030SOL     OW32722   3.357   0.081   0.360 -0.9911 -0.2426 -0.5963
 7030SOL    HW132723   3.431   0.041   0.313 -1.1414  0.9597 -1.8405
 7030SOL    HW232724   3.314   0.123   0.286 -1.3363 -0.9116 -0.7818
 7031SOL     OW32725   2.066   3.850   6.094  0.4971 -0.2958 -0.2822
 7031SOL    HW132726   2.013   3.908   6.148  0.5481  1.6568 -2.3199
 7031SOL    HW232727   2.151   3.894   6.090 -0.2080  1.1680  0.9575
 7032SOL     OW32728   3.093   3.977   2.652  0.1095 -0.5074 -0.2102
 7032SOL    HW132729   3.002   3.989   2.679  0.2549  1.0643 -0.4212
 7032SOL    HW232730   3.136   3.960   2.735 -0.0057  1.1647  0.1808
 7033SOL     OW32731   2.116   0.988   4.657  0.2043  0.2707 -0.3556
 7033SOL    HW132732   2.087   1.010   4.568 -1.3037  0.0098  0.0724
 7033SOL    HW232733   2.150   0.900   4.646  2.7533  1.3492 -1.0912
 7034SOL     OW32734   2.848   0.750   7.885  0.8208 -0.3210 -0.1549
 7034SOL    HW132735   2.852   0.835   7.842 -2.1742 -0.1999 -0.1851
 7034SOL    HW232736   2.936   0.750   7.923  1.7786  1.3800 -2.3553
 7035SOL     OW32737   4.384   1.237   8.541  0.4144  0.7258 -0.0199
 7035SOL    HW132738   4.289   1.237   8.554  0.4161  0.6715 -0.0096
 7035SOL    HW232739   4.403   1.317   8.591 -0.5199  0.0615  1.3851
 7036SOL     OW32740   0.053   0.467  11.963 -0.2746  0.1267 -0.0962
 7036SOL    HW132741   0.023   0.526  11.893 -0.7610 -3.2857 -2.7928
 7036SOL    HW232742   0.142   0.501  11.967 -1.0092  1.7644  2.1130
 7037SOL     OW32743   1.421   3.992   7.517  0.1203  1.2093  0.4280
 7037SOL    HW132744   1.405   3.922   7.453  0.8682  2.3002 -0.9463
 7037SOL    HW232745   1.482   3.949   7.577 -0.4011 -0.2624 -0.0982
 7038SOL     OW32746   2.835   3.970   4.097  0.1728  0.5183  0.6710
 7038SOL    HW132747   2.873   4.026   4.164 -0.4381 -0.1819  1.5929
 7038SOL    HW232748   2.785   3.905   4.147 -0.0232  0.6152  0.6017
 7039SOL     OW32749   1.945   2.109   5.007  0.5670 -0.2220 -0.7217
 7039SOL    HW132750   1.872   2.051   5.031  0.3859  1.4175  2.6920
 7039SOL    HW232751   1.893   2.181   4.972  0.2552 -0.3232 -0.4791
 7040SOL     OW32752   0.124   2.938   3.690  0.1296  0.0443 -0.3489
 7040SOL    HW132753   0.058   2.869   3.687 -0.6836  0.8017  0.5884
 7040SOL    HW232754   0.084   3.010   3.738 -0.5557 -0.2264 -0.5125
 7041SOL     OW32755   1.466   0.207   4.701 -0.4917 -0.0339  0.6227
 7041SOL    HW132756   1.509   0.165   4.776  0.5003  0.3073  0.2423
 7041SOL    HW232757   1.394   0.144   4.702 -0.9013  0.4646  2.9418
 7042SOL     OW32758   3.601   1.544   8.151 -0.0767 -0.4795  0.1072
 7042SOL    HW132759   3.673   1.549   8.088  0.3682  0.7129  0.7302
 7042SOL    HW232760   3.536   1.496   8.099  0.3754 -0.0838 -0.8220
 7043SOL     OW32761   3.433   1.366   3.615  0.6189  0.0895  1.0200
 7043SOL    HW132762   3.514   1.383   3.567  0.9732  0.2227  1.6628
 7043SOL    HW232763   3.408   1.457   3.632 -0.5016  0.2070 -1.3774
 7044SOL     OW32764   1.070   1.815   0.908 -0.5007  1.0375  0.3818
 7044SOL    HW132765   1.095   1.906   0.892 -0.8884  1.3227  1.4035
 7044SOL    HW232766   1.091   1.783   0.820 -4.4108  0.5710 -0.3904
 7045SOL     OW32767   4.171   1.590   3.759  0.1071 -0.1505 -0.1146
 7045SOL    HW132768   4.239   1.609   3.825 -0.4749 -1.0273  0.7298
 7045SOL    HW232769   4.164   1.676   3.716  2.4194  1.6894  3.1550
 7046SOL     OW32770   2.671   0.281  13.221  0.6382 -0.4337 -0.9037
 7046SOL    HW132771   2.724   0.340  13.275  0.9325 -1.1166 -0.4347
 7046SOL    HW232772   2.583   0.300  13.253  0.9565  1.3890 -1.1554
 7047SOL     OW32773   2.342   1.990   9.110  0.5625 -0.3745  0.4874
 7047SOL    HW132774   2.359   1.900   9.136 -0.1444 -0.7647 -0.4220
 7047SOL    HW232775   2.431   2.025   9.118  0.4436 -0.0314  0.3106
 7048SOL     OW32776   1.113   4.515   5.225 -0.2164 -1.0324 -0.5519
 7048SOL    HW132777   1.202   4.551   5.223 -0.0739 -1.3044  0.6509
 7048SOL    HW232778   1.100   4.481   5.314 -1.6783  1.3191  0.1474
 7049SOL     OW32779   0.393   3.759  15.837 -0.3212  0.0258 -0.0680
 7049SOL    HW132780   0.444   3.779  15.759  0.5318 -2.1767 -0.0772
 7049SOL    HW232781   0.438   3.679  15.866  0.6490 -0.7735 -3.7520
 7050SOL     OW32782   2.822   1.232   3.893 -0.0974  0.4963 -0.1064
 7050SOL    HW132783   2.857   1.212   3.806 -0.1673 -0.9023  0.1966
 7050SOL    HW232784   2.738   1.187   3.902 -0.8581  2.6293  3.5724
 7051SOL     OW32785   4.241   1.409   3.420 -0.4149  0.0339  0.5741
 7051SOL    HW132786   4.185   1.486   3.429 -0.1346  0.2425  0.5463
 7051SOL    HW232787   4.199   1.353   3.354  1.6451 -0.1322 -0.6118
 7052SOL     OW32788   4.705   1.189   2.179 -0.5887 -0.4836 -0.1533
 7052SOL    HW132789   0.013   1.181   2.264 -0.5597  0.1392 -0.1090
 7052SOL    HW232790   0.007   1.112   2.137  1.4552 -0.0652  0.9248
 7053SOL     OW32791   2.877   3.157   8.255  0.0685  0.1538  0.0907
 7053SOL    HW132792   2.814   3.088   8.277  1.6365 -1.0483  0.7756
 7053SOL    HW232793   2.869   3.212   8.334  2.3267  0.1630  0.2966
 7054SOL     OW32794   1.291   2.774   2.953 -0.2319  0.0883 -0.5544
 7054SOL    HW132795   1.240   2.758   3.032  0.5951 -0.5354 -0.1571
 7054SOL    HW232796   1.378   2.769   2.991  0.7405  0.2667 -2.7185
 7055SOL     OW32797   1.612   2.750  10.653 -0.6165 -0.5044  0.3568
 7055SOL    HW132798   1.592   2.743  10.560 -0.5263  1.1624  0.2102
 7055SOL    HW232799   1.533   2.781  10.699 -1.2620 -1.5457 -0.0538
 7056SOL     OW32800   0.311   2.350   4.593  0.4315  0.0438  0.1018
 7056SOL    HW132801   0.336   2.270   4.640 -1.4145 -0.6738 -0.1370
 7056SOL    HW232802   0.337   2.416   4.657 -1.1429 -1.5150  2.3354
 7057SOL     OW32803   2.664   1.189   6.261  0.0258 -0.0861  0.8334
 7057SOL    HW132804   2.610   1.254   6.306  0.3418 -1.9033  3.8350
 7057SOL    HW232805   2.616   1.179   6.179 -0.1592 -0.2048  0.9586
 7058SOL     OW32806   3.394   3.821   3.393  0.0464  0.2845  0.7650
 7058SOL    HW132807   3.319   3.837   3.451  0.7407 -1.1343  2.0574
 7058SOL    HW232808   3.464   3.823   3.458  0.2430  1.0414  0.5276
 7059SOL     OW32809   3.934   0.381   6.464 -0.8850  0.0985  0.3040
 7059SOL    HW132810   3.962   0.472   6.470  1.0132 -0.5180  0.5485
 7059SOL    HW232811   3.982   0.358   6.384 -1.6318 -1.1401  0.2046
 7060SOL     OW32812   2.298   4.714   7.853  0.3741  0.2026  0.5296
 7060SOL    HW132813   2.228   0.027   7.809  0.4658  0.5085  0.7225
 7060SOL    HW232814   2.352   0.044   7.897  0.2592  1.6291 -1.4582
 7061SOL     OW32815   2.451   1.692   5.491 -0.0238 -0.4455  0.6239
 7061SOL    HW132816   2.373   1.720   5.539 -0.0694  2.3464 -1.0683
 7061SOL    HW232817   2.449   1.751   5.416 -0.1464 -0.5207  0.5693
 7062SOL     OW32818   1.988   0.616   3.559 -0.1042  0.2217 -0.0173
 7062SOL    HW132819   1.996   0.635   3.465 -1.4707  0.3542 -0.1089
 7062SOL    HW232820   1.979   0.707   3.589  0.8129 -0.1087  1.2670
 7063SOL     OW32821   2.708   0.804   9.844  0.3175  0.5987  0.4910
 7063SOL    HW132822   2.744   0.853   9.918  1.7136 -0.5448  0.5772
 7063SOL    HW232823   2.770   0.823   9.773 -0.4214 -2.4277 -0.9442
 7064SOL     OW32824   2.847   4.042  11.645  0.7231 -0.1187  0.4230
 7064SOL    HW132825   2.831   3.973  11.710 -1.1633  0.1613  0.2439
 7064SOL    HW232826   2.934   4.022  11.610  0.5962 -0.7991  0.5126
 7065SOL     OW32827   1.350   2.698  10.432  0.7088  0.3468  0.9850
 7065SOL    HW132828   1.277   2.678  10.373  0.8254 -1.8427  1.6028
 7065SOL    HW232829   1.306   2.738  10.507  1.6565  1.9051  0.7212
 7066SOL     OW32830   1.102   1.302   4.074  0.4756 -0.0836 -0.1890
 7066SOL    HW132831   1.122   1.295   4.168  0.8449 -2.0174 -0.4114
 7066SOL    HW232832   1.068   1.215   4.051  3.4293 -0.4719 -2.9556
 7067SOL     OW32833   3.492   2.508   1.569 -0.3350  0.1237 -0.1848
 7067SOL    HW132834   3.411   2.496   1.519 -0.7013  0.5884  0.3008
 7067SOL    HW232835   3.513   2.421   1.603 -0.1883 -0.3241 -1.4138
 7068SOL     OW32836   3.562   2.242  14.098  0.3160  0.1241 -0.1447
 7068SOL    HW132837   3.539   2.325  14.058 -1.7830 -0.8209 -0.9221
 7068SOL    HW232838   3.474   2.209  14.118  0.2848  1.1070  1.3708
 7069SOL     OW32839   0.079   2.415   8.766  0.3723  0.3736 -0.4176
 7069SOL    HW132840   0.123   2.482   8.817 -0.0022 -1.6128  2.4934
 7069SOL    HW232841   0.117   2.335   8.801 -1.0601 -0.0066  0.2855
 7070SOL     OW32842   1.186   1.072   4.723 -0.0236 -0.0679 -0.6167
 7070SOL    HW132843   1.124   1.034   4.784  0.1549  0.4013 -0.1418
 7070SOL    HW232844   1.130   1.106   4.654  0.0795  3.0614  0.8185
 7071SOL     OW32845   3.956   1.374   4.017 -0.2091 -0.1084  0.3843
 7071SOL    HW132846   3.921   1.449   3.970  1.9876  0.8739  0.3529
 7071SOL    HW232847   3.889   1.308   3.998 -1.6967  1.0631  1.6592
 7072SOL     OW32848   4.730   4.708   2.822  0.1147 -0.2661  0.5882
 7072SOL    HW132849   4.734   0.056   2.775  0.2994 -0.7143 -0.1848
 7072SOL    HW232850   0.060   4.719   2.890 -0.0598 -3.1963  1.2040
 7073SOL     OW32851   0.776   3.026   9.673 -0.2875  0.5082 -0.0216
 7073SOL    HW132852   0.803   3.038   9.582 -1.8203  0.9514 -0.4313
 7073SOL    HW232853   0.857   2.988   9.706 -0.6197  1.5692  2.0283
 7074SOL     OW32854   1.464   2.189  17.112  0.1955  0.1090  0.3287
 7074SOL    HW132855   1.402   2.173  17.041  3.1628  2.2966 -2.7845
 7074SOL    HW232856   1.474   2.100  17.145 -0.9978  1.1854  3.5681
 7075SOL     OW32857   0.054   2.594   3.550  0.1510  0.2667  0.3175
 7075SOL    HW132858   0.006   2.606   3.468  1.5785  0.5032 -0.4971
 7075SOL    HW232859   4.728   2.579   3.621 -1.0821  0.3339 -0.7542
 7076SOL     OW32860   0.403   2.262   7.681 -0.2801  0.4352  0.0853
 7076SOL    HW132861   0.449   2.266   7.598  0.3248 -0.6659  0.3638
 7076SOL    HW232862   0.371   2.173   7.698 -4.3696  1.8229 -0.2499
 7077SOL     OW32863   0.999   2.682  13.110  0.2390 -0.0837 -0.0007
 7077SOL    HW132864   1.057   2.728  13.049  1.1604  0.6146  1.4209
 7077SOL    HW232865   0.955   2.617  13.056  0.2499  0.2406 -0.3995
 7078SOL     OW32866   2.944   4.479  14.634 -0.1423 -0.2668  0.4827
 7078SOL    HW132867   2.904   4.533  14.702  0.1948  0.1584  0.3509
 7078SOL    HW232868   2.913   4.393  14.662  0.8154 -0.2668  1.5345
 7079SOL     OW32869   3.617   1.440  10.093  0.3208  0.4671 -0.7716
 7079SOL    HW132870   3.596   1.382  10.020  0.7632  0.7437 -1.1262
 7079SOL    HW232871   3.685   1.392  10.140 -0.9873 -1.2279 -0.6262
 7080SOL     OW32872   0.674   1.643  16.189  0.5690 -0.2609 -0.0829
 7080SOL    HW132873   0.743   1.678  16.247 -0.3640 -1.1635  1.5747
 7080SOL    HW232874   0.691   1.672  16.100  2.3596 -3.0595 -0.6432
 7081SOL     OW32875   4.705   1.617   0.615 -0.0240 -0.1364  0.9236
 7081SOL    HW132876   4.678   1.636   0.705  0.2040 -1.2313  1.2279
 7081SOL    HW232877   0.014   1.533   0.629  0.1601  0.1461  2.0268
 7082SOL     OW32878   1.295   2.730   9.493 -0.4644  0.2113 -0.2127
 7082SOL    HW132879   1.307   2.636   9.505  0.7348  0.3164 -0.5734
 7082SOL    HW232880   1.328   2.727   9.403 -1.1420 -1.1996 -0.4281
 7083SOL     OW32881   3.498   1.235  13.782  0.2278 -0.1434  0.0343
 7083SOL    HW132882   3.541   1.255  13.866  0.9985 -0.3481 -0.3047
 7083SOL    HW232883   3.545   1.290  13.719  1.6251 -3.1260 -1.5732
 7084SOL     OW32884   2.475   2.407   8.265  0.2207 -0.2511  0.1285
 7084SOL    HW132885   2.436   2.478   8.215  2.0365 -0.3138 -1.3742
 7084SOL    HW232886   2.552   2.387   8.212 -0.2688 -1.3234 -0.1714
 7085SOL     OW32887   3.784   2.229   2.022  0.3522  0.0843  0.1981
 7085SOL    HW132888   3.757   2.144   2.059  1.2045  0.2558  1.2276
 7085SOL    HW232889   3.832   2.276   2.090  0.3410 -0.5488  0.6431
 7086SOL     OW32890   0.028   3.546  16.259 -0.3361 -0.0157 -0.2672
 7086SOL    HW132891   4.731   3.597  16.333 -1.0555  2.1678 -2.0973
 7086SOL    HW232892   0.092   3.607  16.221  0.6435 -0.8347  0.0646
 7087SOL     OW32893   3.654   3.187   4.733  0.1759  0.6492 -0.2242
 7087SOL    HW132894   3.576   3.242   4.725  0.1220  0.6346  0.2331
 7087SOL    HW232895   3.644   3.132   4.655  0.4902  0.3453 -0.0502
 7088SOL     OW32896   2.364   1.417   8.191 -0.5535  0.4930  0.5357
 7088SOL    HW132897   2.275   1.415   8.155 -0.1820  0.3765 -0.3658
 7088SOL    HW232898   2.359   1.349   8.259  0.0261 -0.5141 -0.4167
 7089SOL     OW32899   3.580   3.611  17.195  0.2892  0.1503 -0.3556
 7089SOL    HW132900   3.592   3.679  17.128  0.0808 -0.8966 -1.4467
 7089SOL    HW232901   3.669   3.575  17.195 -0.3688 -1.4592  0.5665
 7090SOL     OW32902   2.757   0.153  14.011 -0.1995 -0.6248 -0.2644
 7090SOL    HW132903   2.754   0.238  13.967 -1.1527 -0.8271 -0.6088
 7090SOL    HW232904   2.839   0.112  13.984  0.2761  1.1383 -1.5524
 7091SOL     OW32905   0.899   0.253   3.481  0.0468  0.2099 -0.3439
 7091SOL    HW132906   0.808   0.237   3.503  1.0990 -1.6541  2.5502
 7091SOL    HW232907   0.923   0.328   3.535  0.4088  1.0004 -1.5998
 7092SOL     OW32908   3.003   0.411   5.053  0.5128  0.5601 -0.2995
 7092SOL    HW132909   2.986   0.449   5.140  0.6865  1.6283 -0.7273
 7092SOL    HW232910   3.073   0.350   5.077 -1.4848 -2.1628 -1.4587
 7093SOL     OW32911   0.784   0.253   2.015 -0.4348  0.8107  0.2083
 7093SOL    HW132912   0.762   0.267   2.107 -0.1216 -1.8057  0.6974
 7093SOL    HW232913   0.814   0.162   2.013  2.5759  1.8542 -1.9100
 7094SOL     OW32914   4.433   2.135   1.272 -0.2226 -0.6104 -0.1491
 7094SOL    HW132915   4.497   2.138   1.202  0.7807  2.4833  0.8931
 7094SOL    HW232916   4.380   2.214   1.257 -0.1915 -0.8042 -1.2337
 7095SOL     OW32917   2.988   3.372   7.950 -0.2625 -0.6411 -0.4266
 7095SOL    HW132918   3.047   3.303   7.981 -2.1505 -2.6177 -1.2219
 7095SOL    HW232919   3.032   3.448   7.987  1.3947 -1.1148 -1.4108
 7096SOL     OW32920   3.851   0.304   7.255 -0.3896  0.3678  0.7959
 7096SOL    HW132921   3.839   0.211   7.237 -0.1501  0.3938  0.5121
 7096SOL    HW232922   3.924   0.328   7.198 -0.0566 -2.5323 -0.0109
 7097SOL     OW32923   2.255   0.341  12.773 -0.5411 -0.1616 -0.4947
 7097SOL    HW132924   2.280   0.259  12.816 -0.6053 -0.7713 -1.6358
 7097SOL    HW232925   2.325   0.351  12.709  0.4835  3.0583  1.1162
 7098SOL     OW32926   2.000   0.004   8.011  0.0424 -0.3624  0.4344
 7098SOL    HW132927   2.074   0.039   8.061 -1.1602 -0.4934  2.3355
 7098SOL    HW232928   1.966   4.681   8.079 -2.0562 -0.5898 -0.8316
 7099SOL     OW32929   0.657   3.356   6.826  0.0648 -0.1719  0.0310
 7099SOL    HW132930   0.656   3.379   6.919 -0.0934 -0.2121  0.0397
 7099SOL    HW232931   0.667   3.446   6.795 -0.3108  0.1075  0.7351
 7100SOL     OW32932   2.795   1.189  15.400 -0.1064  0.3432 -0.2513
 7100SOL    HW132933   2.815   1.176  15.307  0.1216  0.3331 -0.2001
 7100SOL    HW232934   2.790   1.283  15.419 -0.2082  0.5554 -1.3509
 7101SOL     OW32935   4.663   0.520   0.560 -0.1471 -0.2588  0.4288
 7101SOL    HW132936   4.619   0.596   0.600  1.2969  0.2252  1.1141
 7101SOL    HW232937   4.713   0.485   0.633 -1.8684 -0.4987  1.4881
 7102SOL     OW32938   2.974   2.616   6.570 -0.0546  0.1955  0.0782
 7102SOL    HW132939   3.052   2.608   6.625  1.4116  0.7211 -1.9020
 7102SOL    HW232940   2.903   2.633   6.631 -0.0407 -0.2136  0.2078
 7103SOL     OW32941   0.524   1.632   1.990  0.8285 -0.1207  0.1492
 7103SOL    HW132942   0.510   1.644   1.896  1.4188  0.9727  0.2014
 7103SOL    HW232943   0.473   1.709   2.013 -0.9183 -1.8596  2.0768
 7104SOL     OW32944   2.063   1.189   6.819 -0.2959  0.0362 -0.1267
 7104SOL    HW132945   2.046   1.283   6.812  0.3406  0.2249  0.7727
 7104SOL    HW232946   2.041   1.164   6.730 -1.4199  3.3675 -0.7723
 7105SOL     OW32947   4.609   3.595   2.418 -0.2038  0.4312 -0.1709
 7105SOL    HW132948   4.591   3.501   2.417  3.0151 -0.1791 -1.0273
 7105SOL    HW232949   4.525   3.634   2.396  0.7213  2.9682  0.7830
 7106SOL     OW32950   4.708   3.100   1.865 -0.1467 -0.0696 -0.3288
 7106SOL    HW132951   4.646   3.031   1.890  0.2080 -1.2629 -2.7043
 7106SOL    HW232952   0.041   3.044   1.830  0.2573  0.7434 -0.8436
 7107SOL     OW32953   4.070   1.924   5.140 -0.8020 -0.0247 -0.4818
 7107SOL    HW132954   4.056   1.920   5.235  1.2787 -0.2471 -0.1985
 7107SOL    HW232955   4.018   2.002   5.118 -2.5270 -1.0631 -0.0957
 7108SOL     OW32956   4.672   0.876   4.737  0.1239 -0.2562  0.0529
 7108SOL    HW132957   4.604   0.830   4.688  1.6173 -1.8384 -0.5188
 7108SOL    HW232958   4.688   0.955   4.685  1.7261 -1.6437 -1.6149
 7109SOL     OW32959   1.326   2.433  16.895 -0.0590  0.1565  0.0115
 7109SOL    HW132960   1.236   2.457  16.872  0.2600 -0.0025 -1.3670
 7109SOL    HW232961   1.306   2.348  16.934 -0.1452  1.2061  2.3115
 7110SOL     OW32962   0.306   0.574   5.775  0.0281  0.5542  0.1518
 7110SOL    HW132963   0.270   0.641   5.716 -1.3663 -1.3409 -1.1624
 7110SOL    HW232964   0.388   0.616   5.801 -0.0296  0.2410  0.8401
 7111SOL     OW32965   0.004   2.735  14.961 -0.1681  0.1866  0.1370
 7111SOL    HW132966   0.075   2.696  15.011  0.8710  0.2422 -1.3003
 7111SOL    HW232967   0.045   2.725  14.875 -0.9398  0.5492 -0.2709
 7112SOL     OW32968   4.339   2.426   7.958 -0.2851  0.1748  0.1829
 7112SOL    HW132969   4.247   2.402   7.947 -0.1477 -0.4330  0.4054
 7112SOL    HW232970   4.378   2.339   7.965 -0.9145 -0.2165 -1.0589
 7113SOL     OW32971   1.584   2.798   6.683  0.5504 -0.3048 -0.1586
 7113SOL    HW132972   1.610   2.855   6.755 -1.4441 -0.2132  0.4974
 7113SOL    HW232973   1.632   2.835   6.609  0.9117 -0.3038  0.0796
 7114SOL     OW32974   4.484   2.485   2.590 -0.0245 -0.6818  0.0369
 7114SOL    HW132975   4.522   2.564   2.629 -1.7142  0.3402 -0.3789
 7114SOL    HW232976   4.461   2.436   2.669  0.4416 -0.1709  0.4912
 7115SOL     OW32977   2.774   1.181   5.907 -0.5340 -0.1010 -0.0940
 7115SOL    HW132978   2.709   1.240   5.869  1.5851  1.2170 -1.6777
 7115SOL    HW232979   2.717   1.112   5.941 -0.5634 -0.4523 -0.8592
 7116SOL     OW32980   3.145   3.206   9.792 -0.1794  1.0102  0.5017
 7116SOL    HW132981   3.067   3.156   9.769  0.3434  0.8053 -0.7935
 7116SOL    HW232982   3.207   3.148   9.836  1.0089  0.5386 -1.8408
 7117SOL     OW32983   3.291   3.242  13.493  0.2348  0.0820  0.4318
 7117SOL    HW132984   3.290   3.153  13.527  1.2825 -0.0352  0.1625
 7117SOL    HW232985   3.225   3.291  13.542  0.7376  0.9179  0.2700
 7118SOL     OW32986   4.184   1.075   7.229 -0.0976  0.0577  0.1273
 7118SOL    HW132987   4.179   1.067   7.134  1.7803 -0.2863  0.0508
 7118SOL    HW232988   4.279   1.081   7.240 -0.4120  0.9287  2.3556
 7119SOL     OW32989   2.024   0.656   6.087 -0.3667  0.2604 -0.6439
 7119SOL    HW132990   2.096   0.651   6.024 -0.0478 -0.3084 -0.2331
 7119SOL    HW232991   2.007   0.751   6.087  1.8894  0.6699 -1.6080
 7120SOL     OW32992   0.778   4.046   5.376  0.0952 -0.0584  0.1151
 7120SOL    HW132993   0.837   4.011   5.442 -0.1796  0.5285  0.6735
 7120SOL    HW232994   0.700   4.045   5.432 -0.0307  1.7236 -0.0363
 7121SOL     OW32995   0.741   0.042   7.245  0.0188 -0.4037  0.0771
 7121SOL    HW132996   0.836   0.054   7.241  0.1617 -1.3777  0.5225
 7121SOL    HW232997   0.699   0.127   7.228 -0.0558 -0.6522 -0.9338
 7122SOL     OW32998   3.983   4.353   4.457  0.2405 -0.4274  0.4981
 7122SOL    HW132999   3.919   4.330   4.525 -0.9530  2.1705  0.2662
 7122SOL    HW233000   4.020   4.432   4.496  1.0120 -0.6058  0.1204
 7123SOL     OW33001   1.736   2.012   8.937 -0.5510  0.1545  0.1681
 7123SOL    HW133002   1.819   1.977   8.905  0.3682  2.8957 -0.3987
 7123SOL    HW233003   1.676   1.991   8.866  1.3781 -1.2959 -1.0489
 7124SOL     OW33004   2.327   1.246   6.448 -0.2731 -0.1952  0.0727
 7124SOL    HW133005   2.339   1.169   6.392 -3.2532 -0.5548 -0.0614
 7124SOL    HW233006   2.302   1.313   6.384 -0.0842  0.4323  0.6570
 7125SOL     OW33007   1.360   2.091   9.119 -0.5443 -0.2487  0.1627
 7125SOL    HW133008   1.273   2.064   9.091 -0.7493 -1.2885  1.8119
 7125SOL    HW233009   1.374   2.174   9.073  1.9242  0.6164  2.4813
 7126SOL     OW33010   4.250   4.244  15.131  0.0015 -0.2664  0.3747
 7126SOL    HW133011   4.163   4.258  15.169  0.6727  0.0795  1.8027
 7126SOL    HW233012   4.229   4.162  15.086  2.1726  0.1184 -1.3337
 7127SOL     OW33013   0.902   3.622   5.581 -0.4310 -0.4199  0.1567
 7127SOL    HW133014   0.868   3.603   5.494  0.7293  0.5121 -0.5087
 7127SOL    HW233015   0.827   3.654   5.631 -0.7813  0.2097 -0.7793
 7128SOL     OW33016   1.417   0.510  12.170  0.3431 -0.1583 -0.1115
 7128SOL    HW133017   1.362   0.568  12.222 -1.3439 -0.8073 -1.2041
 7128SOL    HW233018   1.493   0.513  12.229  1.2158 -0.4327 -1.2072
 7129SOL     OW33019   2.708   1.797   6.358  0.2473 -0.4246  0.0184
 7129SOL    HW133020   2.682   1.705   6.359  0.4784 -0.4845  0.5422
 7129SOL    HW233021   2.660   1.828   6.281 -0.2778  0.8826  0.8762
 7130SOL     OW33022   3.391   4.394   5.802 -0.1804 -0.0422 -0.1577
 7130SOL    HW133023   3.399   4.483   5.838  0.8023 -0.5927  0.9768
 7130SOL    HW233024   3.436   4.398   5.717 -1.8441  0.1558 -1.0352
 7131SOL     OW33025   1.341   3.040   1.962  0.1121  0.4970 -0.2267
 7131SOL    HW133026   1.256   3.076   1.937 -0.6420 -0.9007  0.3383
 7131SOL    HW233027   1.362   2.967   1.904 -1.0419 -0.3924  0.4833
 7132SOL     OW33028   3.618   3.630   3.311 -0.2783  0.1873 -0.0907
 7132SOL    HW133029   3.656   3.662   3.229 -1.1663 -0.2253 -0.6597
 7132SOL    HW233030   3.690   3.572   3.336 -1.5347 -1.4863 -0.3597
 7133SOL     OW33031   1.506   1.860   9.459 -0.4657 -0.3701  0.4635
 7133SOL    HW133032   1.519   1.850   9.554  2.6430  2.2127  0.2976
 7133SOL    HW233033   1.467   1.774   9.442 -1.5018  0.3578 -0.8448
 7134SOL     OW33034   3.072   4.592   5.336 -0.7271  0.0453  0.1071
 7134SOL    HW133035   3.044   4.662   5.394 -0.4889 -1.7191  2.3776
 7134SOL    HW233036   3.085   4.634   5.251  1.3661  1.0049  0.8917
 7135SOL     OW33037   2.825   0.106   3.572  0.4510 -0.0248  0.1308
 7135SOL    HW133038   2.738   0.081   3.540  0.1492  1.2488 -0.0243
 7135SOL    HW233039   2.843   0.022   3.614 -0.2313 -0.9757 -1.4793
 7136SOL     OW33040   3.792   3.783   9.142 -0.0042 -0.1672 -0.4346
 7136SOL    HW133041   3.780   3.865   9.095 -0.8818 -1.4479 -2.4424
 7136SOL    HW233042   3.818   3.826   9.224 -1.2927  1.9185 -1.1176
 7137SOL     OW33043   1.160   0.427   6.493  0.9183  0.0413 -0.2235
 7137SOL    HW133044   1.146   0.452   6.584 -2.7514 -0.2984 -0.7135
 7137SOL    HW233045   1.071   0.418   6.459  2.3058  0.1973 -3.8902
 7138SOL     OW33046   0.841   0.042   3.338 -0.0884  0.4734  0.9567
 7138SOL    HW133047   0.750   0.052   3.311  0.1356 -0.8197 -0.2948
 7138SOL    HW233048   0.861   0.121   3.388  0.3864  1.2224 -0.4060
 7139SOL     OW33049   0.664   4.628   7.918 -0.0084  0.4076 -0.3133
 7139SOL    HW133050   0.582   4.579   7.927 -0.4590  1.1214 -0.5592
 7139SOL    HW233051   0.684   4.619   7.824  0.2199 -0.8115 -0.1513
 7140SOL     OW33052   0.309   1.620   2.698  0.1846 -0.3134 -0.3640
 7140SOL    HW133053   0.353   1.700   2.728 -2.4190  0.7104  0.7299
 7140SOL    HW233054   0.380   1.585   2.644 -1.0883  0.2847 -2.4458
 7141SOL     OW33055   0.936   2.863  14.139 -0.8181 -0.3548 -0.5220
 7141SOL    HW133056   0.855   2.825  14.104 -1.2477  0.7041 -0.6776
 7141SOL    HW233057   0.922   2.958  14.132 -0.9029 -0.1830  2.1987
 7142SOL     OW33058   3.450   3.175   7.232  0.1370  0.8487  0.0351
 7142SOL    HW133059   3.470   3.191   7.324 -0.4958  1.1334  0.1229
 7142SOL    HW233060   3.502   3.251   7.206  0.3354  0.4951 -0.5970
 7143SOL     OW33061   2.424   0.754   2.483 -0.0214 -0.3086  0.0755
 7143SOL    HW133062   2.343   0.714   2.453  0.0134 -1.6017  1.6943
 7143SOL    HW233063   2.434   0.839   2.440  2.7989 -0.8618 -0.3475
 7144SOL     OW33064   4.027   4.073  15.380 -0.3153  0.3319 -0.2836
 7144SOL    HW133065   4.095   4.140  15.388 -0.2988  0.1044  1.3500
 7144SOL    HW233066   4.037   4.015  15.455  0.2133 -1.1537 -1.4919
 7145SOL     OW33067   1.561   1.338   2.118  0.3765 -0.1913  0.0073
 7145SOL    HW133068   1.524   1.260   2.077 -3.8067  1.2525  0.9725
 7145SOL    HW233069   1.598   1.302   2.199 -1.0731 -3.6140 -0.8720
 7146SOL     OW33070   0.459   2.062   1.899  0.1597  0.6986  0.0041
 7146SOL    HW133071   0.531   2.059   1.836 -1.1261  2.7633 -1.5915
 7146SOL    HW233072   0.395   2.093   1.835 -0.7414  1.8290  1.4373
 7147SOL     OW33073   0.712   1.230  16.895 -0.1892  0.0239 -0.8681
 7147SOL    HW133074   0.686   1.213  16.986  1.8134  0.3203 -0.2326
 7147SOL    HW233075   0.765   1.150  16.890  0.2201  0.0819  2.1923
 7148SOL     OW33076   2.318   0.997  14.437  0.1401  0.0868  0.3633
 7148SOL    HW133077   2.366   1.064  14.389  0.8179  0.0938  1.0535
 7148SOL    HW233078   2.387   0.946  14.478  0.7448  0.4904 -0.1547
 7149SOL     OW33079   0.935   4.689   1.396 -0.0850 -0.4755 -0.2875
 7149SOL    HW133080   0.975   4.674   1.310  1.2158 -0.7958  0.3876
 7149SOL    HW233081   0.849   4.708   1.357  0.1883  1.9790  0.2931
 7150SOL     OW33082   1.692   1.650   5.575 -0.1243 -0.1794  0.2314
 7150SOL    HW133083   1.697   1.609   5.489  0.1905  2.7635 -1.1565
 7150SOL    HW233084   1.601   1.669   5.597 -0.2552  0.8774 -1.2608
 7151SOL     OW33085   3.986   2.643   4.487  0.6691 -0.1663 -0.1005
 7151SOL    HW133086   3.901   2.676   4.457  1.5345  1.2489 -0.9909
 7151SOL    HW233087   3.996   2.688   4.572 -0.9321  0.6762 -0.3627
 7152SOL     OW33088   4.365   0.502  12.587 -0.0129  0.0359 -0.0524
 7152SOL    HW133089   4.270   0.510  12.579 -0.1590 -3.2967 -1.5599
 7152SOL    HW233090   4.385   0.505  12.493  1.3945  2.6084  0.3137
 7153SOL     OW33091   2.563   3.272   6.175 -0.2289 -0.4329 -0.2373
 7153SOL    HW133092   2.477   3.284   6.134  0.5433 -2.2644 -2.3575
 7153SOL    HW233093   2.624   3.342   6.152  0.8439 -1.4458 -0.4621
 7154SOL     OW33094   1.761   2.308   4.489  0.1471  0.2873 -0.0784
 7154SOL    HW133095   1.846   2.278   4.456  0.1364  0.5580 -0.3544
 7154SOL    HW233096   1.721   2.223   4.508  0.1312  0.3049 -0.0328
 7155SOL     OW33097   1.303   1.203   6.674 -0.5144 -0.7358 -0.0014
 7155SOL    HW133098   1.396   1.220   6.695 -0.9562 -0.1320  1.5157
 7155SOL    HW233099   1.287   1.287   6.632  0.2398 -2.5332 -3.8487
 7156SOL     OW33100   2.766   4.710   1.294  0.6403 -0.1170 -0.3650
 7156SOL    HW133101   2.677   4.681   1.273  0.7136  0.7749 -1.9797
 7156SOL    HW233102   2.774   0.041   1.226 -0.0212  0.0408 -0.2845
 7157SOL     OW33103   1.278   1.914   5.514  0.2046  0.4327  0.2171
 7157SOL    HW133104   1.240   1.835   5.551 -1.2983  1.4933  0.8997
 7157SOL    HW233105   1.275   1.977   5.586 -3.1113  0.9401 -0.4077
 7158SOL     OW33106   1.676   1.008  16.602  0.5024  0.3879 -0.5816
 7158SOL    HW133107   1.725   0.961  16.670  0.3740 -1.8801 -2.0445
 7158SOL    HW233108   1.661   0.935  16.542 -0.8785  0.3102 -0.1427
 7159SOL     OW33109   4.434   0.411  15.409 -0.1535 -0.0869  0.6479
 7159SOL    HW133110   4.405   0.423  15.500  2.6236 -2.9912  1.9003
 7159SOL    HW233111   4.523   0.379  15.417  0.1011  0.4951  0.1196
 7160SOL     OW33112   0.209   3.244   3.398 -0.2840 -0.2624 -0.5959
 7160SOL    HW133113   0.136   3.203   3.352  0.4085 -0.4185 -1.5465
 7160SOL    HW233114   0.281   3.200   3.353  0.6849  0.8785 -0.1766
 7161SOL     OW33115   4.567   3.825   5.424  0.2801  0.0971  0.0146
 7161SOL    HW133116   4.563   3.733   5.449 -0.7977  0.0897 -0.1993
 7161SOL    HW233117   4.543   3.865   5.507  0.7699  0.5472 -0.0562
 7162SOL     OW33118   2.771   0.217   3.226  0.5002  0.4126  0.4086
 7162SOL    HW133119   2.841   0.269   3.265 -0.2855  1.1314  0.8428
 7162SOL    HW233120   2.726   0.271   3.160  0.3686  1.4019  1.3107
 7163SOL     OW33121   2.106   0.944   2.503 -0.3263  0.0436 -0.4981
 7163SOL    HW133122   2.101   0.852   2.478 -0.2196  0.3941 -1.8349
 7163SOL    HW233123   2.057   0.952   2.585  1.7087  1.3967  0.6060
 7164SOL     OW33124   2.642   2.037   1.605 -0.2606  0.9089 -0.3460
 7164SOL    HW133125   2.554   2.043   1.641  1.2486  2.4686  3.0966
 7164SOL    HW233126   2.652   1.942   1.605 -2.1740  0.7179 -0.7824
 7165SOL     OW33127   1.190   4.136   1.940 -0.1475 -0.0113  0.3227
 7165SOL    HW133128   1.130   4.128   2.014  0.6828 -3.8348  0.5788
 7165SOL    HW233129   1.135   4.107   1.866 -0.6829  0.8384  0.3841
 7166SOL     OW33130   0.127   1.480   5.756 -0.6839  0.2656  0.3465
 7166SOL    HW133131   0.047   1.487   5.807 -1.5821  0.2113 -1.0704
 7166SOL    HW233132   0.182   1.534   5.814  0.2900  0.6650 -0.9490
 7167SOL     OW33133   0.712   0.653  15.621 -0.7855 -0.1437  0.0890
 7167SOL    HW133134   0.718   0.612  15.535 -2.4680 -0.0781 -0.0593
 7167SOL    HW233135   0.805   0.645  15.644 -0.3805  0.8528 -1.2178
 7168SOL     OW33136   4.226   0.926   8.305  0.4044  0.1930 -0.4135
 7168SOL    HW133137   4.228   0.887   8.217  1.2078  0.0209 -0.3197
 7168SOL    HW233138   4.215   1.019   8.286  2.9991  0.6991  0.6186
 7169SOL     OW33139   2.264   3.476   6.934  0.2796  0.2175  0.1727
 7169SOL    HW133140   2.242   3.551   6.990 -1.8323  0.5102 -1.0577
 7169SOL    HW233141   2.360   3.481   6.933  0.3602 -1.8724 -1.9064
 7170SOL     OW33142   4.277   1.990   8.017 -0.1372  0.4595 -0.0018
 7170SOL    HW133143   4.205   2.052   8.023 -1.4360 -1.3044  2.6718
 7170SOL    HW233144   4.240   1.918   8.068  0.2272  0.2141 -0.0777
 7171SOL     OW33145   4.628   4.092   4.860  0.2050  0.1093 -0.5236
 7171SOL    HW133146   4.557   4.115   4.800 -0.4464  0.2943  0.3362
 7171SOL    HW233147   4.676   4.022   4.815 -1.6054 -1.8249  0.5753
 7172SOL     OW33148   0.540   2.463   3.324 -0.6743  0.2673 -0.0182
 7172SOL    HW133149   0.446   2.449   3.321 -0.7587 -0.2875  4.2838
 7172SOL    HW233150   0.534   2.558   3.321  2.9601  0.4837 -0.7614
 7173SOL     OW33151   1.927   4.094   1.420  0.0704  0.7120  0.9037
 7173SOL    HW133152   1.920   4.189   1.433  1.6380  0.9766 -0.1479
 7173SOL    HW233153   1.990   4.063   1.485 -0.4212  1.9773  1.9772
 7174SOL     OW33154   1.414   2.358   6.934 -0.6876 -0.1135 -0.7114
 7174SOL    HW133155   1.407   2.418   7.008 -3.5100 -0.8684 -0.3712
 7174SOL    HW233156   1.449   2.275   6.966 -1.4079  1.1129  3.1575
 7175SOL     OW33157   3.080   3.544  13.440  0.3221  0.3871 -0.3924
 7175SOL    HW133158   3.056   3.452  13.428 -1.1536  0.9223 -1.5565
 7175SOL    HW233159   3.028   3.565  13.518 -0.5046  0.4467 -0.9606
 7176SOL     OW33160   0.422   3.936   5.360  0.4034  0.0819 -0.4137
 7176SOL    HW133161   0.478   3.897   5.293  1.0307 -1.0989  0.7836
 7176SOL    HW233162   0.391   4.007   5.305  1.6682  0.2020 -0.9628
 7177SOL     OW33163   3.884   3.349  13.032  0.7013  0.8590  0.3577
 7177SOL    HW133164   3.843   3.313  13.111 -2.2477  2.8802 -0.2657
 7177SOL    HW233165   3.933   3.421  13.071 -2.1497  2.4923  0.8897
 7178SOL     OW33166   2.106   0.308   3.310  0.5538  0.2388  0.5099
 7178SOL    HW133167   2.178   0.247   3.323 -0.0064 -0.2330  1.3526
 7178SOL    HW233168   2.047   0.253   3.258  0.6294 -0.2672  0.9704
 7179SOL     OW33169   1.716   4.007   0.499 -0.0454  0.0523  0.4547
 7179SOL    HW133170   1.793   3.961   0.533 -0.9891 -1.2291  0.8695
 7179SOL    HW233171   1.646   3.956   0.541 -1.2363  1.1467 -0.1936
 7180SOL     OW33172   0.150   4.536   3.183  0.4517  0.4313  0.0882
 7180SOL    HW133173   0.182   4.582   3.105  0.4259 -0.5646 -0.4975
 7180SOL    HW233174   0.080   4.594   3.214  0.0206 -0.6797  1.1783
 7181SOL     OW33175   2.734   2.817  17.615 -0.3438  0.2134  0.6069
 7181SOL    HW133176   2.715   2.876  17.542  0.7774 -1.1826 -0.7903
 7181SOL    HW233177   2.676   2.744  17.596 -0.2352  0.1867  0.3797
 7182SOL     OW33178   3.235   2.303   9.438  0.5346 -0.3757  0.0209
 7182SOL    HW133179   3.190   2.219   9.451 -0.5734  0.3999  1.1639
 7182SOL    HW233180   3.233   2.333   9.528 -4.3773 -0.2495 -0.1206
 7183SOL     OW33181   2.695   0.244  15.968  0.3165  0.4503  0.3328
 7183SOL    HW133182   2.790   0.241  15.977  0.1060 -1.1170  2.1766
 7183SOL    HW233183   2.681   0.151  15.987 -0.1472  1.0985  3.2876
 7184SOL     OW33184   0.812   2.818  15.442  0.1724 -0.1293  0.3722
 7184SOL    HW133185   0.783   2.751  15.503  0.8859 -1.7924 -1.1224
 7184SOL    HW233186   0.804   2.895  15.499 -1.3056  1.3157 -1.8150
 7185SOL     OW33187   0.631   1.337  17.357  0.2971 -0.1978 -0.8446
 7185SOL    HW133188   0.694   1.349  17.286 -0.7924  0.8467 -1.6369
 7185SOL    HW233189   0.606   1.428  17.375  0.1739 -0.3278 -0.3470
 7186SOL     OW33190   0.458   3.185   8.591  0.1864 -0.0981  0.2252
 7186SOL    HW133191   0.476   3.211   8.681 -1.4810  4.4423 -0.7437
 7186SOL    HW233192   0.369   3.150   8.597 -1.1632  3.5053  1.0305
 7187SOL     OW33193   2.120   1.451   8.068 -0.2415  0.2031  0.3836
 7187SOL    HW133194   2.046   1.495   8.027 -0.6595 -0.4995  0.3996
 7187SOL    HW233195   2.140   1.397   7.992  1.9480  0.6011  0.6579
 7188SOL     OW33196   1.315   2.684   7.880 -0.0002 -0.1476 -0.3719
 7188SOL    HW133197   1.404   2.652   7.863  0.5766  0.6204  1.1476
 7188SOL    HW233198   1.335   2.755   7.942 -0.8467  0.1145 -0.4062
 7189SOL     OW33199   4.552   0.949   2.749 -0.5457 -0.2893 -0.2539
 7189SOL    HW133200   4.543   0.870   2.802  0.3631 -1.0612 -1.2397
 7189SOL    HW233201   4.509   1.012   2.806  0.0414 -0.6732  0.6306
 7190SOL     OW33202   1.211   2.657   3.580 -0.1981  0.3209 -0.7222
 7190SOL    HW133203   1.127   2.639   3.537  0.4149  1.9403 -2.5668
 7190SOL    HW233204   1.197   2.653   3.675  2.1595  0.3394 -0.3946
 7191SOL     OW33205   4.492   2.768   7.059 -0.1184 -0.2214 -1.0281
 7191SOL    HW133206   4.557   2.722   7.112 -1.5779 -0.6179  0.4034
 7191SOL    HW233207   4.491   2.857   7.093  1.8072 -0.4561 -0.3515
 7192SOL     OW33208   1.057   3.814   4.839  0.5574 -0.4041  0.1798
 7192SOL    HW133209   1.114   3.741   4.813 -0.2392 -0.0134 -2.6204
 7192SOL    HW233210   1.092   3.832   4.926  0.3466 -0.7857  0.3410
 7193SOL     OW33211   2.446   3.415   8.213 -0.0247  0.0354  0.4263
 7193SOL    HW133212   2.533   3.376   8.215 -0.5011 -0.9581  2.0215
 7193SOL    HW233213   2.421   3.405   8.121  0.6269 -2.2485  0.4969
 7194SOL     OW33214   2.186   4.593   9.975  0.7781  0.3417  0.1377
 7194SOL    HW133215   2.118   4.532  10.004  1.7290 -0.0572  1.5668
 7194SOL    HW233216   2.150   4.640   9.900 -0.2421  2.1935  1.8110
 7195SOL     OW33217   0.989   1.032   5.599 -0.1055 -0.2819  0.0452
 7195SOL    HW133218   1.027   1.037   5.687  1.0288 -0.5451 -0.4271
 7195SOL    HW233219   0.897   1.012   5.616  0.2377 -1.7246  0.2343
 7196SOL     OW33220   2.603   1.980  10.656  0.0613 -0.2121  0.0068
 7196SOL    HW133221   2.591   1.925  10.579  0.4896  0.1572 -0.3163
 7196SOL    HW233222   2.517   1.985  10.699  0.4832  0.2171  0.8118
 7197SOL     OW33223   0.164   0.554   6.052  0.6395 -0.4495 -0.7048
 7197SOL    HW133224   0.238   0.543   5.992  0.8034 -0.5349 -0.4859
 7197SOL    HW233225   0.091   0.537   5.992  0.4225 -1.2100 -0.2244
 7198SOL     OW33226   3.095   4.667   3.283 -0.1697 -0.2050  0.0027
 7198SOL    HW133227   3.135   4.591   3.326  1.2738  0.4635 -0.1679
 7198SOL    HW233228   3.026   4.688   3.345  0.0444 -1.2755  0.6151
 7199SOL     OW33229   3.017   0.924   5.586 -0.0747 -0.0595  0.4991
 7199SOL    HW133230   3.112   0.927   5.595 -0.2525  0.2134  2.1366
 7199SOL    HW233231   3.006   1.015   5.612 -0.2485  0.2318 -0.5803
 7200SOL     OW33232   1.255   0.981   2.102  0.0373  0.0285  0.3025
 7200SOL    HW133233   1.312   0.960   2.176 -0.7763 -0.2314  0.8408
 7200SOL    HW233234   1.175   0.931   2.115  0.1911 -0.5227 -0.9191
 7201SOL     OW33235   0.576   1.728   0.308  0.0900  0.2471 -0.3900
 7201SOL    HW133236   0.598   1.797   0.371 -0.2593 -0.2953  0.3326
 7201SOL    HW233237   0.659   1.725   0.260 -0.0501 -2.1645 -0.4931
 7202SOL     OW33238   1.629   3.093   1.781 -0.3711  0.0181 -0.2333
 7202SOL    HW133239   1.597   3.043   1.706 -1.1569  1.0021 -0.5491
 7202SOL    HW233240   1.571   3.168   1.769 -0.9929  0.3108  4.4676
 7203SOL     OW33241   1.060   1.701  14.194  0.2196  0.0826  0.3384
 7203SOL    HW133242   0.973   1.727  14.162  1.9176  2.2336 -2.5620
 7203SOL    HW233243   1.043   1.698  14.288  0.0118  0.9492  0.3298
 7204SOL     OW33244   2.069   2.891   1.423  0.0628  0.4075 -0.2418
 7204SOL    HW133245   2.097   2.958   1.485 -0.7301 -1.0452  1.7020
 7204SOL    HW233246   2.126   2.910   1.349 -1.9114  1.8303 -1.3787
 7205SOL     OW33247   3.722   0.823  17.658 -0.0662  0.2307  0.0637
 7205SOL    HW133248   3.650   0.879  17.686 -0.5437 -0.4443  0.2108
 7205SOL    HW233249   3.721   0.756  17.727  2.0905  0.3001  0.1639
 7206SOL     OW33250   4.045   3.769  15.123  0.7388  0.3110 -0.1617
 7206SOL    HW133251   4.081   3.683  15.148 -0.0001  0.6717  2.1756
 7206SOL    HW233252   3.954   3.753  15.149  0.4108 -0.3479 -1.6941
 7207SOL     OW33253   0.721   2.389   7.226 -0.4769  0.3252  0.1032
 7207SOL    HW133254   0.662   2.336   7.173 -2.1574 -0.0231  2.3140
 7207SOL    HW233255   0.671   2.468   7.246 -1.9819 -0.5280 -0.2987
 7208SOL     OW33256   0.681   3.818   4.225  0.2160  0.7658  0.0100
 7208SOL    HW133257   0.755   3.820   4.164  0.9878 -2.9740  0.7889
 7208SOL    HW233258   0.701   3.741   4.278 -0.3202  1.0443  0.6240
 7209SOL     OW33259   2.600   0.316   3.009  0.3793 -0.4132 -0.4175
 7209SOL    HW133260   2.528   0.306   2.947 -1.0989  1.5188  0.9888
 7209SOL    HW233261   2.560   0.369   3.078  0.6283 -2.4150  1.2679
 7210SOL     OW33262   1.986   4.670   4.555  0.4162 -0.4972 -0.2158
 7210SOL    HW133263   1.914   4.608   4.569 -1.6318  1.3985 -2.3158
 7210SOL    HW233264   1.956   4.718   4.478 -0.7946  0.9585  1.1667
 7211SOL     OW33265   3.198   0.025   6.288  0.4150  0.5198 -0.3038
 7211SOL    HW133266   3.216   4.675   6.250 -2.2127  0.7353 -2.0925
 7211SOL    HW233267   3.245   0.022   6.371  0.6420  0.9985 -0.4171
 7212SOL     OW33268   0.321   3.038  13.189  0.5365  0.3602  0.1892
 7212SOL    HW133269   0.342   2.986  13.111 -0.1932 -1.8300  1.4517
 7212SOL    HW233270   0.316   2.968  13.254  0.8133 -1.9179 -2.2402
 7213SOL     OW33271   3.105   1.167   6.389 -0.1015 -0.0560  0.2501
 7213SOL    HW133272   3.027   1.115   6.407 -0.2921  0.3061  0.4564
 7213SOL    HW233273   3.065   1.253   6.395  1.9940  0.8943  0.6191
 7214SOL     OW33274   0.724   1.901  14.449 -0.0157  0.0436 -0.0373
 7214SOL    HW133275   0.717   1.842  14.525  0.0507 -0.3771 -0.3582
 7214SOL    HW233276   0.631   1.914  14.430  0.3999 -0.9154 -2.6744
 7215SOL     OW33277   2.765   2.502   5.002 -0.5154  0.3637  0.5333
 7215SOL    HW133278   2.705   2.493   5.076  0.5808 -1.5671  1.1846
 7215SOL    HW233279   2.753   2.593   4.974 -2.6485 -0.2233 -0.4933
 7216SOL     OW33280   1.056   1.779   4.310 -0.0380  0.0058 -0.2825
 7216SOL    HW133281   1.082   1.789   4.402  2.7195 -2.2863 -0.8433
 7216SOL    HW233282   0.964   1.806   4.318 -0.2495 -0.4253 -1.3475
 7217SOL     OW33283   3.989   3.690   4.002 -1.0010 -0.0653 -0.0791
 7217SOL    HW133284   3.905   3.690   4.046 -0.3425  0.3029  1.1744
 7217SOL    HW233285   3.997   3.783   3.981 -0.5038 -0.1192 -0.1343
 7218SOL     OW33286   2.009   3.713   1.050 -0.5035  0.3984  0.0926
 7218SOL    HW133287   1.975   3.762   1.125  1.4155  1.0636  0.5407
 7218SOL    HW233288   1.997   3.779   0.982  1.9366 -1.0938 -1.8206
 7219SOL     OW33289   0.573   4.359   9.559  0.1406 -0.2085  0.1257
 7219SOL    HW133290   0.596   4.288   9.619 -1.5792 -1.2411 -0.4538
 7219SOL    HW233291   0.506   4.416   9.596  1.9669  1.2719  1.1489
 7220SOL     OW33292   2.576   1.661  15.363 -0.2430  0.2826 -0.0551
 7220SOL    HW133293   2.539   1.749  15.367  0.8321  0.7261  0.0157
 7220SOL    HW233294   2.517   1.638  15.291 -0.2577  0.9372 -0.2520
 7221SOL     OW33295   0.973   2.376   7.406 -0.0442  0.5987 -0.3251
 7221SOL    HW133296   0.920   2.360   7.327 -0.9794 -0.3860  0.4859
 7221SOL    HW233297   0.934   2.298   7.448 -0.7731  1.6214  0.9059
 7222SOL     OW33298   4.478   4.666  16.022  0.1733 -0.2421 -0.2257
 7222SOL    HW133299   4.416   4.608  16.066 -1.1245  2.4201  1.4636
 7222SOL    HW233300   4.522   4.705  16.098 -0.5763 -1.1812  0.6871
 7223SOL     OW33301   3.337   0.866   2.280  0.0110 -0.0926  0.6307
 7223SOL    HW133302   3.263   0.927   2.278  2.6002  3.0086 -0.8015
 7223SOL    HW233303   3.411   0.922   2.303  0.0497  1.1260 -2.5858
 7224SOL     OW33304   4.080   2.215  13.534  0.9938  0.2899  0.0013
 7224SOL    HW133305   4.030   2.137  13.557  0.8120  1.1844  2.5814
 7224SOL    HW233306   4.157   2.199  13.587 -0.2135  1.4609  2.1154
 7225SOL     OW33307   3.479   0.516   3.403 -0.6592  0.2622 -0.1757
 7225SOL    HW133308   3.502   0.431   3.441  2.1608  1.0740 -0.1010
 7225SOL    HW233309   3.405   0.550   3.454  0.5062 -0.5744  2.0965
 7226SOL     OW33310   1.676   4.057  14.242  0.0171 -0.2720 -0.5815
 7226SOL    HW133311   1.615   4.083  14.312  1.4901  1.8082 -0.0519
 7226SOL    HW233312   1.739   4.006  14.294  0.1311 -0.1417 -0.5924
 7227SOL     OW33313   0.494   0.033   7.558 -0.2581 -0.0329 -0.2357
 7227SOL    HW133314   0.449   4.702   7.508 -0.9804  1.2632 -1.2966
 7227SOL    HW233315   0.473   0.107   7.502 -0.7118  0.0036 -0.0159
 7228SOL     OW33316   0.947   3.458   4.476 -0.4961  0.4004  0.2818
 7228SOL    HW133317   0.983   3.369   4.471 -1.0121  0.2628 -0.8788
 7228SOL    HW233318   0.978   3.492   4.392 -3.4542  2.4738  0.0595
 7229SOL     OW33319   1.975   0.350   5.817 -0.1182 -0.5879 -0.0926
 7229SOL    HW133320   1.958   0.436   5.778  1.3544 -0.5304 -0.6138
 7229SOL    HW233321   1.966   0.286   5.746  0.7501 -0.0653 -0.6732
 7230SOL     OW33322   4.403   0.600   5.331  0.2035 -0.1138  0.1097
 7230SOL    HW133323   4.411   0.505   5.325 -2.7743 -0.2943 -0.8823
 7230SOL    HW233324   4.317   0.607   5.370  0.1387  0.4457 -0.1400
 7231SOL     OW33325   3.450   2.364   2.627 -0.2209  0.8315 -0.3652
 7231SOL    HW133326   3.455   2.298   2.696  1.8939  1.0235 -0.3503
 7231SOL    HW233327   3.438   2.314   2.546 -1.9103 -2.0716  1.6356
 7232SOL     OW33328   0.558   0.811   5.067 -0.2226  0.8535 -0.3757
 7232SOL    HW133329   0.463   0.801   5.067 -0.0117 -1.0266  0.5990
 7232SOL    HW233330   0.569   0.828   4.973 -1.9669  1.3083 -0.4976
 7233SOL     OW33331   2.110   4.060  17.174  0.4786 -0.3817 -0.1551
 7233SOL    HW133332   2.047   4.038  17.106 -0.8232  0.8115  0.6650
 7233SOL    HW233333   2.069   4.012  17.246 -0.8850  0.0836 -0.6205
 7234SOL     OW33334   3.595   3.184   4.359 -0.0974 -0.2528 -0.2259
 7234SOL    HW133335   3.688   3.206   4.353 -0.1796  0.1952  0.1107
 7234SOL    HW233336   3.565   3.243   4.428  3.1999 -1.5514  2.2708
 7235SOL     OW33337   4.363   0.523   1.823  0.2596  0.8307  0.0568
 7235SOL    HW133338   4.416   0.594   1.786 -0.8504  1.2695 -0.6752
 7235SOL    HW233339   4.369   0.537   1.917  0.0515  0.8464  0.0673
 7236SOL     OW33340   3.610   0.466  11.046 -0.2127 -0.7539  0.0143
 7236SOL    HW133341   3.588   0.527  10.975  2.1822 -0.7266 -0.7239
 7236SOL    HW233342   3.690   0.499  11.087 -0.2057  1.0007 -1.3820
 7237SOL     OW33343   2.669   2.887   6.433 -0.2072 -0.1653  0.2489
 7237SOL    HW133344   2.594   2.853   6.483 -1.6825  0.7768 -1.3534
 7237SOL    HW233345   2.711   2.807   6.402  1.2077  0.5942  0.2301
 7238SOL     OW33346   4.405   2.110   4.982 -0.1764 -0.1329 -0.0977
 7238SOL    HW133347   4.386   2.025   5.022  0.2441  0.1722  0.7436
 7238SOL    HW233348   4.320   2.123   4.941  0.1755 -3.5109 -1.9169
 7239SOL     OW33349   0.739   1.999  16.178 -0.6359  0.3152  0.0038
 7239SOL    HW133350   0.644   1.999  16.171 -0.6374 -0.3261  0.0333
 7239SOL    HW233351   0.760   2.045  16.097  1.7298 -2.4002 -0.9163
 7240SOL     OW33352   1.300   3.294   8.343  0.5929  0.1569  0.5502
 7240SOL    HW133353   1.378   3.244   8.365 -1.9979 -3.0328  2.4460
 7240SOL    HW233354   1.335   3.336   8.264  0.0296 -2.0297 -0.8546
 7241SOL     OW33355   2.185   1.225  17.639 -0.4217 -0.2064 -0.6559
 7241SOL    HW133356   2.091   1.237  17.627 -0.8524 -3.0028 -0.0408
 7241SOL    HW233357   2.224   1.261  17.559 -0.5985 -0.1759 -0.7278
 7242SOL     OW33358   4.530   1.435   1.844  0.3637  0.1161 -0.0279
 7242SOL    HW133359   4.518   1.521   1.884 -1.1599  0.7317 -1.8082
 7242SOL    HW233360   4.577   1.459   1.764  0.2020  0.8468  0.1014
 7243SOL     OW33361   1.070   4.438   4.588  0.0460 -0.0263  0.4040
 7243SOL    HW133362   1.054   4.501   4.657  0.0317  0.3275  0.0748
 7243SOL    HW233363   1.005   4.475   4.528 -0.2279 -2.3367 -0.7396
 7244SOL     OW33364   1.064   1.553   7.568  0.0743  0.5020 -0.2200
 7244SOL    HW133365   1.012   1.609   7.626 -2.5012 -1.6020 -0.5250
 7244SOL    HW233366   0.995   1.512   7.516  0.7423  0.7512 -1.3143
 7245SOL     OW33367   0.661   4.250  14.500 -0.6819 -0.5709  0.2661
 7245SOL    HW133368   0.722   4.297  14.557 -2.1353 -0.5202  1.8049
 7245SOL    HW233369   0.603   4.211  14.566 -1.9689  2.0912  0.7103
 7246SOL     OW33370   3.855   1.639   9.160  0.1986  0.2055  0.3748
 7246SOL    HW133371   3.817   1.569   9.108  1.0769  1.3732 -1.8381
 7246SOL    HW233372   3.945   1.636   9.127 -0.0698  0.7392 -0.4122
 7247SOL     OW33373   3.618   3.960   4.234  0.0374  0.3959 -0.1419
 7247SOL    HW133374   3.669   3.975   4.313  1.0931  1.3177 -0.9858
 7247SOL    HW233375   3.534   3.943   4.276 -1.7012  0.6360 -3.5039
 7248SOL     OW33376   3.533   3.513  14.506 -0.2188 -0.0078  0.5488
 7248SOL    HW133377   3.519   3.588  14.449  0.1409 -1.6500 -1.7214
 7248SOL    HW233378   3.538   3.433  14.453  1.0735 -0.8569  1.9228
 7249SOL     OW33379   3.350   4.563   3.056 -0.1153  0.3825  0.1875
 7249SOL    HW133380   3.331   4.593   2.967  0.2424 -1.3056 -0.4659
 7249SOL    HW233381   3.330   4.644   3.102  0.1348  0.7464 -0.3346
 7250SOL     OW33382   3.096   3.562   8.143  0.3282 -0.3107  0.6126
 7250SOL    HW133383   3.162   3.532   8.205  1.8389  1.1862 -0.2955
 7250SOL    HW233384   3.014   3.550   8.192 -0.7962  0.1075 -1.1690
 7251SOL     OW33385   1.333   4.642   1.203  0.2794  0.3356  0.4222
 7251SOL    HW133386   1.346   4.547   1.211 -1.1655  0.3076  2.4541
 7251SOL    HW233387   1.389   4.665   1.129 -0.3614  0.7557  0.0689
 7252SOL     OW33388   4.222   4.176   7.766  0.2426  0.0084 -0.0412
 7252SOL    HW133389   4.296   4.121   7.741  0.2968 -0.2749  0.7340
 7252SOL    HW233390   4.162   4.170   7.692 -2.0137 -2.2516  1.9483
 7253SOL     OW33391   2.273   4.273   3.072  0.0624  0.0098  0.3519
 7253SOL    HW133392   2.338   4.330   3.113  2.2620 -1.3445 -1.2770
 7253SOL    HW233393   2.325   4.201   3.036  2.1926  0.6108  2.2304
 7254SOL     OW33394   3.390   2.908  15.728 -0.0732  0.0387 -0.3303
 7254SOL    HW133395   3.356   2.837  15.672  0.3421 -0.9311  0.6515
 7254SOL    HW233396   3.435   2.959  15.661  2.6533 -0.2028  1.3622
 7255SOL     OW33397   0.116   3.797   9.265  0.0267  0.3322  0.1804
 7255SOL    HW133398   0.172   3.869   9.294  0.6519  1.0146 -2.6620
 7255SOL    HW233399   0.052   3.794   9.335  0.0364 -2.6371  0.0696
 7256SOL     OW33400   0.891   4.261   4.450 -0.4473  0.0303  0.2734
 7256SOL    HW133401   0.839   4.180   4.451 -0.0435 -0.2373 -0.5218
 7256SOL    HW233402   0.926   4.278   4.538 -3.1827  4.8296  0.4584
 7257SOL     OW33403   2.461   2.206  11.957 -0.2643  0.0009 -0.3567
 7257SOL    HW133404   2.390   2.175  11.902 -2.4540  0.8512  2.0037
 7257SOL    HW233405   2.535   2.163  11.915 -1.5947 -0.4991 -2.1948
 7258SOL     OW33406   2.896   2.857   8.328 -0.7751 -0.2235  0.2744
 7258SOL    HW133407   2.947   2.808   8.263 -0.2666 -0.8144  1.1274
 7258SOL    HW233408   2.968   2.888   8.382 -0.5433 -0.3640  0.0407
 7259SOL     OW33409   4.618   2.263   5.078  0.0939  0.1012  0.6794
 7259SOL    HW133410   4.613   2.307   5.163 -2.5679 -0.2955  0.7265
 7259SOL    HW233411   4.541   2.207   5.085  0.5412 -0.7177 -0.7945
 7260SOL     OW33412   4.638   2.198   5.986 -0.3164 -0.1801 -0.1981
 7260SOL    HW133413   4.614   2.175   5.896 -1.1577  2.2818 -0.6046
 7260SOL    HW233414   4.706   2.264   5.975 -1.5929  1.0338 -0.8564
 7261SOL     OW33415   0.585   1.120   3.650 -0.2335 -0.0741 -0.8317
 7261SOL    HW133416   0.645   1.095   3.580 -1.0916 -1.3847 -1.0822
 7261SOL    HW233417   0.501   1.118   3.604 -1.0228  1.4370  0.5490
 7262SOL     OW33418   4.010   0.871   1.947  0.1412  0.1111  0.0644
 7262SOL    HW133419   4.044   0.797   1.997  4.5220  0.3057 -2.6758
 7262SOL    HW233420   3.932   0.829   1.911 -0.5871  3.3338 -2.1262
 7263SOL     OW33421   0.569   4.600   4.729 -0.1016  0.4851  0.1381
 7263SOL    HW133422   0.623   4.522   4.743 -1.4605 -0.4255  0.2941
 7263SOL    HW233423   0.624   4.667   4.768 -0.5374  0.4805  0.7556
 7264SOL     OW33424   4.437   0.605  13.182 -0.4265 -0.2424  0.2383
 7264SOL    HW133425   4.410   0.536  13.242  1.4078  0.0881  1.4507
 7264SOL    HW233426   4.370   0.672  13.200  0.4322  0.8187 -0.5175
 7265SOL     OW33427   1.914   3.757  11.050  0.1109  0.6256  0.4658
 7265SOL    HW133428   1.972   3.813  10.999  0.1983  2.2274  2.3235
 7265SOL    HW233429   1.889   3.691  10.985  2.5772 -1.5418  1.7227
 7266SOL     OW33430   3.737   0.444   3.583 -0.3238 -0.7333 -0.3241
 7266SOL    HW133431   3.807   0.413   3.525 -0.9603  0.5514 -1.7720
 7266SOL    HW233432   3.782   0.521   3.619  0.3674 -0.4177 -1.8596
 7267SOL     OW33433   0.370   1.316   2.644 -0.0411  0.0367  0.7191
 7267SOL    HW133434   0.330   1.245   2.695 -0.2193  0.6004  1.3630
 7267SOL    HW233435   0.416   1.373   2.706  0.3666 -0.4726  0.8941
 7268SOL     OW33436   4.630   2.487   2.091  0.4502 -0.2704 -0.6766
 7268SOL    HW133437   4.580   2.441   2.158  2.1856  0.3526  1.0480
 7268SOL    HW233438   4.615   2.427   2.018 -0.2085 -0.6712 -0.2062
 7269SOL     OW33439   2.090   1.052  10.526 -0.1086  0.1478  0.5212
 7269SOL    HW133440   2.138   1.050  10.609  1.3498  1.1470 -0.2815
 7269SOL    HW233441   2.110   1.140  10.496  1.0801 -0.3826 -0.2555
 7270SOL     OW33442   2.588   4.469  17.680  0.0215 -0.7093 -0.5028
 7270SOL    HW133443   2.599   4.533  17.610 -1.1625  0.2884  0.2365
 7270SOL    HW233444   2.497   4.473  17.711  0.7053  3.3586  1.0145
 7271SOL     OW33445   2.682   0.631  10.989 -0.0091 -0.6025  0.0511
 7271SOL    HW133446   2.677   0.678  11.072 -0.3992 -0.0676 -0.2757
 7271SOL    HW233447   2.777   0.622  10.985 -0.0718 -1.0963 -0.2211
 7272SOL     OW33448   2.176   1.571   5.159  1.1036  0.2824 -0.5339
 7272SOL    HW133449   2.139   1.658   5.179 -2.0067 -0.6425 -2.1591
 7272SOL    HW233450   2.102   1.511   5.145  1.8738 -0.8466  0.2689
 7273SOL     OW33451   0.177   1.858   8.947  0.4909 -0.1387 -0.3384
 7273SOL    HW133452   0.085   1.885   8.947  0.7701  0.8744  2.8882
 7273SOL    HW233453   0.209   1.880   9.035  1.1267 -2.1644 -0.0682
 7274SOL     OW33454   0.815   1.665   3.656 -0.2306  0.4331  0.2867
 7274SOL    HW133455   0.824   1.591   3.596 -0.1783  0.3986  0.3373
 7274SOL    HW233456   0.903   1.696   3.679  0.0547  1.2356 -1.8401
 7275SOL     OW33457   0.214   0.466   7.205  0.1087  0.5581 -0.7375
 7275SOL    HW133458   0.229   0.546   7.256 -1.1264 -0.2832  0.9441
 7275SOL    HW233459   0.228   0.498   7.116 -1.5204  0.8703 -0.8860
 7276SOL     OW33460   0.355   1.812   2.387 -0.3242  0.1319 -0.1976
 7276SOL    HW133461   0.337   1.808   2.293 -0.0413  1.3448 -0.2915
 7276SOL    HW233462   0.416   1.740   2.405  0.2172  0.6048 -0.1403
 7277SOL     OW33463   2.133   2.368   5.581  0.2511  0.1539  0.2378
 7277SOL    HW133464   2.168   2.423   5.511  1.0470 -1.8512 -0.9477
 7277SOL    HW233465   2.131   2.284   5.535 -1.0208  0.8672 -0.9906
 7278SOL     OW33466   3.768   1.537   7.935 -0.1262 -0.3683  0.1374
 7278SOL    HW133467   3.840   1.598   7.918 -0.6685  0.9553  2.6430
 7278SOL    HW233468   3.747   1.528   7.842  0.0445  0.5156  0.0075
 7279SOL     OW33469   0.024   0.277   8.792  0.4605 -0.0498 -0.4903
 7279SOL    HW133470   0.051   0.186   8.796 -1.0684 -0.3469  2.9421
 7279SOL    HW233471   4.722   0.280   8.704 -1.9767 -0.0763  0.5347
 7280SOL     OW33472   1.298   1.964   3.409 -0.0187  0.0546  0.5217
 7280SOL    HW133473   1.249   1.989   3.488 -0.8127 -1.2613  0.4462
 7280SOL    HW233474   1.256   1.881   3.386 -1.2812  1.6301 -2.8352
 7281SOL     OW33475   0.698   3.016   1.270  0.2660 -0.0459 -0.1571
 7281SOL    HW133476   0.717   2.939   1.324 -2.4411  0.0131  0.9212
 7281SOL    HW233477   0.602   3.011   1.276  0.2982 -0.6059 -0.1285
 7282SOL     OW33478   0.200   3.952   3.890 -0.0655  0.0435  0.2807
 7282SOL    HW133479   0.254   3.987   3.819 -2.2932  1.4223 -0.7141
 7282SOL    HW233480   0.256   3.878   3.916  0.1512  0.1622  0.1537
 7283SOL     OW33481   0.286   2.955   9.897 -0.4249  0.0337 -0.2598
 7283SOL    HW133482   0.289   3.042   9.855 -2.7576  1.0646  1.7061
 7283SOL    HW233483   0.375   2.949   9.932 -0.8894  1.0463  1.0824
 7284SOL     OW33484   0.983   3.274   7.303  0.0155  0.3134 -0.3545
 7284SOL    HW133485   0.979   3.370   7.308 -0.2542  0.2801  0.0734
 7284SOL    HW233486   1.074   3.281   7.332  0.1922 -1.3079 -0.5155
 7285SOL     OW33487   0.201   3.770   5.192  0.2839  0.1446 -0.0513
 7285SOL    HW133488   0.149   3.773   5.112 -0.4351  0.2615  0.4162
 7285SOL    HW233489   0.292   3.769   5.164  0.2420 -0.2756 -0.1783
 7286SOL     OW33490   0.653   1.250   9.729 -0.5315 -0.2460  0.1074
 7286SOL    HW133491   0.629   1.161   9.703  0.9080 -0.5339 -0.2672
 7286SOL    HW233492   0.734   1.241   9.779 -1.0939  1.6079  1.3407
 7287SOL     OW33493   1.661   1.335   1.448  0.0835 -0.2114  0.3445
 7287SOL    HW133494   1.663   1.286   1.531  1.6139 -1.5566 -0.4826
 7287SOL    HW233495   1.594   1.284   1.404  0.9064  0.9199 -2.2072
 7288SOL     OW33496   4.358   2.682   7.620 -0.5392  0.3917  0.2324
 7288SOL    HW133497   4.362   2.587   7.632  1.0505  0.4608  0.2609
 7288SOL    HW233498   4.417   2.723   7.683 -0.9205  0.0447  0.8133
 7289SOL     OW33499   1.836   1.579   5.281 -0.6410  0.5298 -0.1597
 7289SOL    HW133500   1.773   1.622   5.224 -0.1266  0.3715 -0.8552
 7289SOL    HW233501   1.875   1.511   5.225  1.3252  0.1452  1.6449
 7290SOL     OW33502   4.242   1.740  13.374 -0.0258  0.5943  0.2776
 7290SOL    HW133503   4.173   1.804  13.357 -0.6116 -0.6359 -2.0055
 7290SOL    HW233504   4.299   1.764  13.301  0.8571  4.2227  2.1489
 7291SOL     OW33505   0.134   2.378   3.048  0.0681 -0.1590 -0.3958
 7291SOL    HW133506   0.173   2.303   3.003  0.4668 -0.5331  0.5766
 7291SOL    HW233507   0.211   2.426   3.078  0.5615  0.4336 -2.5877
 7292SOL     OW33508   0.729   3.899   1.070 -0.3105 -0.5270  0.0481
 7292SOL    HW133509   0.781   3.836   1.121 -0.1749 -0.4062  0.0581
 7292SOL    HW233510   0.793   3.936   1.010  2.0650 -3.0691  1.0315
 7293SOL     OW33511   4.163   4.197   1.902  0.1406  0.7608 -0.6863
 7293SOL    HW133512   4.068   4.199   1.913  0.2494 -2.3311  0.8666
 7293SOL    HW233513   4.198   4.283   1.925  0.0320  0.3805  0.8742
 7294SOL     OW33514   2.314   1.595   1.456 -0.3874  0.9314 -0.2298
 7294SOL    HW133515   2.345   1.505   1.470 -0.9439  0.8556  0.4983
 7294SOL    HW233516   2.236   1.588   1.510 -0.2588  1.8925  0.0916
 7295SOL     OW33517   1.324   4.068   9.047 -0.0865  0.4446  0.0689
 7295SOL    HW133518   1.413   4.078   9.081 -0.3063 -0.2924  0.8448
 7295SOL    HW233519   1.292   4.104   9.129 -0.9828  1.2201 -0.6133
 7296SOL     OW33520   4.371   3.011   5.384  0.4878 -0.1789  0.0016
 7296SOL    HW133521   4.419   2.962   5.451 -0.5477 -0.4789  0.5251
 7296SOL    HW233522   4.291   2.961   5.365  1.3634 -1.9075  0.8273
 7297SOL     OW33523   2.781   4.561   3.027 -0.5163 -0.3712  0.4211
 7297SOL    HW133524   2.833   4.631   2.989 -1.2917  0.8966  1.6779
 7297SOL    HW233525   2.709   4.552   2.965 -0.8395 -1.1642  0.9027
 7298SOL     OW33526   2.544   1.695   8.676 -0.3056 -0.1120  0.0451
 7298SOL    HW133527   2.570   1.606   8.650  0.0896 -0.0149  0.1128
 7298SOL    HW233528   2.467   1.669   8.727  1.4613 -0.6253  2.4373
 7299SOL     OW33529   0.421   2.423   6.158  0.1699  0.0296  0.1633
 7299SOL    HW133530   0.451   2.511   6.134 -0.2159 -0.0450 -0.5693
 7299SOL    HW233531   0.370   2.429   6.239  2.0446 -1.7336  1.4788
 7300SOL     OW33532   0.993   0.667   7.008  0.2779 -0.1095  0.6029
 7300SOL    HW133533   1.055   0.724   7.054 -0.7515  0.9835  0.6407
 7300SOL    HW233534   0.925   0.734   7.019  0.8878  0.3772  1.4210
 7301SOL     OW33535   1.490   1.422   4.804  0.4823  0.2062 -0.1499
 7301SOL    HW133536   1.459   1.334   4.785 -1.6705  1.0516 -0.5047
 7301SOL    HW233537   1.581   1.400   4.783  0.4440  0.1533 -0.2607
 7302SOL     OW33538   4.400   3.936   6.199 -0.1020 -1.0044 -0.4393
 7302SOL    HW133539   4.430   4.023   6.173 -0.1403 -0.4868  1.2234
 7302SOL    HW233540   4.394   3.888   6.117  0.2248 -0.1012 -0.9924
 7303SOL     OW33541   1.367   1.835   2.589  0.2462 -0.0306 -0.6697
 7303SOL    HW133542   1.337   1.842   2.498 -1.7905  0.8260  0.0784
 7303SOL    HW233543   1.460   1.825   2.569  0.1207 -0.6646 -0.9432
 7304SOL     OW33544   0.436   2.568   5.218 -0.7478 -0.3752 -0.4323
 7304SOL    HW133545   0.507   2.623   5.249 -0.2013 -0.2858 -1.8404
 7304SOL    HW233546   0.435   2.502   5.287  1.2792  0.9785  0.8859
 7305SOL     OW33547   3.619   2.714   5.555  0.0108 -0.1901 -0.0815
 7305SOL    HW133548   3.708   2.718   5.589 -0.7573 -0.7750  1.9495
 7305SOL    HW233549   3.635   2.766   5.476 -2.9440 -1.4857 -1.5388
 7306SOL     OW33550   2.472   3.582   2.663  0.0828  0.5749 -0.0731
 7306SOL    HW133551   2.473   3.509   2.602  1.6523  1.1126 -0.6827
 7306SOL    HW233552   2.411   3.549   2.729  0.9926  0.8483  0.9029
 7307SOL     OW33553   3.571   0.012  17.480  0.4157  0.2856  0.0693
 7307SOL    HW133554   3.596   0.036  17.390 -0.0326 -2.5753 -0.8360
 7307SOL    HW233555   3.590   4.655  17.469  0.0809 -0.1037  2.8570
 7308SOL     OW33556   3.339   4.376  12.862 -0.3123 -0.3317  0.7026
 7308SOL    HW133557   3.337   4.287  12.827  1.6001 -0.5200  1.0763
 7308SOL    HW233558   3.298   4.351  12.945 -0.9676 -2.5971 -0.2957
 7309SOL     OW33559   0.013   3.539   3.938 -0.2240  0.2282  0.2714
 7309SOL    HW133560   0.079   3.476   3.909 -0.2852  0.1676  0.2646
 7309SOL    HW233561   0.038   3.609   3.878 -1.3632 -0.0186 -0.4905
 7310SOL     OW33562   2.942   1.570   9.613  0.3621 -0.0169  0.3446
 7310SOL    HW133563   2.986   1.653   9.631 -0.9554  0.3875  1.6290
 7310SOL    HW233564   2.941   1.538   9.703 -2.4837  0.8932  0.6293
 7311SOL     OW33565   1.536   0.991   4.314  0.2583 -0.3283  0.2194
 7311SOL    HW133566   1.440   0.996   4.315  0.1931 -1.0577 -1.1462
 7311SOL    HW233567   1.552   1.083   4.330 -0.4175 -0.8412  3.7721
 7312SOL     OW33568   4.655   1.957   1.722  0.5240 -0.0160  0.3420
 7312SOL    HW133569   4.608   1.990   1.799 -1.0215 -0.2064 -0.5204
 7312SOL    HW233570   4.577   1.937   1.670  0.7734 -0.7132  0.2397
 7313SOL     OW33571   3.943   0.210   5.787  0.5243 -0.3351  0.0047
 7313SOL    HW133572   3.886   0.223   5.711  0.9488 -0.0669 -0.2601
 7313SOL    HW233573   3.881   0.178   5.853  1.4656  1.8999  1.9677
 7314SOL     OW33574   1.173   1.591  15.896 -0.5677  0.5346  0.6203
 7314SOL    HW133575   1.181   1.495  15.892 -0.5188  0.6653 -1.8146
 7314SOL    HW233576   1.082   1.612  15.916 -0.7393  0.2255  0.1684
 7315SOL     OW33577   1.660   1.927   4.205 -0.0194  0.5145 -0.1669
 7315SOL    HW133578   1.583   1.878   4.177 -0.6938  0.1800  2.2615
 7315SOL    HW233579   1.639   2.015   4.173 -0.3348  0.0247 -1.3185
 7316SOL     OW33580   2.849   2.936   8.990  0.0977  0.5302 -0.2691
 7316SOL    HW133581   2.816   3.016   9.032  0.7507 -0.3526  1.8932
 7316SOL    HW233582   2.842   2.880   9.067 -0.3462  2.7579  1.3058
 7317SOL     OW33583   2.969   3.239   4.507 -0.4250  0.3300  0.0314
 7317SOL    HW133584   2.959   3.153   4.465  2.9405 -0.6564  1.2204
 7317SOL    HW233585   2.947   3.300   4.437  5.8759  2.2564 -0.2428
 7318SOL     OW33586   1.787   4.321  17.532 -0.0294  0.4376 -0.3616
 7318SOL    HW133587   1.769   4.413  17.553 -0.0025  0.3913 -0.1310
 7318SOL    HW233588   1.839   4.331  17.452 -1.2975 -0.6752 -1.3206
 7319SOL     OW33589   2.986   1.931  16.281  0.4322  0.4968  0.1300
 7319SOL    HW133590   2.960   1.839  16.291  0.3345  0.6091  0.9477
 7319SOL    HW233591   2.949   1.958  16.198  1.1909 -1.3869 -0.8111
 7320SOL     OW33592   2.753   0.858  17.152 -0.3912  0.1867 -0.2491
 7320SOL    HW133593   2.713   0.896  17.230 -1.0057 -1.7737  0.3680
 7320SOL    HW233594   2.757   0.943  17.107  0.2170  0.0809 -0.3865
 7321SOL     OW33595   0.399   2.376   6.583 -0.1878  0.1028  0.5645
 7321SOL    HW133596   0.399   2.411   6.672  0.2016  1.7498 -0.0899
 7321SOL    HW233597   0.459   2.437   6.541 -1.1271  1.7305  1.6050
 7322SOL     OW33598   2.214   1.285   5.659 -0.4008  0.0487  0.4185
 7322SOL    HW133599   2.204   1.354   5.724  2.2893  0.5800  0.2240
 7322SOL    HW233600   2.180   1.332   5.583 -0.9396  0.3542  0.8505
 7323SOL     OW33601   3.514   3.013   6.821 -0.9022 -0.0726  0.2543
 7323SOL    HW133602   3.550   3.101   6.805  0.1775 -0.3608  1.0812
 7323SOL    HW233603   3.461   3.034   6.898  0.0228  0.2908  0.7879
 7324SOL     OW33604   2.654   1.569   6.138 -0.4023 -0.1743  0.1321
 7324SOL    HW133605   2.627   1.585   6.048  2.5474  0.1753 -0.6932
 7324SOL    HW233606   2.571   1.531   6.167  0.4756 -0.0971  2.7584
 7325SOL     OW33607   1.289   3.500   6.461 -0.1215  0.1605  0.3081
 7325SOL    HW133608   1.292   3.518   6.367  1.8293 -3.0793 -0.2643
 7325SOL    HW233609   1.221   3.561   6.488 -0.0407 -0.0226  0.9237
 7326SOL     OW33610   4.109   2.059   9.152 -0.0281  0.1635 -0.0768
 7326SOL    HW133611   4.046   2.011   9.207  1.7006 -0.7715  1.0882
 7326SOL    HW233612   4.052   2.110   9.094  2.7027  1.2105 -1.8343
 7327SOL     OW33613   0.018   2.321   3.985  0.2193 -0.1399  0.6510
 7327SOL    HW133614   0.093   2.327   4.045  0.4427 -0.5619  0.4123
 7327SOL    HW233615   0.019   2.226   3.995  3.6025 -0.0397  1.1751
 7328SOL     OW33616   0.057   2.230   1.425  0.8375  0.0919 -0.2418
 7328SOL    HW133617   0.029   2.237   1.334 -0.2032 -3.2067 -0.1722
 7328SOL    HW233618   0.049   2.324   1.442 -0.4721 -0.0627 -0.0175
 7329SOL     OW33619   1.480   3.902   6.012 -0.0612 -0.2752 -0.5058
 7329SOL    HW133620   1.508   3.811   6.024  0.1107 -0.3893 -1.7424
 7329SOL    HW233621   1.388   3.882   5.990 -0.0047 -1.7802  0.5953
 7330SOL     OW33622   4.286   2.526   4.940  0.1525  0.0454  0.0794
 7330SOL    HW133623   4.225   2.452   4.929  0.5285 -0.4831  1.5742
 7330SOL    HW233624   4.318   2.508   4.851  0.7564 -1.9238  0.6876
 7331SOL     OW33625   3.375   4.302  17.445  0.2765  0.1225  0.8604
 7331SOL    HW133626   3.415   4.217  17.463  0.2759 -0.3135 -1.2709
 7331SOL    HW233627   3.302   4.284  17.387 -0.0119 -0.3798  1.3811
 7332SOL     OW33628   3.253   3.377   5.463 -0.1059  0.0858  0.1595
 7332SOL    HW133629   3.286   3.287   5.462 -0.7088 -0.1378  0.2590
 7332SOL    HW233630   3.318   3.425   5.412 -1.3396  1.3586 -0.2263
 7333SOL     OW33631   2.488   1.953   7.814  0.6648  0.0070 -0.1031
 7333SOL    HW133632   2.394   1.947   7.800  0.5985  2.5002 -0.5805
 7333SOL    HW233633   2.484   1.951   7.910 -0.7196  1.4407 -0.1379
 7334SOL     OW33634   4.622   4.470   8.696 -0.2140 -0.2094 -0.0951
 7334SOL    HW133635   4.585   4.387   8.727 -2.1554  0.2979 -1.0808
 7334SOL    HW233636   4.674   4.445   8.621 -0.7573 -2.4475  0.2756
 7335SOL     OW33637   3.126   1.399  13.633 -0.1970 -0.2379 -0.0009
 7335SOL    HW133638   3.040   1.356  13.633 -0.5647  0.4915 -1.0061
 7335SOL    HW233639   3.110   1.491  13.651  0.4006 -0.0590 -0.3979
 7336SOL     OW33640   2.860   0.535   6.341 -0.1557 -0.1203  0.2717
 7336SOL    HW133641   2.869   0.459   6.398  0.2545  0.3193  0.8025
 7336SOL    HW233642   2.877   0.607   6.402  0.5575 -0.9302  1.0271
 7337SOL     OW33643   3.092   1.021   5.166  0.3330 -0.2318  0.7938
 7337SOL    HW133644   3.089   0.947   5.227  1.5931 -1.1371 -0.2429
 7337SOL    HW233645   3.010   1.024   5.118  1.3743  0.2322 -0.9682
 7338SOL     OW33646   0.118   1.923   6.538 -0.4859 -0.0203  0.1076
 7338SOL    HW133647   0.075   1.955   6.617 -2.1152 -1.2439 -0.2857
 7338SOL    HW233648   0.071   1.983   6.479  0.1259  0.8344  0.5006
 7339SOL     OW33649   4.367   4.602   8.286  0.4888 -0.1901  0.1092
 7339SOL    HW133650   4.299   4.636   8.228 -0.6322  1.3421  2.3045
 7339SOL    HW233651   4.439   4.659   8.261  1.7600 -1.7933  0.1416
 7340SOL     OW33652   2.059   1.838   8.967 -0.0552  0.0533 -0.3461
 7340SOL    HW133653   2.024   1.913   8.918 -1.9456  0.0106  0.9638
 7340SOL    HW233654   2.026   1.766   8.914 -0.6807  0.1656 -0.1044
 7341SOL     OW33655   0.643   3.731   8.362  0.2295  0.3440 -0.5103
 7341SOL    HW133656   0.637   3.643   8.323 -0.1855 -0.2105  0.8060
 7341SOL    HW233657   0.610   3.779   8.286 -2.0515  0.5463  0.6076
 7342SOL     OW33658   1.434   2.718   8.306 -0.3794 -0.3532 -0.3014
 7342SOL    HW133659   1.428   2.754   8.395  1.0669  0.7546 -0.6677
 7342SOL    HW233660   1.369   2.648   8.313 -0.4807 -0.2437 -0.1443
 7343SOL     OW33661   2.720   0.943   0.623  0.5300  0.5917 -0.0242
 7343SOL    HW133662   2.758   1.012   0.677  0.5580  0.7754 -0.2743
 7343SOL    HW233663   2.773   0.864   0.636  0.7679  1.1564  2.4744
 7344SOL     OW33664   1.911   1.355   7.228 -0.2112  0.2850 -0.6287
 7344SOL    HW133665   1.847   1.331   7.294 -0.3525  0.0167 -0.8593
 7344SOL    HW233666   1.985   1.294   7.233 -0.8525 -0.4735 -0.4547
 7345SOL     OW33667   0.621   2.153   3.284 -1.0181  0.4602  0.0007
 7345SOL    HW133668   0.535   2.195   3.290 -1.3528 -0.3015  0.5625
 7345SOL    HW233669   0.673   2.221   3.241 -0.7810 -0.3824 -1.0308
 7346SOL     OW33670   2.368   0.656  12.089  0.4055 -0.3135  0.2309
 7346SOL    HW133671   2.383   0.567  12.119 -0.9190 -0.6569 -0.1278
 7346SOL    HW233672   2.283   0.654  12.044  0.3107  2.4438  0.3047
 7347SOL     OW33673   2.795   2.574   7.861  0.0132 -0.1960 -0.1744
 7347SOL    HW133674   2.775   2.653   7.811  2.6739  0.7115  0.1520
 7347SOL    HW233675   2.887   2.598   7.877  0.5367 -2.6615  0.5225
 7348SOL     OW33676   1.541   0.941  16.223 -0.6926 -0.2345 -0.5450
 7348SOL    HW133677   1.543   0.881  16.297 -1.3079  0.7497  0.2656
 7348SOL    HW233678   1.480   1.003  16.263  1.2804  1.7882 -0.7038
 7349SOL     OW33679   2.399   0.897   0.166  0.5433 -0.3642  0.8358
 7349SOL    HW133680   2.322   0.952   0.150  1.0801  0.3234  0.6564
 7349SOL    HW233681   2.462   0.915   0.096 -0.4362 -0.4342 -0.0695
 7350SOL     OW33682   0.882   4.322   7.817  0.2447  0.2761  0.1597
 7350SOL    HW133683   0.863   4.259   7.886  0.1828 -0.4798 -0.5461
 7350SOL    HW233684   0.815   4.389   7.833  0.5539  0.5798  0.1969
 7351SOL     OW33685   4.578   1.938  12.405 -0.0171  0.2673 -0.0848
 7351SOL    HW133686   4.533   1.894  12.333  1.2073 -0.3778 -0.4454
 7351SOL    HW233687   4.634   1.871  12.444  1.6667  0.2514 -2.5260
 7352SOL     OW33688   1.739   2.127   6.595  1.0521  0.2321  0.0380
 7352SOL    HW133689   1.703   2.186   6.662  0.4971  2.5697 -2.3160
 7352SOL    HW233690   1.699   2.149   6.511  1.6005  0.8139 -0.0674
 7353SOL     OW33691   1.115   4.398  11.489  0.4864  0.1407  0.3492
 7353SOL    HW133692   1.051   4.350  11.436  0.9603 -2.3953  2.0976
 7353SOL    HW233693   1.187   4.336  11.490  1.2651  1.0628  1.4983
 7354SOL     OW33694   1.853   0.816   5.461  0.3861 -0.8031  0.5742
 7354SOL    HW133695   1.807   0.893   5.495 -1.2037 -1.9740  1.0796
 7354SOL    HW233696   1.944   0.827   5.488 -0.3011  1.0643  2.1250
 7355SOL     OW33697   4.449   2.448   7.702 -0.5033  0.1496 -0.1857
 7355SOL    HW133698   4.389   2.474   7.772  0.5449  0.2346  0.6962
 7355SOL    HW233699   4.526   2.459   7.759  0.1713 -0.8339 -0.9018
 7356SOL     OW33700   3.392   0.034   4.731 -0.4709  0.4091 -0.2884
 7356SOL    HW133701   3.416   4.707   4.799 -3.0160  1.3626  1.4873
 7356SOL    HW233702   3.424   0.116   4.767 -0.2302  0.0874  0.2338
 7357SOL     OW33703   3.441   0.586  17.116 -0.2442  0.7183 -0.1356
 7357SOL    HW133704   3.463   0.659  17.057 -1.0198  1.4342  0.4564
 7357SOL    HW233705   3.523   0.539  17.130 -0.9312 -0.7368 -1.0098
 7358SOL     OW33706   4.410   3.821   6.768 -0.5666  0.0817 -0.6109
 7358SOL    HW133707   4.501   3.831   6.794 -0.9458 -0.1451  0.8015
 7358SOL    HW233708   4.411   3.761   6.693  1.2610 -1.0775  0.3423
 7359SOL     OW33709   2.192   0.921   9.999 -0.3801 -0.5148  0.4293
 7359SOL    HW133710   2.153   0.954  10.080  0.6650  2.6375 -0.3111
 7359SOL    HW233711   2.203   0.833  10.033  3.2670 -0.0125  0.5679
 7360SOL     OW33712   0.392   1.858   2.086  0.6685 -0.3228 -0.0413
 7360SOL    HW133713   0.300   1.863   2.111  0.8541  2.7911 -0.0570
 7360SOL    HW233714   0.406   1.907   2.005  1.1107  1.2257  0.9814
 7361SOL     OW33715   0.504   0.426   6.054 -0.1189 -0.0544 -0.3868
 7361SOL    HW133716   0.587   0.445   6.097 -0.4431 -2.5925  1.3435
 7361SOL    HW233717   0.532   0.444   5.964  0.1761  0.7833 -0.1247
 7362SOL     OW33718   3.274   0.572   4.416 -0.0622 -0.0530 -0.3383
 7362SOL    HW133719   3.262   0.599   4.507 -0.8246  1.1135 -0.7769
 7362SOL    HW233720   3.298   0.481   4.431  1.2622 -0.1107 -2.8589
 7363SOL     OW33721   1.016   3.105  11.020  0.1660  0.6472  0.4682
 7363SOL    HW133722   0.935   3.069  10.985  0.2806 -1.4993  2.4568
 7363SOL    HW233723   1.016   3.063  11.106 -0.3935  1.2337  0.7549
 7364SOL     OW33724   0.069   2.189  11.610 -0.6782  0.1805  0.4362
 7364SOL    HW133725   0.090   2.264  11.666  1.6279 -0.6921  0.7202
 7364SOL    HW233726   0.045   2.132  11.683 -3.7157 -0.1530 -0.8442
 7365SOL     OW33727   1.572   4.487   2.577 -0.4451 -0.2218 -0.0096
 7365SOL    HW133728   1.520   4.512   2.501  0.5591  1.0719 -0.2701
 7365SOL    HW233729   1.655   4.532   2.564  0.6682 -2.4384 -0.6565
 7366SOL     OW33730   3.971   3.436   8.596 -0.2238 -0.3499  0.3651
 7366SOL    HW133731   3.924   3.384   8.661 -0.1922  1.9291  2.2163
 7366SOL    HW233732   4.026   3.372   8.552 -0.3617 -1.0473  1.2110
 7367SOL     OW33733   3.486   1.569   3.428  0.5477 -0.2917 -0.3666
 7367SOL    HW133734   3.574   1.607   3.421  0.1624  1.2813  2.9768
 7367SOL    HW233735   3.446   1.602   3.509  0.7462  0.1693 -0.4533
 7368SOL     OW33736   0.770   2.545  15.858  0.5280 -0.2552  0.3471
 7368SOL    HW133737   0.831   2.473  15.838  0.3993 -0.5910  1.1291
 7368SOL    HW233738   0.681   2.518  15.836  0.7856 -3.9742  3.8043
 7369SOL     OW33739   3.202   3.522   2.464 -0.8208  0.6555 -0.7066
 7369SOL    HW133740   3.164   3.457   2.522  3.1198  0.3300  1.4731
 7369SOL    HW233741   3.127   3.582   2.459 -0.9662  0.4811 -0.5886
 7370SOL     OW33742   4.485   2.311   7.294 -0.1757  0.2873 -0.2327
 7370SOL    HW133743   4.434   2.350   7.224 -2.2501  0.1127  1.1922
 7370SOL    HW233744   4.418   2.285   7.358 -1.2364  2.1609 -0.5883
 7371SOL     OW33745   1.708   1.565  13.610  0.4138  0.1311  0.3119
 7371SOL    HW133746   1.616   1.554  13.634 -0.6735  3.6841 -2.1876
 7371SOL    HW233747   1.705   1.609  13.525 -0.5762  0.4752  0.5324
 7372SOL     OW33748   4.720   4.629   6.238 -0.0956 -0.3840 -0.0418
 7372SOL    HW133749   0.042   4.674   6.299 -1.7033  0.8259  0.6195
 7372SOL    HW233750   4.712   4.696   6.170 -2.1081 -0.0202  0.5380
 7373SOL     OW33751   4.020   0.423   2.946  0.5249  0.1277 -0.1178
 7373SOL    HW133752   4.055   0.507   2.978  0.7601 -0.3555  0.8978
 7373SOL    HW233753   4.041   0.431   2.853  0.6686  0.5090 -0.0530
 7374SOL     OW33754   2.580   3.849  17.358  0.0970  1.5078  0.3802
 7374SOL    HW133755   2.557   3.764  17.396  0.4774  2.0707  1.8689
 7374SOL    HW233756   2.545   3.847  17.269  0.2758  0.2163  0.3411
 7375SOL     OW33757   1.017   3.331   8.763  0.2094 -0.5312 -0.5179
 7375SOL    HW133758   1.038   3.421   8.785 -2.1024 -0.0783 -0.1347
 7375SOL    HW233759   1.010   3.335   8.668 -2.3493  0.1428 -0.3106
 7376SOL     OW33760   3.894   3.202  11.449 -0.5717  0.5628 -0.3173
 7376SOL    HW133761   3.847   3.181  11.529 -1.8218 -1.2529 -1.5314
 7376SOL    HW233762   3.945   3.275  11.484  1.6319 -1.2003  0.1671
 7377SOL     OW33763   3.018   4.033   7.898  0.2957 -0.4415  0.1665
 7377SOL    HW133764   3.015   4.030   7.803  1.3783  1.4110  0.0750
 7377SOL    HW233765   3.048   3.945   7.923  0.9283 -0.6286 -1.2862
 7378SOL     OW33766   4.433   0.486   4.650 -0.5328 -0.6688 -0.3881
 7378SOL    HW133767   4.441   0.461   4.558 -1.9969 -0.3892 -0.5912
 7378SOL    HW233768   4.469   0.412   4.699  0.0183  0.3299  0.7298
 7379SOL     OW33769   3.260   2.577  13.574  0.7162  0.2557 -0.2750
 7379SOL    HW133770   3.262   2.510  13.643 -0.4309 -1.1084 -1.5719
 7379SOL    HW233771   3.310   2.525  13.511 -1.3785  0.6343 -2.2362
 7380SOL     OW33772   2.267   1.706   8.010  0.1006 -0.4143  0.6419
 7380SOL    HW133773   2.240   1.638   8.072 -0.5493  0.6502  1.5087
 7380SOL    HW233774   2.358   1.676   8.001 -0.5525 -2.3403  0.4156
 7381SOL     OW33775   3.793   0.427   4.980 -0.5655  0.1997  0.8957
 7381SOL    HW133776   3.841   0.431   4.898 -1.8976  3.2792  0.2739
 7381SOL    HW233777   3.843   0.492   5.030  1.2967 -1.8898  1.7526
 7382SOL     OW33778   2.729   3.405   8.063 -0.7155 -0.1160 -0.1704
 7382SOL    HW133779   2.818   3.402   8.030 -0.7322 -0.1628 -0.2125
 7382SOL    HW233780   2.686   3.342   8.004 -1.9537  0.1267  0.4644
 7383SOL     OW33781   3.271   4.735  14.961  0.5219 -0.3081  0.2990
 7383SOL    HW133782   3.259   0.079  14.909 -0.3027  1.0674  2.5896
 7383SOL    HW233783   3.359   4.703  14.941  0.6420  0.4720 -0.4407
 7384SOL     OW33784   3.475   3.671   8.234  0.0135  0.3326  0.2425
 7384SOL    HW133785   3.517   3.613   8.298 -0.1536  0.1153  0.1544
 7384SOL    HW233786   3.392   3.699   8.274 -0.4199  0.7196 -0.9406
 7385SOL     OW33787   2.565   3.870   1.719  0.4668 -0.1216 -0.5727
 7385SOL    HW133788   2.657   3.875   1.693  0.9126 -0.4659  0.9293
 7385SOL    HW233789   2.544   3.777   1.730 -0.8011  0.1385 -0.7281
 7386SOL     OW33790   3.195   0.127   5.893 -0.2720 -0.2420 -0.4737
 7386SOL    HW133791   3.107   0.164   5.900 -0.8194 -1.7769  0.8374
 7386SOL    HW233792   3.254   0.201   5.880  2.5127 -2.4610 -0.3472
 7387SOL     OW33793   4.470   0.060   1.267  0.6443 -0.1079  0.1644
 7387SOL    HW133794   4.442   4.709   1.238  1.6278 -1.6501  3.8695
 7387SOL    HW233795   4.561   0.037   1.287  0.9397  1.2033  0.3380
 7388SOL     OW33796   0.860   1.246   2.600 -0.1693 -0.1425  0.0285
 7388SOL    HW133797   0.953   1.222   2.598  0.1039  0.6136  3.0919
 7388SOL    HW233798   0.832   1.274   2.513 -0.0305 -1.0294 -0.2943
 7389SOL     OW33799   0.543   3.197  13.162  0.1759  0.1060 -0.8575
 7389SOL    HW133800   0.596   3.160  13.232 -1.3248  0.8113  0.6606
 7389SOL    HW233801   0.455   3.163  13.176 -0.4886  1.2984 -2.0587
 7390SOL     OW33802   0.245   3.008  10.842  0.1872  0.0989  0.1154
 7390SOL    HW133803   0.203   2.925  10.820  1.0459 -0.3247  0.0999
 7390SOL    HW233804   0.165   3.061  10.837  0.2721  0.4493  2.6164
 7391SOL     OW33805   4.107   0.387  12.528  0.1751 -0.3791  0.0861
 7391SOL    HW133806   4.109   0.301  12.570  0.0640  0.3101  1.4867
 7391SOL    HW233807   4.068   0.369  12.443 -0.6434 -0.2897  0.4423
 7392SOL     OW33808   2.778   4.189   4.999  0.1577  0.1787 -0.6872
 7392SOL    HW133809   2.759   4.135   4.922  0.4520  0.8930 -1.2564
 7392SOL    HW233810   2.809   4.122   5.060  1.6660  0.4708 -1.1572
 7393SOL     OW33811   1.122   3.607   3.091 -0.1012 -0.2452 -0.6888
 7393SOL    HW133812   1.162   3.691   3.069  2.8091 -1.3005  0.6713
 7393SOL    HW233813   1.063   3.640   3.158  1.4311 -1.3007  1.1705
 7394SOL     OW33814   3.925   2.631  10.772 -0.6589 -0.5396  0.2598
 7394SOL    HW133815   3.945   2.608  10.863  1.3446 -2.9992 -0.8134
 7394SOL    HW233816   3.900   2.724  10.778  2.0526  0.2718 -0.7892
 7395SOL     OW33817   0.656   0.040  14.649 -0.6718  0.1044 -0.1201
 7395SOL    HW133818   0.633   4.721  14.574 -1.8426  1.8186 -1.0073
 7395SOL    HW233819   0.736   0.082  14.617  0.2837 -2.6702 -1.4295
 7396SOL     OW33820   2.576   3.190   5.734 -0.0837 -0.1811 -0.1454
 7396SOL    HW133821   2.647   3.153   5.786 -0.9806 -0.3567  0.9714
 7396SOL    HW233822   2.541   3.260   5.788 -1.5501 -1.4394  0.5581
 7397SOL     OW33823   1.357   2.868   8.084 -0.7300 -0.0360  0.2422
 7397SOL    HW133824   1.294   2.921   8.131 -1.0654  0.6365 -0.9847
 7397SOL    HW233825   1.393   2.815   8.156  1.2012  1.5509  0.4652
 7398SOL     OW33826   4.042   4.408   7.627 -0.1871 -0.3693  0.4606
 7398SOL    HW133827   3.992   4.344   7.577 -0.6925 -0.1989  0.7386
 7398SOL    HW233828   4.126   4.396   7.583 -1.2992 -0.3186 -1.6636
 7399SOL     OW33829   0.290   2.798  16.406  0.1855  0.0527  0.5184
 7399SOL    HW133830   0.281   2.845  16.489 -1.0288 -0.3342  0.6074
 7399SOL    HW233831   0.208   2.821  16.361  0.7022  1.4288  0.2682
 7400SOL     OW33832   2.534   0.551   9.328  0.2956  0.2425  0.0368
 7400SOL    HW133833   2.470   0.480   9.324 -0.7328  1.0657  2.4692
 7400SOL    HW233834   2.617   0.503   9.332 -0.6217 -1.2965  0.6497
 7401SOL     OW33835   3.540   0.584   5.946 -0.2606  0.2216 -0.0090
 7401SOL    HW133836   3.521   0.498   5.983 -1.1730  1.4935  2.5534
 7401SOL    HW233837   3.450   0.615   5.934 -0.7322 -1.2362 -0.1906
 7402SOL     OW33838   1.210   2.232   8.074 -0.0025 -0.2815 -0.3143
 7402SOL    HW133839   1.273   2.214   8.004  1.8160 -1.9137  1.7197
 7402SOL    HW233840   1.164   2.309   8.042 -0.4433  0.0724  1.1414
 7403SOL     OW33841   0.743   2.701   8.984  0.4542 -0.1659  0.2461
 7403SOL    HW133842   0.831   2.736   8.978  0.2207  0.3883  0.0887
 7403SOL    HW233843   0.760   2.643   9.058  1.9661 -0.4161 -0.2936
 7404SOL     OW33844   3.700   1.842   3.498 -0.1172 -0.4379 -0.0487
 7404SOL    HW133845   3.756   1.811   3.569 -0.6262 -0.0822  0.5152
 7404SOL    HW233846   3.768   1.895   3.457 -1.7955  2.6221  1.1196
 7405SOL     OW33847   0.029   4.595  12.819  0.1744  0.3292  0.3733
 7405SOL    HW133848   4.699   4.647  12.772  0.4307 -0.5675 -0.9760
 7405SOL    HW233849   4.724   4.510  12.837 -0.9557  0.9024  0.4987
 7406SOL     OW33850   0.995   0.822   9.982 -0.4643  0.2716  0.1748
 7406SOL    HW133851   1.084   0.849  10.005 -0.9678  2.3372 -0.3004
 7406SOL    HW233852   0.987   0.732  10.011 -0.5058  1.3003  3.3206
 7407SOL     OW33853   0.922   1.694   7.093  0.0125 -0.2133 -0.0839
 7407SOL    HW133854   0.827   1.695   7.104 -0.1013  1.3824 -1.2322
 7407SOL    HW233855   0.934   1.729   7.004 -0.9470  0.6591  0.1317
 7408SOL     OW33856   0.569   1.538   7.860  0.4609  0.6533 -0.1137
 7408SOL    HW133857   0.626   1.519   7.934  0.5725 -0.1338 -0.4025
 7408SOL    HW233858   0.500   1.474   7.877  1.4423 -0.3545  0.0413
 7409SOL     OW33859   3.206   0.391   5.794 -0.0605 -0.6604 -0.0406
 7409SOL    HW133860   3.258   0.452   5.741 -0.3550  0.8811  1.4355
 7409SOL    HW233861   3.130   0.409   5.740  0.5097  2.6315  0.2791
 7410SOL     OW33862   4.133   1.334   5.000  0.0959 -0.5281  0.1746
 7410SOL    HW133863   4.083   1.277   5.059  0.5789 -0.1054  0.9920
 7410SOL    HW233864   4.211   1.281   4.986  0.1314  0.4216 -3.2908
 7411SOL     OW33865   4.153   0.168  17.036 -0.3256 -0.3727 -0.0034
 7411SOL    HW133866   4.213   0.173  17.110  0.4791  2.1936 -0.8163
 7411SOL    HW233867   4.162   0.258  17.004  1.9077 -0.1884  1.1273
 7412SOL     OW33868   4.506   4.461  17.595 -0.0223  0.2743  0.1723
 7412SOL    HW133869   4.434   4.460  17.532  0.5538 -0.4937 -0.4754
 7412SOL    HW233870   4.516   4.555  17.611 -0.1069  0.0504  1.6090
 7413SOL     OW33871   2.021   2.216   4.128 -0.0633 -0.3041 -0.4180
 7413SOL    HW133872   2.058   2.129   4.138 -0.2645 -0.2688  0.6127
 7413SOL    HW233873   1.970   2.205   4.048  1.5498 -2.9370 -1.0641
 7414SOL     OW33874   0.686   0.092  10.226  0.0272 -0.1378 -0.0171
 7414SOL    HW133875   0.705   0.178  10.187 -2.1530 -0.2329 -1.2504
 7414SOL    HW233876   0.719   0.099  10.316 -2.1342  0.5704  0.7124
 7415SOL     OW33877   3.864   2.891   3.148  0.1627 -0.3466 -0.0180
 7415SOL    HW133878   3.886   2.876   3.056  1.8445 -3.0362  0.8173
 7415SOL    HW233879   3.947   2.927   3.178 -0.1274  0.2006  0.1365
 7416SOL     OW33880   0.404   2.430   8.007  0.4119  0.1040  0.6058
 7416SOL    HW133881   0.362   2.490   8.070  0.1898  0.3965  0.1778
 7416SOL    HW233882   0.466   2.387   8.065 -0.7580 -0.6057  1.3266
 7417SOL     OW33883   3.415   1.571  14.659 -0.0219  0.0921 -0.4030
 7417SOL    HW133884   3.463   1.552  14.578  0.8411  2.9562 -0.5799
 7417SOL    HW233885   3.401   1.487  14.702 -1.6390 -0.0605 -1.2346
 7418SOL     OW33886   0.427   3.012   7.254  0.2484  0.5310  0.2989
 7418SOL    HW133887   0.471   2.979   7.333 -0.1724 -1.1256 -0.1490
 7418SOL    HW233888   0.435   2.950   7.182  0.0535  0.4320  0.3638
 7419SOL     OW33889   4.371   1.701   3.595 -0.5186  0.2367  0.6086
 7419SOL    HW133890   4.431   1.649   3.649 -0.7244 -0.3582  0.2626
 7419SOL    HW233891   4.313   1.632   3.564  0.6944  0.0768 -1.3355
 7420SOL     OW33892   2.536   2.591   3.634 -0.2194 -0.0880  0.0194
 7420SOL    HW133893   2.493   2.544   3.705 -0.6310  0.1541 -0.0725
 7420SOL    HW233894   2.618   2.544   3.618  0.6733  0.6433  2.3956
 7421SOL     OW33895   3.130   0.039   4.842 -0.2663 -0.5304 -0.0670
 7421SOL    HW133896   3.117   4.682   4.826  1.2203 -0.8193  0.4265
 7421SOL    HW233897   3.221   0.051   4.815 -0.8816  0.0034 -1.8716
 7422SOL     OW33898   3.929   1.404   4.852  0.1153 -0.2476  0.4082
 7422SOL    HW133899   4.006   1.392   4.908  0.0747 -1.2123  0.2556
 7422SOL    HW233900   3.871   1.424   4.926  1.2072  2.5523  0.5096
 7423SOL     OW33901   0.134   1.937   5.856  0.5180  0.9770  0.2594
 7423SOL    HW133902   0.063   1.894   5.810  1.3809 -0.1333 -0.0142
 7423SOL    HW233903   0.167   2.002   5.793 -1.0738 -0.5398 -2.1301
 7424SOL     OW33904   1.983   3.878   8.033  0.2104 -0.2829 -0.1243
 7424SOL    HW133905   2.076   3.856   8.028  0.8043  1.7144  2.2689
 7424SOL    HW233906   1.973   3.933   7.955  1.7146 -0.3939 -0.3982
 7425SOL     OW33907   2.899   1.045   2.813 -0.2093 -0.1115  0.0669
 7425SOL    HW133908   2.907   1.095   2.732  0.1996 -1.6105 -0.8268
 7425SOL    HW233909   2.806   1.056   2.832 -0.3873  1.0932 -1.5027
 7426SOL     OW33910   3.509   4.682   9.532 -0.0292  0.2334  0.4887
 7426SOL    HW133911   3.558   4.673   9.451 -0.3786  1.3298  0.1575
 7426SOL    HW233912   3.572   4.642   9.592  2.1617  0.9510 -1.3650
 7427SOL     OW33913   0.807   3.798   8.579  0.6345 -0.1374 -0.4811
 7427SOL    HW133914   0.755   3.775   8.502  0.4821 -1.4345  0.0042
 7427SOL    HW233915   0.874   3.859   8.547 -0.0558  1.6926  1.5343
 7428SOL     OW33916   1.382   1.318   9.210 -1.0106 -0.1462  0.4859
 7428SOL    HW133917   1.303   1.372   9.205  0.3799  2.0428  2.0320
 7428SOL    HW233918   1.443   1.373   9.161 -0.1418 -1.3531  0.2352
 7429SOL     OW33919   3.378   3.698  16.851 -0.4145 -0.5409  0.3101
 7429SOL    HW133920   3.453   3.722  16.798 -0.8354  0.8751  0.3478
 7429SOL    HW233921   3.306   3.743  16.807  0.6716  0.0416 -0.8678
 7430SOL     OW33922   3.554   1.111  12.190  0.6359 -0.0486  0.2840
 7430SOL    HW133923   3.532   1.204  12.190  0.3734 -0.1052 -0.6518
 7430SOL    HW233924   3.649   1.098  12.183  0.8422  1.4644  0.4502
 7431SOL     OW33925   3.239   1.660   2.886  0.1963 -0.5545  0.3616
 7431SOL    HW133926   3.244   1.750   2.855 -0.3136 -1.6490 -2.8524
 7431SOL    HW233927   3.219   1.682   2.977 -0.3720  2.6496 -0.5450
 7432SOL     OW33928   2.965   0.427   8.642  1.0684 -0.1165  0.0454
 7432SOL    HW133929   2.909   0.352   8.665 -1.8648  1.3458 -2.3188
 7432SOL    HW233930   2.952   0.435   8.548  2.2201 -1.0776 -0.2007
 7433SOL     OW33931   0.312   3.700   3.929  0.2822  0.1971 -0.3651
 7433SOL    HW133932   0.371   3.626   3.942 -1.0997 -0.5831  1.4642
 7433SOL    HW233933   0.331   3.737   4.016 -0.4493  1.6548 -0.8150
 7434SOL     OW33934   2.780   2.415   1.343 -0.7284  0.6087  0.2423
 7434SOL    HW133935   2.684   2.407   1.343 -0.5707 -1.2326 -1.0412
 7434SOL    HW233936   2.800   2.322   1.351 -1.9540  0.4535  1.4787
 7435SOL     OW33937   1.353   3.984   5.649  0.0865  0.1343  0.2169
 7435SOL    HW133938   1.298   3.909   5.673  2.1400 -0.6889  2.3216
 7435SOL    HW233939   1.348   4.038   5.728  2.7957 -2.0583  1.8840
 7436SOL     OW33940   2.538   4.092   7.303 -0.2318 -0.0196 -0.8643
 7436SOL    HW133941   2.459   4.123   7.347 -0.5282 -1.0379 -0.6974
 7436SOL    HW233942   2.573   4.181   7.290  0.0222  0.1064  0.6665
 7437SOL     OW33943   3.606   2.706  17.253 -0.4949  0.1223 -0.0753
 7437SOL    HW133944   3.514   2.686  17.233  0.4433 -2.1394 -2.1375
 7437SOL    HW233945   3.600   2.745  17.340 -3.3746  0.5752 -0.4923
 7438SOL     OW33946   1.760   1.190   7.404  0.1101  0.0519  0.1095
 7438SOL    HW133947   1.681   1.150   7.441  1.0205 -0.8232  1.1086
 7438SOL    HW233948   1.779   1.116   7.346  0.8051  0.7354 -0.5236
 7439SOL     OW33949   0.558   3.677   7.730  0.1445  0.2005  0.2729
 7439SOL    HW133950   0.611   3.604   7.762 -2.1672 -1.0565  1.2456
 7439SOL    HW233951   0.556   3.673   7.635  2.8220  0.1390  0.2124
 7440SOL     OW33952   3.230   3.961   8.194  0.0059  0.0857 -0.3934
 7440SOL    HW133953   3.136   3.977   8.199 -0.0256 -1.1880  3.0855
 7440SOL    HW233954   3.232   3.873   8.231 -0.2045  0.3636  0.2750
 7441SOL     OW33955   2.064   0.143   7.698  0.1212 -0.5544 -0.6948
 7441SOL    HW133956   2.027   0.191   7.772 -0.0960 -0.3113 -0.9641
 7441SOL    HW233957   2.096   0.209   7.636  1.5441 -1.1507 -0.5964
 7442SOL     OW33958   1.026   4.646   1.144 -0.0223  0.4245  0.6807
 7442SOL    HW133959   1.101   4.688   1.102  0.1804  0.1868  0.8022
 7442SOL    HW233960   0.951   4.662   1.087  1.7427 -1.5961 -2.2397
 7443SOL     OW33961   3.769   4.359   4.277  0.3802 -0.0438 -0.0207
 7443SOL    HW133962   3.783   4.285   4.217 -0.4518 -0.9050  0.8359
 7443SOL    HW233963   3.858   4.364   4.310  0.7630  2.1169 -1.4442
 7444SOL     OW33964   3.539   3.543   5.060  0.3712 -0.7978 -0.3921
 7444SOL    HW133965   3.596   3.466   5.060  2.0743  0.4637  2.1342
 7444SOL    HW233966   3.601   3.604   5.020  0.9277 -0.0118  1.6613
 7445SOL     OW33967   0.130   2.770  10.803 -0.3202  0.8790 -0.0162
 7445SOL    HW133968   0.170   2.739  10.884  1.4649 -0.6732 -1.5111
 7445SOL    HW233969   0.079   2.692  10.781  0.4527  0.0613  1.1394
 7446SOL     OW33970   2.126   1.643  13.876  0.6030 -0.7394 -0.4415
 7446SOL    HW133971   2.106   1.700  13.951 -2.5762 -1.0568 -1.0401
 7446SOL    HW233972   2.208   1.685  13.851  0.1727  0.6717  0.5573
 7447SOL     OW33973   2.162   3.774   8.759  0.3400  0.0809  0.0905
 7447SOL    HW133974   2.192   3.688   8.730 -0.0128  0.8544 -2.5921
 7447SOL    HW233975   2.238   3.818   8.722 -1.2070  0.9635 -2.0432
 7448SOL     OW33976   0.962   3.247   3.282  0.5969 -0.7061  0.2945
 7448SOL    HW133977   1.000   3.186   3.219 -0.1164  0.0555 -0.8831
 7448SOL    HW233978   1.036   3.308   3.280 -0.8367  0.9962 -0.4091
 7449SOL     OW33979   1.570   4.292  16.987 -0.2386 -0.2198  0.5253
 7449SOL    HW133980   1.524   4.216  16.951  0.4224 -0.3513 -0.0499
 7449SOL    HW233981   1.493   4.345  17.007 -1.7266 -3.0842  2.4367
 7450SOL     OW33982   2.501   2.618   0.500  0.2237  0.0642 -0.1181
 7450SOL    HW133983   2.480   2.672   0.424 -1.6177 -0.3791  0.0612
 7450SOL    HW233984   2.521   2.688   0.562  1.9884  0.8352 -1.5825
 7451SOL     OW33985   1.891   4.288   2.090 -0.4612  0.1535  0.0014
 7451SOL    HW133986   1.812   4.298   2.037 -1.6774 -1.3762  1.5343
 7451SOL    HW233987   1.922   4.377   2.104 -0.2562  0.0599  0.1489
 7452SOL     OW33988   3.626   4.323   8.095 -0.8376  0.1988 -0.2207
 7452SOL    HW133989   3.694   4.255   8.094  0.8562  1.8731 -0.5769
 7452SOL    HW233990   3.582   4.296   8.175  0.7659  0.3335  0.7249
 7453SOL     OW33991   2.168   3.115  17.354  0.1146  0.0796  0.2466
 7453SOL    HW133992   2.118   3.168  17.292 -2.1792 -0.5894  1.5266
 7453SOL    HW233993   2.214   3.185  17.401  0.8495  0.9157 -1.7197
 7454SOL     OW33994   2.564   4.408  15.147  0.1449 -0.1531  0.1687
 7454SOL    HW133995   2.653   4.375  15.139  0.5747  1.3308 -1.0778
 7454SOL    HW233996   2.548   4.396  15.241  1.1213 -3.1735 -0.0478
 7455SOL     OW33997   4.452   0.596   9.371  0.0231  0.1701 -0.6306
 7455SOL    HW133998   4.423   0.505   9.368  0.5561  0.0346 -1.8340
 7455SOL    HW233999   4.370   0.646   9.379 -1.2776 -2.0895 -0.0427
 7456SOL     OW34000   3.538   3.105  17.080  0.1810 -0.0356  0.1201
 7456SOL    HW134001   3.549   3.011  17.064 -0.6697 -0.1039 -0.0782
 7456SOL    HW234002   3.445   3.114  17.060 -0.0381 -2.6367 -0.1034
 7457SOL     OW34003   0.053   2.485   9.691  0.5897  0.2037 -0.4791
 7457SOL    HW134004   0.116   2.518   9.755 -0.3242  0.1151  0.4507
 7457SOL    HW234005   4.712   2.479   9.748 -0.2823  2.4945 -1.4377
 7458SOL     OW34006   1.154   1.328   4.356 -0.0157 -0.6764  0.5033
 7458SOL    HW134007   1.093   1.400   4.343  0.7802 -0.3314 -1.3069
 7458SOL    HW234008   1.172   1.341   4.450  2.0078 -0.2622  0.0604
 7459SOL     OW34009   2.442   4.032   3.285  0.1091 -0.1286  0.3869
 7459SOL    HW134010   2.459   4.047   3.192  1.5258 -3.5346  0.0813
 7459SOL    HW234011   2.478   3.943   3.291 -0.0813 -0.2198  0.1747
 7460SOL     OW34012   2.571   3.386   2.470 -0.1267 -0.6259  0.1667
 7460SOL    HW134013   2.630   3.451   2.432  2.3430 -1.7612  2.0558
 7460SOL    HW234014   2.637   3.324   2.501  0.8055 -0.2884 -1.1453
 7461SOL     OW34015   1.012   3.693  14.391 -0.4945 -0.2796 -0.4587
 7461SOL    HW134016   1.029   3.616  14.338  1.7556  0.5857 -0.9900
 7461SOL    HW234017   1.084   3.697  14.454 -0.5502 -1.0122 -0.3558
 7462SOL     OW34018   1.794   0.761   3.370 -0.0705  0.6417 -0.2972
 7462SOL    HW134019   1.848   0.841   3.364  0.5747  0.3841  1.8539
 7462SOL    HW234020   1.793   0.729   3.281 -1.7569  1.3116 -0.5159
 7463SOL     OW34021   0.010   3.447   1.605 -0.3100  0.2248  0.3692
 7463SOL    HW134022   4.659   3.479   1.628  0.7567  2.8470  0.7722
 7463SOL    HW234023   4.718   3.365   1.564 -1.7809  1.2979 -0.7466
 7464SOL     OW34024   1.351   4.489   5.776  0.0477  0.0190  0.1655
 7464SOL    HW134025   1.406   4.474   5.699  0.6614 -1.0103  0.8025
 7464SOL    HW234026   1.410   4.544   5.826 -0.8141  0.9285  0.1676
 7465SOL     OW34027   3.995   1.623   4.679  0.7103 -0.0971 -0.5690
 7465SOL    HW134028   3.988   1.691   4.746 -0.3800 -0.9423  0.1879
 7465SOL    HW234029   3.966   1.550   4.735 -1.4736  1.2898  0.1275
 7466SOL     OW34030   3.329   4.343   3.731  0.0841 -0.4730  0.1357
 7466SOL    HW134031   3.359   4.272   3.787  1.0519 -1.6488 -1.8666
 7466SOL    HW234032   3.354   4.319   3.641  0.3695  1.8024 -0.3943
 7467SOL     OW34033   0.716   1.276   1.863  0.2339 -0.0537  0.2244
 7467SOL    HW134034   0.765   1.316   1.791  0.7868 -0.4543  0.3797
 7467SOL    HW234035   0.771   1.202   1.887  0.1480 -0.2676 -0.2247
 7468SOL     OW34036   4.023   1.641   8.218  0.4101  0.4628 -0.1720
 7468SOL    HW134037   4.098   1.593   8.252 -2.5525 -2.5879  2.0467
 7468SOL    HW234038   4.061   1.729   8.220  0.8405  0.2802 -0.4899
 7469SOL     OW34039   2.782   0.824   8.177  0.3304  0.7543 -0.0381
 7469SOL    HW134040   2.829   0.896   8.218  0.4110  2.6213 -3.3725
 7469SOL    HW234041   2.850   0.800   8.114 -0.2405 -1.1381  0.0607
 7470SOL     OW34042   0.059   3.034   4.630 -0.0230  0.2777 -0.0106
 7470SOL    HW134043   4.731   2.974   4.591 -0.9047 -0.0364  1.9313
 7470SOL    HW234044   0.129   2.969   4.639 -1.5524 -1.1177  1.8919
 7471SOL     OW34045   4.553   3.043   2.756 -0.4963  0.0457 -0.1592
 7471SOL    HW134046   4.631   2.988   2.770 -1.2370 -1.1016 -0.5586
 7471SOL    HW234047   4.589   3.126   2.725  0.0193  0.4607  1.5337
 7472SOL     OW34048   0.355   4.396  13.851 -0.5073 -0.4425 -0.5757
 7472SOL    HW134049   0.341   4.408  13.757 -1.3578  0.4072 -0.3348
 7472SOL    HW234050   0.423   4.461  13.870  0.7527 -1.7512 -0.5839
 7473SOL     OW34051   4.303   2.745  13.044 -0.3487  0.6330 -0.2334
 7473SOL    HW134052   4.381   2.779  13.000 -0.8038  2.8201  0.6793
 7473SOL    HW234053   4.297   2.783  13.131 -0.9371 -1.6379  0.7213
 7474SOL     OW34054   0.510   4.463   6.500  0.1654  0.1487 -0.5369
 7474SOL    HW134055   0.534   4.555   6.511 -2.8555  1.1280 -2.1890
 7474SOL    HW234056   0.565   4.436   6.426  3.5280 -0.3043  2.1244
 7475SOL     OW34057   0.973   4.296  12.334 -0.0110  0.4579  0.0305
 7475SOL    HW134058   0.940   4.210  12.359 -0.1009  0.1111 -1.2868
 7475SOL    HW234059   1.060   4.275  12.300 -0.9385 -1.6613 -1.0321
 7476SOL     OW34060   0.995   0.161   5.687  0.6952 -0.2556  0.0750
 7476SOL    HW134061   0.954   0.131   5.768  1.6328  0.6932  0.8965
 7476SOL    HW234062   1.081   0.124   5.708  1.0152  0.3672 -0.1492
 7477SOL     OW34063   0.641   1.801  11.976 -0.0033 -0.2734  0.3164
 7477SOL    HW134064   0.703   1.809  12.049  0.5673  2.3001 -0.4533
 7477SOL    HW234065   0.701   1.764  11.912  0.1447 -1.8806  1.3804
 7478SOL     OW34066   3.831   1.085   7.123 -0.0069  0.1337 -0.0046
 7478SOL    HW134067   3.798   1.028   7.192  0.5955 -2.0268 -1.5012
 7478SOL    HW234068   3.907   1.034   7.094  0.5863  0.6871  0.5625
 7479SOL     OW34069   3.823   1.584   3.335  0.1724  0.1161 -0.4197
 7479SOL    HW134070   3.747   1.570   3.279 -0.1632 -1.4111  0.4248
 7479SOL    HW234071   3.871   1.659   3.298  0.8310  0.6840  1.5688
 7480SOL     OW34072   2.547   1.304  15.277 -0.0134  0.0934  0.0460
 7480SOL    HW134073   2.607   1.236  15.245  1.1361  0.7561  0.7716
 7480SOL    HW234074   2.591   1.387  15.258 -1.4448  0.8454 -0.0075
 7481SOL     OW34075   1.161   3.283   5.865  0.0685  0.5779 -0.0316
 7481SOL    HW134076   1.069   3.309   5.872  0.1548  0.8428  0.1364
 7481SOL    HW234077   1.158   3.205   5.920 -0.2953 -1.1432 -2.5412
 7482SOL     OW34078   1.951   3.239   4.066 -0.2998 -0.1315  0.1835
 7482SOL    HW134079   1.967   3.331   4.045 -0.8686  0.3554  1.9105
 7482SOL    HW234080   1.934   3.215   3.974  3.6080 -1.6677 -0.1219
 7483SOL     OW34081   1.799   0.473   4.961  0.2816  0.0842  0.8801
 7483SOL    HW134082   1.722   0.417   4.963  0.4287 -0.1204  0.7559
 7483SOL    HW234083   1.856   0.422   5.019  1.2684  0.2101  0.0085
 7484SOL     OW34084   4.315   1.854   1.823  0.0974 -0.1339  0.0093
 7484SOL    HW134085   4.305   1.798   1.746 -0.2985  0.9910 -0.7626
 7484SOL    HW234086   4.248   1.915   1.792  0.2956 -0.0569 -0.2675
 7485SOL     OW34087   2.823   0.479   7.065  0.2486 -0.5503  0.0228
 7485SOL    HW134088   2.730   0.459   7.078 -0.3979  1.1367 -1.9294
 7485SOL    HW234089   2.823   0.504   6.972  1.6263 -0.6415  0.0019
 7486SOL     OW34090   4.492   2.649   9.015  0.1460  0.0927 -0.5852
 7486SOL    HW134091   4.511   2.638   8.922 -2.6850 -2.1464 -0.8937
 7486SOL    HW234092   4.532   2.572   9.056 -1.0139 -0.0263  0.3218
 7487SOL     OW34093   1.561   2.106  15.751  0.2741  0.4299 -0.0477
 7487SOL    HW134094   1.611   2.036  15.792 -0.6524 -0.3878 -0.3255
 7487SOL    HW234095   1.595   2.183  15.798 -0.3515  0.4163  0.4306
 7488SOL     OW34096   4.240   1.389   6.149  0.5272 -0.7799 -0.3382
 7488SOL    HW134097   4.205   1.340   6.223 -1.0011 -1.1083 -1.2690
 7488SOL    HW234098   4.319   1.419   6.194  0.4914  1.5264 -1.8051
 7489SOL     OW34099   0.371   4.133   7.872 -0.2437  0.4988  0.5720
 7489SOL    HW134100   0.422   4.132   7.953  0.1632  2.0339  0.3354
 7489SOL    HW234101   0.417   4.075   7.810  0.8178  1.0807  0.8148
 7490SOL     OW34102   1.262   2.956   2.629  0.2708 -0.5614  0.1936
 7490SOL    HW134103   1.275   2.922   2.718  2.0921 -0.3441  0.0184
 7490SOL    HW234104   1.315   3.036   2.637 -0.7001  0.3337 -2.1677
 7491SOL     OW34105   2.098   3.267   7.958  0.6111  0.1955  0.3818
 7491SOL    HW134106   2.188   3.280   7.926 -0.2204 -0.2057 -2.1129
 7491SOL    HW234107   2.097   3.172   7.967 -0.8267  0.3100  1.3548
 7492SOL     OW34108   2.026   4.285   8.939  0.1976 -0.4999  0.3658
 7492SOL    HW134109   2.044   4.217   8.874 -0.4059 -0.3547  0.0472
 7492SOL    HW234110   2.088   4.351   8.907 -2.7983  2.2890  0.3149
 7493SOL     OW34111   0.232   0.867   5.556  0.4074  0.1342 -0.3100
 7493SOL    HW134112   0.276   0.801   5.501  0.0160  1.1358 -1.8221
 7493SOL    HW234113   0.301   0.884   5.621  1.0420 -2.3782 -0.3101
 7494SOL     OW34114   4.199   0.591   3.977 -0.7775  0.4640 -0.1366
 7494SOL    HW134115   4.170   0.565   3.889  1.9732 -3.7355  0.2097
 7494SOL    HW234116   4.256   0.521   4.008  0.9048  2.0554  0.2964
 7495SOL     OW34117   0.516   2.710   2.297 -0.4141  0.9445  0.4879
 7495SOL    HW134118   0.586   2.657   2.257 -2.1327  0.8944 -2.4799
 7495SOL    HW234119   0.502   2.666   2.381  0.1291 -1.0237 -0.4458
 7496SOL     OW34120   1.351   4.126   8.584 -0.2038  0.0893  0.2788
 7496SOL    HW134121   1.345   4.054   8.521  0.1053 -0.9391  1.4296
 7496SOL    HW234122   1.345   4.071   8.662  0.3064  0.9833  0.9452
 7497SOL     OW34123   1.886   1.014   3.202 -0.3539 -0.0617 -0.2371
 7497SOL    HW134124   1.839   1.043   3.124  0.6960 -0.9919 -1.2200
 7497SOL    HW234125   1.953   0.958   3.161 -1.0891 -1.4862  0.4840
 7498SOL     OW34126   0.208   3.212   4.488 -0.4838 -0.0549 -0.4920
 7498SOL    HW134127   0.144   3.161   4.538 -1.8064  1.1082 -1.0123
 7498SOL    HW234128   0.285   3.197   4.543  1.0693  1.1294 -2.3421
 7499SOL     OW34129   0.627   0.520   3.180  0.3308  0.1816 -0.5089
 7499SOL    HW134130   0.637   0.539   3.087 -0.6615  0.2940 -0.5931
 7499SOL    HW234131   0.581   0.437   3.172  0.3753 -0.0145  1.4055
 7500SOL     OW34132   0.037   0.206  11.920  0.1180 -0.4235 -0.2716
 7500SOL    HW134133   0.056   0.199  12.014  1.8700 -1.1938 -0.6788
 7500SOL    HW234134   0.038   0.300  11.932 -0.6437 -0.1156 -2.6522
 7501SOL     OW34135   0.921   1.352   9.121  0.2869 -0.1890  0.3368
 7501SOL    HW134136   0.826   1.339   9.123  0.3756 -0.4761  2.7072
 7501SOL    HW234137   0.954   1.274   9.165  0.2087 -1.0502 -1.1365
 7502SOL     OW34138   0.845   1.074   5.937 -0.5769  0.3913  0.2898
 7502SOL    HW134139   0.919   1.023   5.906 -0.5964 -0.1868  1.1738
 7502SOL    HW234140   0.869   1.125   6.015  0.8330 -0.6838  0.5457
 7503SOL     OW34141   0.593   0.187   5.176  0.7023 -0.0385 -0.0112
 7503SOL    HW134142   0.537   0.201   5.099 -0.5603 -1.7887  0.5977
 7503SOL    HW234143   0.522   0.176   5.239  0.6743  0.3106  0.0217
 7504SOL     OW34144   4.130   2.147   0.314 -0.1909 -0.1463 -0.5361
 7504SOL    HW134145   4.128   2.067   0.262 -0.5155 -0.1269 -0.5511
 7504SOL    HW234146   4.140   2.101   0.397 -2.4438 -1.6748 -1.1286
 7505SOL     OW34147   0.685   3.025   7.007 -0.3485 -0.2258  0.0021
 7505SOL    HW134148   0.750   2.966   7.046  0.0435  1.4293  1.8536
 7505SOL    HW234149   0.729   3.104   6.975 -1.2081  0.0168 -0.5611
 7506SOL     OW34150   2.618   2.891   8.404  0.3593 -0.7458 -0.0895
 7506SOL    HW134151   2.710   2.879   8.380  0.0424 -0.8642 -1.2293
 7506SOL    HW234152   2.596   2.798   8.416  0.7888 -1.0980 -2.0500
 7507SOL     OW34153   4.006   0.133   2.472  0.0030  0.0664  0.0723
 7507SOL    HW134154   3.935   0.158   2.413 -0.1896 -0.9704 -0.1418
 7507SOL    HW234155   3.962   0.053   2.502  0.5671 -0.6580 -1.0460
 7508SOL     OW34156   4.568   3.284  17.293 -0.2082 -0.5320  0.2479
 7508SOL    HW134157   4.588   3.375  17.270 -3.0689  0.7185  2.6989
 7508SOL    HW234158   4.656   3.248  17.298 -0.1398 -0.7324 -2.4553
 7509SOL     OW34159   2.070   1.013   7.032 -0.1889  0.7563 -0.1310
 7509SOL    HW134160   2.088   1.059   6.950 -0.8807 -0.2886 -0.8639
 7509SOL    HW234161   1.981   1.046   7.040 -0.8648 -0.2479 -3.2936
 7510SOL     OW34162   4.272   4.239   9.184 -0.5656  0.6836  0.0140
 7510SOL    HW134163   4.323   4.317   9.164 -0.7504  0.6849 -0.4415
 7510SOL    HW234164   4.337   4.182   9.223  0.4267  2.0633  0.3778
 7511SOL     OW34165   0.228   1.649  12.471 -0.4610 -0.0266 -0.3035
 7511SOL    HW134166   0.299   1.704  12.501 -1.8933 -0.8295  4.4729
 7511SOL    HW234167   0.243   1.652  12.376  1.1193  1.7183  0.0095
 7512SOL     OW34168   2.391   0.350   2.869 -0.1707  0.2230 -0.1287
 7512SOL    HW134169   2.337   0.295   2.925  2.5391 -0.4631  1.8546
 7512SOL    HW234170   2.338   0.430   2.861  1.5436  1.4545  0.7159
 7513SOL     OW34171   2.777   1.234   5.211 -0.0812  0.4236  0.0291
 7513SOL    HW134172   2.690   1.221   5.250  0.3072 -0.1249  0.7159
 7513SOL    HW234173   2.745   1.296   5.145 -0.1710  0.0632 -0.2701
 7514SOL     OW34174   2.204   2.118   1.550  0.5954 -0.1050 -0.1133
 7514SOL    HW134175   2.223   2.029   1.521 -0.6259 -0.6468  0.7188
 7514SOL    HW234176   2.116   2.132   1.515 -0.6355 -0.7801  2.6461
 7515SOL     OW34177   2.919   3.550   2.182  0.5101 -0.1350 -0.7180
 7515SOL    HW134178   2.846   3.493   2.159 -1.0374  3.1250 -3.8115
 7515SOL    HW234179   2.894   3.569   2.272  1.1267 -0.7737 -0.4108
 7516SOL     OW34180   4.409   2.608   6.220 -0.6546 -0.2961 -0.1557
 7516SOL    HW134181   4.414   2.516   6.195  0.8299 -0.1664 -0.3277
 7516SOL    HW234182   4.370   2.614   6.308  0.7692 -0.7565  0.5006
 7517SOL     OW34183   2.978   1.971   5.040  0.4589 -0.2427  0.3999
 7517SOL    HW134184   2.914   1.909   5.073 -0.3281  1.0408  1.2953
 7517SOL    HW234185   3.003   2.003   5.127  0.0223  1.2164 -0.0056
 7518SOL     OW34186   0.065   2.296   7.568 -0.3142 -0.2533 -0.6191
 7518SOL    HW134187   0.059   2.304   7.664  0.4794 -0.2322 -0.5730
 7518SOL    HW234188   0.051   2.203   7.552 -0.6292  0.0030 -1.7862
 7519SOL     OW34189   4.281   3.484  12.998  0.0723 -0.3555  0.0815
 7519SOL    HW134190   4.293   3.413  13.060  1.6049 -0.7783 -0.7097
 7519SOL    HW234191   4.192   3.515  13.016 -0.5635 -2.1167 -0.1174
 7520SOL     OW34192   0.092   1.077   3.217  0.0943  0.3834  0.2259
 7520SOL    HW134193   0.033   1.103   3.288 -0.0694 -2.0136  0.9569
 7520SOL    HW234194   0.100   1.156   3.163 -0.5817  0.7220  0.6130
 7521SOL     OW34195   4.278   2.950   8.031 -0.0873 -0.1861  0.2857
 7521SOL    HW134196   4.257   2.914   8.117 -0.6666  0.4625  0.4174
 7521SOL    HW234197   4.304   2.871   7.983  0.3799  0.5768 -0.7202
 7522SOL     OW34198   1.006   3.170   6.992  0.7033 -0.3188 -0.0056
 7522SOL    HW134199   1.007   3.074   6.996 -0.9269 -0.3894 -1.0011
 7522SOL    HW234200   1.095   3.195   6.968  1.2270 -1.5980  0.5673
 7523SOL     OW34201   3.766   1.745   6.848 -0.5082  0.0632 -0.1122
 7523SOL    HW134202   3.754   1.836   6.874  0.5635  0.9380 -2.6278
 7523SOL    HW234203   3.761   1.696   6.930 -0.3869  1.6099  0.8277
 7524SOL     OW34204   0.744   1.207   4.495  0.2493  0.2794  0.1249
 7524SOL    HW134205   0.716   1.174   4.409  0.7363 -0.2818  0.1768
 7524SOL    HW234206   0.663   1.211   4.544  1.3106  0.0326  1.8925
 7525SOL     OW34207   2.759   2.180   4.234 -0.5874  0.0977 -0.1595
 7525SOL    HW134208   2.780   2.254   4.292 -0.2637 -0.4627  0.4396
 7525SOL    HW234209   2.811   2.116   4.283  0.9982  1.1382 -0.4762
 7526SOL     OW34210   3.186   1.233  15.988 -0.3126  0.2203 -0.0937
 7526SOL    HW134211   3.248   1.185  15.934  0.1988  0.2689  0.4472
 7526SOL    HW234212   3.122   1.267  15.926 -1.4115 -3.3038 -0.8680
 7527SOL     OW34213   1.270   3.177   9.373  0.2511  0.0027 -0.1346
 7527SOL    HW134214   1.364   3.163   9.365 -0.0942 -0.2776 -3.5074
 7527SOL    HW234215   1.232   3.132   9.298  1.2367  0.2205 -0.7572
 7528SOL     OW34216   2.567   4.166   8.043  0.1564 -0.1953  0.5839
 7528SOL    HW134217   2.599   4.246   8.001  0.1630 -1.7974 -2.4741
 7528SOL    HW234218   2.647   4.136   8.084  0.5012 -1.5852 -1.1100
 7529SOL     OW34219   2.620   1.206   8.925 -0.3041  0.1326 -0.0637
 7529SOL    HW134220   2.609   1.124   8.878  0.0767 -0.8942  1.6241
 7529SOL    HW234221   2.705   1.239   8.895 -0.6016  1.0576  0.1090
 7530SOL     OW34222   3.602   0.342   7.328 -0.4604 -0.2438  0.2513
 7530SOL    HW134223   3.594   0.414   7.266 -3.4259  1.2173  2.2956
 7530SOL    HW234224   3.692   0.310   7.317 -0.5032 -0.1513 -0.3560
 7531SOL     OW34225   2.995   2.044   9.841 -0.1245  0.9489 -0.1011
 7531SOL    HW134226   2.996   2.029   9.936 -1.8227  0.4713 -0.1592
 7531SOL    HW234227   2.973   2.137   9.831 -2.7535  0.3286  0.0266
 7532SOL     OW34228   1.261   0.913  11.469 -0.9568  0.0988  0.4151
 7532SOL    HW134229   1.300   0.826  11.479  0.4844  0.5554 -1.2430
 7532SOL    HW234230   1.268   0.951  11.557  0.8721  1.6066 -0.3879
 7533SOL     OW34231   2.609   3.491   7.442 -1.3149  1.1146 -0.4710
 7533SOL    HW134232   2.665   3.497   7.520 -0.8073 -1.1235 -0.6726
 7533SOL    HW234233   2.661   3.536   7.375 -0.6288 -1.4503 -1.6232
 7534SOL     OW34234   1.514   4.391  15.896  0.2122  0.0487 -0.2700
 7534SOL    HW134235   1.608   4.378  15.889  0.1963 -0.3877  0.3086
 7534SOL    HW234236   1.473   4.305  15.901  0.2352 -0.0237 -1.4363
 7535SOL     OW34237   0.527   0.175   1.650  0.2077 -0.0926  0.1352
 7535SOL    HW134238   0.531   0.244   1.717  0.7086  0.6064 -0.6146
 7535SOL    HW234239   0.561   0.103   1.702  1.7023  1.2629  1.0501
 7536SOL     OW34240   0.524   3.601   8.667  0.1624  0.2635  0.0131
 7536SOL    HW134241   0.501   3.640   8.583  1.9070  1.2964  0.0217
 7536SOL    HW234242   0.550   3.680   8.714 -0.5836 -0.6996  2.0746
 7537SOL     OW34243   0.368   1.076   0.130 -0.2228 -0.0084 -0.5144
 7537SOL    HW134244   0.314   1.030   0.194  2.2377 -0.5371  1.2121
 7537SOL    HW234245   0.440   1.013   0.130 -0.2889 -0.0824 -0.2983
 7538SOL     OW34246   0.648   1.215   7.442  0.4672 -0.0272  0.3261
 7538SOL    HW134247   0.683   1.302   7.465  0.9598 -0.2408  0.3948
 7538SOL    HW234248   0.699   1.194   7.364 -2.3165  1.0869 -1.7799
 7539SOL     OW34249   2.956   3.027  15.876  0.9634 -0.6241  0.2199
 7539SOL    HW134250   3.044   3.063  15.890  0.9866 -0.3435 -0.6454
 7539SOL    HW234251   2.931   3.027  15.969  1.3512  0.4166  0.3338
 7540SOL     OW34252   1.057   2.367   5.711 -0.0162  0.4487  0.2249
 7540SOL    HW134253   0.971   2.337   5.739  0.4518 -1.1062 -0.0338
 7540SOL    HW234254   1.086   2.294   5.657  1.3146  1.5498 -0.5650
 7541SOL     OW34255   0.540   3.041   8.367  0.2358 -0.2461  1.0714
 7541SOL    HW134256   0.516   3.100   8.439 -0.1496 -1.2624  1.7660
 7541SOL    HW234257   0.610   3.092   8.326 -0.7951 -0.1269 -0.5629
 7542SOL     OW34258   1.756   1.690   7.235  0.0322 -0.0049  0.0067
 7542SOL    HW134259   1.792   1.705   7.148 -1.2614  1.8643 -0.2054
 7542SOL    HW234260   1.733   1.597   7.242 -2.4492  0.6438  0.4019
 7543SOL     OW34261   2.096   4.298  15.150 -0.1426  0.4988  0.2349
 7543SOL    HW134262   2.148   4.377  15.139  2.4814 -1.3043 -0.1840
 7543SOL    HW234263   2.055   4.311  15.235  1.8579 -0.4969  1.3326
 7544SOL     OW34264   3.204   0.629   4.668  0.1531  0.1622  0.9806
 7544SOL    HW134265   3.232   0.580   4.745  2.6871  0.3272  0.1453
 7544SOL    HW234266   3.120   0.585   4.654  0.1531  0.8066 -1.0401
 7545SOL     OW34267   0.297   2.711  15.093 -0.0478 -0.2287 -0.6659
 7545SOL    HW134268   0.377   2.763  15.091  0.4406 -0.9113  1.0632
 7545SOL    HW234269   0.268   2.726  15.003 -1.2978 -2.1911 -0.5734
 7546SOL     OW34270   3.296   2.713   6.460 -0.0319 -0.0383  0.1395
 7546SOL    HW134271   3.308   2.632   6.509  2.4718 -0.4848 -1.2202
 7546SOL    HW234272   3.340   2.783   6.507  1.7572 -0.8366 -0.3336
 7547SOL     OW34273   0.694   3.421   7.091  0.3502 -0.5435 -0.1359
 7547SOL    HW134274   0.606   3.419   7.127  0.9591  2.4269  1.4661
 7547SOL    HW234275   0.747   3.454   7.163 -0.5260  0.0840  0.2109
 7548SOL     OW34276   2.663   1.163   5.451  0.0329 -0.8419  0.1915
 7548SOL    HW134277   2.626   1.182   5.537  1.1297  0.4401  0.3711
 7548SOL    HW234278   2.715   1.243   5.448 -2.1353  0.6205  1.8779
 7549SOL     OW34279   2.421   3.692   8.201 -0.1797  0.1584 -0.9614
 7549SOL    HW134280   2.423   3.609   8.249 -0.6175  1.4060  1.1993
 7549SOL    HW234281   2.508   3.707   8.163  0.0854  0.6970 -0.1364
 7550SOL     OW34282   0.509   2.096   4.815 -0.0889  0.6372 -0.2238
 7550SOL    HW134283   0.475   2.053   4.893 -1.5103 -0.0175 -1.2007
 7550SOL    HW234284   0.425   2.097   4.768  0.2371 -0.3071 -0.8268
 7551SOL     OW34285   0.014   2.899   7.899  0.2512 -0.3490  0.7667
 7551SOL    HW134286   0.093   2.926   7.851  0.6120 -0.7352  1.1490
 7551SOL    HW234287   0.059   2.839   7.958 -1.0772 -0.4950  1.6265
 7552SOL     OW34288   4.036   1.194   7.744  0.3670  0.8085  0.2262
 7552SOL    HW134289   3.944   1.218   7.755  0.5532  1.2034  0.8816
 7552SOL    HW234290   4.032   1.153   7.657  0.7091  1.8554 -0.2794
 7553SOL     OW34291   2.120   3.103   6.402  0.0384 -0.2314 -0.7187
 7553SOL    HW134292   2.079   3.156   6.471 -0.1730 -1.7334  0.3415
 7553SOL    HW234293   2.210   3.095   6.433 -0.2932 -4.0836 -0.6490
 7554SOL     OW34294   0.472   2.648   8.912  0.7650 -0.0956 -0.0610
 7554SOL    HW134295   0.566   2.663   8.923  1.0678 -3.4972  1.7787
 7554SOL    HW234296   0.467   2.561   8.874 -1.8523 -0.0965  0.2648
 7555SOL     OW34297   1.950   3.999  16.974 -0.6917 -0.0840  0.1959
 7555SOL    HW134298   1.896   4.063  16.926 -0.0589  0.2477 -0.0643
 7555SOL    HW234299   1.945   3.918  16.924 -1.6292  0.4881 -0.6355
 7556SOL     OW34300   1.807   3.047  13.797  0.6074  0.0167 -0.2619
 7556SOL    HW134301   1.895   3.058  13.832  0.0336 -0.4582  1.3445
 7556SOL    HW234302   1.802   3.139  13.769  0.7344  0.2977  0.6370
 7557SOL     OW34303   1.799   1.085   4.681  0.1269 -0.3280 -0.3036
 7557SOL    HW134304   1.877   1.040   4.715 -0.2434 -0.9225 -0.2337
 7557SOL    HW234305   1.735   1.039   4.736  0.1892  1.6505  1.3746
 7558SOL     OW34306   2.839   0.107   4.633 -0.0754 -0.3333  0.0069
 7558SOL    HW134307   2.754   0.145   4.610 -1.0477 -1.5138  1.6070
 7558SOL    HW234308   2.872   0.169   4.699 -1.4124  0.5328 -0.1473
 7559SOL     OW34309   1.959   0.085   4.064 -0.0593  0.3882  0.1944
 7559SOL    HW134310   1.885   0.081   4.003  0.2592  1.9565 -0.3070
 7559SOL    HW234311   2.023   0.031   4.017  0.6809 -0.4521  2.1377
 7560SOL     OW34312   2.874   4.230  14.705  0.0236  0.2242  0.1948
 7560SOL    HW134313   2.843   4.202  14.619  0.9650 -0.3755  0.0368
 7560SOL    HW234314   2.822   4.176  14.765 -0.6440  0.2453 -0.3703
 7561SOL     OW34315   0.391   2.394   8.813  0.2171  0.7329 -0.0259
 7561SOL    HW134316   0.460   2.336   8.782 -1.2049 -2.0417  2.0555
 7561SOL    HW234317   0.320   2.333   8.831 -0.6944  1.7760 -0.0606
 7562SOL     OW34318   1.762   2.913   2.648 -0.4958  0.5130  0.2016
 7562SOL    HW134319   1.788   2.821   2.642  0.3176  0.8464 -1.3209
 7562SOL    HW234320   1.697   2.904   2.717 -1.1614 -1.0834 -0.6338
 7563SOL     OW34321   0.397   4.139   1.188  0.4748  0.1848  0.3774
 7563SOL    HW134322   0.386   4.068   1.124 -2.0657 -1.6152  2.8162
 7563SOL    HW234323   0.474   4.109   1.237 -0.5427 -2.7656  0.1760
 7564SOL     OW34324   4.292   4.171  12.264  0.7249 -0.0261 -0.0827
 7564SOL    HW134325   4.313   4.222  12.342 -1.3013 -0.2117  0.5921
 7564SOL    HW234326   4.296   4.236  12.195 -1.1649  0.0333 -0.1415
 7565SOL     OW34327   0.229   3.647   7.291 -0.1503 -0.4792  0.4950
 7565SOL    HW134328   0.155   3.708   7.298  1.7010  1.7807  0.4830
 7565SOL    HW234329   0.288   3.723   7.298  0.0363 -0.6240  0.4884
 7566SOL     OW34330   0.912   2.725   1.042  0.0177 -0.9788  0.5396
 7566SOL    HW134331   0.883   2.815   1.029  0.9252 -0.5848  1.2787
 7566SOL    HW234332   0.848   2.682   0.985  0.8419  0.1744 -1.2481
 7567SOL     OW34333   1.008   0.776  11.167 -0.1216 -0.3383 -0.0883
 7567SOL    HW134334   0.964   0.789  11.083  1.1835 -0.9981 -0.8882
 7567SOL    HW234335   1.097   0.755  11.137 -1.1219 -2.0464 -1.8462
 7568SOL     OW34336   3.463   3.885   0.883 -0.6221  0.2795  0.0428
 7568SOL    HW134337   3.470   3.811   0.944 -1.9729 -1.4159 -1.8668
 7568SOL    HW234338   3.392   3.931   0.927  0.9827  0.8232  2.0358
 7569SOL     OW34339   2.661   2.601  10.330 -0.6147 -0.0495  0.3419
 7569SOL    HW134340   2.756   2.605  10.321 -0.7533  1.8434 -0.3991
 7569SOL    HW234341   2.625   2.546  10.261 -0.4505 -0.0642  0.2694
 7570SOL     OW34342   0.975   0.352   7.525  0.5293 -0.0636 -0.2697
 7570SOL    HW134343   1.030   0.413   7.575  1.6545 -2.0567  0.9163
 7570SOL    HW234344   0.898   0.361   7.581  1.2762 -0.8138  0.8652
 7571SOL     OW34345   3.911   0.939   4.949 -0.1806  0.3627 -0.1068
 7571SOL    HW134346   3.894   0.948   4.855  1.7546  1.2658 -0.3541
 7571SOL    HW234347   3.825   0.903   4.973  0.8913 -1.2157  1.3825
 7572SOL     OW34348   4.389   3.085   3.737 -0.3477  0.0048 -0.2099
 7572SOL    HW134349   4.323   3.087   3.806 -0.9329 -1.4292 -0.7199
 7572SOL    HW234350   4.331   3.129   3.676 -0.3124  1.4562  0.8129
 7573SOL     OW34351   1.800   4.678  11.951  0.0404  0.2875 -0.1690
 7573SOL    HW134352   1.875   4.734  11.931 -0.4025  0.4557 -1.3577
 7573SOL    HW234353   1.815   4.669  12.045  0.5817  2.4717 -0.0381
 7574SOL     OW34354   3.546   2.270  12.416 -0.5097  0.0449  0.2234
 7574SOL    HW134355   3.613   2.284  12.483  1.0426  0.2044 -1.3603
 7574SOL    HW234356   3.551   2.344  12.356 -0.6923  0.6875  1.0109
 7575SOL     OW34357   2.839   1.285   1.550 -0.4491  0.1964 -0.2255
 7575SOL    HW134358   2.823   1.205   1.501 -0.6952 -0.6387  1.2073
 7575SOL    HW234359   2.754   1.321   1.574 -0.9889 -0.4763 -1.1766
 7576SOL     OW34360   1.385   4.222   2.517 -0.3194 -0.2289  0.3520
 7576SOL    HW134361   1.447   4.290   2.542  1.3704 -1.0785 -1.4936
 7576SOL    HW234362   1.380   4.231   2.421 -1.8396  0.6987  0.5236
 7577SOL     OW34363   1.647   2.281   1.149  0.4837  0.5691  0.8364
 7577SOL    HW134364   1.665   2.228   1.226 -0.5093 -3.0893 -1.4369
 7577SOL    HW234365   1.728   2.280   1.099 -1.5196  1.5707 -2.4863
 7578SOL     OW34366   1.434   3.480   3.052 -0.3425  0.3992  0.4911
 7578SOL    HW134367   1.510   3.518   3.010  1.0601 -1.3777  1.4310
 7578SOL    HW234368   1.433   3.521   3.139  2.7414 -2.5393  1.8902
 7579SOL     OW34369   2.902   3.987   6.348  0.3489 -0.4290  0.0944
 7579SOL    HW134370   2.847   4.028   6.415  1.5426  0.9386  0.2345
 7579SOL    HW234371   2.858   3.902   6.344 -0.6430  0.0942 -0.0904
 7580SOL     OW34372   1.132   3.239   4.410 -0.0190 -0.4516 -0.0198
 7580SOL    HW134373   1.097   3.208   4.326 -0.5952  0.8420 -0.2543
 7580SOL    HW234374   1.210   3.285   4.378  0.6145  0.3255  2.6480
 7581SOL     OW34375   1.961   2.692  14.126 -0.2387  0.1431  0.0240
 7581SOL    HW134376   1.998   2.680  14.039  0.4980  2.5468  0.0042
 7581SOL    HW234377   1.881   2.639  14.123 -0.7450  0.8554  0.9443
 7582SOL     OW34378   4.036   2.479   6.420  0.8056  0.3323 -0.0461
 7582SOL    HW134379   3.975   2.553   6.422 -0.8734 -1.0948  0.9412
 7582SOL    HW234380   4.108   2.538   6.446  0.7848  0.4442 -0.2434
 7583SOL     OW34381   1.721   3.221   7.600  0.4411  0.2532 -0.0470
 7583SOL    HW134382   1.704   3.200   7.508 -0.0075  2.5181 -0.4757
 7583SOL    HW234383   1.762   3.306   7.587  1.1773 -0.3287 -1.5396
 7584SOL     OW34384   4.246   0.678   6.068  0.1558 -0.3716  0.3338
 7584SOL    HW134385   4.304   0.728   6.011 -0.0111 -1.2337 -0.5964
 7584SOL    HW234386   4.256   0.591   6.030  1.2679 -0.7812  1.5875
 7585SOL     OW34387   2.239   0.101   7.432 -0.0179  0.0206  0.4030
 7585SOL    HW134388   2.226   0.050   7.352  1.7257 -0.1234  0.2101
 7585SOL    HW234389   2.321   0.142   7.406 -0.0259 -0.2926 -0.1228
 7586SOL     OW34390   3.453   3.545   0.912  0.2320 -0.0515 -0.1297
 7586SOL    HW134391   3.510   3.574   0.841  0.5268  0.2336  0.2190
 7586SOL    HW234392   3.392   3.497   0.857  0.5936 -0.4629 -0.1768
 7587SOL     OW34393   0.674   2.026   6.982 -0.3495  0.2160 -0.2215
 7587SOL    HW134394   0.646   2.074   7.060  1.2638  0.5214  0.1739
 7587SOL    HW234395   0.613   2.060   6.917 -0.4968 -0.3194 -0.3635
 7588SOL     OW34396   3.405   1.547  12.809  0.1533  0.3436 -0.2799
 7588SOL    HW134397   3.497   1.574  12.817  0.0892  0.8430 -1.1602
 7588SOL    HW234398   3.374   1.577  12.895  2.9562 -1.5952  1.3849
 7589SOL     OW34399   0.467   4.047  15.880 -0.2764 -0.0632  0.1990
 7589SOL    HW134400   0.512   3.998  15.811  1.3204 -0.2023  1.3325
 7589SOL    HW234401   0.456   3.980  15.947  2.2415  0.3269  0.9907
 7590SOL     OW34402   4.083   3.093   8.237 -0.3364  0.5086  0.1998
 7590SOL    HW134403   4.017   3.098   8.168  1.3560  2.3598 -1.2972
 7590SOL    HW234404   4.155   3.151   8.211  0.9494 -0.7137  1.0201
 7591SOL     OW34405   1.502   0.324   9.090  0.5940 -0.4553  0.1909
 7591SOL    HW134406   1.588   0.289   9.065  0.8614 -0.2339  0.7844
 7591SOL    HW234407   1.514   0.342   9.184  0.8509 -0.1004  0.0897
 7592SOL     OW34408   3.101   3.750   7.925  0.3065 -0.3945  0.1929
 7592SOL    HW134409   3.194   3.740   7.941 -0.0917 -1.7713  1.6985
 7592SOL    HW234410   3.060   3.709   8.002  1.8039 -1.2514  0.5328
 7593SOL     OW34411   0.976   1.754  16.083  0.0021  0.5461  0.0218
 7593SOL    HW134412   1.052   1.721  16.131  1.1764  0.3845 -1.9751
 7593SOL    HW234413   0.923   1.788  16.156  2.2451 -0.1075  1.9458
 7594SOL     OW34414   4.051   2.602  14.217  0.2135 -0.0404  0.2651
 7594SOL    HW134415   4.133   2.553  14.225 -0.0124 -0.6158 -0.8282
 7594SOL    HW234416   4.091   2.689  14.213 -0.9659  0.5366  1.2924
 7595SOL     OW34417   2.372   0.671   6.487  0.2446 -0.1683  0.6979
 7595SOL    HW134418   2.302   0.698   6.428  0.6967  0.7691  0.5840
 7595SOL    HW234419   2.441   0.733   6.462 -0.9331  1.5335  1.6688
 7596SOL     OW34420   2.410   0.749   8.708 -0.1601 -0.9281 -0.0337
 7596SOL    HW134421   2.497   0.709   8.710  1.6218  3.0807  2.5357
 7596SOL    HW234422   2.432   0.839   8.733  2.0146 -1.2288 -0.8127
 7597SOL     OW34423   1.642   0.567  14.595 -0.4722  0.0067  0.5209
 7597SOL    HW134424   1.630   0.636  14.660  0.3033  1.0397 -0.4404
 7597SOL    HW234425   1.730   0.573  14.558 -0.9904 -1.6737 -1.0007
 7598SOL     OW34426   1.020   1.048   7.736 -0.3965  0.4479  0.0075
 7598SOL    HW134427   1.069   1.023   7.658  1.1160  1.5211  0.6278
 7598SOL    HW234428   0.932   1.064   7.701  0.0680 -0.6807 -1.6431
 7599SOL     OW34429   0.331   2.012   7.767 -0.4978 -0.0627  0.1277
 7599SOL    HW134430   0.293   2.049   7.846  0.4625 -0.7700  0.9220
 7599SOL    HW234431   0.406   1.963   7.800  0.2241  2.3131  1.9970
 7600SOL     OW34432   2.139   2.609   4.410 -0.1522 -0.4628  0.0159
 7600SOL    HW134433   2.215   2.608   4.351  1.2451 -0.1508  1.8314
 7600SOL    HW234434   2.061   2.588   4.358  0.0420 -1.1090 -0.0166
 7601SOL     OW34435   2.669   3.252   4.552  0.0988  0.0721  0.0691
 7601SOL    HW134436   2.612   3.199   4.496 -0.5022  2.0126 -1.1525
 7601SOL    HW234437   2.757   3.224   4.529  1.1771  1.2839  2.7988
 7602SOL     OW34438   0.282   3.144   1.571 -0.0411  0.2569 -0.0392
 7602SOL    HW134439   0.287   3.129   1.477  3.0425 -3.7938  0.7321
 7602SOL    HW234440   0.189   3.160   1.585  0.2885  2.0440  0.1604
 7603SOL     OW34441   2.624   1.146  12.254  0.8313  0.5678 -0.0554
 7603SOL    HW134442   2.700   1.154  12.197  1.1131 -0.1694  0.2156
 7603SOL    HW234443   2.600   1.055  12.232 -0.0606  1.1180 -1.3427
 7604SOL     OW34444   1.960   2.754   5.686  0.3414 -0.0729  0.0766
 7604SOL    HW134445   1.988   2.677   5.735 -2.7898 -1.8961 -1.0162
 7604SOL    HW234446   1.871   2.720   5.689  0.3148 -0.3029 -3.2812
 7605SOL     OW34447   2.302   0.095   4.132  0.2026  0.6083 -0.2479
 7605SOL    HW134448   2.321   0.057   4.217  1.0863  0.0717 -0.6847
 7605SOL    HW234449   2.217   0.139   4.141  1.0964  2.6653 -1.8763
 7606SOL     OW34450   1.820   1.021   2.946  0.3417  0.6877 -0.0209
 7606SOL    HW134451   1.756   0.956   2.918  2.3170 -1.5974  0.8604
 7606SOL    HW234452   1.792   1.095   2.891 -3.0572 -0.0632  0.6651
 7607SOL     OW34453   3.018   0.165   2.530 -0.4056 -0.0497 -0.0493
 7607SOL    HW134454   3.099   0.117   2.514 -1.6960 -1.5767 -1.9776
 7607SOL    HW234455   3.027   0.186   2.623 -0.7237 -0.4659  0.0791
 7608SOL     OW34456   3.303   1.762   7.142  0.4395  0.2822 -0.0841
 7608SOL    HW134457   3.333   1.825   7.076  1.1585  0.8980  0.8327
 7608SOL    HW234458   3.237   1.707   7.100  0.1697  0.4689  0.0955
 7609SOL     OW34459   4.487   3.239   6.916 -0.0464  0.1391 -0.0171
 7609SOL    HW134460   4.530   3.325   6.916 -0.5885  0.4082  0.1949
 7609SOL    HW234461   4.553   3.181   6.877 -0.3774 -0.6260  0.5557
 7610SOL     OW34462   0.682   1.515   4.281 -0.2613 -0.1885 -0.3365
 7610SOL    HW134463   0.617   1.448   4.258 -1.5637  1.6195 -1.9205
 7610SOL    HW234464   0.625   1.590   4.300  0.1658 -0.0258  0.2927
 7611SOL     OW34465   3.478   1.968  15.151 -0.7452  0.3221 -0.2960
 7611SOL    HW134466   3.532   1.928  15.083 -0.9585  1.9308 -1.4031
 7611SOL    HW234467   3.517   2.055  15.154  3.5640 -1.5686 -1.2722
 7612SOL     OW34468   2.918   3.739   0.325 -0.1481  0.1630  0.5695
 7612SOL    HW134469   2.927   3.833   0.308  0.5681  0.3445  1.9116
 7612SOL    HW234470   2.825   3.735   0.303  0.0082  1.9203 -0.3935
 7613SOL     OW34471   3.822   4.337  16.590 -0.4387 -0.2410  0.4923
 7613SOL    HW134472   3.754   4.327  16.524  1.9933 -0.0388 -2.0880
 7613SOL    HW234473   3.885   4.393  16.543 -0.8712  1.8844  2.4134
 7614SOL     OW34474   4.186   0.696   1.465 -0.8279 -0.0957  0.1755
 7614SOL    HW134475   4.178   0.746   1.546  1.8028  0.4548  0.0983
 7614SOL    HW234476   4.193   0.607   1.498 -0.1215  0.2479  0.9492
 7615SOL     OW34477   0.616   0.305  15.754  0.4539 -0.5496 -0.2861
 7615SOL    HW134478   0.707   0.300  15.783  0.4531  1.2159 -0.0222
 7615SOL    HW234479   0.567   0.262  15.824  1.5591 -2.3352 -0.5958
 7616SOL     OW34480   2.352   4.658   4.362 -0.3102 -0.1075  0.2095
 7616SOL    HW134481   2.379   4.585   4.306  1.9904  0.0431  1.1105
 7616SOL    HW234482   2.311   4.612   4.435  1.5382 -0.1704  1.2082
 7617SOL     OW34483   2.101   2.022  16.211 -0.1369  0.2519  0.6658
 7617SOL    HW134484   2.191   1.989  16.217 -0.6657 -1.1017  1.2489
 7617SOL    HW234485   2.053   1.975  16.279 -0.8514  0.6393  0.4264
 7618SOL     OW34486   3.893   2.051   3.389 -0.3731  1.1597 -0.0396
 7618SOL    HW134487   3.864   2.137   3.418 -0.0498  0.8952  1.0847
 7618SOL    HW234488   3.982   2.055   3.424 -1.2306  2.8716  1.9347
 7619SOL     OW34489   2.941   3.824   8.266  0.0819  0.6214  0.2407
 7619SOL    HW134490   2.916   3.733   8.279  3.4170 -0.1544  1.4783
 7619SOL    HW234491   2.916   3.868   8.347 -0.7200  1.6967 -0.5922
 7620SOL     OW34492   2.378   4.172   8.589  0.1149 -0.4992  0.1445
 7620SOL    HW134493   2.437   4.201   8.519 -0.8935 -0.8970 -0.8872
 7620SOL    HW234494   2.353   4.257   8.627 -2.6156 -1.0185 -0.4424
 7621SOL     OW34495   1.089   0.866   6.124 -0.1864  0.3306 -0.1211
 7621SOL    HW134496   1.146   0.790   6.135 -0.8103 -0.0642  0.4609
 7621SOL    HW234497   1.055   0.862   6.214  0.0672 -0.8548 -0.0715
 7622SOL     OW34498   1.804   3.609   6.638 -0.5414 -0.0253  0.1317
 7622SOL    HW134499   1.739   3.544   6.612  1.1370 -1.1142 -1.3582
 7622SOL    HW234500   1.739   3.679   6.640 -0.9329 -0.3965  0.2998
 7623SOL     OW34501   2.218   2.373   3.396 -0.0311 -0.5224 -0.4036
 7623SOL    HW134502   2.203   2.332   3.311 -0.1833  0.2361 -0.7378
 7623SOL    HW234503   2.207   2.298   3.454  1.6105 -2.7789 -3.0230
 7624SOL     OW34504   3.100   2.603   7.100  0.1028  0.0205  0.4341
 7624SOL    HW134505   3.128   2.689   7.132  2.1056 -0.5250  0.0995
 7624SOL    HW234506   3.037   2.575   7.167 -1.7265 -1.2228 -1.7827
 7625SOL     OW34507   4.306   4.167   2.287 -0.0037  0.2093  0.0128
 7625SOL    HW134508   4.351   4.111   2.223 -2.2786 -0.4707 -1.0113
 7625SOL    HW234509   4.374   4.177   2.353  0.6937 -0.8376 -0.5450
 7626SOL     OW34510   3.480   1.755  10.742  0.0687  0.1909  0.3600
 7626SOL    HW134511   3.529   1.790  10.667  3.4677 -2.7409  1.2036
 7626SOL    HW234512   3.539   1.749  10.818  1.9869  0.7507 -1.0801
 7627SOL     OW34513   2.609   1.475   4.253  0.2138  0.1590  0.1701
 7627SOL    HW134514   2.604   1.570   4.265 -2.6172  0.0860 -0.4833
 7627SOL    HW234515   2.664   1.467   4.176  1.7473  0.8450  1.1996
 7628SOL     OW34516   1.073   0.267  13.653  0.4499  0.0898 -0.0937
 7628SOL    HW134517   1.079   0.186  13.603  2.0799 -1.4809  2.6162
 7628SOL    HW234518   0.982   0.267  13.682  0.2443  0.3456 -0.7436
 7629SOL     OW34519   1.305   2.201   3.065  0.0429  0.2029  0.7518
 7629SOL    HW134520   1.333   2.248   3.144  0.0368  1.0321  0.2591
 7629SOL    HW234521   1.265   2.120   3.098  1.0085 -1.5735 -2.4179
 7630SOL     OW34522   4.184   0.804   2.752  0.3165  0.3424  0.2084
 7630SOL    HW134523   4.180   0.889   2.709  0.8724  1.0016  1.4542
 7630SOL    HW234524   4.236   0.816   2.832  1.1025  0.8410 -0.3742
 7631SOL     OW34525   4.360   3.333   0.527  0.0484 -0.0220 -0.2895
 7631SOL    HW134526   4.376   3.361   0.618  0.9509  1.2345 -0.8250
 7631SOL    HW234527   4.307   3.405   0.491  0.2306  1.0334  1.5413
 7632SOL     OW34528   0.522   1.906  10.202 -0.6121 -0.0743 -0.1602
 7632SOL    HW134529   0.551   1.988  10.243  0.6360  0.5749 -2.3936
 7632SOL    HW234530   0.587   1.851  10.245 -0.9372  0.5195  1.1010
 7633SOL     OW34531   1.291   3.050   2.287  0.2910 -0.1260 -0.1843
 7633SOL    HW134532   1.200   3.021   2.293  1.1461 -2.4098  1.4828
 7633SOL    HW234533   1.305   3.031   2.195 -2.1526  1.0894 -0.8191
 7634SOL     OW34534   1.995   2.948   3.197 -0.0839  0.0778 -0.4494
 7634SOL    HW134535   1.946   3.028   3.213  0.7834  0.7086 -0.8937
 7634SOL    HW234536   2.076   2.954   3.249  0.7648 -0.0466 -1.7491
 7635SOL     OW34537   0.398   4.724  15.136 -0.0427  0.1145  0.1026
 7635SOL    HW134538   0.375   0.057  15.075  2.1099  0.5262 -0.2638
 7635SOL    HW234539   0.472   4.676  15.098 -0.2204 -1.3489  1.6146
 7636SOL     OW34540   3.683   0.104   8.314 -0.0918 -0.1385  0.3301
 7636SOL    HW134541   3.743   0.042   8.273  0.4476  0.3815  0.3470
 7636SOL    HW234542   3.746   0.168   8.346 -1.0644  0.7987  0.3782
 7637SOL     OW34543   0.896   4.457   9.045  0.0540  0.2874 -0.6159
 7637SOL    HW134544   0.920   4.435   8.955 -0.3058  0.1942 -0.6914
 7637SOL    HW234545   0.816   4.410   9.068  0.5200  0.1643  0.7794
 7638SOL     OW34546   3.134   0.521   6.281 -0.7080  0.1572  0.3103
 7638SOL    HW134547   3.145   0.495   6.373 -1.9082 -2.2922 -0.2434
 7638SOL    HW234548   3.044   0.555   6.280 -0.4800  0.8112  1.8539
 7639SOL     OW34549   0.771   3.841  14.363 -0.2814  0.2543 -0.0615
 7639SOL    HW134550   0.732   3.780  14.426 -0.3849  0.5338  0.1426
 7639SOL    HW234551   0.859   3.804  14.366 -0.2974  0.0773 -1.4854
 7640SOL     OW34552   0.696   2.838   8.416 -0.0680  0.2761 -0.4251
 7640SOL    HW134553   0.644   2.812   8.492  2.1005 -1.1356  0.5708
 7640SOL    HW234554   0.641   2.906   8.378 -0.1135 -0.8937 -2.4542
 7641SOL     OW34555   2.670   2.741   8.085 -0.7593 -0.3306 -0.3493
 7641SOL    HW134556   2.624   2.658   8.092 -3.5343  1.0586 -2.1058
 7641SOL    HW234557   2.733   2.721   8.016  0.1387  0.9174  0.0972
 7642SOL     OW34558   0.016   0.148  12.612  0.6106  0.1931 -0.1260
 7642SOL    HW134559   0.051   0.124  12.697  0.0907  0.0749  0.0538
 7642SOL    HW234560   0.102   0.154  12.570  0.2974 -1.8751 -1.1025
 7643SOL     OW34561   0.230   4.205  16.768 -0.5314  0.1032  0.3547
 7643SOL    HW134562   0.211   4.240  16.681 -0.2883 -1.9562 -0.5262
 7643SOL    HW234563   0.141   4.184  16.796 -0.6328  0.4287  0.2736
 7644SOL     OW34564   0.470   4.395  11.111 -0.5849 -0.4622 -0.5512
 7644SOL    HW134565   0.501   4.449  11.184 -1.8300  0.7719 -0.9383
 7644SOL    HW234566   0.498   4.308  11.140  2.1581  0.5585 -0.1492
 7645SOL     OW34567   3.200   4.429  14.732 -0.5194 -0.0522 -0.1248
 7645SOL    HW134568   3.172   4.351  14.780 -0.4291 -1.1392 -1.8263
 7645SOL    HW234569   3.114   4.470  14.719 -0.7921 -1.1125 -1.6180
 7646SOL     OW34570   1.583   4.446   6.572 -0.0298  0.0343  0.3342
 7646SOL    HW134571   1.643   4.372   6.581 -1.4610 -1.2875 -0.8595
 7646SOL    HW234572   1.517   4.401   6.518  0.4209  1.3625 -1.3125
 7647SOL     OW34573   3.053   2.824   6.400 -0.2181  0.1110 -0.0389
 7647SOL    HW134574   3.141   2.796   6.425 -0.2669 -0.2953 -0.3201
 7647SOL    HW234575   3.016   2.767   6.467 -2.7937  0.8160 -0.8812
 7648SOL     OW34576   2.271   4.017   6.006  0.1483  0.0881 -0.4425
 7648SOL    HW134577   2.325   4.073   5.950 -0.4601 -0.5261 -1.6413
 7648SOL    HW234578   2.232   4.091   6.052 -0.3949 -0.2027 -0.4374
 7649SOL     OW34579   2.716   1.053  11.432 -0.6816 -0.0250 -0.2202
 7649SOL    HW134580   2.759   1.131  11.395  1.0030 -0.5235  0.6978
 7649SOL    HW234581   2.749   0.989  11.370  2.4523  1.1011  0.3070
 7650SOL     OW34582   1.781   3.568   4.209  0.0255  0.7395  0.6176
 7650SOL    HW134583   1.740   3.639   4.159  0.9215 -1.4399 -3.1736
 7650SOL    HW234584   1.769   3.493   4.151  1.5950  0.2024  0.9860
 7651SOL     OW34585   3.521   4.179   6.822 -0.4074 -0.0803  0.2330
 7651SOL    HW134586   3.566   4.251   6.866 -0.0562 -0.0230 -0.2229
 7651SOL    HW234587   3.568   4.181   6.738  1.6845  0.4983  1.4228
 7652SOL     OW34588   4.430   4.259   5.837  0.1500  0.5132  0.2995
 7652SOL    HW134589   4.484   4.194   5.793  1.4931  0.0394  2.6375
 7652SOL    HW234590   4.438   4.222   5.925 -1.3987  0.8598  0.5924
 7653SOL     OW34591   0.692   1.131   4.254 -0.4553 -1.0448  0.2896
 7653SOL    HW134592   0.779   1.099   4.229 -0.0856 -0.0849  0.3504
 7653SOL    HW234593   0.637   1.101   4.181  1.2782  1.8145 -2.1531
 7654SOL     OW34594   3.422   1.390   3.227 -0.1043 -0.3281 -0.2369
 7654SOL    HW134595   3.337   1.360   3.260 -0.1561 -0.2847 -0.3273
 7654SOL    HW234596   3.441   1.459   3.291 -1.1098 -0.1385 -0.1396
 7655SOL     OW34597   4.024   1.836   8.740 -0.3459 -0.4360 -0.7887
 7655SOL    HW134598   3.943   1.823   8.789  0.9033 -2.1628  0.8270
 7655SOL    HW234599   4.082   1.780   8.791 -1.8529 -0.9736  0.3272
 7656SOL     OW34600   4.533   3.712   6.292  0.4195  0.5841 -0.2769
 7656SOL    HW134601   4.472   3.781   6.264 -1.2494 -1.0627 -0.7509
 7656SOL    HW234602   4.615   3.757   6.308 -0.1062  1.0215  1.1849
 7657SOL     OW34603   1.848   2.246   6.211  0.3087 -0.1019 -0.2247
 7657SOL    HW134604   1.843   2.294   6.128 -3.7430 -2.7202 -1.5489
 7657SOL    HW234605   1.909   2.179   6.180  0.1487 -0.0315 -0.6916
 7658SOL     OW34606   3.713   4.530   8.753 -0.6293  0.6385 -0.5198
 7658SOL    HW134607   3.803   4.519   8.725 -0.6934 -2.0279  0.3533
 7658SOL    HW234608   3.718   4.491   8.840 -0.7365 -0.1566 -0.8730
 7659SOL     OW34609   4.068   0.266   8.218  0.1663  0.2415  0.4863
 7659SOL    HW134610   4.042   0.279   8.310 -2.3306 -1.3555  0.0119
 7659SOL    HW234611   3.986   0.296   8.179  0.3205  0.5195  0.3795
 7660SOL     OW34612   4.096   0.425   8.489  0.0141 -0.4865 -0.7986
 7660SOL    HW134613   4.024   0.372   8.524  1.0199 -1.2097  0.1898
 7660SOL    HW234614   4.106   0.510   8.532 -0.0424 -0.7620 -0.2358
 7661SOL     OW34615   3.446   0.213   2.500  0.0001 -0.3848  0.0468
 7661SOL    HW134616   3.498   0.207   2.580 -0.1899  1.5797  0.3171
 7661SOL    HW234617   3.509   0.180   2.435  0.6724  0.7185  0.1494
 7662SOL     OW34618   1.705   0.284   7.849  0.3993  0.0767  0.0892
 7662SOL    HW134619   1.658   0.346   7.793  0.4576 -0.4707 -0.5650
 7662SOL    HW234620   1.664   0.202   7.821 -1.1780  1.5568 -1.9566
 7663SOL     OW34621   3.023   1.829   9.660  0.3312 -0.5059  0.2637
 7663SOL    HW134622   3.106   1.795   9.694  0.1059  0.9994  2.3505
 7663SOL    HW234623   2.989   1.888   9.728  1.7712  1.0845 -0.3845
 7664SOL     OW34624   4.580   3.660   1.873  0.2306  0.0177  0.0962
 7664SOL    HW134625   4.660   3.618   1.842 -0.5856 -1.3529 -0.1174
 7664SOL    HW234626   4.560   3.599   1.943 -1.9416  0.3615 -0.2133
 7665SOL     OW34627   2.612   0.398  12.964  0.3003 -0.2467  0.7869
 7665SOL    HW134628   2.519   0.376  12.968  0.3858 -0.8196 -0.1271
 7665SOL    HW234629   2.648   0.345  13.035 -0.7362 -0.7253  0.9637
 7666SOL     OW34630   0.262   4.665  10.807 -0.0141  0.2814 -0.1008
 7666SOL    HW134631   0.308   4.729  10.862 -0.2837  1.7059 -1.5256
 7666SOL    HW234632   0.247   4.598  10.873  0.0394  1.6127  1.2768
 7667SOL     OW34633   3.456   0.177   8.434 -0.1948  0.7078 -0.2513
 7667SOL    HW134634   3.541   0.175   8.390  0.4119 -1.5275  1.0418
 7667SOL    HW234635   3.425   0.088   8.416 -0.4642  0.4564  1.4517
 7668SOL     OW34636   3.711   2.509   7.822  0.0972 -0.0712  0.8717
 7668SOL    HW134637   3.652   2.481   7.893  1.5666 -1.8870  1.3643
 7668SOL    HW234638   3.782   2.555   7.867  1.4256  0.0089 -1.3505
 7669SOL     OW34639   2.081   3.718   2.845  0.2357  0.7603 -0.1156
 7669SOL    HW134640   2.057   3.794   2.898  0.9565  0.1996  1.0054
 7669SOL    HW234641   2.009   3.659   2.867 -0.4227  1.7442  0.3885
 7670SOL     OW34642   2.662   1.132  10.653 -0.0626 -0.1470  0.5577
 7670SOL    HW134643   2.589   1.080  10.619 -0.5870  2.4200 -2.1981
 7670SOL    HW234644   2.704   1.066  10.709  0.8938  0.1434  0.1898
 7671SOL     OW34645   1.886   2.646   2.567 -0.3994 -0.0239 -0.5096
 7671SOL    HW134646   1.906   2.621   2.477  1.0546 -1.6358  0.2656
 7671SOL    HW234647   1.825   2.576   2.591 -0.0255 -0.2781 -0.3121
 7672SOL     OW34648   4.089   3.898   9.627 -0.3874  0.1496 -0.1442
 7672SOL    HW134649   4.092   3.882   9.721 -1.8599  1.3338  0.1006
 7672SOL    HW234650   4.009   3.951   9.628 -2.3575 -2.8409 -0.4455
 7673SOL     OW34651   3.114   3.544   9.297  0.0537  0.2445 -0.1758
 7673SOL    HW134652   3.188   3.560   9.355  0.3333 -2.4388  0.2409
 7673SOL    HW234653   3.046   3.598   9.337  1.1065  1.0261  0.5252
 7674SOL     OW34654   0.404   4.180   6.414  0.2142 -0.1024 -0.2301
 7674SOL    HW134655   0.459   4.253   6.386 -0.1436  0.1220 -0.3591
 7674SOL    HW234656   0.410   4.200   6.508 -2.2314 -0.6951  0.0620
 7675SOL     OW34657   0.629   3.272   9.723 -0.3866 -0.2808 -0.3267
 7675SOL    HW134658   0.659   3.313   9.804 -3.2283 -0.2557  0.7121
 7675SOL    HW234659   0.682   3.193   9.708  2.0775  1.2225  0.3698
 7676SOL     OW34660   1.793   0.005  14.705  0.2666  0.2622 -0.0269
 7676SOL    HW134661   1.885   4.728  14.681 -0.0018 -1.9084  0.1155
 7676SOL    HW234662   1.805   0.002  14.800 -2.0740  2.1661  0.3318
 7677SOL     OW34663   1.629   1.474   4.024  0.1928  0.0798  0.3521
 7677SOL    HW134664   1.565   1.406   4.047 -0.3457  0.6945  0.6934
 7677SOL    HW234665   1.569   1.547   4.008 -1.1075 -1.0023  0.2660
 7678SOL     OW34666   1.598   2.069   8.484 -0.2055 -0.2305 -0.3100
 7678SOL    HW134667   1.619   2.144   8.428  1.4129  0.6433  1.4645
 7678SOL    HW234668   1.623   1.985   8.444 -1.0010 -1.3893  1.6278
 7679SOL     OW34669   0.324   3.219   9.739 -0.6978 -0.9692 -0.1250
 7679SOL    HW134670   0.301   3.305   9.702  1.2171 -1.4787 -2.5240
 7679SOL    HW234671   0.419   3.220   9.734 -0.8133  1.6449 -2.0539
 7680SOL     OW34672   4.380   1.509   6.685  0.1980 -0.1769 -0.2035
 7680SOL    HW134673   4.375   1.483   6.777  0.9398 -1.2698 -0.4623
 7680SOL    HW234674   4.472   1.493   6.663 -0.1050 -2.1638 -0.0635
 7681SOL     OW34675   0.508   2.945   8.025  0.3405 -0.2806 -0.5253
 7681SOL    HW134676   0.443   2.948   7.954  0.1230 -0.2160 -0.3235
 7681SOL    HW234677   0.456   2.909   8.096  1.8903  0.5996  1.0397
 7682SOL     OW34678   2.613   1.409   8.648  0.1656  0.0957  0.0051
 7682SOL    HW134679   2.694   1.380   8.689  1.3511  2.3663 -0.7915
 7682SOL    HW234680   2.606   1.371   8.561  0.9731  0.8009 -0.3604
 7683SOL     OW34681   3.734   3.101  11.675  0.2879  0.2870  0.1154
 7683SOL    HW134682   3.662   3.142  11.724  0.1798 -0.8945  0.9536
 7683SOL    HW234683   3.684   3.032  11.633  0.1430 -0.3700  1.3534
 7684SOL     OW34684   4.323   2.231   8.445  0.0462  0.2309  0.3069
 7684SOL    HW134685   4.299   2.319   8.417 -1.4392 -0.2370  0.1440
 7684SOL    HW234686   4.389   2.241   8.514  0.7394 -2.4073  0.0545
 7685SOL     OW34687   0.482   3.219   6.363 -0.0499 -0.1208 -0.3163
 7685SOL    HW134688   0.460   3.140   6.315  1.2661 -1.5592  1.4618
 7685SOL    HW234689   0.422   3.281   6.320 -0.7678  0.6515  1.7405
 7686SOL     OW34690   1.094   2.705  11.294  0.1313  0.0940 -0.0119
 7686SOL    HW134691   1.141   2.778  11.252  2.5806 -2.4740 -1.7393
 7686SOL    HW234692   1.003   2.728  11.276 -0.0446 -0.5378  0.0848
 7687SOL     OW34693   1.194   1.373   4.607 -0.1294 -0.0685 -0.3911
 7687SOL    HW134694   1.253   1.443   4.636 -1.0611  0.1300  1.0179
 7687SOL    HW234695   1.124   1.375   4.673 -0.4346 -1.6565 -0.6665
 7688SOL     OW34696   1.761   4.116   2.589  0.1020 -0.6526 -0.0874
 7688SOL    HW134697   1.855   4.130   2.599 -0.4562  1.7335  2.0351
 7688SOL    HW234698   1.748   4.058   2.665 -1.1635  1.9525  1.7079
 7689SOL     OW34699   0.337   2.839   7.798  0.4056 -0.8500 -0.1867
 7689SOL    HW134700   0.377   2.881   7.721  2.4452  1.8751  2.3524
 7689SOL    HW234701   0.263   2.797   7.753  0.5878 -1.7584  0.3634
 7690SOL     OW34702   3.123   3.272   0.379  0.4840 -0.0572  0.0482
 7690SOL    HW134703   3.063   3.335   0.341 -2.0954 -2.7482 -0.3821
 7690SOL    HW234704   3.088   3.192   0.339 -1.7918  1.2474 -0.5186
 7691SOL     OW34705   0.096   4.053   1.536  0.7127  0.4377 -0.3002
 7691SOL    HW134706   0.122   4.112   1.607 -0.8217  3.0654 -1.9314
 7691SOL    HW234707   0.147   4.096   1.467  0.3910  0.7601 -0.3367
 7692SOL     OW34708   4.338   4.513   3.482 -0.4892  0.0684  0.1531
 7692SOL    HW134709   4.257   4.564   3.471 -0.0595  0.1588 -2.6827
 7692SOL    HW234710   4.320   4.469   3.565 -0.4408  1.8597  1.1322
 7693SOL     OW34711   1.839   2.259  16.439 -0.2103 -0.0921 -0.7463
 7693SOL    HW134712   1.743   2.255  16.436 -0.3454  2.7563 -0.0045
 7693SOL    HW234713   1.848   2.353  16.423 -0.1140  0.1188  0.5412
 7694SOL     OW34714   2.129   2.389   6.471  0.2018 -0.1428 -0.2972
 7694SOL    HW134715   2.204   2.339   6.439  1.1036 -0.2728  2.0194
 7694SOL    HW234716   2.078   2.321   6.516  2.2595 -2.1363 -0.9698
 7695SOL     OW34717   1.165   0.513  11.572 -0.4713  0.4687 -0.3218
 7695SOL    HW134718   1.227   0.486  11.504  0.6573  2.8208 -0.2312
 7695SOL    HW234719   1.104   0.569  11.524 -1.2187  2.6274  3.0659
 7696SOL     OW34720   4.391   2.122  16.637 -0.2187  0.5166  0.1610
 7696SOL    HW134721   4.348   2.161  16.713  1.2091  1.1202  0.6454
 7696SOL    HW234722   4.426   2.200  16.594 -1.2953  0.1198 -1.4262
 7697SOL     OW34723   2.476   0.697  17.072  0.0036 -0.7408 -0.1100
 7697SOL    HW134724   2.436   0.756  17.008  1.6122  1.4498  0.8972
 7697SOL    HW234725   2.478   0.624  17.010  0.1303  0.0445 -1.0238
 7698SOL     OW34726   3.215   2.392  13.166  0.9493 -0.0492  0.4558
 7698SOL    HW134727   3.192   2.479  13.201 -0.0668 -0.2424  0.2694
 7698SOL    HW234728   3.144   2.385  13.102  0.7140 -0.4301  0.7637
 7699SOL     OW34729   1.961   2.525  16.407  0.5504 -0.2367  0.1905
 7699SOL    HW134730   1.912   2.539  16.326  1.5102  1.1908 -0.1417
 7699SOL    HW234731   1.963   2.611  16.449  0.0214  0.2949 -0.8816
 7700SOL     OW34732   3.725   1.645   2.600 -0.3421  0.2954  0.2666
 7700SOL    HW134733   3.678   1.563   2.583 -1.2707  0.5497  1.5745
 7700SOL    HW234734   3.770   1.620   2.681 -2.0553 -0.9055  0.8638
 7701SOL     OW34735   2.251   4.633  12.133 -0.2725  0.1195 -0.2439
 7701SOL    HW134736   2.332   4.598  12.096  1.3653  1.3456  2.1484
 7701SOL    HW234737   2.195   4.558  12.116 -0.2545  0.7534 -3.1585
 7702SOL     OW34738   2.287   1.230   3.456  0.5368 -0.1709  0.2057
 7702SOL    HW134739   2.238   1.300   3.500  1.9433  0.5436  0.6535
 7702SOL    HW234740   2.241   1.220   3.372  2.7523 -1.3726 -0.8576
 7703SOL     OW34741   1.051   1.362   8.140 -0.1279 -0.3713 -0.2081
 7703SOL    HW134742   1.037   1.388   8.230 -0.1054  0.7712 -0.5414
 7703SOL    HW234743   0.971   1.312   8.124  0.3647 -1.5084  0.9430
 7704SOL     OW34744   4.064   1.889   5.406  0.5909 -0.4998 -0.2814
 7704SOL    HW134745   4.085   1.946   5.480 -2.4700 -1.3361  1.2453
 7704SOL    HW234746   4.045   1.805   5.447 -1.1122 -0.5633 -1.2146
 7705SOL     OW34747   3.965   0.672   9.405  0.1253 -0.3451  0.2374
 7705SOL    HW134748   4.029   0.695   9.473 -0.6307  2.1746  0.1070
 7705SOL    HW234749   3.882   0.662   9.452  0.3136  0.9037  0.8328
 7706SOL     OW34750   0.920   3.584   0.582  0.1795 -0.1491  0.1734
 7706SOL    HW134751   0.888   3.603   0.494 -0.9625  1.1516  0.8551
 7706SOL    HW234752   0.874   3.505   0.611  1.0483  0.7085  3.9528
 7707SOL     OW34753   0.330   0.542   6.750 -0.0297  0.8148  0.4340
 7707SOL    HW134754   0.283   0.624   6.767 -2.7653 -0.2836 -1.8658
 7707SOL    HW234755   0.389   0.537   6.825 -1.1287 -1.7585  1.1052
 7708SOL     OW34756   2.748   4.672  11.679  0.3438 -0.0803 -0.1956
 7708SOL    HW134757   2.659   4.637  11.668 -0.1290  1.0041  0.1236
 7708SOL    HW234758   2.741   0.022  11.638 -0.7537 -0.2288 -0.3364
 7709SOL     OW34759   4.207   4.688  14.270 -0.2320  0.6502 -0.6930
 7709SOL    HW134760   4.249   4.714  14.352  1.6488  1.1493 -1.8225
 7709SOL    HW234761   4.227   0.033  14.222  2.2174  0.7872  0.5249
 7710SOL     OW34762   4.141   2.557   6.011  0.2352 -0.5700  0.2996
 7710SOL    HW134763   4.121   2.477   5.962 -0.5134 -0.3543  0.2534
 7710SOL    HW234764   4.076   2.533   6.077  0.9240 -2.0836  0.4357
 7711SOL     OW34765   3.369   4.604  14.081 -0.2563 -0.6237  0.0908
 7711SOL    HW134766   3.291   4.616  14.026 -1.3446  0.6925  1.9346
 7711SOL    HW234767   3.431   4.601  14.008 -0.0917 -2.2144  0.2962
 7712SOL     OW34768   2.619   4.006   8.757  0.6139  0.0301 -0.0452
 7712SOL    HW134769   2.667   3.926   8.734  1.1712  0.0194  1.1293
 7712SOL    HW234770   2.546   4.000   8.695  0.6803  0.1478 -0.1338
 7713SOL     OW34771   1.566   2.571   7.833  0.6608 -0.1659 -0.9527
 7713SOL    HW134772   1.527   2.485   7.813 -0.2460 -0.3799  1.7742
 7713SOL    HW234773   1.640   2.544   7.887  2.4927  0.1937 -3.2480
 7714SOL     OW34774   4.383   3.642   7.655 -0.0451  0.4719  0.2368
 7714SOL    HW134775   4.425   3.596   7.582  2.0192  2.3527  0.2307
 7714SOL    HW234776   4.455   3.694   7.691  1.4110 -2.4453  1.5626
 7715SOL     OW34777   1.008   0.081   7.267  0.1270  0.0561 -0.0068
 7715SOL    HW134778   1.020   0.051   7.357  3.5603  1.7688  0.1063
 7715SOL    HW234779   1.093   0.065   7.224  0.2709  1.4601 -0.2542
 7716SOL     OW34780   4.211   3.941   1.963  0.0166 -0.3377 -0.0341
 7716SOL    HW134781   4.197   4.029   1.930  0.0283 -0.5553 -0.6255
 7716SOL    HW234782   4.285   3.910   1.911  0.0287  0.2227 -0.3451
 7717SOL     OW34783   0.625   4.471   1.239  0.5953 -0.1978  0.3155
 7717SOL    HW134784   0.677   4.392   1.225  0.3961 -0.1915 -0.4691
 7717SOL    HW234785   0.557   4.476   1.171  0.9743 -1.9483 -0.2089
 7718SOL     OW34786   2.165   4.237   1.565 -0.3050  0.0296  0.7893
 7718SOL    HW134787   2.253   4.270   1.584  0.1894 -0.8125 -0.0020
 7718SOL    HW234788   2.111   4.315   1.565 -0.3151  0.0245  1.2232
 7719SOL     OW34789   0.562   3.654   4.975  0.3902 -0.9936  0.0930
 7719SOL    HW134790   0.561   3.561   4.953 -3.3054 -0.8989 -0.2605
 7719SOL    HW234791   0.650   3.679   4.949 -0.2357  0.3977 -0.7161
 7720SOL     OW34792   3.361   1.267   7.310  0.0330  0.2598 -0.6904
 7720SOL    HW134793   3.429   1.325   7.344  0.7536  0.6932 -2.8848
 7720SOL    HW234794   3.403   1.215   7.241  0.8242  1.1244 -0.8597
 7721SOL     OW34795   0.378   3.021   6.229  0.2852 -0.0188  0.4985
 7721SOL    HW134796   0.330   2.999   6.149  1.4579 -0.5300 -0.0704
 7721SOL    HW234797   0.361   2.943   6.281  2.3151 -0.4632  0.5071
 7722SOL     OW34798   2.847   4.268  15.992  1.0124 -0.5942 -0.2553
 7722SOL    HW134799   2.767   4.288  15.944  0.3207 -1.1452  0.6813
 7722SOL    HW234800   2.916   4.312  15.942 -0.4009  0.8900 -0.8997
 7723SOL     OW34801   4.131   4.508   6.941 -0.4475 -0.3649 -0.5133
 7723SOL    HW134802   4.128   4.543   7.030  3.0756  0.4910 -0.7497
 7723SOL    HW234803   4.182   4.574   6.895  0.5352 -0.6004  0.2399
 7724SOL     OW34804   1.190   4.342   7.616 -0.1284 -0.6281 -0.1148
 7724SOL    HW134805   1.217   4.403   7.547  1.5436 -0.4478  0.6993
 7724SOL    HW234806   1.105   4.386   7.621 -0.1869 -0.6676 -0.7712
 7725SOL     OW34807   4.108   3.820   6.408 -0.3738  0.3848 -0.4918
 7725SOL    HW134808   4.196   3.853   6.426 -0.4761  0.0029  0.7306
 7725SOL    HW234809   4.059   3.897   6.435 -1.0229  0.0645 -0.7607
 7726SOL     OW34810   0.184   2.188   7.936  0.4896 -0.2282  0.1958
 7726SOL    HW134811   0.225   2.156   8.016 -0.6108 -2.2486 -0.0704
 7726SOL    HW234812   0.230   2.272   7.933  0.1553 -0.1074 -1.4597
 7727SOL     OW34813   4.399   1.618   7.706 -0.0187 -0.2446  0.0833
 7727SOL    HW134814   4.402   1.522   7.709  1.2259 -0.2347 -0.9725
 7727SOL    HW234815   4.312   1.633   7.744  1.1376  1.4102  2.0380
 7728SOL     OW34816   1.208   1.000   6.516  0.3585 -0.2523  0.1218
 7728SOL    HW134817   1.266   1.023   6.443 -0.6133  1.3551 -0.1372
 7728SOL    HW234818   1.251   1.047   6.587 -0.4537  1.1163 -0.3005
 7729SOL     OW34819   0.050   0.424   0.784  0.3967 -0.3559  0.3016
 7729SOL    HW134820   4.736   0.442   0.863  0.1530  1.9932 -0.4109
 7729SOL    HW234821   0.111   0.366   0.830 -0.5733 -0.8898  0.9101
 7730SOL     OW34822   2.415   2.657   6.947  0.1497 -0.3423 -0.0722
 7730SOL    HW134823   2.455   2.571   6.932  0.8552  0.3930 -2.4426
 7730SOL    HW234824   2.346   2.642   7.011 -0.7200 -0.7130 -1.0999
 7731SOL     OW34825   3.639   3.975   8.605 -0.1453 -0.2731  0.1365
 7731SOL    HW134826   3.559   3.982   8.657 -0.8199  0.1678 -0.9820
 7731SOL    HW234827   3.651   3.880   8.605 -0.7063 -0.3406 -0.5798
 7732SOL     OW34828   0.096   4.401   9.991 -0.9921  0.8271 -0.1767
 7732SOL    HW134829   0.068   4.471  10.050  0.7871 -0.0179  1.6775
 7732SOL    HW234830   0.013   4.361   9.963  0.8122 -1.6922 -1.9782
 7733SOL     OW34831   2.146   0.578   3.304  0.0291  0.5549  0.6289
 7733SOL    HW134832   2.145   0.484   3.288  0.1203  0.6346  0.1540
 7733SOL    HW234833   2.228   0.590   3.352 -0.2222  1.3045  0.8780
 7734SOL     OW34834   0.458   2.401   3.620 -0.0985  0.1314  0.5876
 7734SOL    HW134835   0.485   2.450   3.543 -0.6227 -1.8301 -0.8580
 7734SOL    HW234836   0.518   2.326   3.622 -0.3930 -0.1246 -0.1344
 7735SOL     OW34837   0.959   0.909  12.039 -0.5780  0.2468 -0.1749
 7735SOL    HW134838   0.992   0.839  11.982  0.3529  0.2454  0.3562
 7735SOL    HW234839   0.865   0.901  12.024 -0.3188  2.3368 -2.8352
 7736SOL     OW34840   0.274   1.983   6.326  0.0911  0.5980 -0.2019
 7736SOL    HW134841   0.206   2.022   6.271 -1.6957 -0.1735  1.4575
 7736SOL    HW234842   0.227   1.947   6.401  0.5833 -0.6558 -0.4947
 7737SOL     OW34843   2.092   2.706   7.364 -0.1173  0.2133  0.4276
 7737SOL    HW134844   2.085   2.687   7.458 -1.7486 -0.2768  0.2211
 7737SOL    HW234845   2.002   2.698   7.330  0.8743 -0.3178 -2.0416
 7738SOL     OW34846   0.436   4.065   6.801 -0.1086  0.5569  0.0268
 7738SOL    HW134847   0.383   3.985   6.798 -0.8166  0.9929  1.3535
 7738SOL    HW234848   0.520   4.031   6.769 -0.0958  0.4949  0.1264
 7739SOL     OW34849   0.644   1.361   6.985  0.0140 -0.6239  0.1163
 7739SOL    HW134850   0.724   1.387   6.939  0.4687  0.5308  1.5647
 7739SOL    HW234851   0.575   1.361   6.919 -0.7957 -0.6893  0.9697
 7740SOL     OW34852   2.469   3.216  14.034  0.1628 -0.2945  0.0947
 7740SOL    HW134853   2.399   3.234  14.096 -1.3236  1.0389 -2.0079
 7740SOL    HW234854   2.536   3.273  14.072 -1.2916  1.5510 -0.1319
 7741SOL     OW34855   1.843   4.330   7.936  0.4058  0.4282  0.6591
 7741SOL    HW134856   1.769   4.353   7.880  1.2945 -0.0977 -0.7417
 7741SOL    HW234857   1.791   4.291   8.007 -0.1106  1.8909  1.0832
 7742SOL     OW34858   3.468   3.587   1.839 -0.0376 -0.4560  1.0643
 7742SOL    HW134859   3.539   3.543   1.886  0.8777  0.4039  0.4958
 7742SOL    HW234860   3.468   3.551   1.750 -0.8880 -3.1316  2.1569
 7743SOL     OW34861   4.689   0.664   2.900 -0.2375  0.3042 -0.6785
 7743SOL    HW134862   0.012   0.643   2.828  0.3305 -0.7433  0.0911
 7743SOL    HW234863   4.704   0.755   2.926  0.2170  0.2984 -0.9222
 7744SOL     OW34864   2.315   0.281   0.887  0.5525 -0.2775 -0.0010
 7744SOL    HW134865   2.362   0.288   0.804  0.0508  0.5709 -0.2220
 7744SOL    HW234866   2.351   0.199   0.920  1.3677  0.7957  1.8071
 7745SOL     OW34867   3.918   2.520   5.374  0.2728  0.0536 -0.2375
 7745SOL    HW134868   3.931   2.546   5.465  1.4708  0.8921 -0.6350
 7745SOL    HW234869   3.857   2.448   5.384  0.8530 -0.7242 -2.1978
 7746SOL     OW34870   1.725   3.213  10.219  0.1860  0.9388 -0.7401
 7746SOL    HW134871   1.732   3.128  10.263  0.2721  1.2789 -0.1022
 7746SOL    HW234872   1.659   3.239  10.283  0.6424  0.9602 -0.2752
 7747SOL     OW34873   4.290   2.239  16.869  0.5139  0.3238  0.3818
 7747SOL    HW134874   4.347   2.245  16.945  1.5564 -0.0797 -0.3693
 7747SOL    HW234875   4.220   2.180  16.898  1.4281 -0.1392  1.6142
 7748SOL     OW34876   0.116   0.988  10.830 -0.2948  0.3213 -0.7065
 7748SOL    HW134877   0.104   0.907  10.780 -0.9368  0.3600 -0.6089
 7748SOL    HW234878   0.129   1.056  10.763  0.5286  0.5732 -0.2905
 7749SOL     OW34879   2.606   2.320   4.585  0.4996 -0.0022 -0.1400
 7749SOL    HW134880   2.655   2.337   4.665  1.2465 -0.9398 -0.3998
 7749SOL    HW234881   2.673   2.350   4.523  1.1966 -1.6928 -0.2141
 7750SOL     OW34882   0.266   2.480   3.805 -1.0503  0.1543  0.4163
 7750SOL    HW134883   0.326   2.474   3.731  1.7266 -0.9020  2.7522
 7750SOL    HW234884   0.260   2.386   3.823 -2.0754  0.4595  1.6865
 7751SOL     OW34885   3.237   4.333  15.133 -0.9821 -0.2618 -0.3519
 7751SOL    HW134886   3.277   4.414  15.163  0.8408 -2.8536  4.2935
 7751SOL    HW234887   3.149   4.336  15.172 -0.9061 -1.6836 -0.0496
 7752SOL     OW34888   4.123   1.926   3.784 -0.0794 -0.2035 -0.1107
 7752SOL    HW134889   4.209   1.898   3.816 -0.6936 -1.6786  0.2378
 7752SOL    HW234890   4.073   1.937   3.865  3.6579  2.3678  1.9019
 7753SOL     OW34891   1.446   3.632   7.694 -0.2160  0.6978  0.2174
 7753SOL    HW134892   1.499   3.708   7.669 -0.1226  0.7743  0.6535
 7753SOL    HW234893   1.429   3.591   7.609 -0.5578 -0.1096  0.6742
 7754SOL     OW34894   4.374   1.585   2.756 -0.5950 -0.4413  0.2060
 7754SOL    HW134895   4.349   1.677   2.759 -0.6113 -0.4159 -0.7605
 7754SOL    HW234896   4.464   1.578   2.789 -0.0960 -1.0754 -1.2929
 7755SOL     OW34897   0.581   2.611  11.895  0.4079  0.3808 -0.0414
 7755SOL    HW134898   0.601   2.700  11.926 -0.2282  0.5947 -0.2550
 7755SOL    HW234899   0.668   2.580  11.870 -0.0721  0.0438 -1.2460
 7756SOL     OW34900   4.442   0.640   9.098 -0.4819 -0.2741 -0.0684
 7756SOL    HW134901   4.491   0.587   9.035 -0.6198 -0.3129 -0.1439
 7756SOL    HW234902   4.482   0.625   9.183  0.2794 -0.9889 -0.5553
 7757SOL     OW34903   3.379   2.167   0.929  0.6163  0.5700 -0.0145
 7757SOL    HW134904   3.293   2.205   0.912  0.4506  0.8794  1.5000
 7757SOL    HW234905   3.443   2.237   0.948 -0.3803  0.7297  2.7170
 7758SOL     OW34906   4.184   0.044  12.043 -0.0270 -0.1089 -0.3554
 7758SOL    HW134907   4.193   0.037  12.138 -1.0207 -0.0136 -0.2551
 7758SOL    HW234908   4.263   0.097  12.031  1.2862 -1.7906  0.7462
 7759SOL     OW34909   4.016   0.983   5.482 -0.0834  0.0216  0.2761
 7759SOL    HW134910   3.967   1.018   5.407  1.0829 -0.4261 -0.6849
 7759SOL    HW234911   4.105   1.008   5.459  0.5750 -2.3381  0.2794
 7760SOL     OW34912   3.865   2.581  14.839  0.3890 -0.0903  0.1573
 7760SOL    HW134913   3.869   2.650  14.906  1.1812  1.1530 -1.1563
 7760SOL    HW234914   3.948   2.535  14.841  0.4933 -0.0589 -3.1972
 7761SOL     OW34915   3.735   1.004   5.887  0.2268  0.1403  0.3827
 7761SOL    HW134916   3.756   0.939   5.953 -2.2482 -3.3129 -2.2461
 7761SOL    HW234917   3.822   1.034   5.862  0.5169 -1.1827 -0.1845
 7762SOL     OW34918   4.599   0.461   8.956  0.4167  0.0490  0.5224
 7762SOL    HW134919   4.586   0.496   8.868 -0.4529  0.1740  0.6942
 7762SOL    HW234920   4.672   0.400   8.947 -1.6023 -1.9154 -2.4336
 7763SOL     OW34921   2.136   3.498  11.042  0.0279 -0.7221  0.1516
 7763SOL    HW134922   2.196   3.526  10.973  0.1245  1.6611  1.1802
 7763SOL    HW234923   2.052   3.489  10.996  0.5477  0.6501 -1.0923
 7764SOL     OW34924   0.728   0.817  11.889  0.2843  0.3930 -0.7346
 7764SOL    HW134925   0.787   0.806  11.815 -1.0200 -4.0917 -1.1272
 7764SOL    HW234926   0.651   0.768  11.858 -0.7702  2.8733 -1.9957
 7765SOL     OW34927   3.598   1.442   8.413  0.2191 -0.3816 -0.0254
 7765SOL    HW134928   3.567   1.488   8.335  1.1401 -0.4804 -0.4555
 7765SOL    HW234929   3.662   1.503   8.448  2.0417 -1.9382 -0.6098
 7766SOL     OW34930   4.696   1.484  12.662  0.0620 -0.6842 -0.3941
 7766SOL    HW134931   4.730   1.488  12.751 -2.1045 -1.1415  0.4444
 7766SOL    HW234932   4.611   1.516  12.690  1.2266 -0.8523  3.3498
 7767SOL     OW34933   4.071   0.789  15.944 -0.2772  0.2035  0.0235
 7767SOL    HW134934   3.976   0.797  15.939 -0.3957  0.0925  1.9435
 7767SOL    HW234935   4.087   0.837  16.026 -0.8997 -0.3972  0.4925
 7768SOL     OW34936   3.960   2.850   4.095 -0.0210 -0.5533  0.0575
 7768SOL    HW134937   3.864   2.846   4.092 -0.0450 -1.9605  2.8217
 7768SOL    HW234938   3.984   2.761   4.121 -1.5627 -1.0648 -0.2425
 7769SOL     OW34939   3.420   1.287   8.543 -0.7815 -0.3078  0.1037
 7769SOL    HW134940   3.392   1.213   8.490  3.0674 -0.9810 -0.9874
 7769SOL    HW234941   3.494   1.317   8.489 -0.8355 -2.3881 -1.1283
 7770SOL     OW34942   2.203   1.276   6.130 -0.3555  0.0082  0.0159
 7770SOL    HW134943   2.120   1.322   6.129  0.0193  0.7014  0.7969
 7770SOL    HW234944   2.188   1.195   6.082 -2.9590  0.7586 -0.3995
 7771SOL     OW34945   1.968   4.402   1.414 -0.5314  0.1627  0.3953
 7771SOL    HW134946   1.911   4.400   1.337  1.9098  1.0773 -1.4438
 7771SOL    HW234947   1.914   4.455   1.473 -3.3361 -2.2190 -0.0512
 7772SOL     OW34948   0.588   0.827   2.231  0.0855  0.0646 -0.0745
 7772SOL    HW134949   0.521   0.777   2.277 -0.7359  2.0691  0.9116
 7772SOL    HW234950   0.642   0.862   2.302  2.0118 -0.8991 -1.0488
 7773SOL     OW34951   2.987   4.393  10.191  0.0716  0.1150  0.1756
 7773SOL    HW134952   3.029   4.337  10.125  0.7703 -1.3658  1.8833
 7773SOL    HW234953   2.900   4.412  10.155 -0.8086 -1.3285  1.5354
 7774SOL     OW34954   3.985   2.832   6.671  0.4981  0.0703  0.3695
 7774SOL    HW134955   4.013   2.854   6.760  0.1474  0.4518  0.3811
 7774SOL    HW234956   3.971   2.918   6.631  1.3964  1.0311  2.1396
 7775SOL     OW34957   0.205   1.219   4.732 -0.0614  0.0922 -1.0473
 7775SOL    HW134958   0.228   1.222   4.825  1.2579  1.3400 -1.4064
 7775SOL    HW234959   0.222   1.313   4.719 -1.1818  0.4053 -0.2158
 7776SOL     OW34960   0.980   0.165   7.811 -0.0811  0.4282  0.2356
 7776SOL    HW134961   1.036   0.233   7.848  0.4005 -0.3647  0.9911
 7776SOL    HW234962   0.946   0.125   7.891 -1.1905  0.4940 -0.2125
 7777SOL     OW34963   2.491   1.983   8.636  0.0663 -0.3024 -0.1983
 7777SOL    HW134964   2.439   1.969   8.715 -0.7439  0.6621 -0.5567
 7777SOL    HW234965   2.523   1.894   8.624  2.1473  0.6384 -1.6506
 7778SOL     OW34966   3.292   1.366   0.123 -0.3533  0.2861  0.2045
 7778SOL    HW134967   3.247   1.433   0.071 -0.6907 -0.2682 -0.2271
 7778SOL    HW234968   3.286   1.401   0.211 -1.6323  1.0344 -0.1875
 7779SOL     OW34969   0.553   2.767  16.455 -0.0559 -0.2532  0.0691
 7779SOL    HW134970   0.553   2.689  16.399  2.5497 -0.7949  0.8459
 7779SOL    HW234971   0.466   2.786  16.420  0.2737  1.4464  0.1497
 7780SOL     OW34972   1.212   2.826   6.367  0.4532 -0.8649 -0.0040
 7780SOL    HW134973   1.267   2.893   6.327  0.3647 -1.0183 -0.3839
 7780SOL    HW234974   1.131   2.876   6.379  0.9989  0.1832 -0.6312
 7781SOL     OW34975   3.314   3.896   5.528  0.1936 -0.5252  0.2879
 7781SOL    HW134976   3.345   3.982   5.500 -1.9557  0.0461 -0.3851
 7781SOL    HW234977   3.278   3.916   5.614 -0.0373 -1.0708  0.3158
 7782SOL     OW34978   4.554   1.747   1.118 -0.2332  0.0973  0.0138
 7782SOL    HW134979   4.498   1.687   1.168  0.9226  0.5170  1.7773
 7782SOL    HW234980   4.634   1.750   1.170 -0.9512 -2.7585  1.2931
 7783SOL     OW34981   0.041   0.014   9.534  0.4636  0.2146  0.4822
 7783SOL    HW134982   0.094   0.043   9.460  3.0067  0.4086  2.3668
 7783SOL    HW234983   0.113   4.716   9.587 -0.6176 -2.2551  0.3383
 7784SOL     OW34984   2.571   2.225   7.553  0.0574  0.5457  0.6285
 7784SOL    HW134985   2.507   2.156   7.537 -1.7302  2.2709  0.4781
 7784SOL    HW234986   2.618   2.173   7.619  1.7431  1.0901 -0.1402
 7785SOL     OW34987   0.284   0.664  11.530  0.2049 -0.4401  0.9949
 7785SOL    HW134988   0.378   0.671  11.546  0.3303 -2.0119  0.9550
 7785SOL    HW234989   0.273   0.570  11.544 -0.8738 -0.6091 -1.0222
 7786SOL     OW34990   4.260   2.546  15.330 -0.4708  0.1627  0.2993
 7786SOL    HW134991   4.319   2.612  15.367  1.8637 -1.7103 -0.0252
 7786SOL    HW234992   4.195   2.536  15.400 -0.3316 -1.4022  0.2186
 7787SOL     OW34993   2.095   2.608   2.361 -0.2465  0.7188 -0.3499
 7787SOL    HW134994   2.158   2.625   2.430 -0.3683 -1.7346  0.3674
 7787SOL    HW234995   2.154   2.602   2.286 -1.4159 -2.7675 -0.9736
 7788SOL     OW34996   2.633   1.995   5.071 -0.4091 -0.6006 -0.3124
 7788SOL    HW134997   2.693   1.930   5.107  0.6770  0.4501 -0.1732
 7788SOL    HW234998   2.655   1.988   4.978  2.6629  1.5107  0.2370
 7789SOL     OW34999   3.106   1.050   2.327  0.2323  0.3365 -0.3078
 7789SOL    HW135000   3.012   1.043   2.343  0.2301 -1.3557 -1.1098
 7789SOL    HW235001   3.136   1.083   2.412  0.3823  2.4122 -1.1705
 7790SOL     OW35002   1.726   0.944   3.659 -0.2447 -0.4434 -0.2903
 7790SOL    HW135003   1.732   0.995   3.578 -1.2209 -2.4326 -1.6139
 7790SOL    HW235004   1.817   0.916   3.658 -0.6432 -1.6528 -1.9519
 7791SOL     OW35005   4.074   1.396   9.327 -0.2962 -0.0356  0.0163
 7791SOL    HW135006   4.083   1.380   9.233  0.2465 -1.1445  0.2709
 7791SOL    HW235007   4.132   1.324   9.350  2.2251  2.3797  1.2485
 7792SOL     OW35008   0.044   0.928   5.212 -0.7318 -0.5174  0.4145
 7792SOL    HW135009   4.703   0.933   5.156  0.7351  1.5440 -1.4026
 7792SOL    HW235010   0.063   0.836   5.195  3.8616  0.4017  0.4790
 7793SOL     OW35011   0.232   3.277   2.499  0.7577 -0.3886 -0.4033
 7793SOL    HW135012   0.236   3.365   2.462  1.0425 -0.5241 -0.6957
 7793SOL    HW235013   0.319   3.246   2.474  0.8769  0.5028 -1.0843
 7794SOL     OW35014   0.340   1.086   3.525  0.4969  0.8718  0.6825
 7794SOL    HW135015   0.244   1.088   3.525  0.4737  0.1405 -1.6319
 7794SOL    HW235016   0.354   1.139   3.447  0.5225  0.6365  0.5265
 7795SOL     OW35017   0.862   1.060   6.736  0.2387  0.3330  0.3149
 7795SOL    HW135018   0.956   1.079   6.740  0.2577  0.9007 -2.4155
 7795SOL    HW235019   0.827   1.121   6.671  2.5137 -0.7101 -1.9094
 7796SOL     OW35020   0.101   3.958   2.491 -0.2391  0.0214  0.4168
 7796SOL    HW135021   0.039   3.894   2.527 -0.4213  0.9721  1.7888
 7796SOL    HW235022   0.178   3.909   2.463 -0.7038 -1.7970  2.3340
 7797SOL     OW35023   4.675   2.582   3.002  0.2145  0.1343 -0.0155
 7797SOL    HW135024   4.728   2.506   3.027  0.4813  0.5002  0.5490
 7797SOL    HW235025   4.609   2.545   2.944  0.7230  0.2857 -0.6930
 7798SOL     OW35026   1.138   2.853   7.178  0.5828  0.2871 -0.1608
 7798SOL    HW135027   1.229   2.827   7.196 -0.0439 -0.6219  1.6893
 7798SOL    HW235028   1.145   2.861   7.083  0.4345 -0.8760 -0.2636
 7799SOL     OW35029   4.517   2.833   7.778 -0.2146  0.0962 -0.0131
 7799SOL    HW135030   4.609   2.835   7.801 -0.0145  0.1583 -0.8184
 7799SOL    HW235031   4.480   2.894   7.842  1.2840  0.2627  0.6860
 7800SOL     OW35032   3.252   2.646   1.491  0.3327  0.6071 -0.2210
 7800SOL    HW135033   3.251   2.561   1.448  0.0429  1.5410 -2.0512
 7800SOL    HW235034   3.179   2.644   1.554  1.0454  0.7611  0.6118
 7801SOL     OW35035   2.239   0.636   4.111  0.9874 -0.1167  0.7176
 7801SOL    HW135036   2.316   0.680   4.148  1.1825 -0.8418  1.1708
 7801SOL    HW235037   2.163   0.677   4.152  0.6935  1.6062 -1.5394
 7802SOL     OW35038   2.564   3.097   7.244  0.2912  0.0940  0.4339
 7802SOL    HW135039   2.521   3.012   7.230  0.4762 -0.3696  2.6053
 7802SOL    HW235040   2.494   3.160   7.258 -0.4778 -0.6351 -0.1471
 7803SOL     OW35041   0.461   3.088   3.414 -0.3413 -0.1491 -0.3839
 7803SOL    HW135042   0.547   3.045   3.415 -0.1983  0.1428  0.8595
 7803SOL    HW235043   0.426   3.062   3.499 -2.6636 -1.6758 -1.8337
 7804SOL     OW35044   0.571   4.589  16.185 -0.1546  0.7049 -0.3324
 7804SOL    HW135045   0.558   4.592  16.279  1.2997  2.6822 -0.1927
 7804SOL    HW235046   0.514   4.657  16.147  2.4854  2.8452 -0.4937
 7805SOL     OW35047   0.283   4.023   9.306 -0.1986 -0.4898  0.0027
 7805SOL    HW135048   0.255   4.089   9.370 -0.3044 -1.4170  0.9131
 7805SOL    HW235049   0.350   3.980   9.359  0.1105 -2.3137 -1.8725
 7806SOL     OW35050   1.251   1.088   5.203 -0.1493 -0.1015  0.1505
 7806SOL    HW135051   1.255   1.141   5.283  1.0243 -0.8560  0.5975
 7806SOL    HW235052   1.176   1.131   5.163 -1.3831 -2.6350 -0.2621
 7807SOL     OW35053   2.043   1.191   1.557 -0.4162  0.7794 -0.0224
 7807SOL    HW135054   2.077   1.197   1.468 -0.8797  0.8757 -0.1934
 7807SOL    HW235055   1.989   1.270   1.558  0.3804  1.3014  0.8203
 7808SOL     OW35056   0.002   3.424   3.603  0.0068 -0.2144 -0.5976
 7808SOL    HW135057   4.665   3.366   3.582 -0.3720 -0.1719  0.5979
 7808SOL    HW235058   4.689   3.503   3.629  3.0726  1.1240  1.0213
 7809SOL     OW35059   2.484   0.425  17.551 -0.3386 -0.3970  0.5235
 7809SOL    HW135060   2.476   0.437  17.457 -1.2780  1.0981  0.7986
 7809SOL    HW235061   2.505   0.511  17.587  2.9814  0.0403 -2.5430
 7810SOL     OW35062   3.087   1.040   4.829 -0.4109  0.2831  0.3242
 7810SOL    HW135063   3.007   1.043   4.881  0.6112  1.7282  1.8184
 7810SOL    HW235064   3.067   1.086   4.747 -1.1180 -0.8681 -0.1368
 7811SOL     OW35065   2.216   0.375   7.182 -0.0285 -0.3059  0.2751
 7811SOL    HW135066   2.166   0.316   7.126 -1.3382  0.6169  0.4887
 7811SOL    HW235067   2.307   0.369   7.151  0.6887 -0.1690  2.3469
 7812SOL     OW35068   3.787   2.092  10.816  0.1758 -0.1458  0.2825
 7812SOL    HW135069   3.750   2.171  10.777 -0.3770  0.1005  1.3101
 7812SOL    HW235070   3.823   2.126  10.897 -1.3034  0.6172  0.6259
 7813SOL     OW35071   1.576   3.684   6.434 -0.5179  0.2005 -0.7645
 7813SOL    HW135072   1.482   3.698   6.420 -0.9307 -2.4977 -0.6170
 7813SOL    HW235073   1.577   3.713   6.525  3.6027 -1.3343 -0.3248
 7814SOL     OW35074   4.612   4.620   7.683 -0.1208 -0.0768  0.4017
 7814SOL    HW135075   4.569   4.631   7.767 -1.5076  2.7362 -0.6685
 7814SOL    HW235076   4.627   4.526   7.672  2.8022  0.5689 -0.9448
 7815SOL     OW35077   0.043   0.627   5.095  0.5087 -0.4563  0.0833
 7815SOL    HW135078   0.068   0.538   5.071 -3.5723 -1.7868  0.7998
 7815SOL    HW235079   4.685   0.630   5.074  0.4295  2.3164  0.8852
 7816SOL     OW35080   4.094   4.476  16.337 -0.5801  0.5537 -0.2204
 7816SOL    HW135081   4.012   4.427  16.322 -0.9700  1.2088 -0.2188
 7816SOL    HW235082   4.084   4.502  16.428  3.7444 -0.4751  0.5301
 7817SOL     OW35083   1.115   4.252   6.336  0.2199  0.0545  0.2449
 7817SOL    HW135084   1.186   4.212   6.286 -0.6707 -0.0611 -0.9333
 7817SOL    HW235085   1.037   4.213   6.296 -1.2689  2.8974  0.3610
 7818SOL     OW35086   4.644   1.404   7.254 -0.2256 -0.0329 -0.1313
 7818SOL    HW135087   4.729   1.409   7.298 -1.8026  3.2099  2.4900
 7818SOL    HW235088   4.587   1.446   7.318 -0.2116 -1.6889  0.9613
 7819SOL     OW35089   2.086   4.259  11.471  0.0294 -0.1314 -0.1538
 7819SOL    HW135090   2.043   4.271  11.555  1.7289 -1.0717  0.8410
 7819SOL    HW235091   2.010   4.284  11.418  0.1460 -1.3069 -0.8897
 7820SOL     OW35092   3.855   0.950   4.667 -0.2037  0.4485  0.2940
 7820SOL    HW135093   3.769   0.925   4.633  0.0099  1.5474 -1.0737
 7820SOL    HW235094   3.903   0.879   4.624 -1.1349 -1.1359  1.8896
 7821SOL     OW35095   0.518   1.715   4.362 -0.3126 -0.3819  0.2195
 7821SOL    HW135096   0.479   1.785   4.415 -0.1378 -0.0493 -0.0891
 7821SOL    HW235097   0.443   1.661   4.339  0.3483 -0.0513 -2.7065
 7822SOL     OW35098   0.520   2.661  13.150 -0.2811  0.7192  0.0302
 7822SOL    HW135099   0.591   2.719  13.175 -0.7726  0.1236  2.8073
 7822SOL    HW235100   0.513   2.603  13.226 -5.1289  1.7404  0.3593
 7823SOL     OW35101   1.510   1.109   9.792 -0.1984  0.2998 -0.5315
 7823SOL    HW135102   1.552   1.024   9.806  1.2026  1.2895  1.2466
 7823SOL    HW235103   1.422   1.075   9.773 -0.7720  2.6275 -1.9902
 7824SOL     OW35104   0.015   2.941  17.095  0.2030 -0.1760 -0.4978
 7824SOL    HW135105   0.007   3.029  17.057 -1.1625 -0.5139 -1.0022
 7824SOL    HW235106   0.030   2.951  17.189  0.5780  2.5230 -0.8648
 7825SOL     OW35107   0.688   0.708   7.961 -0.7459  0.4182  0.5064
 7825SOL    HW135108   0.633   0.657   8.020  0.3902  0.9930  2.0665
 7825SOL    HW235109   0.779   0.680   7.976 -0.1136  1.2085 -1.7675
 7826SOL     OW35110   2.885   4.735   8.929 -0.0719 -0.6573  0.2619
 7826SOL    HW135111   2.871   4.708   8.838  0.9431 -0.9183  0.1734
 7826SOL    HW235112   2.981   4.732   8.929 -0.1498 -3.6264  0.6890
 7827SOL     OW35113   0.773   0.465  10.967  0.6541  0.2215  0.5789
 7827SOL    HW135114   0.820   0.479  10.884 -0.2375 -0.8148 -0.0972
 7827SOL    HW235115   0.779   0.549  11.013 -0.0512  0.2866  0.5441
 7828SOL     OW35116   1.863   3.890   3.441  0.5307  0.0145  0.0655
 7828SOL    HW135117   1.869   3.960   3.375 -0.3555  0.3699  0.3674
 7828SOL    HW235118   1.769   3.872   3.448  0.9178 -2.2878 -0.6149
 7829SOL     OW35119   3.330   3.110   5.403 -0.1880 -0.4303 -0.0445
 7829SOL    HW135120   3.368   3.048   5.465 -1.3447  0.3975  1.4943
 7829SOL    HW235121   3.374   3.079   5.324  0.9829 -0.3542  0.5787
 7830SOL     OW35122   0.134   0.620  13.039  0.1921 -0.2161 -0.1877
 7830SOL    HW135123   0.044   0.647  13.024  0.6928  0.1039 -2.6962
 7830SOL    HW235124   0.123   0.537  12.992 -1.6755  0.0624 -0.2617
 7831SOL     OW35125   4.609   3.347   4.605 -0.2495  0.3697  0.3869
 7831SOL    HW135126   4.636   3.352   4.514 -0.1184 -0.5853  0.3775
 7831SOL    HW235127   4.528   3.298   4.600  0.1123  0.0603 -2.0735
 7832SOL     OW35128   3.813   3.752   5.247  0.0741 -0.3740 -0.0006
 7832SOL    HW135129   3.737   3.740   5.304 -1.9532  1.7163 -2.2371
 7832SOL    HW235130   3.887   3.735   5.305  0.4615 -1.2514 -0.7539
 7833SOL     OW35131   0.407   4.387  11.616  0.3980 -0.7410 -0.1084
 7833SOL    HW135132   0.468   4.335  11.563 -0.8946 -1.5634 -0.7973
 7833SOL    HW235133   0.345   4.322  11.651  1.0370 -2.5053 -2.2553
 7834SOL     OW35134   0.382   3.975   4.660 -0.0724  0.1124  0.0776
 7834SOL    HW135135   0.395   3.881   4.670 -0.6558  0.1867  1.5680
 7834SOL    HW235136   0.474   3.995   4.646 -0.6887  1.9076 -1.5003
 7835SOL     OW35137   0.849   3.441  16.798  0.0349  0.3708 -0.3034
 7835SOL    HW135138   0.757   3.414  16.798  0.0353  0.3628  0.4648
 7835SOL    HW235139   0.831   3.525  16.755 -0.7220  0.6083  0.4748
 7836SOL     OW35140   2.683   1.425   6.443 -0.2552 -0.0873  0.1217
 7836SOL    HW135141   2.674   1.411   6.538  1.0381 -2.2764 -0.0610
 7836SOL    HW235142   2.636   1.508   6.438  0.7915  0.5468  0.8517
 7837SOL     OW35143   1.580   3.512   7.215 -0.1271 -0.0804  0.0415
 7837SOL    HW135144   1.579   3.422   7.183  0.6515 -0.8124  2.0275
 7837SOL    HW235145   1.652   3.504   7.278  0.3438 -1.1035 -0.6217
 7838SOL     OW35146   2.440   4.288   1.335 -0.6528  0.4967 -0.2117
 7838SOL    HW135147   2.465   4.221   1.398  0.0768  1.4446  0.5033
 7838SOL    HW235148   2.496   4.273   1.259 -0.1157 -2.8101  0.8554
 7839SOL     OW35149   2.338   0.454   5.443 -0.1191  0.3570 -0.0810
 7839SOL    HW135150   2.419   0.505   5.433  0.8357 -1.0895  0.3025
 7839SOL    HW235151   2.319   0.451   5.350 -0.8179  2.0652 -0.0026
 7840SOL     OW35152   1.706   1.658   1.218  0.5564 -0.3925 -0.3342
 7840SOL    HW135153   1.616   1.662   1.187  0.6495 -2.2388 -0.8209
 7840SOL    HW235154   1.745   1.684   1.135  2.6499  1.6369  1.2580
 7841SOL     OW35155   0.906   3.173  16.646 -0.2830  0.4334  0.5694
 7841SOL    HW135156   0.944   3.259  16.630  2.5014 -1.5421 -3.2836
 7841SOL    HW235157   0.984   3.122  16.666 -0.1930  0.3824  0.0674
 7842SOL     OW35158   3.281   2.329   9.862 -0.0943 -0.0336  0.6035
 7842SOL    HW135159   3.227   2.392   9.815  0.6970 -0.9604 -1.5253
 7842SOL    HW235160   3.260   2.345   9.954 -2.3798  0.9421 -0.0978
 7843SOL     OW35161   4.260   1.792   8.216  0.3853  0.6266 -0.1517
 7843SOL    HW135162   4.343   1.836   8.234  1.5038 -1.6634  0.2946
 7843SOL    HW235163   4.283   1.725   8.151 -0.9544 -0.4677  0.4987
 7844SOL     OW35164   1.011   2.814   8.982  0.3073 -0.0125  0.0406
 7844SOL    HW135165   1.029   2.907   8.995 -0.1267  0.1352 -0.3828
 7844SOL    HW235166   1.048   2.765   9.055 -1.7986 -1.0198  0.4343
 7845SOL     OW35167   2.590   0.474   4.275  0.3339  0.8088  0.1353
 7845SOL    HW135168   2.523   0.498   4.339  0.6835  0.8955  0.4735
 7845SOL    HW235169   2.641   0.410   4.325  1.9742  1.5548 -0.5528
 7846SOL     OW35170   1.127   4.464   0.107 -0.2694  0.2748 -0.6966
 7846SOL    HW135171   1.056   4.450   0.044 -0.4363 -1.7604 -0.0856
 7846SOL    HW235172   1.144   4.555   0.086  1.5428  0.3480  1.0280
 7847SOL     OW35173   0.094   3.775   1.514  0.3993 -0.0543  0.2610
 7847SOL    HW135174   0.009   3.760   1.474 -0.0797 -0.0614  1.2615
 7847SOL    HW235175   0.104   3.868   1.530  0.3559 -0.2496  1.4328
 7848SOL     OW35176   0.054   1.933   1.406 -0.9547 -0.1445  0.0399
 7848SOL    HW135177   0.054   2.027   1.389 -2.3767 -0.1966 -0.2906
 7848SOL    HW235178   4.701   1.929   1.441 -0.9759 -3.4832 -0.3786
 7849SOL     OW35179   0.749   3.647   4.419 -0.7823 -0.5042 -0.7482
 7849SOL    HW135180   0.825   3.606   4.460 -1.4023  0.1853  1.0746
 7849SOL    HW235181   0.712   3.683   4.499  3.9412 -1.9850  2.1208
 7850SOL     OW35182   1.985   0.043  16.198  0.0344 -0.4148 -0.5427
 7850SOL    HW135183   2.026   4.705  16.244  1.5571  0.5758 -0.3107
 7850SOL    HW235184   2.052   0.110  16.181 -2.1954  0.7771 -4.7943
 7851SOL     OW35185   1.809   1.440   3.492  0.2231  0.2200 -0.0130
 7851SOL    HW135186   1.803   1.524   3.446  1.5661 -0.7527 -1.9338
 7851SOL    HW235187   1.805   1.470   3.583  0.8036 -1.0352  0.4369
 7852SOL     OW35188   4.200   0.473  17.558 -0.4667  0.3248 -0.3226
 7852SOL    HW135189   4.197   0.539  17.489 -1.4360  1.7352  1.0479
 7852SOL    HW235190   4.272   0.419  17.527 -0.8098  0.8456 -1.9933
 7853SOL     OW35191   1.172   3.838   2.915  0.4749 -0.0691 -0.3119
 7853SOL    HW135192   1.191   3.763   2.858 -0.7904  0.8089 -1.8715
 7853SOL    HW235193   1.261   3.874   2.911  0.6965 -0.8124 -2.0744
 7854SOL     OW35194   0.969   1.471   7.269  0.0418  0.2001 -0.4027
 7854SOL    HW135195   0.972   1.552   7.217  1.6220 -1.0188 -2.2022
 7854SOL    HW235196   1.015   1.410   7.210 -0.3348 -1.4955  1.0601
 7855SOL     OW35197   4.639   2.980   3.486  0.2158  0.4917  0.3393
 7855SOL    HW135198   4.634   2.900   3.538  2.1145 -0.7637 -1.3989
 7855SOL    HW235199   4.724   3.016   3.514  0.5002  1.2588 -1.4809
 7856SOL     OW35200   0.393   3.235   2.879 -0.1258  0.0967  0.0786
 7856SOL    HW135201   0.453   3.304   2.849  0.5946 -0.1974  0.8518
 7856SOL    HW235202   0.313   3.278   2.850  0.0585  0.7257  0.5069
 7857SOL     OW35203   4.117   3.922   4.485 -0.6733 -0.0262  0.3532
 7857SOL    HW135204   4.090   3.888   4.570 -0.1422 -0.1332  0.4778
 7857SOL    HW235205   4.199   3.875   4.472 -1.5736 -1.2621 -0.9497
 7858SOL     OW35206   1.569   0.339   6.622  0.5242  0.0604 -0.0419
 7858SOL    HW135207   1.498   0.306   6.566 -0.1626 -2.9902  2.5626
 7858SOL    HW235208   1.544   0.431   6.617 -0.0387 -0.0422  0.7252
 7859SOL     OW35209   1.264   0.359  11.772  0.2947 -0.4028 -0.5711
 7859SOL    HW135210   1.236   0.422  11.706 -0.3559 -0.6788 -0.5609
 7859SOL    HW235211   1.229   0.280  11.729 -1.9682  0.5242 -0.4647
 7860SOL     OW35212   2.997   2.973   3.543 -0.5599  0.2884 -0.6270
 7860SOL    HW135213   2.981   3.062   3.510  0.7801  1.0600  0.7823
 7860SOL    HW235214   3.000   2.989   3.637  1.5968  3.0266 -1.1407
 7861SOL     OW35215   1.712   2.447   2.648  0.5827  0.3672 -0.1621
 7861SOL    HW135216   1.617   2.462   2.643  0.1757 -1.2298  2.7956
 7861SOL    HW235217   1.730   2.364   2.605  1.0243 -0.5901  1.8839
 7862SOL     OW35218   3.797   0.789  15.968 -0.0101 -0.0099 -0.4367
 7862SOL    HW135219   3.707   0.802  15.938 -0.9077  1.7219  2.9323
 7862SOL    HW235220   3.783   0.763  16.059 -0.9691 -1.4015 -0.9751
 7863SOL     OW35221   3.577   1.138   6.255 -0.3588 -0.4433  0.2538
 7863SOL    HW135222   3.525   1.208   6.214  0.9385 -1.1694 -2.6439
 7863SOL    HW235223   3.545   1.141   6.345 -2.0725 -1.5122 -0.3201
 7864SOL     OW35224   3.358   2.389   8.280  0.2436 -0.5274 -0.2790
 7864SOL    HW135225   3.268   2.359   8.266 -0.6717  1.3622  1.6593
 7864SOL    HW235226   3.342   2.477   8.312  0.1600 -1.1845  1.5327
 7865SOL     OW35227   1.335   3.503   0.097  0.1441 -0.1181  0.7715
 7865SOL    HW135228   1.371   3.447   0.028 -1.2611 -1.6088  1.2651
 7865SOL    HW235229   1.261   3.545   0.053 -0.4324 -3.5685 -1.5450
 7866SOL     OW35230   0.005   2.546   5.463  0.4554 -0.1587 -0.4742
 7866SOL    HW135231   0.047   2.501   5.536  1.1066  0.9547 -0.1695
 7866SOL    HW235232   4.648   2.540   5.486  0.5686  3.6603  1.0673
 7867SOL     OW35233   3.322   0.177   1.997 -0.3842 -0.1018  0.2556
 7867SOL    HW135234   3.246   0.120   2.008  0.2754 -1.4065 -2.1255
 7867SOL    HW235235   3.283   0.259   2.028 -1.4182  0.1200 -1.6794
 7868SOL     OW35236   0.835   4.328   5.636 -0.6780 -0.2201 -0.6450
 7868SOL    HW135237   0.773   4.259   5.612 -0.6953 -1.0425  1.7196
 7868SOL    HW235238   0.907   4.268   5.654 -0.8704  0.1751  1.5261
 7869SOL     OW35239   1.881   2.854   5.411 -0.2976  0.4741  0.0045
 7869SOL    HW135240   1.863   2.802   5.489 -0.7173  0.7506  0.0951
 7869SOL    HW235241   1.867   2.786   5.346 -1.1433  0.0522  0.6278
 7870SOL     OW35242   0.452   4.407   4.141 -0.7096 -0.2249  0.3152
 7870SOL    HW135243   0.404   4.464   4.201 -2.5681 -1.5739  0.1136
 7870SOL    HW235244   0.399   4.423   4.063  1.1688 -2.2612 -1.3626
 7871SOL     OW35245   1.058   0.162   5.379 -0.2172 -0.4709 -0.3140
 7871SOL    HW135246   1.033   0.096   5.443  0.8921 -1.2785 -0.7224
 7871SOL    HW235247   0.981   0.163   5.322 -0.4879 -1.0839  0.0493
 7872SOL     OW35248   3.483   0.207   4.318 -0.2803  0.0195  0.1775
 7872SOL    HW135249   3.429   0.232   4.393  2.6415 -0.0139  2.2773
 7872SOL    HW235250   3.480   0.284   4.261 -0.7093 -0.1721 -0.0575
 7873SOL     OW35251   3.256   4.547   0.794  0.1521 -0.0627 -0.1655
 7873SOL    HW135252   3.251   4.533   0.889 -3.0680 -0.7004 -0.4329
 7873SOL    HW235253   3.202   4.476   0.761  0.8133 -0.1644 -1.0179
 7874SOL     OW35254   1.297   0.418   9.383  0.1069 -0.0477  0.4326
 7874SOL    HW135255   1.252   0.499   9.358 -0.9711 -0.7788 -0.0320
 7874SOL    HW235256   1.376   0.426   9.331  0.2466 -0.0485  0.6476
 7875SOL     OW35257   4.459   1.958   4.143  0.1726 -0.5885 -0.3654
 7875SOL    HW135258   4.401   2.015   4.194  0.6736 -1.9470  1.6944
 7875SOL    HW235259   4.523   1.929   4.208  0.2920  1.6085  0.5136
 7876SOL     OW35260   0.450   1.575   9.385 -0.1002  0.5593 -0.0102
 7876SOL    HW135261   0.470   1.551   9.294  2.0756 -1.0728  0.9056
 7876SOL    HW235262   0.361   1.540   9.396  0.6475 -0.5945  2.2622
 7877SOL     OW35263   4.128   1.753   6.842 -0.4205  0.1455 -0.0555
 7877SOL    HW135264   4.073   1.695   6.894  1.1150  0.4645  1.9276
 7877SOL    HW235265   4.188   1.787   6.907 -1.6404  0.6792  0.7855
 7878SOL     OW35266   0.533   3.886   5.128 -0.2800 -0.2208 -0.7060
 7878SOL    HW135267   0.458   3.915   5.076 -1.8731 -0.2402  1.5341
 7878SOL    HW235268   0.544   3.807   5.076 -1.3807 -0.3384 -0.7688
 7879SOL     OW35269   4.323   1.042   5.140 -0.2408 -0.1362 -0.1634
 7879SOL    HW135270   4.406   0.996   5.125 -0.2497 -0.6075  1.1921
 7879SOL    HW235271   4.266   1.014   5.068  2.2320 -1.5022 -1.5975
 7880SOL     OW35272   0.368   0.771   7.889 -0.9700 -0.1698 -0.1286
 7880SOL    HW135273   0.305   0.713   7.931  0.7857 -1.0815  1.2597
 7880SOL    HW235274   0.449   0.722   7.878 -0.6452  0.3531 -0.0942
 7881SOL     OW35275   3.933   3.392  12.011 -0.2661  0.6228  0.0053
 7881SOL    HW135276   3.927   3.337  11.933 -0.0905  1.0502 -0.3098
 7881SOL    HW235277   3.844   3.383  12.044  0.6821 -0.8429  2.1533
 7882SOL     OW35278   3.645   0.958   7.332 -0.5673  0.2355 -0.7489
 7882SOL    HW135279   3.681   0.869   7.334  2.3066  1.3967 -1.2101
 7882SOL    HW235280   3.552   0.946   7.352 -0.2690 -0.6056  0.1137
 7883SOL     OW35281   0.028   0.244   2.274 -0.1959  0.3856 -0.0433
 7883SOL    HW135282   0.075   0.172   2.233  2.3948  2.7002 -1.1249
 7883SOL    HW235283   4.707   0.190   2.329 -0.3248  1.2945  0.7161
 7884SOL     OW35284   4.070   3.768   6.043 -0.2023  0.9819 -0.4523
 7884SOL    HW135285   4.081   3.862   6.027 -0.7813  0.9599 -0.9774
 7884SOL    HW235286   4.134   3.768   6.115 -0.3049 -0.3291 -0.3640
 7885SOL     OW35287   4.502   4.299   8.908 -0.1568 -0.1478 -0.1330
 7885SOL    HW135288   4.446   4.226   8.933 -1.2930  0.8885  0.3703
 7885SOL    HW235289   4.484   4.366   8.974 -1.2108 -0.0845 -0.4867
 7886SOL     OW35290   1.973   1.404   6.038  0.5144 -0.2799 -0.1069
 7886SOL    HW135291   1.883   1.371   6.040  1.1583 -2.0901 -1.4726
 7886SOL    HW235292   1.947   1.491   6.069 -1.9521 -0.8923 -0.4772
 7887SOL     OW35293   1.143   1.518   9.518  0.3113  0.2049  0.4495
 7887SOL    HW135294   1.066   1.556   9.475 -0.5181 -0.7769  1.0572
 7887SOL    HW235295   1.102   1.435   9.542  1.4182 -0.9590 -1.6488
 7888SOL     OW35296   3.918   1.823   3.256 -0.0510  0.6219 -0.1322
 7888SOL    HW135297   3.898   1.850   3.167  3.1253  1.4779 -0.5653
 7888SOL    HW235298   3.899   1.899   3.311 -0.5191 -0.5878  1.3699
 7889SOL     OW35299   1.698   2.711  17.660  0.3770 -0.8713  0.1860
 7889SOL    HW135300   1.668   2.774  17.594 -1.6546 -2.0987 -0.0670
 7889SOL    HW235301   1.677   2.628  17.616 -2.8531 -0.6279  1.2684
 7890SOL     OW35302   2.623   3.618   1.261  0.0643 -0.1946 -0.3523
 7890SOL    HW135303   2.534   3.644   1.284  0.9739  2.2334  0.3503
 7890SOL    HW235304   2.609   3.530   1.227  2.5503 -0.1818 -1.3876
 7891SOL     OW35305   3.538   4.233   1.635 -0.1088 -0.7759  0.4323
 7891SOL    HW135306   3.455   4.186   1.637 -0.0093 -0.9068  1.4423
 7891SOL    HW235307   3.600   4.161   1.643  0.7985  0.1046  1.3959
 7892SOL     OW35308   3.815   4.263   6.341 -0.1811 -0.2970 -0.1729
 7892SOL    HW135309   3.892   4.316   6.322  0.3011  0.1019  2.7650
 7892SOL    HW235310   3.749   4.282   6.274 -0.5707  1.3398  0.6766
 7893SOL     OW35311   1.594   2.278   8.012  0.0591 -0.0509  0.3708
 7893SOL    HW135312   1.531   2.295   7.942  3.0221  2.3245 -1.7128
 7893SOL    HW235313   1.601   2.184   7.993 -3.2320 -0.2102 -0.0245
 7894SOL     OW35314   0.744   1.203   7.186 -0.0206  0.2601 -0.2987
 7894SOL    HW135315   0.736   1.264   7.113 -0.4177 -0.8322 -1.1549
 7894SOL    HW235316   0.839   1.187   7.188 -0.3107 -1.4378 -0.5180
 7895SOL     OW35317   4.673   3.775   2.609  0.2155  0.0229 -0.0609
 7895SOL    HW135318   4.641   3.721   2.682  0.5693  0.2127  0.2347
 7895SOL    HW235319   4.665   3.714   2.535 -1.0676  0.9284 -0.6586
 7896SOL     OW35320   3.641   2.786   2.742  0.0951  0.0111  0.5802
 7896SOL    HW135321   3.710   2.830   2.791  2.5198 -1.5390 -1.4549
 7896SOL    HW235322   3.690   2.730   2.682  1.1205  1.8653 -0.3211
 7897SOL     OW35323   2.781   3.374   1.371  0.1919 -0.4033  0.0807
 7897SOL    HW135324   2.734   3.456   1.363  2.6545  0.9555 -0.5368
 7897SOL    HW235325   2.812   3.361   1.281 -3.3994 -1.5644 -0.9708
 7898SOL     OW35326   3.606   1.472   7.731  0.8620  0.3210  0.1727
 7898SOL    HW135327   3.553   1.398   7.761  0.4645 -0.7126 -3.1745
 7898SOL    HW235328   3.533   1.532   7.720 -0.4137 -1.2886 -0.0536
 7899SOL     OW35329   2.766   3.441   6.092  0.0552  0.1130  0.1417
 7899SOL    HW135330   2.812   3.362   6.065 -3.1093 -1.0011 -1.9886
 7899SOL    HW235331   2.840   3.497   6.116 -2.1552  2.1973  2.0677
 7900SOL     OW35332   4.003   3.515   6.348 -0.3612 -0.0125 -0.2627
 7900SOL    HW135333   4.078   3.560   6.310  0.7388 -0.9136  0.8491
 7900SOL    HW235334   4.003   3.532   6.443  3.3479 -1.3120 -0.0408
 7901SOL     OW35335   1.773   0.453   7.464 -0.3359  0.2126 -0.7452
 7901SOL    HW135336   1.856   0.430   7.421 -0.3103 -0.0208 -0.5662
 7901SOL    HW235337   1.731   0.492   7.387  0.5149  0.1567 -1.2433
 7902SOL     OW35338   2.639   3.586   4.439  0.6456  0.1038  0.0426
 7902SOL    HW135339   2.551   3.552   4.457  0.1885  1.2128 -0.1207
 7902SOL    HW235340   2.692   3.507   4.431 -0.1308 -0.4739  0.5740
 7903SOL     OW35341   0.303   1.951   7.466  0.1955  0.3219  0.5574
 7903SOL    HW135342   0.242   1.882   7.439 -1.2328  1.4006  1.0232
 7903SOL    HW235343   0.288   1.943   7.560  2.6707  0.1215  0.9280
 7904SOL     OW35344   4.241   4.121   3.412 -0.0138  0.3092  0.0993
 7904SOL    HW135345   4.252   4.215   3.398  0.2935 -0.1015 -2.3853
 7904SOL    HW235346   4.322   4.083   3.379  0.9405  1.1533  1.4702
 7905SOL     OW35347   3.946   3.845   9.356  0.7229  0.1607  0.2698
 7905SOL    HW135348   3.981   3.919   9.307  0.3992  0.4250  0.4469
 7905SOL    HW235349   3.984   3.862   9.443  0.1358 -2.5810  1.0680
 7906SOL     OW35350   4.486   2.210   9.154 -0.0757 -0.3495 -0.2770
 7906SOL    HW135351   4.433   2.289   9.144 -1.2429 -1.0316  0.6069
 7906SOL    HW235352   4.425   2.151   9.198  3.3543 -3.6436  0.0955
 7907SOL     OW35353   4.692   0.728   8.545  0.6518 -0.4114  0.2799
 7907SOL    HW135354   4.725   0.783   8.474 -1.2307  0.1647 -0.1396
 7907SOL    HW235355   4.727   0.781   8.617  2.4790 -0.3353 -0.6715
 7908SOL     OW35356   1.506   3.798   5.058 -0.0561  0.4014 -0.5390
 7908SOL    HW135357   1.441   3.860   5.025  0.0784  0.0842 -1.4026
 7908SOL    HW235358   1.460   3.716   5.039 -0.1252  0.5380 -0.9667
 7909SOL     OW35359   3.698   3.002  14.940 -0.0510 -0.5806  1.0704
 7909SOL    HW135360   3.786   3.039  14.941  0.1917 -1.1704  2.7554
 7909SOL    HW235361   3.687   2.970  14.851  0.8717 -2.8499  1.7536
 7910SOL     OW35362   1.205   0.666  12.315 -0.4449  0.4743 -0.3137
 7910SOL    HW135363   1.169   0.755  12.311  2.9878  1.8539 -0.0943
 7910SOL    HW235364   1.136   0.600  12.307  0.9332 -0.9403 -0.4861
 7911SOL     OW35365   1.380   2.743   2.506 -0.0291  0.1597 -0.0617
 7911SOL    HW135366   1.441   2.792   2.451 -0.8524  1.8052  0.4818
 7911SOL    HW235367   1.332   2.817   2.544 -1.4456 -0.7996  0.0254
 7912SOL     OW35368   0.360   0.487   4.285 -0.4658 -0.4971  0.2384
 7912SOL    HW135369   0.308   0.501   4.363  1.7117 -0.2965  1.6453
 7912SOL    HW235370   0.310   0.546   4.229 -0.4055 -0.5329  0.1459
 7913SOL     OW35371   1.695   0.777   7.762 -0.4431  0.2393  0.7192
 7913SOL    HW135372   1.711   0.779   7.667 -1.4797  1.7669  0.5753
 7913SOL    HW235373   1.706   0.871   7.776  1.3260 -0.1555  2.0160
 7914SOL     OW35374   2.499   2.445   9.239 -0.1271 -0.3210  0.1565
 7914SOL    HW135375   2.469   2.403   9.159 -1.4816 -1.3275  1.1958
 7914SOL    HW235376   2.551   2.516   9.202  2.6193 -2.4325  0.0030
 7915SOL     OW35377   3.200   1.380   6.647  0.0844 -0.0848 -0.2961
 7915SOL    HW135378   3.173   1.467   6.677 -0.2119  0.4846 -2.1834
 7915SOL    HW235379   3.255   1.394   6.569  1.6655 -0.3569  0.7652
 7916SOL     OW35380   1.565   0.800  14.945  0.0306 -0.1841 -0.0311
 7916SOL    HW135381   1.574   0.807  14.850 -0.2149  1.0299  0.0223
 7916SOL    HW235382   1.557   0.705  14.945 -3.1648  0.0772  0.7393
 7917SOL     OW35383   2.563   4.707   1.944 -0.1086 -0.0098  1.1109
 7917SOL    HW135384   2.524   0.029   2.009 -0.1948  0.0039  1.0463
 7917SOL    HW235385   2.517   4.721   1.861 -0.3135  3.6735  1.8899
 7918SOL     OW35386   2.554   4.392   2.543 -0.1975 -0.1203 -0.2886
 7918SOL    HW135387   2.605   4.344   2.477  1.4760 -1.0938  1.7103
 7918SOL    HW235388   2.557   4.478   2.501  1.3129  0.6121  1.3221
 7919SOL     OW35389   0.737   0.517   2.421  1.0463  0.2089 -0.0569
 7919SOL    HW135390   0.792   0.446   2.453  0.2256 -1.8358 -3.2156
 7919SOL    HW235391   0.786   0.558   2.349  0.1136  1.2625 -0.0857
 7920SOL     OW35392   2.890   2.063  16.933 -0.1555  0.0729 -0.8052
 7920SOL    HW135393   2.888   2.128  17.004 -0.4307  0.3105 -1.0255
 7920SOL    HW235394   2.822   2.002  16.962  0.9406  0.1077  1.7675
 7921SOL     OW35395   4.052   0.941   3.014 -0.6670  0.3351 -0.1116
 7921SOL    HW135396   4.124   1.004   3.021 -1.3775  0.8869  2.1834
 7921SOL    HW235397   3.982   1.006   3.012 -0.2320  0.7866 -1.0513
 7922SOL     OW35398   3.043   0.629   4.041 -0.2479 -0.0652 -0.4109
 7922SOL    HW135399   2.982   0.701   4.056  2.2991  1.7782  1.0930
 7922SOL    HW235400   2.993   0.567   3.989  0.2892  1.8886 -3.2679
 7923SOL     OW35401   1.424   2.512   2.739 -0.0641  0.0512 -0.4464
 7923SOL    HW135402   1.398   2.530   2.829  1.7541 -1.7631  0.4431
 7923SOL    HW235403   1.372   2.570   2.684 -0.3771 -0.0519 -0.2572
 7924SOL     OW35404   0.315   1.641   5.900  0.4070 -0.3085 -0.1766
 7924SOL    HW135405   0.316   1.696   5.821 -1.2920 -2.6880 -1.8429
 7924SOL    HW235406   0.398   1.669   5.938  1.3760 -0.5086 -2.1260
 7925SOL     OW35407   4.089   3.598   7.062  1.2314  0.9922  0.1040
 7925SOL    HW135408   4.087   3.546   7.142 -2.1728  1.7077  0.4886
 7925SOL    HW235409   4.003   3.635   7.044  1.3375  1.3353  0.2918
 7926SOL     OW35410   2.338   2.508   4.226  0.0112 -0.2087  0.3322
 7926SOL    HW135411   2.296   2.510   4.140 -0.7129 -2.0406  0.6604
 7926SOL    HW235412   2.431   2.504   4.202  0.5272 -1.1840  2.5661
 7927SOL     OW35413   3.920   0.084   6.721 -0.3364 -0.1677 -0.6603
 7927SOL    HW135414   3.987   0.058   6.784 -0.4825 -2.0234 -1.2721
 7927SOL    HW235415   3.869   0.005   6.704 -0.9141  0.1626 -0.4558
 7928SOL     OW35416   4.002   3.041  17.708  0.1132  0.1111  0.4538
 7928SOL    HW135417   4.027   3.116   0.018 -1.1987  0.2568  0.8777
 7928SOL    HW235418   4.034   3.056  17.619 -0.2550  0.9964  0.4676
 7929SOL     OW35419   3.037   2.821   7.590  0.2126 -0.4353 -0.3409
 7929SOL    HW135420   3.127   2.833   7.619  0.0703  0.7580 -0.3690
 7929SOL    HW235421   3.036   2.871   7.508 -2.1045  2.0378  1.1691
 7930SOL     OW35422   1.781   3.114   9.092 -0.2377 -0.1277  0.6813
 7930SOL    HW135423   1.753   3.041   9.037  2.1141 -1.3311  1.0920
 7930SOL    HW235424   1.762   3.075   9.177  0.3057 -1.0273  0.3886
 7931SOL     OW35425   1.330   2.574   5.256 -0.2393  0.4275 -0.3957
 7931SOL    HW135426   1.333   2.651   5.199  1.3566  0.8979  0.3166
 7931SOL    HW235427   1.238   2.572   5.284 -0.6627 -0.6622 -1.9301
 7932SOL     OW35428   3.096   3.855  10.423 -0.0607 -0.1403  0.8388
 7932SOL    HW135429   3.068   3.942  10.452 -1.7821 -0.1001 -1.0221
 7932SOL    HW235430   3.106   3.801  10.502  1.3401  2.4605  2.4591
 7933SOL     OW35431   0.323   3.848   5.832 -0.1112  0.1330  0.0229
 7933SOL    HW135432   0.258   3.815   5.770 -0.0374 -0.6306  0.3540
 7933SOL    HW235433   0.295   3.817   5.918 -1.1193 -2.9056 -1.4019
 7934SOL     OW35434   0.153   3.019  12.246 -0.6655  0.0163 -0.4247
 7934SOL    HW135435   0.163   3.040  12.153  1.0049 -0.4262 -0.3310
 7934SOL    HW235436   0.215   3.079  12.287 -0.5789 -0.1361 -0.3325
 7935SOL     OW35437   0.808   1.920   1.943 -0.0007  0.9310 -0.2685
 7935SOL    HW135438   0.725   1.967   1.938  0.7003  2.3277  1.3782
 7935SOL    HW235439   0.808   1.856   1.871  2.8105 -0.1809  0.7451
 7936SOL     OW35440   1.891   0.363  11.190  0.2927 -0.3647 -0.1590
 7936SOL    HW135441   1.900   0.325  11.277 -0.9633  1.5277  0.7824
 7936SOL    HW235442   1.899   0.290  11.128  0.2499 -2.6241  2.4999
 7937SOL     OW35443   3.643   4.350   5.628  0.0573  0.2891 -0.4788
 7937SOL    HW135444   3.648   4.303   5.711 -3.0676  0.6479 -0.1024
 7937SOL    HW235445   3.705   4.423   5.627  0.6484 -0.2106  0.4468
 7938SOL     OW35446   1.068   4.482   5.817 -0.2222 -0.3853  0.2072
 7938SOL    HW135447   1.022   4.456   5.737 -1.9165  2.6271  0.1903
 7938SOL    HW235448   1.156   4.450   5.796 -0.0392  0.1965  0.0983
 7939SOL     OW35449   1.575   0.828  13.696 -0.0859  0.0287 -0.0209
 7939SOL    HW135450   1.537   0.746  13.728  1.4263 -1.2802 -1.6271
 7939SOL    HW235451   1.562   0.819  13.602 -0.1017  2.1758 -0.2405
 7940SOL     OW35452   3.331   1.789   4.216  0.2703 -0.2991  0.1013
 7940SOL    HW135453   3.330   1.875   4.173 -2.0000  0.8311  2.4045
 7940SOL    HW235454   3.365   1.818   4.301  1.3648 -0.5203 -0.2697
 7941SOL     OW35455   1.757   1.641   9.020  0.3020 -0.3870  0.0373
 7941SOL    HW135456   1.709   1.671   8.943  0.2916  0.7029  0.4689
 7941SOL    HW235457   1.695   1.574   9.048 -1.0138  0.3508 -1.1062
 7942SOL     OW35458   1.619   0.529   5.808  0.2417  0.6560 -0.6211
 7942SOL    HW135459   1.536   0.570   5.781 -0.7513 -0.9319  0.0458
 7942SOL    HW235460   1.624   0.567   5.896 -0.8208 -1.0728  0.1774
 7943SOL     OW35461   1.254   4.184   7.345 -0.0521 -0.5060 -0.3996
 7943SOL    HW135462   1.160   4.180   7.364  0.1384  5.2718  1.8037
 7943SOL    HW235463   1.280   4.123   7.414 -1.4582 -0.1803  0.4259
 7944SOL     OW35464   1.571   0.765  16.446 -0.4423  0.1262  0.3567
 7944SOL    HW135465   1.498   0.704  16.443 -1.4389  1.2535  1.3037
 7944SOL    HW235466   1.637   0.709  16.486  0.8944 -0.2203 -2.3314
 7945SOL     OW35467   4.703   1.637   7.736  0.1251  0.3995 -0.0169
 7945SOL    HW135468   4.611   1.643   7.762  0.6906  3.6540  1.2412
 7945SOL    HW235469   4.731   1.680   7.817 -1.2801  0.9400  0.1756
 7946SOL     OW35470   3.043   3.019   6.196  0.5299  0.4145 -0.2016
 7946SOL    HW135471   3.109   3.088   6.207  1.8789 -0.9956  0.4977
 7946SOL    HW235472   3.035   2.973   6.279 -0.1846 -0.7120 -0.8960
 7947SOL     OW35473   3.269   4.710  12.436  0.1044  0.6163 -0.3044
 7947SOL    HW135474   3.251   4.666  12.519  2.1609 -0.7233 -0.5763
 7947SOL    HW235475   3.261   4.644  12.367  0.3919  0.3416 -0.0736
 7948SOL     OW35476   1.654   1.996  10.936  0.4630 -0.1525  0.2418
 7948SOL    HW135477   1.687   2.067  10.880 -0.6621 -1.0747 -1.5925
 7948SOL    HW235478   1.693   2.023  11.019  0.7371  0.0219  0.0601
 7949SOL     OW35479   2.946   1.733   3.592  0.0057 -0.6109  0.5667
 7949SOL    HW135480   2.949   1.814   3.642  1.8278 -0.2473 -0.1441
 7949SOL    HW235481   2.950   1.665   3.659  1.8478 -2.6524 -1.6001
 7950SOL     OW35482   0.094   2.064   6.125 -0.4070 -0.1872 -0.0784
 7950SOL    HW135483   0.036   2.124   6.078 -1.5181 -1.4373 -0.3196
 7950SOL    HW235484   0.106   1.999   6.057 -0.5924  2.8191 -2.9879
 7951SOL     OW35485   4.015   0.859   8.674 -0.0878 -0.8589 -0.0470
 7951SOL    HW135486   4.009   0.830   8.583 -0.7540  1.4537 -0.7271
 7951SOL    HW235487   4.109   0.877   8.675 -0.1667 -0.3462 -1.5311
 7952SOL     OW35488   0.102   1.355  16.297 -0.3024  0.0178 -0.8984
 7952SOL    HW135489   0.042   1.428  16.282 -1.5036 -0.8691 -0.4367
 7952SOL    HW235490   0.178   1.413  16.299  1.0950 -1.9685  4.5551
 7953SOL     OW35491   4.391   1.179   4.161  0.2478  0.9830 -0.2285
 7953SOL    HW135492   4.418   1.089   4.179  0.8792  1.1629 -0.2978
 7953SOL    HW235493   4.339   1.162   4.082  0.7080 -0.4253 -0.2401
 7954SOL     OW35494   1.408   0.169   6.023  0.0024  0.0426  0.4936
 7954SOL    HW135495   1.469   0.171   6.097  3.3789 -2.7393 -2.2434
 7954SOL    HW235496   1.426   0.081   5.991  0.1715 -1.0711  3.6227
 7955SOL     OW35497   2.509   0.990   7.269  0.7375  0.4591 -0.1905
 7955SOL    HW135498   2.596   0.960   7.244 -0.5335 -2.1186 -1.6039
 7955SOL    HW235499   2.439   0.962   7.210  1.4903 -0.8548 -0.4629
 7956SOL     OW35500   0.913   2.551   2.899  0.2603  0.4909  0.5138
 7956SOL    HW135501   0.854   2.576   2.971 -0.5222  2.8862 -0.9923
 7956SOL    HW235502   0.870   2.467   2.882 -1.0766  1.0795  0.9703
 7957SOL     OW35503   0.303   4.469   3.447  0.1300 -0.6722  0.2630
 7957SOL    HW135504   0.218   4.491   3.487 -0.1552  0.7434 -1.1200
 7957SOL    HW235505   0.272   4.449   3.358  0.1303  1.5453 -0.2312
 7958SOL     OW35506   1.580   0.281   1.254  0.6239 -0.2603 -0.1388
 7958SOL    HW135507   1.627   0.328   1.322 -0.6074  0.4157  0.2482
 7958SOL    HW235508   1.624   0.304   1.172 -0.9499  1.1344 -0.5770
 7959SOL     OW35509   4.484   0.301   7.045 -0.1240  0.1962  0.5161
 7959SOL    HW135510   4.448   0.228   6.995 -0.2901  0.9578 -0.4767
 7959SOL    HW235511   4.440   0.369   6.994 -2.0292 -1.2164  0.2660
 7960SOL     OW35512   2.255   3.894   1.204  0.3230 -0.1335  0.0686
 7960SOL    HW135513   2.200   3.850   1.139  0.2068 -0.7409  0.5740
 7960SOL    HW235514   2.213   3.977   1.223  1.2076  0.6888 -1.6057
 7961SOL     OW35515   3.369   0.332   4.518  0.4380  0.2126 -0.2134
 7961SOL    HW135516   3.292   0.299   4.564 -0.7149  2.0648 -0.8069
 7961SOL    HW235517   3.442   0.337   4.580 -0.1432 -0.3823  0.5178
 7962SOL     OW35518   2.378   2.622   8.144 -0.1330  0.3885  0.4020
 7962SOL    HW135519   2.347   2.693   8.200 -0.9329  1.3034 -1.1882
 7962SOL    HW235520   2.316   2.629   8.071  1.5731 -0.1004 -1.0886
 7963SOL     OW35521   1.240   4.125   3.540  0.2220  0.2427 -0.2472
 7963SOL    HW135522   1.299   4.107   3.467  1.3004 -2.3149  1.2677
 7963SOL    HW235523   1.159   4.142   3.492  2.4136 -0.6594 -4.2574
 7964SOL     OW35524   0.814   0.385   8.102 -0.2317 -0.1739  0.2997
 7964SOL    HW135525   0.747   0.439   8.146  0.4463  0.8348  0.1007
 7964SOL    HW235526   0.870   0.368   8.178 -0.4953 -0.7468  0.3672
 7965SOL     OW35527   1.255   2.970   8.327 -0.0116 -0.1727  0.1894
 7965SOL    HW135528   1.170   3.006   8.352 -1.0805 -2.2135 -0.4905
 7965SOL    HW235529   1.272   2.903   8.393 -1.9530 -0.6532  0.1923
 7966SOL     OW35530   0.531   2.799   5.602 -0.4068 -0.0728  0.0985
 7966SOL    HW135531   0.582   2.780   5.680  1.3727  0.7956 -0.8664
 7966SOL    HW235532   0.541   2.892   5.582  1.0582 -0.2487  0.0496
 7967SOL     OW35533   1.302   0.805   9.572 -0.2645  0.5344  0.4256
 7967SOL    HW135534   1.260   0.725   9.604 -2.5871  1.0815 -1.2286
 7967SOL    HW235535   1.385   0.767   9.544 -0.6287 -1.1310  1.5601
 7968SOL     OW35536   2.085   1.787  13.283  0.2650 -0.5481 -0.7368
 7968SOL    HW135537   2.051   1.858  13.229 -1.0277 -0.7559 -0.2041
 7968SOL    HW235538   2.180   1.787  13.289  0.2606  0.5185 -0.6639
 7969SOL     OW35539   2.162   3.757   5.306 -0.5646  0.1850  0.1468
 7969SOL    HW135540   2.131   3.809   5.232 -0.7904 -0.0459  0.0776
 7969SOL    HW235541   2.107   3.679   5.320  0.8448 -0.5998  1.2783
 7970SOL     OW35542   0.583   4.490   9.023 -0.2735 -0.1072  0.4503
 7970SOL    HW135543   0.603   4.446   9.105  0.8244  1.7354  1.1804
 7970SOL    HW235544   0.504   4.441   9.002 -0.0155 -0.0510 -0.6605
 7971SOL     OW35545   3.142   4.483  12.067  0.6422  0.1222  0.1909
 7971SOL    HW135546   3.074   4.550  12.074  0.5710  0.0571  0.1289
 7971SOL    HW235547   3.090   4.404  12.079  0.1170  0.8342  2.5326
 7972SOL     OW35548   2.072   0.852  13.440  0.1075  0.3527 -0.6191
 7972SOL    HW135549   1.991   0.801  13.450  1.1421 -1.3976 -1.2013
 7972SOL    HW235550   2.066   0.921  13.506  1.9976 -0.6438  0.5642
 7973SOL     OW35551   0.408   0.885   6.795  0.5141 -0.5237 -0.5674
 7973SOL    HW135552   0.421   0.961   6.852 -1.0517 -1.6324  1.2836
 7973SOL    HW235553   0.381   0.824   6.864  0.7623  2.8602  2.4722
 7974SOL     OW35554   0.064   2.937   6.240  0.0939 -0.0983  0.2900
 7974SOL    HW135555   4.712   2.901   6.255 -0.1400 -0.4788 -1.9167
 7974SOL    HW235556   0.106   2.933   6.326 -0.5101  1.0330  0.6331
 7975SOL     OW35557   3.809   4.181  15.259 -0.5159 -0.0738 -0.3287
 7975SOL    HW135558   3.879   4.238  15.225  0.3420 -1.2993 -0.6311
 7975SOL    HW235559   3.874   4.115  15.283 -1.0911 -0.4679  0.1192
 7976SOL     OW35560   1.771   2.047  16.222 -0.3618 -0.3612  1.0932
 7976SOL    HW135561   1.846   2.003  16.262  1.7030  1.2858 -0.9615
 7976SOL    HW235562   1.784   2.133  16.263  0.8952  0.3108 -0.7469
 7977SOL     OW35563   2.864   4.196   5.649 -0.0122  0.1700 -0.6963
 7977SOL    HW135564   2.931   4.129   5.637 -0.2709 -0.3098  0.5362
 7977SOL    HW235565   2.784   4.144   5.661 -0.2820  0.8702  0.6379
 7978SOL     OW35566   1.301   1.956   2.344 -0.1858 -0.3867 -0.3363
 7978SOL    HW135567   1.238   1.950   2.272 -0.8822  1.0200  0.1503
 7978SOL    HW235568   1.366   2.017   2.309  1.6472 -2.4403 -0.4746
 7979SOL     OW35569   0.520   0.584   8.676 -0.0802 -0.4284  0.1688
 7979SOL    HW135570   0.580   0.576   8.750 -0.9697 -1.6453  0.7568
 7979SOL    HW235571   0.436   0.567   8.719 -1.7408  0.7301 -2.6139
 7980SOL     OW35572   3.774   2.107  10.323 -0.1084  0.3373 -0.1449
 7980SOL    HW135573   3.826   2.146  10.394  1.7788  4.1356 -3.5840
 7980SOL    HW235574   3.789   2.013  10.337 -1.1697  0.3870  1.3197
 7981SOL     OW35575   0.128   1.162   5.537  0.2002  0.3974 -0.2807
 7981SOL    HW135576   0.138   1.092   5.602 -2.3599 -0.0874 -0.3912
 7981SOL    HW235577   0.184   1.225   5.583  0.2848  0.9676 -1.1681
 7982SOL     OW35578   0.699   1.800  15.878  0.0523  0.5575 -0.3566
 7982SOL    HW135579   0.635   1.860  15.839 -2.7401 -0.9729  1.8594
 7982SOL    HW235580   0.739   1.855  15.946 -2.1517  1.2383  0.3846
 7983SOL     OW35581   4.280   1.774   2.346 -0.0165  0.1666  0.4525
 7983SOL    HW135582   4.346   1.772   2.415 -1.9711  1.4039  2.3561
 7983SOL    HW235583   4.245   1.685   2.350  0.5727 -0.0436  0.8613
 7984SOL     OW35584   2.368   4.651  14.228  0.1441 -0.3044 -0.3786
 7984SOL    HW135585   2.283   4.652  14.184  1.3718 -1.4999 -2.7714
 7984SOL    HW235586   2.435   4.662  14.161 -1.2885  1.9315 -1.4677
 7985SOL     OW35587   0.466   2.965  15.176 -0.7590 -0.2436  0.4732
 7985SOL    HW135588   0.496   2.933  15.091 -0.2217  3.0923 -0.5705
 7985SOL    HW235589   0.517   3.045  15.186 -0.0701 -0.8519  1.8347
 7986SOL     OW35590   1.388   4.192   4.844 -0.0226  0.1677  0.6418
 7986SOL    HW135591   1.479   4.172   4.820  0.2940  2.1044  0.2626
 7986SOL    HW235592   1.380   4.285   4.825 -1.3827 -0.6330 -2.5952
 7987SOL     OW35593   2.142   0.662   7.130  0.6078 -0.1385 -0.2193
 7987SOL    HW135594   2.073   0.683   7.067 -0.9184 -0.8035  1.2780
 7987SOL    HW235595   2.124   0.569   7.142 -0.6881 -0.3725 -3.8774
 7988SOL     OW35596   4.442   3.926   1.803 -0.0515  0.4278  0.3980
 7988SOL    HW135597   4.451   3.935   1.708  1.0655 -0.3363  0.4332
 7988SOL    HW235598   4.489   3.843   1.801  0.1602  0.6248 -2.4635
 7989SOL     OW35599   3.884   4.116   0.518  0.4780 -0.1110  0.1708
 7989SOL    HW135600   3.811   4.112   0.455  1.7978 -1.9010 -1.2487
 7989SOL    HW235601   3.847   4.049   0.576  1.3276 -1.6515 -1.0580
 7990SOL     OW35602   1.363   3.354   8.066 -0.5837 -0.1888 -0.2113
 7990SOL    HW135603   1.348   3.422   8.000  0.7302  0.9263  0.6408
 7990SOL    HW235604   1.296   3.290   8.041  0.6176 -1.7493  0.5321
 7991SOL     OW35605   0.420   1.552  12.249  0.5072 -0.6104  0.1328
 7991SOL    HW135606   0.502   1.538  12.296 -1.9192 -0.6325  4.3256
 7991SOL    HW235607   0.438   1.629  12.194  0.1958  0.4377  1.5010
 7992SOL     OW35608   3.881   3.087   8.702 -0.0613  0.0929  0.1521
 7992SOL    HW135609   3.900   3.027   8.774  2.7448  0.4370 -0.3147
 7992SOL    HW235610   3.809   3.044   8.655  1.4031  1.0365 -2.9647
 7993SOL     OW35611   4.547   1.127   3.057  0.0435  0.3509  0.2443
 7993SOL    HW135612   4.577   1.174   3.135  3.1087  1.4004 -1.5784
 7993SOL    HW235613   4.458   1.105   3.084  1.1065 -3.3965  0.8219
 7994SOL     OW35614   0.417   1.650   4.998  0.2062 -0.2971  0.1358
 7994SOL    HW135615   0.422   1.641   4.903  0.4526  2.4489 -0.1207
 7994SOL    HW235616   0.477   1.581   5.026 -0.7326 -1.0682  0.2516
 7995SOL     OW35617   4.139   3.894  12.518  0.8545  0.2702  0.3841
 7995SOL    HW135618   4.102   3.806  12.508 -0.8584  0.7927  2.2725
 7995SOL    HW235619   4.090   3.939  12.450  1.6627 -0.7347 -0.8728
 7996SOL     OW35620   2.780   2.435   8.368 -0.1287 -0.3487  0.1089
 7996SOL    HW135621   2.744   2.347   8.380 -2.1158  0.4965  0.4263
 7996SOL    HW235622   2.795   2.437   8.274 -1.3398  0.4623 -0.0772
 7997SOL     OW35623   2.787   1.093  15.125  0.2160 -0.1214  0.0805
 7997SOL    HW135624   2.745   1.116  15.042 -0.1372  0.5892  0.4565
 7997SOL    HW235625   2.728   1.029  15.165  0.7852 -0.3224  0.6045
 7998SOL     OW35626   2.076   2.520  14.705  0.1835 -0.1520 -0.5528
 7998SOL    HW135627   1.985   2.548  14.719 -0.0396 -1.2306  0.2513
 7998SOL    HW235628   2.046   2.429  14.701 -1.6003  0.4736 -1.5729
 7999SOL     OW35629   2.001   0.410   4.117 -0.3561  0.0897 -0.4662
 7999SOL    HW135630   1.907   0.426   4.125 -0.6690 -2.1883  0.5596
 7999SOL    HW235631   1.990   0.386   4.025  0.4082 -0.0517 -0.5270
 8000SOL     OW35632   1.699   3.142   2.496  0.0337 -0.0158 -0.1265
 8000SOL    HW135633   1.702   3.149   2.400 -0.9680 -0.4800 -0.1918
 8000SOL    HW235634   1.743   3.062   2.524 -3.2805 -1.7454  0.1726
 8001SOL     OW35635   0.647   1.812   8.658  0.6213 -0.3338 -0.8418
 8001SOL    HW135636   0.683   1.826   8.570 -0.0796  2.5727 -0.6616
 8001SOL    HW235637   0.596   1.893   8.671 -1.6250 -1.8605 -0.1031
 8002SOL     OW35638   1.190   3.716  13.310  0.0196  0.5761 -0.0096
 8002SOL    HW135639   1.198   3.809  13.292 -0.0741  0.5541 -0.1648
 8002SOL    HW235640   1.273   3.699  13.354  1.1593  1.6690 -1.7215
 8003SOL     OW35641   0.465   0.823   4.204 -0.1196  0.0138  0.5081
 8003SOL    HW135642   0.446   0.785   4.290 -0.2846 -2.7511 -0.7544
 8003SOL    HW235643   0.456   0.918   4.209  0.1854 -0.0304  1.9168
 8004SOL     OW35644   0.206   4.388  15.836 -0.1926  0.2417  0.0545
 8004SOL    HW135645   0.293   4.425  15.850 -0.7586  2.1151 -1.4914
 8004SOL    HW235646   0.206   4.384  15.740  1.4047 -3.7264  0.2181
 8005SOL     OW35647   0.981   3.567   4.247  0.5315  0.8810 -0.1729
 8005SOL    HW135648   0.922   3.531   4.180  0.2736  0.7358  0.1297
 8005SOL    HW235649   1.004   3.653   4.212 -1.0445  1.0963 -0.6859
 8006SOL     OW35650   3.877   2.552   4.836 -0.2011  0.2799  0.0838
 8006SOL    HW135651   3.896   2.646   4.832 -0.4928  0.2937 -1.0277
 8006SOL    HW235652   3.821   2.539   4.912  0.5563  0.4534  0.6722
 8007SOL     OW35653   1.899   1.431   1.612  0.9688  0.1399  0.3692
 8007SOL    HW135654   1.823   1.402   1.662  1.7525 -1.2899  0.7244
 8007SOL    HW235655   1.846   1.474   1.545  0.4190  0.7867  1.2368
 8008SOL     OW35656   1.140   1.127   6.891 -0.4822  0.1411  0.1404
 8008SOL    HW135657   1.218   1.146   6.944 -1.1867  2.1153  0.4694
 8008SOL    HW235658   1.185   1.135   6.807 -1.1452  0.0141 -0.2267
 8009SOL     OW35659   4.291   3.726  16.329 -0.5893 -0.4466  0.3131
 8009SOL    HW135660   4.217   3.696  16.275  0.0409 -0.5570 -0.4804
 8009SOL    HW235661   4.286   3.648  16.385  0.4693 -0.6517  0.1226
 8010SOL     OW35662   2.521   3.121   3.445  0.1834 -0.1842  0.0962
 8010SOL    HW135663   2.452   3.122   3.379 -0.7113  0.5296  1.0603
 8010SOL    HW235664   2.522   3.026   3.461  0.3108 -0.3968 -1.1652
 8011SOL     OW35665   2.417   4.026   4.500  0.0415 -0.2688  0.1429
 8011SOL    HW135666   2.407   4.098   4.562  2.1676  1.0559 -1.0364
 8011SOL    HW235667   2.471   4.079   4.442  1.9333  0.1933  2.3318
 8012SOL     OW35668   2.401   4.343  12.377  0.5019 -0.1844 -0.0399
 8012SOL    HW135669   2.433   4.424  12.338  0.9948 -1.1144 -1.5430
 8012SOL    HW235670   2.463   4.286  12.332 -1.6012 -2.5233  0.0601
 8013SOL     OW35671   2.009   3.793   5.071  1.1649  0.2189 -0.3561
 8013SOL    HW135672   2.035   3.766   4.983  2.6140 -0.0679  0.1573
 8013SOL    HW235673   1.922   3.830   5.060  1.1196  0.7004  1.5101
 8014SOL     OW35674   2.820   2.540  12.371  0.0984  0.8124  0.7968
 8014SOL    HW135675   2.903   2.583  12.391  1.9975 -1.7960 -1.5462
 8014SOL    HW235676   2.781   2.556  12.457  0.5613  1.4808  0.8850
 8015SOL     OW35677   1.771   0.108  16.405 -0.5577  0.2211 -0.4479
 8015SOL    HW135678   1.821   0.090  16.325 -2.5564  1.4673 -1.9650
 8015SOL    HW235679   1.818   0.183  16.440  0.6551 -1.0535  0.6855
 8016SOL     OW35680   3.992   3.401   5.011 -0.4398 -0.2319  0.0293
 8016SOL    HW135681   3.988   3.361   4.924 -0.8628  0.2675 -0.1801
 8016SOL    HW235682   4.086   3.390   5.025 -0.7756  1.2093  3.2918
 8017SOL     OW35683   0.671   2.137   9.135  0.0307 -0.1475  0.2354
 8017SOL    HW135684   0.699   2.054   9.172 -1.2189 -1.3869 -1.5905
 8017SOL    HW235685   0.735   2.149   9.064 -1.6354 -0.0493 -1.2374
 8018SOL     OW35686   0.547   2.532   9.389  0.3643 -0.2030  0.4625
 8018SOL    HW135687   0.554   2.444   9.426  1.3861 -0.1130  0.4816
 8018SOL    HW235688   0.454   2.533   9.365  0.8316  2.2847 -1.1815
 8019SOL     OW35689   3.297   4.711   8.348  0.0955 -0.3685 -0.1522
 8019SOL    HW135690   3.300   4.628   8.300 -0.1940  0.6399 -1.8927
 8019SOL    HW235691   3.214   4.703   8.396 -0.2697 -1.9013 -1.0443
 8020SOL     OW35692   2.063   4.233   9.483  0.1942  0.2575  0.5117
 8020SOL    HW135693   2.095   4.146   9.506  0.3600  0.2775  0.3502
 8020SOL    HW235694   2.034   4.252   9.572 -1.3914  0.5723 -0.0537
 8021SOL     OW35695   1.832   3.490  11.438  0.0027  0.6482 -0.5735
 8021SOL    HW135696   1.869   3.542  11.366  3.2818 -1.2909 -0.2883
 8021SOL    HW235697   1.912   3.485  11.490  0.0111 -0.9930 -0.7423
 8022SOL     OW35698   1.769   3.794   4.701 -0.0120  0.2229  0.2016
 8022SOL    HW135699   1.817   3.877   4.694  1.5088 -0.5716  1.2239
 8022SOL    HW235700   1.837   3.729   4.720 -0.2563 -0.2459 -0.5463
 8023SOL     OW35701   2.164   1.666   7.748  0.0135  0.2699 -0.9121
 8023SOL    HW135702   2.188   1.691   7.837 -2.2787 -1.6664  0.2680
 8023SOL    HW235703   2.203   1.736   7.697  2.6127 -0.1248  0.5481
 8024SOL     OW35704   0.802   1.057   3.375 -0.0356 -0.5177 -0.1173
 8024SOL    HW135705   0.812   1.152   3.377 -0.2566 -0.5478  2.6503
 8024SOL    HW235706   0.884   1.048   3.326 -1.7348 -0.3119 -2.9873
 8025SOL     OW35707   1.312   2.456   3.234 -0.5063 -0.4259 -0.6264
 8025SOL    HW135708   1.402   2.426   3.247 -0.0964  1.1261  0.1097
 8025SOL    HW235709   1.282   2.426   3.320 -0.4855 -1.3622 -0.9532
 8026SOL     OW35710   2.843   2.864  10.267 -0.1030  0.1502 -0.4173
 8026SOL    HW135711   2.795   2.846  10.348 -0.4613  0.2999 -0.5964
 8026SOL    HW235712   2.897   2.786  10.256 -0.0650 -0.0367  1.0844
 8027SOL     OW35713   4.627   1.087   3.404 -0.7645 -0.0696  0.1768
 8027SOL    HW135714   4.570   1.015   3.376 -0.4186 -0.8997  1.6381
 8027SOL    HW235715   4.563   1.149   3.440 -0.4149  0.1954  0.3360
 8028SOL     OW35716   2.372   3.188   7.655  0.7749  0.1552  0.1396
 8028SOL    HW135717   2.278   3.202   7.647  1.1115  2.4594  0.3570
 8028SOL    HW235718   2.381   3.098   7.624 -0.9775  0.5763 -1.5875
 8029SOL     OW35719   2.297   4.380  10.085  0.2321  0.0255 -0.5765
 8029SOL    HW135720   2.320   4.403  10.175  0.6537 -0.9377 -0.4455
 8029SOL    HW235721   2.273   4.471  10.064  0.4961  0.4991  1.1302
 8030SOL     OW35722   2.338   2.393   4.661 -0.0768  0.0438 -0.2270
 8030SOL    HW135723   2.425   2.358   4.643 -0.4645 -0.8936 -0.3052
 8030SOL    HW235724   2.354   2.486   4.648 -1.6060  0.8013  3.2126
 8031SOL     OW35725   2.618   2.100   1.945 -0.1977  0.0345 -0.1718
 8031SOL    HW135726   2.578   2.171   1.895 -0.5602  0.6749  1.0246
 8031SOL    HW235727   2.710   2.107   1.917  0.4880 -0.4598  1.9067
 8032SOL     OW35728   1.447   0.963   3.036 -0.2174 -0.0615 -0.2535
 8032SOL    HW135729   1.509   1.001   3.099 -0.8863  2.8362 -1.3480
 8032SOL    HW235730   1.371   0.993   3.085 -0.0896  0.1401 -0.1790
 8033SOL     OW35731   3.688   2.689   1.437  0.2668  0.5424 -0.0467
 8033SOL    HW135732   3.681   2.628   1.511  0.9081 -0.1622 -0.5733
 8033SOL    HW235733   3.597   2.719   1.433  0.5231  1.0508 -1.9040
 8034SOL     OW35734   2.744   3.878  12.113 -0.2486 -0.1899  0.0546
 8034SOL    HW135735   2.750   3.917  12.200  1.7704  2.6323 -1.3889
 8034SOL    HW235736   2.815   3.927  12.072 -1.8937  0.9921 -1.3159
 8035SOL     OW35737   0.780   1.961   7.909 -0.1322  0.2265  0.5760
 8035SOL    HW135738   0.713   1.893   7.919  0.3201 -0.4496 -0.9194
 8035SOL    HW235739   0.741   2.041   7.944  1.1046  0.0423  2.3335
 8036SOL     OW35740   2.142   3.487  10.640  0.5185 -0.1694 -0.1897
 8036SOL    HW135741   2.150   3.398  10.674 -0.1984  1.1738  3.5719
 8036SOL    HW235742   2.214   3.535  10.680  0.9692 -1.2345  0.2893
 8037SOL     OW35743   3.980   4.538  13.710  0.5724 -0.4528  0.0848
 8037SOL    HW135744   4.056   4.595  13.716  0.7442 -0.3742 -3.0349
 8037SOL    HW235745   3.928   4.564  13.787  0.0891  4.8586 -2.0001
 8038SOL     OW35746   4.432   3.169  12.986  0.1491  0.4246 -0.0017
 8038SOL    HW135747   4.521   3.163  12.951 -0.4043 -0.0681 -1.3286
 8038SOL    HW235748   4.382   3.098  12.946 -0.9236  1.0660  0.2219
 8039SOL     OW35749   0.259   1.118   5.278 -0.1903  0.5542  0.3338
 8039SOL    HW135750   0.222   1.031   5.290  2.9841 -0.7253  0.6148
 8039SOL    HW235751   0.194   1.160   5.335  0.0424 -0.8264  1.6122
 8040SOL     OW35752   1.647   4.056   5.861 -0.0353  0.5672  0.0662
 8040SOL    HW135753   1.706   4.084   5.931  0.1461  0.8365 -0.1941
 8040SOL    HW235754   1.599   4.003   5.924 -0.4047  1.6209  0.6726
 8041SOL     OW35755   4.374   0.042   1.831 -0.3918 -0.3365  0.2684
 8041SOL    HW135756   4.430   0.009   1.761 -0.7888 -1.5129  0.5132
 8041SOL    HW235757   4.399   0.133   1.848  3.4550 -1.3668  0.2178
 8042SOL     OW35758   4.491   0.055   6.311  0.2250  0.1225 -0.4519
 8042SOL    HW135759   4.580   0.023   6.326 -0.0138  1.3504  3.3094
 8042SOL    HW235760   4.464   0.089   6.396  0.4859 -0.4887 -0.1214
 8043SOL     OW35761   3.380   2.595  15.084 -0.1986  0.2099 -0.9011
 8043SOL    HW135762   3.461   2.644  15.085 -0.0366 -0.0763 -0.0218
 8043SOL    HW235763   3.399   2.515  15.035  0.3632  1.4928 -2.7680
 8044SOL     OW35764   3.943   1.152  14.018  0.2406 -0.3961 -0.3470
 8044SOL    HW135765   3.951   1.064  13.983 -0.4869 -0.8095  0.5105
 8044SOL    HW235766   3.851   1.177  14.010  0.2434 -0.7571 -1.5307
 8045SOL     OW35767   0.038   3.778  14.865  0.5513 -0.0369 -0.6119
 8045SOL    HW135768   4.703   3.824  14.910 -0.3350 -0.7165 -1.3149
 8045SOL    HW235769   0.000   3.691  14.853  1.3963 -0.3917 -0.7409
 8046SOL     OW35770   1.746   3.779   0.680  0.2793  0.0636 -0.2981
 8046SOL    HW135771   1.838   3.761   0.662  1.2173  3.3286  1.0792
 8046SOL    HW235772   1.698   3.723   0.619  4.2196 -1.2766 -2.1159
 8047SOL     OW35773   2.169   0.644   8.316  0.0233  0.2171 -0.5130
 8047SOL    HW135774   2.202   0.556   8.301 -1.4955 -0.2639 -1.0352
 8047SOL    HW235775   2.122   0.642   8.400  1.2620 -1.4245  0.1393
 8048SOL     OW35776   2.317   3.126  14.680  0.5186 -0.5340 -0.0583
 8048SOL    HW135777   2.263   3.182  14.736  0.7735  0.5483 -0.9007
 8048SOL    HW235778   2.342   3.061  14.746 -2.5483 -0.5635  1.0676
 8049SOL     OW35779   3.824   4.006  11.952  0.5629 -0.6888 -0.3053
 8049SOL    HW135780   3.847   3.990  12.044 -2.2824 -2.1675  0.1543
 8049SOL    HW235781   3.760   3.939  11.926 -0.1683  0.4772 -1.5219
 8050SOL     OW35782   1.049   3.431   0.288 -0.4976 -0.5735  0.0725
 8050SOL    HW135783   1.136   3.429   0.326  0.0502  0.9736 -1.0996
 8050SOL    HW235784   1.054   3.516   0.244 -2.8703 -0.4764 -0.0385
 8051SOL     OW35785   2.277   2.235   6.732 -0.3777  0.0213 -0.4442
 8051SOL    HW135786   2.286   2.319   6.687  0.7124  0.5610  0.8220
 8051SOL    HW235787   2.318   2.263   6.813 -1.4188 -0.3076  0.1939
 8052SOL     OW35788   3.656   1.947  10.622  0.7124  0.1986 -0.0394
 8052SOL    HW135789   3.719   1.925  10.553  1.9242  0.3601  1.0201
 8052SOL    HW235790   3.699   1.958  10.706  0.4864 -1.3972  0.2916
 8053SOL     OW35791   3.066   4.573   9.175  0.5833 -0.3088  0.6227
 8053SOL    HW135792   2.985   4.535   9.141  0.9430 -1.5001  1.1061
 8053SOL    HW235793   3.046   4.667   9.173 -1.7778 -0.8190  0.9041
 8054SOL     OW35794   0.522   4.436   3.626  0.4570 -0.0577 -0.8940
 8054SOL    HW135795   0.445   4.454   3.571 -1.3410 -0.2292  1.5455
 8054SOL    HW235796   0.576   4.396   3.558  1.9652  1.1717 -0.3985
 8055SOL     OW35797   4.231   0.196   5.778  0.4739 -0.0753  1.0213
 8055SOL    HW135798   4.137   0.196   5.763  0.6182  2.7760  0.1915
 8055SOL    HW235799   4.245   0.101   5.769 -0.6678 -0.1364 -0.1055
 8056SOL     OW35800   0.811   1.384  10.271 -0.0767  0.4418  0.0980
 8056SOL    HW135801   0.899   1.371  10.235 -0.1908 -0.5388  0.1882
 8056SOL    HW235802   0.761   1.325  10.214 -0.8054  1.9386 -0.8137
 8057SOL     OW35803   3.156   4.044  14.385  0.3621 -0.0467  0.1619
 8057SOL    HW135804   3.179   4.026  14.476 -1.8565  0.2225  0.7591
 8057SOL    HW235805   3.075   4.093  14.397 -0.7221 -2.6795  3.6869
 8058SOL     OW35806   1.148   0.741  14.791 -0.3949  0.0405  0.2949
 8058SOL    HW135807   1.233   0.746  14.746 -0.9394  2.3338 -0.4907
 8058SOL    HW235808   1.175   0.795  14.865 -1.5981  0.8985  0.1057
 8059SOL     OW35809   3.931   4.298  10.958 -0.6012  0.2096  0.2467
 8059SOL    HW135810   3.995   4.300  11.028 -0.8244  1.8305  0.3947
 8059SOL    HW235811   3.889   4.212  10.967 -0.3370  0.1465  0.8611
 8060SOL     OW35812   2.677   2.157   8.490  0.3867  0.6231  0.1872
 8060SOL    HW135813   2.699   2.201   8.572 -0.3218 -0.2847  0.8550
 8060SOL    HW235814   2.606   2.102   8.522  1.3978 -1.1869 -0.6856
 8061SOL     OW35815   0.519   4.668   2.918  0.2677  0.1942 -0.1470
 8061SOL    HW135816   0.476   4.618   2.848 -1.5468  1.5878 -0.0294
 8061SOL    HW235817   0.602   4.693   2.878 -1.0627 -0.1560 -3.1188
 8062SOL     OW35818   2.806   4.409   7.057 -0.0649 -0.2627 -0.0723
 8062SOL    HW135819   2.746   4.472   7.018 -0.5706 -0.2883  0.6562
 8062SOL    HW235820   2.734   4.363   7.100  0.0739  2.6497  3.2778
 8063SOL     OW35821   1.340   1.063   4.064  0.5376  0.2645  0.3987
 8063SOL    HW135822   1.334   1.066   4.159  2.6209 -1.4081  0.5693
 8063SOL    HW235823   1.409   0.997   4.061 -0.9856 -1.1858 -1.9075
 8064SOL     OW35824   4.314   1.708   9.953  0.1099 -0.4409  0.2522
 8064SOL    HW135825   4.272   1.660   9.883 -2.6186  1.0840  0.8437
 8064SOL    HW235826   4.253   1.782   9.955 -0.5721 -0.9766 -1.4236
 8065SOL     OW35827   4.414   3.044   3.317 -0.4815 -0.2362 -0.0685
 8065SOL    HW135828   4.488   3.032   3.377  1.1784 -1.9155 -2.4361
 8065SOL    HW235829   4.419   2.964   3.264  1.5168 -0.6698  0.7652
 8066SOL     OW35830   4.229   0.006   4.753  0.1212  0.6140 -0.7574
 8066SOL    HW135831   4.311   0.016   4.801  0.6973 -0.3714 -1.5415
 8066SOL    HW235832   4.225   4.647   4.737 -0.3532  0.2337  1.6272
 8067SOL     OW35833   0.719   4.399   2.183  0.5293  0.2114 -0.2864
 8067SOL    HW135834   0.723   4.304   2.177  2.2436  0.2601 -0.0288
 8067SOL    HW235835   0.630   4.413   2.150  0.7228  0.6501 -0.6243
 8068SOL     OW35836   3.126   2.899  15.423 -0.1388 -0.4621  0.0450
 8068SOL    HW135837   3.048   2.860  15.385 -0.5721 -0.1300  0.5940
 8068SOL    HW235838   3.184   2.823  15.418  1.1293  0.7038 -2.9344
 8069SOL     OW35839   0.646   2.049   1.701  0.2309  0.4075  0.1355
 8069SOL    HW135840   0.605   2.062   1.616  0.7054 -0.3413 -0.2117
 8069SOL    HW235841   0.721   1.996   1.674 -0.3105 -0.5524  0.5230
 8070SOL     OW35842   1.056   1.828   3.327 -0.1042 -0.5707 -0.0329
 8070SOL    HW135843   1.084   1.884   3.255 -2.1887  1.6383  0.8620
 8070SOL    HW235844   0.963   1.849   3.336 -0.0594 -0.5172  0.3208
 8071SOL     OW35845   1.150   4.523   0.838  0.2248  0.2883 -0.3983
 8071SOL    HW135846   1.055   4.517   0.829  0.1350 -0.0015  0.7276
 8071SOL    HW235847   1.168   4.610   0.872  1.9521  0.2090 -1.0691
 8072SOL     OW35848   0.867   3.614  12.252 -0.4507  0.1047  0.1873
 8072SOL    HW135849   0.815   3.687  12.286  0.2576  0.8661 -0.3686
 8072SOL    HW235850   0.927   3.654  12.189  1.2570 -2.2554  0.3130
 8073SOL     OW35851   0.707   1.215  10.088 -0.2514  0.2357  0.1209
 8073SOL    HW135852   0.611   1.215  10.081 -0.2310  2.0386 -0.0484
 8073SOL    HW235853   0.729   1.231   9.997  3.3324  1.9910  1.3084
 8074SOL     OW35854   3.871   3.294   6.260 -0.2749 -0.1767 -0.6174
 8074SOL    HW135855   3.945   3.236   6.246 -1.2209 -0.8127 -2.8350
 8074SOL    HW235856   3.915   3.376   6.282  0.2564 -0.5784 -0.1786
 8075SOL     OW35857   4.040   3.925  10.099  0.4127 -0.0235 -0.4283
 8075SOL    HW135858   4.084   3.904  10.017  0.3946 -1.9416  0.0635
 8075SOL    HW235859   4.072   3.858  10.158 -1.1826  0.6917  1.2419
 8076SOL     OW35860   0.389   1.880   8.323 -0.2871  0.3883 -0.2517
 8076SOL    HW135861   0.390   1.969   8.357 -0.1461 -0.6986  2.6180
 8076SOL    HW235862   0.475   1.847   8.350  1.0947  4.3145  0.2042
 8077SOL     OW35863   3.711   4.512   4.019  0.1949 -0.1224  0.1438
 8077SOL    HW135864   3.755   4.556   4.092  0.6211 -1.1606  0.5277
 8077SOL    HW235865   3.773   4.440   4.006 -0.8726 -1.3059  1.4952
 8078SOL     OW35866   2.228   0.526  17.607  0.3042 -0.0495  0.0609
 8078SOL    HW135867   2.250   0.468  17.680  1.4629  0.1897 -0.1002
 8078SOL    HW235868   2.252   0.460  17.542 -1.1493  1.3274 -1.8769
 8079SOL     OW35869   2.322   0.970  15.950 -0.4061 -0.0712  0.6220
 8079SOL    HW135870   2.292   1.060  15.958 -0.8026 -0.1477 -0.0325
 8079SOL    HW235871   2.276   0.944  15.871 -2.4242  0.4148  1.6442
 8080SOL     OW35872   4.689   3.116  10.909 -0.1125  0.5449  0.1298
 8080SOL    HW135873   4.618   3.059  10.879  0.6574 -1.3045  1.8337
 8080SOL    HW235874   4.668   3.194  10.856 -2.4790 -0.3827 -0.3307
 8081SOL     OW35875   2.677   0.814   4.295  0.3064  0.3301 -0.3672
 8081SOL    HW135876   2.689   0.906   4.316  0.5315  1.1427 -3.9443
 8081SOL    HW235877   2.585   0.789   4.292 -0.1691  2.0256  0.6966
 8082SOL     OW35878   1.599   0.664   6.287  0.0692  0.0790 -0.1214
 8082SOL    HW135879   1.508   0.636   6.275 -0.1299  0.7872 -0.2669
 8082SOL    HW235880   1.650   0.583   6.275 -1.2365 -0.8850  0.8238
 8083SOL     OW35881   0.653   0.856   9.503 -0.2276 -0.0748 -0.3167
 8083SOL    HW135882   0.665   0.764   9.523  0.9680 -0.1464 -1.3185
 8083SOL    HW235883   0.628   0.898   9.585 -0.6461  2.4688 -1.7339
 8084SOL     OW35884   4.248   2.277   6.744  0.1835  0.1619  0.3209
 8084SOL    HW135885   4.198   2.354   6.772 -0.0762 -0.4444  1.5119
 8084SOL    HW235886   4.308   2.317   6.681  0.3461 -4.0224 -2.1928
 8085SOL     OW35887   3.448   1.039   0.366 -0.2381 -0.3584 -0.2003
 8085SOL    HW135888   3.374   1.035   0.427  1.7041 -2.3382  2.0289
 8085SOL    HW235889   3.462   0.944   0.362  1.1789 -0.1044 -1.0374
 8086SOL     OW35890   1.564   3.635   5.678  0.6701  0.1463 -0.0485
 8086SOL    HW135891   1.648   3.677   5.662  0.3824 -0.8569 -4.1822
 8086SOL    HW235892   1.553   3.576   5.603  0.5201 -2.2553  1.8542
 8087SOL     OW35893   4.588   3.598   7.237 -0.3569  0.4354  0.0577
 8087SOL    HW135894   4.591   3.679   7.186 -0.8938  0.1580 -0.4096
 8087SOL    HW235895   4.496   3.572   7.235 -0.0141 -0.6753 -1.7301
 8088SOL     OW35896   1.101   1.667   2.381  0.6271  0.0701 -0.1111
 8088SOL    HW135897   1.113   1.721   2.302 -1.7805  1.6701  0.6178
 8088SOL    HW235898   1.067   1.588   2.337  1.3365  0.0387 -0.6007
 8089SOL     OW35899   3.715   0.798  12.601  0.0862  0.0372 -0.7249
 8089SOL    HW135900   3.641   0.842  12.559  0.2208 -0.4546 -1.4866
 8089SOL    HW235901   3.787   0.851  12.568  0.9114  0.1146  1.1732
 8090SOL     OW35902   0.811   4.482  12.668 -0.4229 -0.5053 -0.2414
 8090SOL    HW135903   0.878   4.469  12.735 -0.3325 -0.6439 -0.3573
 8090SOL    HW235904   0.868   4.491  12.591  0.4188  0.2115  0.4583
 8091SOL     OW35905   0.250   0.408   5.404 -0.2417 -0.1433  0.1393
 8091SOL    HW135906   0.279   0.395   5.314 -0.9119  0.6459 -0.1849
 8091SOL    HW235907   0.267   0.328   5.453 -0.2703 -0.5110 -0.4572
 8092SOL     OW35908   0.454   4.110   2.065  0.2245 -0.1231  1.3169
 8092SOL    HW135909   0.428   4.135   1.977  0.5716 -2.9996  0.4013
 8092SOL    HW235910   0.395   4.163   2.118 -0.0495  2.8101 -1.9713
 8093SOL     OW35911   4.050   2.682   1.733 -0.7525 -0.3508 -0.2218
 8093SOL    HW135912   3.992   2.607   1.743 -1.8804  0.4266 -0.8521
 8093SOL    HW235913   3.986   2.746   1.763  0.3646 -0.0739  1.5508
 8094SOL     OW35914   2.535   3.454   6.881  0.4699 -0.0037 -0.1047
 8094SOL    HW135915   2.604   3.471   6.945  0.6726 -0.4231 -0.2122
 8094SOL    HW235916   2.598   3.418   6.819  1.9850  2.1127  0.2085
 8095SOL     OW35917   1.514   4.296   6.061 -0.1396  0.1684  0.3290
 8095SOL    HW135918   1.554   4.375   6.096 -0.5338  0.0296  1.0959
 8095SOL    HW235919   1.529   4.235   6.134  1.2281  0.0655 -0.0442
 8096SOL     OW35920   2.749   0.231   8.634  0.1906  0.2249 -0.2131
 8096SOL    HW135921   2.689   0.240   8.709  0.0278  1.1414 -0.4486
 8096SOL    HW235922   2.773   0.144   8.666 -0.8910  0.0660  0.1598
 8097SOL     OW35923   1.996   2.484   5.084 -0.3008  0.1799  0.9402
 8097SOL    HW135924   2.084   2.521   5.075 -0.4248  0.2572  0.0516
 8097SOL    HW235925   1.984   2.439   5.001  1.2248 -1.2313  1.4691
 8098SOL     OW35926   0.217   0.166  15.645  0.4034 -0.1886  0.5978
 8098SOL    HW135927   0.296   0.209  15.613  0.6085 -0.8563  0.2030
 8098SOL    HW235928   0.171   0.165  15.561  1.0036  1.7649  0.2406
 8099SOL     OW35929   1.995   3.025  12.266 -0.2315 -0.6609  0.0968
 8099SOL    HW135930   1.982   3.048  12.174  0.7980 -0.0242  0.1114
 8099SOL    HW235931   2.010   3.115  12.294 -0.7382 -0.7698  0.7311
 8100SOL     OW35932   3.138   3.688  16.715 -0.0503 -0.1040 -0.0737
 8100SOL    HW135933   3.116   3.714  16.626  1.4904  0.7650 -0.1897
 8100SOL    HW235934   3.072   3.740  16.762  2.9176  1.8479  1.9150
 8101SOL     OW35935   0.549   4.112  11.182 -0.5419 -0.5656 -0.2053
 8101SOL    HW135936   0.484   4.072  11.124 -1.2880 -3.6536  2.7367
 8101SOL    HW235937   0.614   4.042  11.189  0.6959  0.4613 -1.4839
 8102SOL     OW35938   1.199   3.070   7.760 -0.4047 -0.0956 -0.1408
 8102SOL    HW135939   1.258   3.120   7.704 -1.3776  0.6585 -0.4919
 8102SOL    HW235940   1.190   2.980   7.727  0.2457 -0.0117 -0.5337
 8103SOL     OW35941   4.061   1.524  13.048  0.2613 -0.6836  0.7022
 8103SOL    HW135942   4.056   1.501  12.955  0.0553  0.2553  0.4843
 8103SOL    HW235943   4.107   1.444  13.074 -0.5476 -1.3744  0.0106
 8104SOL     OW35944   3.063   0.648   1.840  0.0986 -0.1205  0.3536
 8104SOL    HW135945   3.135   0.690   1.793 -0.3199 -0.7633 -0.8600
 8104SOL    HW235946   3.068   0.674   1.932  2.8224 -0.8493  0.3959
 8105SOL     OW35947   3.577   4.556  12.387 -0.6568 -0.2893 -0.4439
 8105SOL    HW135948   3.624   4.482  12.347 -0.9645 -0.1057 -1.1398
 8105SOL    HW235949   3.487   4.545  12.356 -0.6442 -2.5112  0.2273
 8106SOL     OW35950   3.765   0.770  14.959  0.1837 -0.3327 -0.2869
 8106SOL    HW135951   3.860   0.786  14.960 -0.1970  1.8120  1.3526
 8106SOL    HW235952   3.760   0.706  15.030 -1.2996 -0.5979 -0.6395
 8107SOL     OW35953   2.070   1.677  13.563  0.1764 -0.1848  0.4244
 8107SOL    HW135954   2.159   1.700  13.589 -0.4171 -0.5113  2.7233
 8107SOL    HW235955   2.071   1.671  13.467  1.2458  2.6528  0.2422
 8108SOL     OW35956   1.979   3.669   4.806  0.0685  0.0606 -0.2374
 8108SOL    HW135957   1.941   3.586   4.777  0.4845 -0.0433 -0.4968
 8108SOL    HW235958   2.057   3.648   4.754  0.0066  1.4532 -0.8946
 8109SOL     OW35959   2.624   0.384   9.608  0.9470  0.1016  0.3335
 8109SOL    HW135960   2.629   0.457   9.670  0.0391  1.3159 -1.0352
 8109SOL    HW235961   2.617   0.313   9.672 -0.7902  0.6689  0.7834
 8110SOL     OW35962   3.043   3.586  12.178 -0.1397  0.1113  0.1763
 8110SOL    HW135963   3.087   3.510  12.214 -0.4391  0.7107  1.7943
 8110SOL    HW235964   2.973   3.551  12.123 -0.5750  1.9104 -0.4346
 8111SOL     OW35965   1.806   3.798   7.493  0.4780  0.2085 -0.1455
 8111SOL    HW135966   1.774   3.801   7.402  0.8626  1.9353 -0.2148
 8111SOL    HW235967   1.883   3.741   7.490 -1.7581 -2.7405 -1.5141
 8112SOL     OW35968   2.369   2.892   5.340  0.4761  0.0897  0.2892
 8112SOL    HW135969   2.287   2.867   5.383 -0.6111  0.1527 -1.7597
 8112SOL    HW235970   2.390   2.973   5.387 -0.4789  0.4920  0.0232
 8113SOL     OW35971   1.827   0.232   9.411 -0.1937 -0.1150 -0.0796
 8113SOL    HW135972   1.780   0.296   9.357  0.5313  2.6997  2.6989
 8113SOL    HW235973   1.752   0.173   9.423  1.5637 -2.0555  1.2196
 8114SOL     OW35974   3.733   3.254   6.496 -0.2565 -0.3668  0.1001
 8114SOL    HW135975   3.787   3.247   6.418 -0.9432  1.6693 -0.5435
 8114SOL    HW235976   3.744   3.348   6.503 -0.1383 -0.2140 -2.1890
 8115SOL     OW35977   1.149   3.728   8.788 -0.1806 -0.5135  0.4555
 8115SOL    HW135978   1.058   3.697   8.796 -0.0476 -0.7245  1.1172
 8115SOL    HW235979   1.192   3.667   8.847 -0.4564 -1.3875 -0.2350
 8116SOL     OW35980   2.889   3.497  12.482  0.1049 -0.4981 -0.0880
 8116SOL    HW135981   2.867   3.583  12.446  0.8868 -0.4607 -0.4792
 8116SOL    HW235982   2.932   3.452  12.409  2.1904  1.6625 -0.1925
 8117SOL     OW35983   1.007   3.236  10.265  0.7229 -0.3504 -0.0359
 8117SOL    HW135984   1.042   3.219  10.177  1.5897  1.2072  0.0062
 8117SOL    HW235985   0.916   3.208  10.254  1.3645 -1.7525 -1.7991
 8118SOL     OW35986   0.093   1.009   1.688  0.6971  0.3208 -0.5118
 8118SOL    HW135987   0.142   1.085   1.719 -2.4897  1.1715  2.3690
 8118SOL    HW235988   0.022   1.062   1.653 -1.7771 -0.8228  2.8145
 8119SOL     OW35989   4.402   2.476   6.626  0.0117 -0.0577 -0.0781
 8119SOL    HW135990   4.472   2.507   6.684 -1.4200  0.7738  1.2202
 8119SOL    HW235991   4.446   2.414   6.568 -2.0971  0.5547 -2.3285
 8120SOL     OW35992   2.105   4.416   7.224 -0.2658 -0.0302  0.1072
 8120SOL    HW135993   2.024   4.462   7.246  1.4025  2.4145  1.1508
 8120SOL    HW235994   2.078   4.389   7.136 -1.2660 -0.4920  0.5485
 8121SOL     OW35995   1.886   3.128   7.015  0.3856 -0.3769  0.6660
 8121SOL    HW135996   1.940   3.182   6.957 -1.4862  1.0125  0.2399
 8121SOL    HW235997   1.930   3.155   7.095  0.8441 -0.3420  0.4032
 8122SOL     OW35998   0.179   2.790   4.626 -0.4088  0.4236  0.0969
 8122SOL    HW135999   0.210   2.708   4.586 -1.4895  1.0066 -1.9531
 8122SOL    HW236000   0.149   2.742   4.704 -0.0047  1.1086  0.6751
 8123SOL     OW36001   2.279   1.816   4.994 -0.3115  0.0997 -0.4808
 8123SOL    HW136002   2.296   1.803   5.088  0.5670 -0.1567 -0.6726
 8123SOL    HW236003   2.186   1.837   4.993 -0.2145  0.5926  0.3053
 8124SOL     OW36004   0.971   4.582   4.816 -0.2173  0.3151  0.1040
 8124SOL    HW136005   0.938   4.663   4.776 -1.4412 -0.5332 -0.6228
 8124SOL    HW236006   0.942   4.593   4.906 -0.4630 -0.4868  0.1190
 8125SOL     OW36007   0.364   0.696   7.012 -0.0275  0.2134 -0.3662
 8125SOL    HW136008   0.294   0.754   7.041 -0.2004 -0.3937  0.4424
 8125SOL    HW236009   0.419   0.679   7.089 -0.1815 -0.6115 -0.4399
 8126SOL     OW36010   0.933   3.768   4.055 -0.0925 -0.1445 -0.4212
 8126SOL    HW136011   0.979   3.759   3.972 -0.9719 -1.1488 -0.8095
 8126SOL    HW236012   1.007   3.805   4.103 -0.4388  0.1531 -0.1139
 8127SOL     OW36013   2.949   2.350  16.399  0.0758  0.6267 -0.4546
 8127SOL    HW136014   2.970   2.441  16.419 -1.5249  0.9984 -0.4020
 8127SOL    HW236015   2.863   2.355  16.356 -0.3760  0.2386  0.4162
 8128SOL     OW36016   1.930   2.175   9.499  0.0764 -0.5451  0.0802
 8128SOL    HW136017   1.877   2.098   9.480  0.1919 -0.4015 -0.8367
 8128SOL    HW236018   1.889   2.197   9.583 -0.1384 -1.4171  0.2074
 8129SOL     OW36019   2.976   4.473  15.796 -0.2645  0.3473  0.1565
 8129SOL    HW136020   3.024   4.549  15.762  0.7018  0.1281  1.0041
 8129SOL    HW236021   3.031   4.400  15.767 -1.1255 -0.3889  0.3835
 8130SOL     OW36022   2.043   3.404  17.413 -0.2172  0.1571 -1.0551
 8130SOL    HW136023   2.126   3.443  17.438 -1.0514  0.5727  1.0984
 8130SOL    HW236024   1.997   3.429  17.494  1.1493  1.5545 -0.7126
 8131SOL     OW36025   1.855   3.539  12.582  0.2721 -0.3152  0.5189
 8131SOL    HW136026   1.881   3.628  12.559 -2.9814  1.2468  2.7743
 8131SOL    HW236027   1.932   3.511  12.631  1.9911  1.2100 -1.3272
 8132SOL     OW36028   4.619   0.044  16.231 -0.4315  0.4766  0.2250
 8132SOL    HW136029   4.574   0.058  16.314  1.2867 -3.0909  1.7356
 8132SOL    HW236030   4.693   0.105  16.230  0.5208 -0.7001  1.9886
 8133SOL     OW36031   2.541   4.414   3.214  0.1579 -0.0981  0.0827
 8133SOL    HW136032   2.487   4.484   3.252 -0.3730 -0.1875 -0.5052
 8133SOL    HW236033   2.622   4.447   3.252  0.0386  0.0958  0.1690
 8134SOL     OW36034   2.421   2.235   5.237  0.3218 -0.2860  0.0707
 8134SOL    HW136035   2.458   2.162   5.286  1.6768 -0.3583 -1.0504
 8134SOL    HW236036   2.402   2.197   5.151  0.0755 -1.1204  0.4990
 8135SOL     OW36037   0.969   4.113  17.406  0.1282  0.0857  0.2406
 8135SOL    HW136038   0.901   4.093  17.342 -1.0516  1.3310  1.1053
 8135SOL    HW236039   1.042   4.068  17.364 -0.0021 -0.3488  0.4856
 8136SOL     OW36040   0.284   3.371   3.620 -0.3726 -0.8736  0.0252
 8136SOL    HW136041   0.209   3.429   3.630  0.2820  0.1124 -0.7542
 8136SOL    HW236042   0.270   3.321   3.539 -1.7168  1.4787 -1.1778
 8137SOL     OW36043   0.142   3.891  15.732  0.5280 -0.2302 -0.0250
 8137SOL    HW136044   0.205   3.828  15.768 -0.9345 -2.1393 -0.8088
 8137SOL    HW236045   0.179   3.968  15.775  0.5376  1.3519 -2.8653
 8138SOL     OW36046   4.360   0.049  13.909 -0.2819 -0.2200 -0.1616
 8138SOL    HW136047   4.318   0.043  13.823 -0.1818 -0.1886 -0.2124
 8138SOL    HW236048   4.446   0.018  13.880 -1.0327 -2.7643  0.3066
 8139SOL     OW36049   1.891   1.265   4.045  0.1701 -0.2371  0.2929
 8139SOL    HW136050   1.896   1.361   4.047 -0.6671 -0.1109 -2.7306
 8139SOL    HW236051   1.817   1.262   3.984  0.2867 -0.1942  0.1487
 8140SOL     OW36052   3.264   2.658  15.336 -0.0257 -0.1074 -0.6147
 8140SOL    HW136053   3.320   2.644  15.259  1.2034  1.4380 -0.0141
 8140SOL    HW236054   3.202   2.586  15.325  1.1893 -1.5049  1.9752
 8141SOL     OW36055   4.376   1.243   4.900  0.3466 -0.2268  0.0257
 8141SOL    HW136056   4.450   1.192   4.867  0.8875 -0.7135  1.9388
 8141SOL    HW236057   4.399   1.242   4.993 -0.5865  0.9256  0.2672
 8142SOL     OW36058   3.164   3.256   7.089  0.1314  0.0750  0.4065
 8142SOL    HW136059   3.239   3.314   7.078  1.7027 -2.4204 -1.8894
 8142SOL    HW236060   3.183   3.211   7.172 -0.8565  1.0237  1.1511
 8143SOL     OW36061   3.172   4.508   1.990 -0.1646  0.8275  0.2665
 8143SOL    HW136062   3.252   4.485   1.943  0.6896  1.9271  1.1765
 8143SOL    HW236063   3.192   4.476   2.078 -1.0050  0.3205  0.2691
 8144SOL     OW36064   2.211   3.813   0.431  0.3713 -0.0181  0.0994
 8144SOL    HW136065   2.301   3.781   0.438  1.0360  2.1232  1.2505
 8144SOL    HW236066   2.230   3.903   0.454  0.3337  0.6666 -2.5201
 8145SOL     OW36067   4.414   1.739  10.203 -0.8317  0.0150 -0.3691
 8145SOL    HW136068   4.381   1.721  10.116 -0.8374 -3.1603  0.2969
 8145SOL    HW236069   4.495   1.786  10.182  0.2156 -1.9870 -0.7793
 8146SOL     OW36070   0.516   2.604   4.359  0.1152  0.3423  0.6255
 8146SOL    HW136071   0.553   2.684   4.397  0.3358  2.1979 -3.5188
 8146SOL    HW236072   0.424   2.628   4.353  0.1073  0.2637  0.4435
 8147SOL     OW36073   4.247   0.850   7.714 -0.4579 -0.1055  0.2748
 8147SOL    HW136074   4.297   0.842   7.633  0.1804  1.0561  0.5535
 8147SOL    HW236075   4.158   0.835   7.684 -0.6045 -1.0639  1.1986
 8148SOL     OW36076   2.693   3.250   7.717 -0.1770 -0.2950 -0.3860
 8148SOL    HW136077   2.600   3.229   7.708 -0.3328  0.3651 -0.3477
 8148SOL    HW236078   2.696   3.343   7.693  0.9169 -0.4280 -0.7503
 8149SOL     OW36079   2.165   3.953   7.397  0.2246  0.4192  0.0151
 8149SOL    HW136080   2.236   3.917   7.345 -0.2952 -0.7309  0.0941
 8149SOL    HW236081   2.209   4.024   7.443  0.3260  0.6239 -0.4030
 8150SOL     OW36082   3.991   0.169   3.049  0.5376  0.0548 -0.0527
 8150SOL    HW136083   4.068   0.129   3.009 -0.8345 -0.4063 -2.2597
 8150SOL    HW236084   3.998   0.255   3.007 -1.4322 -0.3028 -1.1397
 8151SOL     OW36085   1.638   0.837   9.819  0.2718 -0.2508  0.2913
 8151SOL    HW136086   1.679   0.802   9.739  0.6194  0.5574  0.1131
 8151SOL    HW236087   1.579   0.761   9.827 -0.5553  0.2345 -1.0582
 8152SOL     OW36088   3.081   0.998   9.947 -0.2552 -0.2780  0.0119
 8152SOL    HW136089   3.089   1.087   9.912 -0.3754 -0.2934 -0.0535
 8152SOL    HW236090   2.988   0.988   9.964 -0.4340 -0.2018 -0.9223
 8153SOL     OW36091   4.393   0.905   9.185 -0.3244  0.2314  0.2838
 8153SOL    HW136092   4.314   0.876   9.230 -0.1064 -0.4131  0.2480
 8153SOL    HW236093   4.438   0.825   9.155 -2.3520 -1.1116  0.8685
 8154SOL     OW36094   1.495   2.115   1.512  0.2793  0.2560  0.1953
 8154SOL    HW136095   1.529   2.027   1.529  1.4396  0.8225  0.7832
 8154SOL    HW236096   1.528   2.129   1.423 -0.1347  0.4856  0.0762
 8155SOL     OW36097   1.584   0.388   8.411  0.3479  0.2718  0.1740
 8155SOL    HW136098   1.602   0.470   8.457  2.3502  0.3492 -0.7626
 8155SOL    HW236099   1.500   0.413   8.372 -0.3757  0.9239  2.1323
 8156SOL     OW36100   2.249   1.604   4.794  0.3405 -0.2773 -0.3430
 8156SOL    HW136101   2.269   1.682   4.846 -2.1987  0.0854  0.0987
 8156SOL    HW236102   2.203   1.642   4.719 -2.8644  0.1463  1.8357
 8157SOL     OW36103   0.877   2.420   6.703 -0.4913  0.1038 -0.1354
 8157SOL    HW136104   0.896   2.446   6.793  0.0622 -0.2461 -0.1512
 8157SOL    HW236105   0.805   2.358   6.711 -0.4974  0.3547  1.7180
 8158SOL     OW36106   0.072   2.159   1.942  0.2220  0.2773  0.5509
 8158SOL    HW136107   0.100   2.067   1.941  2.2450  0.9101 -0.7120
 8158SOL    HW236108   0.103   2.189   2.028  0.9699  3.1886 -0.7733
 8159SOL     OW36109   3.859   4.653   8.177 -0.0167 -0.0242  0.1640
 8159SOL    HW136110   3.873   4.566   8.213 -1.7108  0.6558  2.4845
 8159SOL    HW236111   3.774   4.638   8.136 -0.3831 -0.3731  1.0535
 8160SOL     OW36112   2.474   3.281  12.136 -0.2967  0.2089  0.3963
 8160SOL    HW136113   2.457   3.190  12.162  0.1413 -0.4963 -1.7912
 8160SOL    HW236114   2.532   3.278  12.060 -0.9714 -0.4168 -0.0953
 8161SOL     OW36115   1.007   3.424   9.218 -0.2110 -0.6321 -0.2009
 8161SOL    HW136116   0.961   3.382   9.145  0.8491 -0.1180 -1.1639
 8161SOL    HW236117   0.939   3.456   9.277  1.7370  0.0600  1.6508
 8162SOL     OW36118   0.220   4.027  15.047 -0.2701  0.2946  0.1311
 8162SOL    HW136119   0.161   4.051  15.118 -0.6922  0.3406 -0.2361
 8162SOL    HW236120   0.161   4.064  14.981  0.4025  0.7691 -0.2024
 8163SOL     OW36121   0.604   3.374   2.022  0.0753  0.0156  0.3675
 8163SOL    HW136122   0.561   3.458   2.035  1.3415  0.5316  1.2500
 8163SOL    HW236123   0.541   3.329   1.966  0.7035 -0.6974  0.2211
 8164SOL     OW36124   1.529   1.495  15.831 -0.2359 -0.3412  0.1440
 8164SOL    HW136125   1.458   1.485  15.894 -1.0269 -0.8864 -0.8414
 8164SOL    HW236126   1.604   1.487  15.891  0.2623 -3.1644 -0.8469
 8165SOL     OW36127   3.136   3.748   3.506  0.1858  0.1132 -0.1444
 8165SOL    HW136128   3.094   3.784   3.583  0.0441  1.8062 -1.0279
 8165SOL    HW236129   3.086   3.798   3.441 -1.5459 -0.3233  0.8578
 8166SOL     OW36130   1.553   1.215  14.754 -0.7041 -0.4128  0.0675
 8166SOL    HW136131   1.473   1.167  14.776 -2.6586  2.6065 -0.4403
 8166SOL    HW236132   1.598   1.137  14.722 -0.6592  0.0703 -1.0576
 8167SOL     OW36133   4.300   3.536   1.697 -0.5111 -0.5855  0.3019
 8167SOL    HW136134   4.270   3.448   1.719  2.5541 -1.1829  2.1018
 8167SOL    HW236135   4.278   3.591   1.773 -1.9896 -0.7869  0.0159
 8168SOL     OW36136   0.040   1.634  16.465  0.0979 -0.2721  0.2287
 8168SOL    HW136137   4.732   1.596  16.541 -1.0070  0.0961 -0.2276
 8168SOL    HW236138   4.729   1.588  16.396 -0.4279  1.0459 -0.2976
 8169SOL     OW36139   3.349   2.712  17.100 -0.1748 -0.4233  0.0120
 8169SOL    HW136140   3.405   2.776  17.056 -1.4005  1.0402  0.5914
 8169SOL    HW236141   3.321   2.771  17.171 -0.1227 -0.3194 -0.0538
 8170SOL     OW36142   0.632   4.675  14.952  0.5119 -0.4186 -0.4107
 8170SOL    HW136143   0.705   4.733  14.975  0.1485  0.5282 -1.6237
 8170SOL    HW236144   0.620   4.699  14.860  1.4388  1.7535  0.0355
 8171SOL     OW36145   0.919   3.139   1.445 -0.6065 -0.2419 -0.0879
 8171SOL    HW136146   0.897   3.071   1.381 -1.4369 -0.2386  0.1903
 8171SOL    HW236147   0.911   3.088   1.525 -1.3620  0.0842  0.0498
 8172SOL     OW36148   1.488   3.570  16.525  0.2271  0.0360  0.7532
 8172SOL    HW136149   1.428   3.519  16.471  3.4484 -1.7757 -1.0827
 8172SOL    HW236150   1.566   3.519  16.506 -0.3365  0.6167 -3.1697
 8173SOL     OW36151   0.401   2.279   1.669  0.1995 -0.0854 -0.2473
 8173SOL    HW136152   0.318   2.234   1.685 -0.1571  0.3140 -0.9988
 8173SOL    HW236153   0.422   2.247   1.581 -0.7089 -1.6553  0.1036
 8174SOL     OW36154   1.369   3.562   1.429  0.2743  0.2550 -0.3093
 8174SOL    HW136155   1.417   3.582   1.509 -1.9043  0.5549  0.9056
 8174SOL    HW236156   1.312   3.639   1.432 -0.1092 -0.0089 -0.8138
 8175SOL     OW36157   4.434   0.223   7.297  0.7678  0.0647 -0.4433
 8175SOL    HW136158   4.414   0.302   7.348  2.2739  0.4197 -0.4209
 8175SOL    HW236159   4.450   0.264   7.212 -0.2215  0.7254 -0.3170
 8176SOL     OW36160   1.658   3.476   6.281  0.0437 -0.6100 -0.2215
 8176SOL    HW136161   1.614   3.548   6.326  0.7100 -0.0536 -0.4536
 8176SOL    HW236162   1.750   3.503   6.276 -0.2933  0.8551  1.4865
 8177SOL     OW36163   1.899   3.703  10.222 -0.2941  0.2469  0.3537
 8177SOL    HW136164   1.867   3.629  10.170 -2.6024  0.9071  0.8492
 8177SOL    HW236165   1.848   3.687  10.302  0.0161 -0.3663  0.4315
 8178SOL     OW36166   1.375   3.017   3.987 -0.0440  0.2736 -0.1386
 8178SOL    HW136167   1.389   3.084   4.054  0.2654  0.0208  0.0521
 8178SOL    HW236168   1.435   3.044   3.917 -0.5155  3.5675  0.7371
 8179SOL     OW36169   3.166   1.118   2.834  0.1428 -0.5959  0.1163
 8179SOL    HW136170   3.136   1.202   2.869  2.2016 -0.8439  2.4835
 8179SOL    HW236171   3.089   1.061   2.834 -1.5446  1.7188 -0.8144
 8180SOL     OW36172   3.300   2.404   1.387 -0.1239  0.2642  0.0783
 8180SOL    HW136173   3.353   2.363   1.319 -0.8425 -1.7460  0.7136
 8180SOL    HW236174   3.247   2.327   1.408  0.4307 -0.4922 -1.2888
 8181SOL     OW36175   3.710   2.974   6.546 -0.5618 -0.3031  0.3397
 8181SOL    HW136176   3.770   2.958   6.474 -1.5686  1.4495 -0.8831
 8181SOL    HW236177   3.673   3.061   6.533 -1.3011 -0.5498  0.7638
 8182SOL     OW36178   1.059   3.355   7.595 -0.7059  0.9463  0.1094
 8182SOL    HW136179   1.115   3.317   7.527 -1.6221  1.8791 -1.1858
 8182SOL    HW236180   1.129   3.377   7.656  0.7338 -1.1122 -0.7624
 8183SOL     OW36181   2.948   3.008  16.165 -0.0688  0.1509  0.0562
 8183SOL    HW136182   3.036   3.041  16.147  1.1642 -2.3968  1.3245
 8183SOL    HW236183   2.951   2.988  16.259  0.5819  0.2484  0.0593
 8184SOL     OW36184   2.995   1.524   7.411 -0.8185 -0.0703 -0.3653
 8184SOL    HW136185   2.953   1.577   7.343  0.4036  0.1145 -0.9579
 8184SOL    HW236186   3.081   1.561   7.431  0.5422 -2.9610 -0.9845
 8185SOL     OW36187   2.350   1.851   4.137  0.0993 -0.4162  0.5346
 8185SOL    HW136188   2.396   1.929   4.166 -0.0738  1.2732 -3.7208
 8185SOL    HW236189   2.404   1.824   4.063 -0.3308  1.5290 -0.4736
 8186SOL     OW36190   2.901   2.267   1.914 -0.1504 -0.4540  0.4004
 8186SOL    HW136191   2.929   2.358   1.904  0.3512 -0.7002 -0.4060
 8186SOL    HW236192   2.890   2.264   2.009 -1.2465 -0.1538  0.2902
 8187SOL     OW36193   1.605   0.027   1.376 -0.3919  0.1106 -0.1672
 8187SOL    HW136194   1.516   0.005   1.348  0.7535 -3.7358 -0.7730
 8187SOL    HW236195   1.618   0.101   1.315  1.0489 -1.0534 -1.2696
 8188SOL     OW36196   0.145   0.607   3.754  0.4722 -0.1407  0.7033
 8188SOL    HW136197   0.139   0.684   3.697  3.5716 -1.1976 -1.0668
 8188SOL    HW236198   0.190   0.645   3.830 -0.5860 -0.3102  1.4093
 8189SOL     OW36199   0.180   1.077  14.863  0.1018  0.4055  0.1118
 8189SOL    HW136200   0.113   1.099  14.798  0.9125 -0.4771 -1.0418
 8189SOL    HW236201   0.138   1.084  14.948  0.0196  1.5965 -0.0294
 8190SOL     OW36202   1.125   2.149   1.487 -0.0603  0.2542 -0.1129
 8190SOL    HW136203   1.189   2.218   1.506 -0.4234  0.6437 -0.3136
 8190SOL    HW236204   1.155   2.124   1.400  1.4452 -1.5697  0.9330
 8191SOL     OW36205   3.612   4.519   3.117 -0.0702  0.0921 -0.1258
 8191SOL    HW136206   3.525   4.533   3.079 -0.0456  1.8586  0.4713
 8191SOL    HW236207   3.601   4.547   3.208 -0.7430 -2.4576  0.5960
 8192SOL     OW36208   2.719   3.197   9.913 -0.2551  0.5129  0.1980
 8192SOL    HW136209   2.770   3.159   9.985  1.9527  2.5114 -0.3128
 8192SOL    HW236210   2.636   3.155   9.933 -0.7826  1.4354 -0.0819
 8193SOL     OW36211   1.495   3.019  12.146 -0.0505 -0.1539 -0.0555
 8193SOL    HW136212   1.538   2.949  12.195 -0.0051 -0.3580 -0.3880
 8193SOL    HW236213   1.532   3.094  12.193 -0.3104 -0.7561  1.1115
 8194SOL     OW36214   0.459   3.707   6.191  0.1746  0.0702  0.0046
 8194SOL    HW136215   0.383   3.751   6.151  1.1601  1.3731 -0.4509
 8194SOL    HW236216   0.493   3.793   6.216 -2.0982  0.8820  0.3165
 8195SOL     OW36217   2.106   2.743   8.709  0.2047  0.0819  0.4407
 8195SOL    HW136218   2.124   2.700   8.792  0.0414  0.6748  0.7902
 8195SOL    HW236219   2.064   2.671   8.663 -0.4326  1.3180 -0.9211
 8196SOL     OW36220   3.910   1.901  10.473  0.0732 -0.0863 -0.3229
 8196SOL    HW136221   3.971   1.863  10.536  0.8357 -1.7751 -2.0770
 8196SOL    HW236222   3.940   1.861  10.391  1.1754  0.0397  0.0215
 8197SOL     OW36223   3.650   1.033   8.335  0.0049  0.1433 -0.1523
 8197SOL    HW136224   3.700   1.115   8.333 -2.1071  1.3931 -1.1613
 8197SOL    HW236225   3.665   1.004   8.425 -3.9718 -3.7117 -0.7513
 8198SOL     OW36226   2.143   2.254   2.723 -0.1020 -0.7227 -0.0759
 8198SOL    HW136227   2.204   2.311   2.770  2.5631 -2.5286 -1.3859
 8198SOL    HW236228   2.181   2.268   2.637  0.7266  0.0286  0.4153
 8199SOL     OW36229   3.296   4.235   2.026  0.3258  0.5723  0.0394
 8199SOL    HW136230   3.209   4.203   2.052  1.0730 -0.7666  0.9076
 8199SOL    HW236231   3.349   4.223   2.105 -1.6115  2.1691  1.5975
 8200SOL     OW36232   0.711   1.076   5.076 -0.3369  0.1539 -0.6426
 8200SOL    HW136233   0.720   0.992   5.031  0.5626  1.0412 -2.1125
 8200SOL    HW236234   0.641   1.062   5.140 -1.7145  1.5447 -1.8533
 8201SOL     OW36235   4.300   1.707  11.724 -0.1294  0.4650 -0.7833
 8201SOL    HW136236   4.332   1.695  11.635  2.2551  0.4657  0.0711
 8201SOL    HW236237   4.208   1.728  11.712  0.8280  4.5431 -1.2306
 8202SOL     OW36238   4.497   0.334   2.701 -0.5514 -0.4744  0.0754
 8202SOL    HW136239   4.506   0.389   2.623  1.5957  0.0466  0.6831
 8202SOL    HW236240   4.484   0.249   2.658  0.6542 -0.3536 -0.5448
 8203SOL     OW36241   1.964   2.473   5.753  0.3223  0.5647 -0.4735
 8203SOL    HW136242   2.049   2.470   5.709  0.2663  3.0411 -0.7644
 8203SOL    HW236243   1.907   2.439   5.685  1.0091  0.1217 -0.8297
 8204SOL     OW36244   4.611   3.987   7.543 -0.0716  0.5997  0.3220
 8204SOL    HW136245   4.521   3.968   7.518  0.1633 -0.0885 -0.0045
 8204SOL    HW236246   4.598   3.972   7.637 -0.4341  1.5443  0.4237
 8205SOL     OW36247   0.678   4.469   4.346 -0.1495 -0.3725  0.4396
 8205SOL    HW136248   0.740   4.397   4.353 -0.6218 -0.9496 -1.3959
 8205SOL    HW236249   0.602   4.428   4.387 -0.5351  1.1107  1.2082
 8206SOL     OW36250   2.335   4.587   3.060 -0.1534  0.0445 -0.7719
 8206SOL    HW136251   2.351   4.552   2.973  1.8159  1.4793 -1.0061
 8206SOL    HW236252   2.387   4.667   3.049  0.2152  0.0502  0.9276
 8207SOL     OW36253   2.694   0.662   4.939  0.6433 -0.0168  0.2939
 8207SOL    HW136254   2.784   0.654   4.908  0.2130 -0.8861 -0.7319
 8207SOL    HW236255   2.681   0.569   4.954  1.1526 -0.2903 -0.9810
 8208SOL     OW36256   3.277   0.100   9.301  0.2869 -0.0928 -0.3728
 8208SOL    HW136257   3.182   0.093   9.289  0.3440 -1.5511  0.0561
 8208SOL    HW236258   3.301   0.109   9.208  0.1927  0.1859 -0.3692
 8209SOL     OW36259   3.952   4.417   2.131  0.0678 -0.5850 -0.1556
 8209SOL    HW136260   4.047   4.405   2.131  0.4845  2.6886  0.4863
 8209SOL    HW236261   3.930   4.425   2.038 -1.2820 -0.4872  0.1761
 8210SOL     OW36262   0.254   4.321   5.343 -0.1989 -0.5004 -0.5353
 8210SOL    HW136263   0.287   4.281   5.264 -0.0969 -0.8859 -0.2937
 8210SOL    HW236264   0.323   4.358   5.398 -2.1722 -2.6954  3.4534
 8211SOL     OW36265   0.680   4.122   4.887  0.2439  0.0409 -0.2896
 8211SOL    HW136266   0.765   4.079   4.893  0.3098  0.4445  1.4792
 8211SOL    HW236267   0.711   4.210   4.865  1.3191 -0.5098 -0.9683
 8212SOL     OW36268   3.626   2.302   5.137 -0.5383 -0.0746  0.0862
 8212SOL    HW136269   3.540   2.323   5.174  0.0257  0.1413  1.2768
 8212SOL    HW236270   3.603   2.268   5.051 -0.4601  0.4481 -0.1384
 8213SOL     OW36271   0.756   1.534   4.544  0.0388  0.4886 -0.0245
 8213SOL    HW136272   0.749   1.444   4.577  0.8228 -0.0755 -1.4345
 8213SOL    HW236273   0.755   1.527   4.449 -2.0958 -2.7835  0.2329
 8214SOL     OW36274   4.422   4.714   7.402 -0.1106  0.2111  0.0626
 8214SOL    HW136275   4.458   0.049   7.349  1.2338 -1.7136 -1.5886
 8214SOL    HW236276   4.346   0.020   7.443  0.7216  1.7743  0.0310
 8215SOL     OW36277   1.502   0.860   6.961 -0.0763  0.4871  0.0079
 8215SOL    HW136278   1.586   0.826   6.992  1.1129  3.4343  0.0202
 8215SOL    HW236279   1.452   0.779   6.954  1.0356 -0.1148 -0.9202
 8216SOL     OW36280   3.612   0.250  10.883  0.1601  0.5879 -0.2863
 8216SOL    HW136281   3.601   0.311  10.956 -0.1758  1.6688 -1.2369
 8216SOL    HW236282   3.696   0.286  10.852 -0.0213  0.8118 -0.5239
 8217SOL     OW36283   2.085   3.478   1.726  0.2022  0.1713 -0.3842
 8217SOL    HW136284   2.040   3.498   1.644 -3.3855 -2.6308  0.9493
 8217SOL    HW236285   2.035   3.402   1.754  2.1383 -1.0122 -0.1605
 8218SOL     OW36286   1.138   1.585   6.901 -0.1540  0.4855 -0.1013
 8218SOL    HW136287   1.210   1.619   6.848 -0.7059  1.2811 -0.3492
 8218SOL    HW236288   1.070   1.651   6.887 -0.5038  0.5511  1.9748
 8219SOL     OW36289   2.518   4.516  12.100  0.2291 -0.1774 -0.1081
 8219SOL    HW136290   2.540   4.606  12.074 -1.8357  0.2602 -0.3538
 8219SOL    HW236291   2.575   4.459  12.049  1.1029  1.1104 -0.5926
 8220SOL     OW36292   1.247   0.469   3.658 -0.3079 -0.7705  0.5916
 8220SOL    HW136293   1.209   0.461   3.746 -0.5651  0.5304  0.5924
 8220SOL    HW236294   1.310   0.397   3.653  2.6769  1.9000  0.1703
 8221SOL     OW36295   3.196   0.223  15.821 -0.9105  0.3440  0.1081
 8221SOL    HW136296   3.202   0.313  15.787 -0.9059 -0.2032 -1.3578
 8221SOL    HW236297   3.279   0.207  15.866  1.3131 -0.7355 -4.3565
 8222SOL     OW36298   0.055   0.916  16.141  0.1463 -0.4003  0.0494
 8222SOL    HW136299   0.093   0.831  16.118 -0.1630 -0.2688 -0.9892
 8222SOL    HW236300   4.702   0.899  16.108  0.1622 -1.8131  0.7188
 8223SOL     OW36301   1.322   1.614  16.122 -0.3714  0.4178  0.5235
 8223SOL    HW136302   1.322   1.519  16.135 -0.8164  0.5760  1.6756
 8223SOL    HW236303   1.287   1.624  16.034 -1.1560 -2.1509  0.5522
 8224SOL     OW36304   3.031   2.693  12.482  0.0715  0.2986 -0.0836
 8224SOL    HW136305   3.092   2.766  12.495 -0.1955  0.9694 -2.4860
 8224SOL    HW236306   2.979   2.684  12.562  0.1073  3.1265  0.2512
 8225SOL     OW36307   2.290   4.453   0.643 -0.1013  0.4703  0.1575
 8225SOL    HW136308   2.312   4.545   0.658 -1.5571  0.2881  3.5285
 8225SOL    HW236309   2.298   4.445   0.548  2.0464 -0.7575  0.4413
 8226SOL     OW36310   1.753   4.575  11.536 -0.0761  0.1885  0.5191
 8226SOL    HW136311   1.771   4.645  11.472  3.2715 -0.1313  1.0701
 8226SOL    HW236312   1.678   4.538  11.492  0.4575 -1.1009  0.7050
 8227SOL     OW36313   3.778   3.673   3.033  0.3113  0.0504  0.1984
 8227SOL    HW136314   3.798   3.743   3.094 -0.7808 -0.1968  0.8490
 8227SOL    HW236315   3.849   3.615   3.061 -0.9251 -1.1605  0.8378
 8228SOL     OW36316   3.668   1.219  14.026 -0.4689  0.2592 -0.1418
 8228SOL    HW136317   3.655   1.161  14.102  1.1699  1.3550  0.9823
 8228SOL    HW236318   3.635   1.303  14.057 -0.9022  0.2759 -0.6556
 8229SOL     OW36319   3.334   0.927  10.783 -0.2803 -0.1498  0.4663
 8229SOL    HW136320   3.323   1.021  10.798  1.1426 -0.1227  1.2948
 8229SOL    HW236321   3.429   0.930  10.784 -0.2598 -1.9256  2.0289
 8230SOL     OW36322   3.921   1.994  13.548 -0.2760 -0.9549 -0.8588
 8230SOL    HW136323   3.859   2.067  13.551  1.4988  0.5262 -0.3348
 8230SOL    HW236324   3.880   1.923  13.598 -0.7211 -0.5025 -0.5772
 8231SOL     OW36325   4.505   1.879   2.165  0.5211 -0.1149 -0.1008
 8231SOL    HW136326   4.584   1.862   2.217 -0.3550 -2.4030  0.5153
 8231SOL    HW236327   4.443   1.833   2.223 -2.0506  1.8211 -1.3319
 8232SOL     OW36328   1.717   1.491   3.755  0.4153  0.5370  0.1460
 8232SOL    HW136329   1.659   1.561   3.728 -0.4693 -0.3094 -0.1522
 8232SOL    HW236330   1.684   1.481   3.844 -2.6942  1.3717 -0.9042
 8233SOL     OW36331   4.039   0.380   3.489 -0.5064 -0.2656  0.1371
 8233SOL    HW136332   4.081   0.346   3.568 -0.8918  0.8215  0.8040
 8233SOL    HW236333   4.077   0.468   3.490  0.2671 -0.6024  0.4358
 8234SOL     OW36334   1.343   3.877   8.090 -0.3096 -0.4956  0.2842
 8234SOL    HW136335   1.307   3.956   8.048  0.4538 -0.0955  0.3704
 8234SOL    HW236336   1.269   3.819   8.074 -1.4317  0.9642  0.1377
 8235SOL     OW36337   0.893   0.335  15.727 -0.6696  0.0865  0.5339
 8235SOL    HW136338   0.940   0.403  15.678 -1.1748 -0.1235 -0.2497
 8235SOL    HW236339   0.946   0.334  15.806 -0.4736  0.9861  0.4133
 8236SOL     OW36340   4.543   2.555   9.524  0.2812 -0.0001 -0.1373
 8236SOL    HW136341   4.591   2.525   9.601 -0.0600 -0.1183  0.0344
 8236SOL    HW236342   4.602   2.553   9.449  0.4525  1.4144 -0.0347
 8237SOL     OW36343   1.965   1.112   1.930  0.1644 -0.1564  0.4152
 8237SOL    HW136344   1.954   1.095   2.023  0.4704 -2.6816 -0.0185
 8237SOL    HW236345   1.959   1.026   1.888 -0.1123  1.0574 -2.0660
 8238SOL     OW36346   3.673   1.193   5.183 -0.1679 -0.0133  0.1716
 8238SOL    HW136347   3.663   1.251   5.259 -0.8417  0.9345 -0.6427
 8238SOL    HW236348   3.698   1.263   5.123  0.1552 -0.2325  0.0500
 8239SOL     OW36349   1.919   1.288   9.755  0.0738 -0.0002  0.4831
 8239SOL    HW136350   1.973   1.224   9.709 -0.3821 -0.0959  0.0712
 8239SOL    HW236351   1.979   1.360   9.774  0.4235 -0.0686 -0.3634
 8240SOL     OW36352   4.537   0.865  12.607 -0.0160  0.3519 -0.4930
 8240SOL    HW136353   4.506   0.873  12.516 -0.9156 -1.6562 -0.3753
 8240SOL    HW236354   4.611   0.806  12.594 -0.1173 -0.4886  2.7608
 8241SOL     OW36355   3.965   4.454   8.602  0.0571 -0.7390  0.0904
 8241SOL    HW136356   3.951   4.372   8.648 -0.6278 -1.4242 -1.3111
 8241SOL    HW236357   4.006   4.427   8.520  0.8068 -3.1347  1.2471
 8242SOL     OW36358   1.551   1.847   9.712 -0.2561 -0.4388  0.0365
 8242SOL    HW136359   1.633   1.893   9.732 -0.4186 -0.0926 -0.1008
 8242SOL    HW236360   1.574   1.755   9.724 -2.4312 -1.1037 -0.8971
 8243SOL     OW36361   1.661   0.110   8.472  0.4884  0.3805  0.2443
 8243SOL    HW136362   1.630   0.201   8.472 -0.8272 -0.0664 -0.1201
 8243SOL    HW236363   1.663   0.088   8.565 -1.3284 -0.2561  0.1288
 8244SOL     OW36364   2.528   4.429   9.086  0.2383 -0.1495  0.0963
 8244SOL    HW136365   2.535   4.382   9.002 -1.7298 -1.0304  0.4241
 8244SOL    HW236366   2.453   4.388   9.130  0.6523 -1.0800 -0.0655
 8245SOL     OW36367   1.190   3.150   9.760 -0.5037 -0.1901 -0.4193
 8245SOL    HW136368   1.128   3.184   9.697 -1.0449 -1.4940 -0.5859
 8245SOL    HW236369   1.194   3.069   9.709  2.2109 -1.0511  1.1395
 8246SOL     OW36370   0.469   2.796   7.026 -0.3359  0.1324 -0.2449
 8246SOL    HW136371   0.525   2.722   7.003  1.0176  1.2611 -0.5662
 8246SOL    HW236372   0.517   2.866   6.982  0.7451 -1.6998 -1.9988
 8247SOL     OW36373   1.877   3.773   6.402  0.1842  0.1108  0.6497
 8247SOL    HW136374   1.839   3.763   6.314  4.0403  1.1912 -1.1543
 8247SOL    HW236375   1.865   3.685   6.437 -2.4127  0.0737 -0.3113
 8248SOL     OW36376   3.033   2.472   4.289 -0.4268  0.1355 -0.5754
 8248SOL    HW136377   3.069   2.552   4.251 -1.5958  0.0395 -1.9015
 8248SOL    HW236378   3.006   2.428   4.208  0.9275 -1.5432 -0.1203
 8249SOL     OW36379   4.715   4.136   9.415  0.3077 -0.6552 -0.1498
 8249SOL    HW136380   0.074   4.144   9.419  0.0535  1.3698  2.2946
 8249SOL    HW236381   4.690   4.200   9.482 -0.2519 -0.5891 -0.4223
 8250SOL     OW36382   2.022   2.894   2.359  0.1876  0.6520  0.4832
 8250SOL    HW136383   1.936   2.887   2.319 -1.1350 -0.7460  3.5681
 8250SOL    HW236384   2.065   2.817   2.321 -0.9367 -0.4778  1.4923
 8251SOL     OW36385   0.783   2.647   7.546 -0.6594  1.1687  0.2592
 8251SOL    HW136386   0.751   2.570   7.500 -0.6794  1.2612  0.1211
 8251SOL    HW236387   0.868   2.673   7.510 -0.0919 -1.5293 -0.3838
 8252SOL     OW36388   2.900   3.254  13.444  0.0646 -0.2513 -0.1088
 8252SOL    HW136389   2.950   3.278  13.522  1.5231 -2.3100 -0.4246
 8252SOL    HW236390   2.824   3.214  13.487 -1.1399  1.1162 -0.9478
 8253SOL     OW36391   1.029   0.770  11.451 -0.1307 -0.0271 -0.0520
 8253SOL    HW136392   1.109   0.818  11.433  1.5040 -2.2844  1.1355
 8253SOL    HW236393   0.980   0.781  11.370  0.4444  2.7322 -0.0126
 8254SOL     OW36394   4.277   3.653   4.716 -0.0523  0.4762  0.2214
 8254SOL    HW136395   4.318   3.696   4.641  0.0659  1.5869  0.9343
 8254SOL    HW236396   4.182   3.647   4.711 -0.2183  0.5443  3.4374
 8255SOL     OW36397   0.573   0.611   9.662  0.6158  0.1306 -0.0112
 8255SOL    HW136398   0.479   0.592   9.659  1.0258 -1.9880  0.5624
 8255SOL    HW236399   0.576   0.642   9.752  0.0641 -0.4797  0.2187
 8256SOL     OW36400   3.952   0.549   4.337 -0.1017  0.2567 -0.3276
 8256SOL    HW136401   3.970   0.468   4.385  0.1319 -0.2029 -1.1926
 8256SOL    HW236402   3.904   0.596   4.405 -0.4143  0.9669 -1.0446
 8257SOL     OW36403   3.485   2.827   8.259 -0.5457 -0.3531  0.3717
 8257SOL    HW136404   3.425   2.899   8.276 -1.2117 -0.7173 -0.4458
 8257SOL    HW236405   3.485   2.782   8.344  1.2658  0.0239  0.5806
 8258SOL     OW36406   4.379   3.943   5.806  0.4386  0.0696  0.3069
 8258SOL    HW136407   4.327   3.875   5.765  0.2675  0.1569  0.3781
 8258SOL    HW236408   4.419   3.986   5.731 -0.1864 -1.3484 -0.8236
 8259SOL     OW36409   1.249   4.419  10.213 -0.6727 -0.1260  0.3734
 8259SOL    HW136410   1.196   4.498  10.225  0.3133  1.2062 -3.8922
 8259SOL    HW236411   1.220   4.369  10.289 -1.6852 -0.1329 -0.0168
 8260SOL     OW36412   2.824   4.467   5.622  0.8880 -0.2544  0.6325
 8260SOL    HW136413   2.828   4.461   5.527  0.8312 -0.9687  0.6715
 8260SOL    HW236414   2.835   4.376   5.650 -2.0616 -1.0720 -0.8348
 8261SOL     OW36415   0.225   2.123  10.731 -0.1854 -0.0721  0.3933
 8261SOL    HW136416   0.292   2.137  10.798 -1.2543 -0.8477  1.6321
 8261SOL    HW236417   0.261   2.056  10.674 -0.7633  1.3407 -1.6180
 8262SOL     OW36418   0.634   1.927   5.476 -0.5005 -0.1792 -0.0413
 8262SOL    HW136419   0.692   1.998   5.502 -1.0452  0.2377  0.0288
 8262SOL    HW236420   0.575   1.914   5.551 -0.4609 -0.1667 -0.0084
 8263SOL     OW36421   4.164   1.218   6.362  0.0225 -0.1765  0.3185
 8263SOL    HW136422   4.187   1.209   6.455  0.9253 -1.8878 -0.0499
 8263SOL    HW236423   4.100   1.147   6.356  0.4803 -0.2396 -3.7874
 8264SOL     OW36424   1.196   0.585   0.588 -0.5731 -0.1342  0.2356
 8264SOL    HW136425   1.252   0.550   0.657 -1.1514 -1.0400  0.2489
 8264SOL    HW236426   1.121   0.599   0.646 -0.6150  0.4597  0.0387
 8265SOL     OW36427   0.572   1.139   9.131  0.8063 -0.1057  0.1350
 8265SOL    HW136428   0.500   1.077   9.142 -1.1505  2.5359  2.1095
 8265SOL    HW236429   0.644   1.081   9.152 -0.1726 -1.7968 -1.1041
 8266SOL     OW36430   0.714   3.908   9.763 -0.1093 -0.9851 -0.0826
 8266SOL    HW136431   0.745   3.853   9.835  2.8600 -0.5601 -1.0370
 8266SOL    HW236432   0.737   3.845   9.694 -0.8360 -1.0208 -0.2940
 8267SOL     OW36433   0.910   4.637  13.177 -0.5803  0.0501  0.1205
 8267SOL    HW136434   0.826   4.647  13.133  0.6684  2.0963 -1.7533
 8267SOL    HW236435   0.892   4.699  13.248 -3.9735 -0.3813 -0.3470
 8268SOL     OW36436   2.867   4.196   5.942 -0.4318 -0.5595  0.1663
 8268SOL    HW136437   2.908   4.215   5.858  1.5914 -2.7916  0.6644
 8268SOL    HW236438   2.925   4.233   6.010 -1.6322  3.6344 -1.0637
 8269SOL     OW36439   3.228   0.487   8.712  0.3806  0.5591 -0.1961
 8269SOL    HW136440   3.278   0.486   8.630 -0.7534  1.2615 -0.9007
 8269SOL    HW236441   3.160   0.423   8.690 -1.2057  1.9932  0.4528
 8270SOL     OW36442   4.676   0.509   3.170  0.0734  0.4063  0.3381
 8270SOL    HW136443   0.002   0.564   3.123  0.2567 -0.6447 -0.6427
 8270SOL    HW236444   4.589   0.523   3.132  0.0140  1.5137  0.8697
 8271SOL     OW36445   0.381   1.542   3.988  0.1346 -0.2628 -0.0365
 8271SOL    HW136446   0.443   1.480   4.028  3.0795  2.0755 -0.9265
 8271SOL    HW236447   0.379   1.507   3.899 -1.5156  1.5306 -0.6900
 8272SOL     OW36448   1.238   2.095   4.164  0.2835 -0.0385  0.1869
 8272SOL    HW136449   1.306   2.073   4.228  1.7192 -0.9882 -1.6681
 8272SOL    HW236450   1.159   2.091   4.218 -0.9197  0.7507 -1.5286
 8273SOL     OW36451   4.314   4.108   8.820  0.1809  0.0652  0.4218
 8273SOL    HW136452   4.308   4.172   8.749  0.7420  1.1686  1.3676
 8273SOL    HW236453   4.329   4.026   8.771 -2.6797 -1.2448  1.7798
 8274SOL     OW36454   1.821   4.420   4.498 -0.1711  0.2605  0.3070
 8274SOL    HW136455   1.802   4.406   4.591 -1.5120 -2.6200 -0.3705
 8274SOL    HW236456   1.900   4.369   4.481 -0.1823  0.1828  0.4795
 8275SOL     OW36457   0.309   1.157   9.003  0.0630 -0.0065 -0.0639
 8275SOL    HW136458   0.260   1.235   9.028 -0.4743 -1.2385  2.6706
 8275SOL    HW236459   0.396   1.196   9.005 -0.2922  0.7513  0.3211
 8276SOL     OW36460   0.451   1.639  13.760 -0.4690  0.0435  0.0104
 8276SOL    HW136461   0.360   1.651  13.735 -0.2553  2.3418  0.3086
 8276SOL    HW236462   0.488   1.608  13.678  1.3537  1.7755  0.1687
 8277SOL     OW36463   0.995   3.030  10.717 -0.2647  0.6463  0.3806
 8277SOL    HW136464   0.925   3.075  10.671  1.3569  1.2695 -1.4988
 8277SOL    HW236465   0.939   3.004  10.790 -0.7411 -0.8434 -0.5254
 8278SOL     OW36466   0.673   4.326   6.337  0.0668 -0.5822 -0.0578
 8278SOL    HW136467   0.760   4.301   6.367 -0.5459 -2.4155  0.1813
 8278SOL    HW236468   0.697   4.371   6.255  0.2956  0.2741  0.4750
 8279SOL     OW36469   0.644   1.199   5.485  0.8971 -0.1166  0.6208
 8279SOL    HW136470   0.675   1.197   5.576  0.5768 -0.6782  0.7152
 8279SOL    HW236471   0.711   1.251   5.440 -0.6172  1.1806 -0.1324
 8280SOL     OW36472   4.168   0.046   2.172 -0.4947 -0.3144  0.0295
 8280SOL    HW136473   4.099   0.047   2.105 -0.0413 -3.1094 -0.4648
 8280SOL    HW236474   4.185   0.140   2.179  1.2311 -0.7011  1.0744
 8281SOL     OW36475   1.222   2.610   1.875 -0.4691  0.0249  0.3634
 8281SOL    HW136476   1.152   2.656   1.830  0.4596 -1.5682 -2.7177
 8281SOL    HW236477   1.295   2.653   1.830  0.2183 -0.4366  1.0191
 8282SOL     OW36478   0.143   1.340   8.735  0.9583 -0.1176 -0.1500
 8282SOL    HW136479   0.128   1.377   8.648  0.0673 -1.5378 -0.5968
 8282SOL    HW236480   0.077   1.382   8.790  1.5929  2.3672 -1.2776
 8283SOL     OW36481   2.560   1.881   6.131  0.2082  0.0917  0.1013
 8283SOL    HW136482   2.497   1.942   6.169  0.0411 -0.5725  0.8997
 8283SOL    HW236483   2.503   1.837   6.067 -0.7827 -0.3771  1.3157
 8284SOL     OW36484   0.342   1.774   3.635  0.1316  0.1966  0.6109
 8284SOL    HW136485   0.434   1.798   3.629  0.6335 -1.8740  0.0005
 8284SOL    HW236486   0.338   1.696   3.580 -0.0354  0.6091  0.0316
 8285SOL     OW36487   2.194   3.679   3.283 -0.3834  0.4002 -0.2764
 8285SOL    HW136488   2.163   3.766   3.254 -3.0255 -0.1143  0.9730
 8285SOL    HW236489   2.231   3.642   3.203  1.3698 -0.5281  0.9750
 8286SOL     OW36490   1.722   2.851   5.002 -0.2108 -0.1497  0.1461
 8286SOL    HW136491   1.714   2.785   4.933  1.5494  2.0486 -2.1722
 8286SOL    HW236492   1.735   2.794   5.078 -2.2629 -0.4783  0.2462
 8287SOL     OW36493   2.417   4.413   8.421  0.3913  0.2573  0.0278
 8287SOL    HW136494   2.459   4.470   8.356  0.6955 -1.1747 -1.0361
 8287SOL    HW236495   2.369   4.472   8.479  0.9842 -0.4234  1.2069
 8288SOL     OW36496   4.174   3.997  14.774 -0.5185 -0.0964 -0.1018
 8288SOL    HW136497   4.115   3.979  14.701  0.4566 -1.8632 -0.4478
 8288SOL    HW236498   4.236   4.057  14.733 -2.0903  2.2715  0.9887
 8289SOL     OW36499   4.559   4.211   9.205 -0.0495 -0.6219  0.1280
 8289SOL    HW136500   4.624   4.165   9.258  0.7810  0.8058  0.3468
 8289SOL    HW236501   4.604   4.265   9.139  1.2622 -1.8106  0.0435
 8290SOL     OW36502   0.980   3.915   0.928 -0.2050  0.0177  0.1788
 8290SOL    HW136503   1.021   3.883   0.848 -0.6073 -1.1632  0.4331
 8290SOL    HW236504   1.017   3.852   0.990  1.4809  0.6276 -0.2318
 8291SOL     OW36505   3.503   1.021   3.855 -0.1569 -0.1630 -0.0391
 8291SOL    HW136506   3.583   0.983   3.891  0.6560  1.3373 -0.2691
 8291SOL    HW236507   3.485   1.091   3.918  0.9781  1.4879 -1.5495
 8292SOL     OW36508   1.375   2.510  17.509 -0.2703 -0.9795  0.1858
 8292SOL    HW136509   1.459   2.524  17.464 -0.7418 -0.0245 -0.3901
 8292SOL    HW236510   1.346   2.601  17.507  1.4802 -0.4074  0.6340
 8293SOL     OW36511   1.175   2.718   7.611 -0.4363  0.4006 -0.0152
 8293SOL    HW136512   1.126   2.740   7.691  0.7682  2.9649  0.0494
 8293SOL    HW236513   1.177   2.623   7.606  0.8321  0.5021 -1.3568
 8294SOL     OW36514   0.729   0.510   8.531 -0.2202 -0.4710  0.3496
 8294SOL    HW136515   0.774   0.594   8.527  0.3277 -0.9334 -4.2182
 8294SOL    HW236516   0.647   0.536   8.573 -1.0541 -2.4928 -0.0054
 8295SOL     OW36517   1.354   3.300   4.841  0.0569 -0.4793 -0.0188
 8295SOL    HW136518   1.275   3.263   4.802 -0.0362 -0.6628  0.3430
 8295SOL    HW236519   1.398   3.224   4.879  0.0967 -1.0776 -1.2489
 8296SOL     OW36520   2.499   2.339  17.337  0.1052  0.2100  0.3568
 8296SOL    HW136521   2.522   2.412  17.394 -3.2102  0.2498  1.6548
 8296SOL    HW236522   2.481   2.271  17.403 -0.0796  1.4117  1.5370
 8297SOL     OW36523   4.112   2.207   9.473 -0.1657 -0.3450 -0.4429
 8297SOL    HW136524   4.161   2.286   9.453  0.1590 -0.8687 -1.6915
 8297SOL    HW236525   4.132   2.201   9.567 -0.3597  0.2126 -0.3641
 8298SOL     OW36526   3.150   4.484   4.852  0.0302  0.3123 -0.1388
 8298SOL    HW136527   3.086   4.484   4.922  0.8086  2.0703  0.5921
 8298SOL    HW236528   3.098   4.473   4.773  0.8274 -3.1677 -0.1667
 8299SOL     OW36529   1.587   0.368  14.426 -0.4989  0.0304 -0.4270
 8299SOL    HW136530   1.588   0.443  14.484  0.6977 -0.5693  0.3369
 8299SOL    HW236531   1.678   0.340  14.424 -0.9266 -1.3409 -0.8681
 8300SOL     OW36532   1.384   2.606   4.569 -0.3084  0.3157  0.3543
 8300SOL    HW136533   1.426   2.690   4.590 -0.2198 -0.6979  4.2625
 8300SOL    HW236534   1.386   2.612   4.474  1.1448 -0.7502  0.3046
 8301SOL     OW36535   1.310   3.376   9.558  0.5439  0.5873  0.5170
 8301SOL    HW136536   1.255   3.298   9.551  0.9839  0.5499 -2.4631
 8301SOL    HW236537   1.297   3.408   9.469 -0.2184 -0.1598  0.3649
 8302SOL     OW36538   0.954   0.252  16.929 -0.2497 -0.0754  0.0019
 8302SOL    HW136539   0.863   0.276  16.916  0.0390  0.9228 -0.1551
 8302SOL    HW236540   0.963   0.170  16.880 -0.3569  0.3201 -0.6655
 8303SOL     OW36541   1.480   0.688   9.252 -0.1993  1.1476  0.2986
 8303SOL    HW136542   1.555   0.747   9.250  2.8285 -2.7536 -1.4932
 8303SOL    HW236543   1.471   0.656   9.162 -1.6157  0.8879  0.5229
 8304SOL     OW36544   4.566   0.728  14.199 -0.8835  0.6262  0.6173
 8304SOL    HW136545   4.566   0.754  14.107  1.0133  1.0921  0.7585
 8304SOL    HW236546   4.585   0.806  14.251 -2.4373  2.1220 -1.0705
 8305SOL     OW36547   2.638   3.658   8.051  0.1002  0.0057  0.5803
 8305SOL    HW136548   2.664   3.567   8.067 -1.7592 -0.4123  1.2154
 8305SOL    HW236549   2.679   3.687   7.969  0.7179 -0.1831  0.8216
 8306SOL     OW36550   1.539   1.943   5.502 -0.0483  0.2345  0.0554
 8306SOL    HW136551   1.444   1.949   5.505 -0.1242 -1.7635  1.6468
 8306SOL    HW236552   1.552   1.888   5.425 -1.5524 -0.4178  0.2791
 8307SOL     OW36553   0.462   1.229  17.676 -0.1257 -0.3608 -0.3638
 8307SOL    HW136554   0.386   1.210  17.731  2.3856 -1.8731  2.5942
 8307SOL    HW236555   0.506   1.145  17.665  0.7178 -0.0056  0.3344
 8308SOL     OW36556   3.778   1.265   4.332  0.0380  0.1571 -0.4880
 8308SOL    HW136557   3.865   1.228   4.323 -0.5373 -1.5617  0.8933
 8308SOL    HW236558   3.731   1.193   4.291  1.1396 -2.2880  2.5680
 8309SOL     OW36559   1.655   2.938   8.513 -0.1946  0.1819 -0.1655
 8309SOL    HW136560   1.745   2.960   8.536 -1.3229  2.2189  2.3136
 8309SOL    HW236561   1.669   2.845   8.499 -1.1864  0.1285 -0.7957
 8310SOL     OW36562   1.044   2.631   5.260  0.4579 -0.2483 -0.1235
 8310SOL    HW136563   1.054   2.613   5.353  1.4103 -1.0030 -0.3752
 8310SOL    HW236564   1.011   2.721   5.262 -0.8165 -0.6841 -1.4471
 8311SOL     OW36565   2.784   1.617   8.037  0.0039  0.5533  0.3030
 8311SOL    HW136566   2.853   1.550   8.036 -0.7774 -0.2705  1.8031
 8311SOL    HW236567   2.797   1.662   8.120  0.3074  2.9854 -1.0561
 8312SOL     OW36568   1.341   1.916   5.088 -0.1366 -0.3431  0.5391
 8312SOL    HW136569   1.258   1.930   5.134 -1.0488 -2.5702 -0.4431
 8312SOL    HW236570   1.310   1.859   5.019  0.9157  0.3404 -0.4863
 8313SOL     OW36571   1.862   3.598   2.381  0.6018  0.6429  0.2300
 8313SOL    HW136572   1.950   3.624   2.355  0.4970  0.5660 -0.1958
 8313SOL    HW236573   1.833   3.690   2.388  0.8711  0.7979 -0.7750
 8314SOL     OW36574   3.228   0.098  14.499 -0.1182  1.2603  0.1733
 8314SOL    HW136575   3.178   0.108  14.580  2.0716 -1.3644  1.8533
 8314SOL    HW236576   3.320   0.100  14.526  0.0454 -4.3842  0.1097
 8315SOL     OW36577   3.492   3.344  13.280 -0.2613  0.2254  0.4265
 8315SOL    HW136578   3.428   3.349  13.351 -1.2919  0.1306 -0.4952
 8315SOL    HW236579   3.547   3.270  13.305 -1.4823 -1.6734 -2.5317
 8316SOL     OW36580   0.933   4.043   1.249  0.6265 -0.1164 -0.0401
 8316SOL    HW136581   0.931   3.995   1.332  0.0415 -0.0681 -0.0258
 8316SOL    HW236582   1.026   4.031   1.228  0.9371  1.9141  0.1934
 8317SOL     OW36583   1.500   2.282  10.288  0.7836 -0.6454 -0.2663
 8317SOL    HW136584   1.505   2.365  10.336  1.4267  0.0903 -1.6080
 8317SOL    HW236585   1.554   2.224  10.342 -0.2270 -0.5277  0.8827
 8318SOL     OW36586   2.591   4.154   4.367 -0.7638 -0.2940 -0.0502
 8318SOL    HW136587   2.641   4.199   4.299 -1.3759  0.7170  0.1686
 8318SOL    HW236588   2.639   4.173   4.448 -0.2175  0.0627 -0.4621
 8319SOL     OW36589   4.103   0.215  17.390  0.0022 -0.2779  0.1137
 8319SOL    HW136590   4.190   0.230  17.353  0.8679 -1.3797  1.7482
 8319SOL    HW236591   4.060   0.295  17.359 -1.2437 -0.8718  0.2956
 8320SOL     OW36592   4.192   4.241  15.551  0.8170  0.3696 -0.1757
 8320SOL    HW136593   4.249   4.170  15.580 -0.9321 -1.0003 -0.0444
 8320SOL    HW236594   4.164   4.290  15.629 -0.5526  1.6714 -1.4921
 8321SOL     OW36595   2.364   4.472  13.098 -0.9300  0.2602 -0.0749
 8321SOL    HW136596   2.368   4.497  13.190  0.1325 -1.5696  0.3807
 8321SOL    HW236597   2.458   4.451  13.094 -0.8430  0.6596 -0.1416
 8322SOL     OW36598   2.209   0.789   4.886  0.1700 -0.1831  0.2308
 8322SOL    HW136599   2.118   0.764   4.868 -0.1570  0.2431  1.2531
 8322SOL    HW236600   2.194   0.806   4.979  1.5555  3.2702 -0.1761
 8323SOL     OW36601   2.722   2.802   5.121 -0.2670 -0.1588  0.3723
 8323SOL    HW136602   2.749   2.890   5.096 -1.2746 -0.1961 -0.8468
 8323SOL    HW236603   2.784   2.784   5.192 -0.5809  0.1415  0.7232
 8324SOL     OW36604   1.455   3.121   2.686  0.2384 -0.5740 -0.2178
 8324SOL    HW136605   1.515   3.124   2.611  1.4710 -1.1311  0.7564
 8324SOL    HW236606   1.508   3.159   2.757  0.3309 -1.4472  0.1765
 8325SOL     OW36607   3.157   2.178   1.435 -0.0133  0.2220 -1.2928
 8325SOL    HW136608   3.082   2.181   1.494  1.3899 -0.1896  0.4971
 8325SOL    HW236609   3.203   2.107   1.480 -1.4514  0.5124  0.5898
 8326SOL     OW36610   1.165   3.011   9.192 -0.7723 -0.2577  0.2916
 8326SOL    HW136611   1.131   3.067   9.121  1.3469 -0.0535 -0.5623
 8326SOL    HW236612   1.087   2.964   9.221 -1.3916  0.2186 -0.5850
 8327SOL     OW36613   0.598   3.576   3.222 -0.0230 -0.2010 -0.2350
 8327SOL    HW136614   0.598   3.521   3.300  1.1131 -1.3073 -1.0267
 8327SOL    HW236615   0.548   3.648   3.260 -0.9974 -0.5929 -0.7369
 8328SOL     OW36616   1.773   0.180   0.127 -0.3947  0.4402  0.5224
 8328SOL    HW136617   1.817   0.200   0.210  0.8460 -2.4842  0.5485
 8328SOL    HW236618   1.856   0.158   0.084  0.8315 -2.6085  4.4779
 8329SOL     OW36619   0.313   2.886   5.306 -0.3055 -0.5149  0.2247
 8329SOL    HW136620   0.350   2.962   5.351  1.0615  0.0850 -1.8655
 8329SOL    HW236621   0.388   2.827   5.300  0.5154  0.5260  0.2874
 8330SOL     OW36622   3.498   2.053  12.260 -0.1888  1.1301  0.0588
 8330SOL    HW136623   3.508   2.116  12.331  0.9380  1.1287 -0.0977
 8330SOL    HW236624   3.524   1.970  12.301 -0.2455  2.2590  2.3535
 8331SOL     OW36625   4.513   0.245   4.786 -0.0580  0.6094 -0.0158
 8331SOL    HW136626   4.606   0.263   4.773  0.3640 -0.8231  0.9679
 8331SOL    HW236627   4.509   0.162   4.833  1.8343  1.4109  1.5520
 8332SOL     OW36628   0.932   2.464   7.816 -0.1152  0.1477  0.5454
 8332SOL    HW136629   0.905   2.375   7.794 -1.8924  0.6572  0.6386
 8332SOL    HW236630   0.854   2.516   7.796  0.9098  0.8456 -1.7775
 8333SOL     OW36631   1.369   2.099  16.374  0.9736 -0.0009  0.1059
 8333SOL    HW136632   1.353   2.189  16.346  1.8951  0.1243 -0.0255
 8333SOL    HW236633   1.334   2.110  16.463 -0.1780  0.1392 -0.3712
 8334SOL     OW36634   4.647   4.067   8.122 -0.1762  0.0464  1.0893
 8334SOL    HW136635   0.003   4.042   8.136  1.5095  3.7321 -3.3338
 8334SOL    HW236636   4.619   4.067   8.214  1.0899 -0.7310  1.4761
 8335SOL     OW36637   0.856   2.671   0.228  0.8062 -0.8524  0.0805
 8335SOL    HW136638   0.816   2.584   0.233  0.9659 -1.0320 -1.5055
 8335SOL    HW236639   0.773   2.716   0.210  0.5465 -1.4809 -0.3097
 8336SOL     OW36640   2.319   0.827  16.587 -0.1790  0.4700 -0.3441
 8336SOL    HW136641   2.368   0.747  16.567  0.2508  0.1069  2.1962
 8336SOL    HW236642   2.234   0.790  16.563 -0.2511  0.8501 -0.6691
 8337SOL     OW36643   1.078   3.012   1.179  0.4009 -0.1088  0.5463
 8337SOL    HW136644   1.129   2.963   1.115 -0.7779 -0.7735  0.1187
 8337SOL    HW236645   1.082   2.949   1.251 -0.5701 -1.9357 -1.0123
 8338SOL     OW36646   0.473   4.047  14.532 -0.1962 -0.0877 -0.2584
 8338SOL    HW136647   0.532   3.976  14.506  0.5273  0.7973 -1.0053
 8338SOL    HW236648   0.440   4.011  14.615  0.7869  0.1356  0.2300
 8339SOL     OW36649   1.057   2.115  14.247 -0.7323 -0.1029 -0.4190
 8339SOL    HW136650   1.132   2.058  14.229 -1.7231 -1.1792 -1.1010
 8339SOL    HW236651   1.001   2.087  14.175 -0.4587 -0.5374 -0.4672
 8340SOL     OW36652   0.738   0.685  11.180  0.3245 -0.1953  0.9599
 8340SOL    HW136653   0.825   0.724  11.184  0.4577 -0.6802  2.8118
 8340SOL    HW236654   0.691   0.752  11.230  0.5237  0.5375  0.1654
 8341SOL     OW36655   1.523   2.258   7.257  0.5687  0.4920  0.1939
 8341SOL    HW136656   1.517   2.183   7.315 -0.6763  0.3511 -0.1233
 8341SOL    HW236657   1.492   2.327   7.315 -1.7607 -0.1867 -0.2450
 8342SOL     OW36658   0.643   2.200   6.471  0.4139 -0.3405  0.2563
 8342SOL    HW136659   0.592   2.193   6.552 -0.9314 -1.9253 -0.7278
 8342SOL    HW236660   0.656   2.106   6.456 -1.1776 -0.5547  0.3024
 8343SOL     OW36661   0.281   2.425  12.588  0.6961 -0.3766  0.1206
 8343SOL    HW136662   0.186   2.415  12.576  0.6466  1.0971 -0.6508
 8343SOL    HW236663   0.293   2.405  12.681 -0.2081  0.0784  0.3402
 8344SOL     OW36664   3.971   1.236   4.641 -0.4939  0.4507  0.2824
 8344SOL    HW136665   3.897   1.174   4.643 -0.3156  0.1890 -0.9709
 8344SOL    HW236666   3.954   1.284   4.721 -0.8318 -0.0255  0.4982
 8345SOL     OW36667   4.697   0.985   8.288  0.1907  0.3002 -0.5521
 8345SOL    HW136668   4.629   1.011   8.351  0.1313 -4.1183  1.2542
 8345SOL    HW236669   0.040   0.991   8.342  0.2718  0.0757 -0.6456
 8346SOL     OW36670   0.634   4.145   5.593 -0.2942 -0.3375 -0.1127
 8346SOL    HW136671   0.584   4.093   5.656  0.9442  0.5601  1.6151
 8346SOL    HW236672   0.572   4.210   5.559  0.0191  1.0233  1.9224
 8347SOL     OW36673   4.489   1.639   6.092  0.1576  0.2011 -0.0452
 8347SOL    HW136674   4.453   1.595   6.169 -0.4149  0.6833 -0.0423
 8347SOL    HW236675   4.409   1.688   6.073 -0.5678 -1.3125 -0.9373
 8348SOL     OW36676   1.778   2.628   8.463  0.1129 -0.4252  0.2304
 8348SOL    HW136677   1.771   2.556   8.526  3.1910 -0.9613 -0.0727
 8348SOL    HW236678   1.873   2.634   8.456  0.1260 -1.2288 -0.3523
 8349SOL     OW36679   3.072   2.684   8.247  0.0215 -0.5389 -0.5662
 8349SOL    HW136680   3.142   2.683   8.182 -1.2342  0.1636 -1.9189
 8349SOL    HW236681   3.045   2.593   8.231  1.6507 -1.5228  2.1817
 8350SOL     OW36682   1.290   3.246   8.945 -0.4499  0.2836  0.1638
 8350SOL    HW136683   1.277   3.323   8.889  1.3707  1.9672  2.0154
 8350SOL    HW236684   1.364   3.273   9.000  0.0918  1.0700 -0.9632
 8351SOL     OW36685   1.201   4.437   2.227  0.3198  0.2272  0.3635
 8351SOL    HW136686   1.261   4.365   2.246  1.0785  0.0393 -2.7043
 8351SOL    HW236687   1.255   4.493   2.171  0.8453 -0.9197 -0.2681
 8352SOL     OW36688   2.961   4.569   7.888  0.4558  0.4764  0.5413
 8352SOL    HW136689   2.918   4.654   7.896 -1.5626 -0.3878 -1.0936
 8352SOL    HW236690   3.020   4.583   7.815 -2.9833  1.1498 -2.0982
 8353SOL     OW36691   0.553   3.024   4.033 -0.1362 -0.1080  0.2029
 8353SOL    HW136692   0.641   3.023   3.995  0.0512 -1.8292  0.6642
 8353SOL    HW236693   0.570   3.069   4.115 -1.7793  0.0514  0.4638
 8354SOL     OW36694   0.611   0.349   1.812  0.3543 -0.2325  0.2299
 8354SOL    HW136695   0.685   0.336   1.872  1.3973  0.5978 -0.8734
 8354SOL    HW236696   0.590   0.439   1.837 -1.4511 -0.5574 -0.1257
 8355SOL     OW36697   2.096   1.452   6.691  0.5228  0.4011  0.0723
 8355SOL    HW136698   2.187   1.427   6.677  0.2839 -0.0869 -0.6007
 8355SOL    HW236699   2.101   1.547   6.701  0.3503  0.2615  1.4223
 8356SOL     OW36700   1.556   1.595   1.446  0.6269  0.4538  0.1576
 8356SOL    HW136701   1.582   1.628   1.360  1.0403  0.1045  0.1521
 8356SOL    HW236702   1.586   1.505   1.438 -0.6387 -0.1569  2.5731
 8357SOL     OW36703   4.091   2.431  14.905 -0.2409 -0.0126 -0.4597
 8357SOL    HW136704   4.125   2.449  14.817 -1.8206 -0.1300 -1.0958
 8357SOL    HW236705   4.149   2.358  14.928  0.8039  0.2360 -2.3131
 8358SOL     OW36706   3.544   3.241   2.083  0.4626 -0.5178  0.4964
 8358SOL    HW136707   3.584   3.251   1.996 -1.6538  0.1798 -0.3853
 8358SOL    HW236708   3.615   3.274   2.139  0.1712 -1.1242  1.2019
 8359SOL     OW36709   3.796   0.262   0.807 -1.1685 -0.2967 -0.2100
 8359SOL    HW136710   3.880   0.245   0.764 -0.5381  1.5245  0.3111
 8359SOL    HW236711   3.801   0.187   0.866 -2.0023 -1.3818 -1.5264
 8360SOL     OW36712   1.393   0.403   9.672 -0.2210 -0.5520  0.4244
 8360SOL    HW136713   1.409   0.421   9.579 -1.6557  0.9659  0.4788
 8360SOL    HW236714   1.389   0.307   9.679 -0.3729 -0.6624 -1.0698
 8361SOL     OW36715   0.896   2.660   6.230 -0.1229 -0.7363  0.0218
 8361SOL    HW136716   0.941   2.657   6.314 -0.3773 -0.2887  0.1671
 8361SOL    HW236717   0.846   2.741   6.234  0.6118 -0.2461 -0.7036
 8362SOL     OW36718   4.391   4.587   7.058 -0.4128  0.2444 -0.1908
 8362SOL    HW136719   4.418   4.512   7.005  0.6151  0.5648 -0.1242
 8362SOL    HW236720   4.424   4.563   7.145  0.5435  1.7002 -0.1413
 8363SOL     OW36721   2.663   4.513   8.101  0.1999  0.2313 -0.2215
 8363SOL    HW136722   2.754   4.494   8.080 -0.0760  0.8805 -1.9814
 8363SOL    HW236723   2.615   4.468   8.031  0.5982  0.0954 -0.4032
 8364SOL     OW36724   2.355   2.254   8.499 -0.1879  0.2325 -0.0398
 8364SOL    HW136725   2.403   2.185   8.454 -0.3796 -0.3607  0.6480
 8364SOL    HW236726   2.387   2.327   8.447  0.0525  1.0038  1.1813
 8365SOL     OW36727   2.569   0.865   6.451 -0.1321  0.2427 -0.7190
 8365SOL    HW136728   2.658   0.857   6.485  1.0887 -0.7686 -4.1329
 8365SOL    HW236729   2.558   0.957   6.477 -0.6339  0.9407 -3.3448
 8366SOL     OW36730   1.143   3.210   4.682  0.5020 -0.4150  0.6223
 8366SOL    HW136731   1.148   3.246   4.593  0.4834 -1.4644  0.1952
 8366SOL    HW236732   1.079   3.139   4.672 -1.0482  0.9298  0.9104
 8367SOL     OW36733   1.459   0.605   7.045  0.0240 -0.0144  0.1914
 8367SOL    HW136734   1.395   0.575   7.110 -0.0396  3.4792  1.7557
 8367SOL    HW236735   1.418   0.585   6.961  0.9544 -0.1167 -0.2370
 8368SOL     OW36736   3.847   2.957   6.324 -0.0790 -0.5947  0.5748
 8368SOL    HW136737   3.910   3.004   6.269 -0.2391  0.0644  0.9506
 8368SOL    HW236738   3.767   2.986   6.280 -0.2880 -3.3671 -0.8445
 8369SOL     OW36739   0.131   0.110  12.851 -0.3397 -0.2618  0.0152
 8369SOL    HW136740   0.225   0.097  12.843 -0.4074 -0.1090 -0.9578
 8369SOL    HW236741   0.093   0.023  12.859 -0.4638 -0.2141 -0.0521
 8370SOL     OW36742   0.137   0.097   3.014 -0.0238  0.6668  0.1543
 8370SOL    HW136743   0.174   0.107   3.101  2.6953  0.2342 -0.9498
 8370SOL    HW236744   0.075   0.169   3.027  1.3355  1.8736  0.0261
 8371SOL     OW36745   4.593   3.852   2.084 -0.1647 -0.1426  0.3931
 8371SOL    HW136746   4.552   3.818   2.164 -0.7700  2.1908  1.0895
 8371SOL    HW236747   4.592   3.773   2.031 -1.5039  0.5561 -0.6352
 8372SOL     OW36748   0.198   2.664   1.127 -0.1223 -0.5586  0.5172
 8372SOL    HW136749   0.132   2.666   1.197 -1.6432 -2.5706 -0.8551
 8372SOL    HW236750   0.152   2.655   1.044  0.7942 -0.0921 -0.0396
 8373SOL     OW36751   0.848   0.832   5.743  0.1025  0.0580 -0.0102
 8373SOL    HW136752   0.850   0.757   5.684  0.3405 -0.0815  0.1772
 8373SOL    HW236753   0.841   0.788   5.828  3.2737  1.1550  0.8267
 8374SOL     OW36754   3.715   3.648   8.597 -0.2306  0.2842  0.2301
 8374SOL    HW136755   3.747   3.565   8.630 -1.6422 -0.3816 -0.0434
 8374SOL    HW236756   3.635   3.611   8.558 -1.9415  1.5220  2.5283
 8375SOL     OW36757   1.877   3.882  10.765 -0.3221 -0.3896  0.8638
 8375SOL    HW136758   1.966   3.873  10.798  0.0025 -0.0339  0.0723
 8375SOL    HW236759   1.874   3.804  10.711 -0.7856 -0.6477  1.2539
 8376SOL     OW36760   3.851   2.677   5.134  0.6966 -0.1151 -0.1798
 8376SOL    HW136761   3.935   2.699   5.093  1.6567 -0.8304  1.4094
 8376SOL    HW236762   3.884   2.637   5.214 -2.0711  1.0594  1.5417
 8377SOL     OW36763   0.804   0.139  13.433  0.0378 -0.0830  0.0513
 8377SOL    HW136764   0.863   0.106  13.501 -0.2562  1.7030  1.1687
 8377SOL    HW236765   0.871   0.186  13.383  2.0173 -5.1896 -2.0813
 8378SOL     OW36766   1.990   4.434   1.859  0.0323  0.6267 -0.2081
 8378SOL    HW136767   1.937   4.371   1.811  0.7603  1.9171 -2.6919
 8378SOL    HW236768   2.020   4.490   1.787  0.4402 -0.8016 -1.1508
 8379SOL     OW36769   1.119   4.703  12.553 -0.1516 -0.0233  0.3966
 8379SOL    HW136770   1.122   4.667  12.642  0.5775 -0.2841  0.2709
 8379SOL    HW236771   1.061   4.635  12.519 -0.5484 -0.8366  2.7051
 8380SOL     OW36772   3.330   1.430   5.874  0.5354  0.0242 -0.1085
 8380SOL    HW136773   3.377   1.409   5.794 -0.1810 -0.6454 -0.3499
 8380SOL    HW236774   3.252   1.466   5.833  0.0849 -0.4833  0.3060
 8381SOL     OW36775   4.361   2.989   6.875  0.4390 -0.6138  0.1530
 8381SOL    HW136776   4.416   2.993   6.953  2.7986 -0.1240 -1.5747
 8381SOL    HW236777   4.414   3.050   6.823 -1.2339 -0.0331 -0.8881
 8382SOL     OW36778   1.318   0.694   1.944  0.4944  0.6519  0.5113
 8382SOL    HW136779   1.345   0.773   1.990  0.3341  1.4803 -0.8068
 8382SOL    HW236780   1.336   0.633   2.015  2.7524  0.2696 -0.3692
 8383SOL     OW36781   1.833   2.311  11.364 -0.1080  0.2970  0.0873
 8383SOL    HW136782   1.928   2.297  11.367 -0.2334 -0.3824  1.0541
 8383SOL    HW236783   1.832   2.396  11.320  0.7942 -0.2597 -1.0199
 8384SOL     OW36784   1.222   1.033   7.374  0.6109 -0.1773  0.2292
 8384SOL    HW136785   1.151   1.097   7.386  0.3491 -0.6195  1.0018
 8384SOL    HW236786   1.272   1.090   7.315 -1.5163  0.8878 -0.5576
 8385SOL     OW36787   3.615   3.140   5.599 -0.0803  0.0598  0.2175
 8385SOL    HW136788   3.649   3.222   5.633  2.7271 -0.8700 -0.3716
 8385SOL    HW236789   3.570   3.169   5.520  1.1883  4.4085  1.1310
 8386SOL     OW36790   3.227   0.162   8.630 -0.0113  0.5351  0.1046
 8386SOL    HW136791   3.313   0.160   8.588 -0.2919  2.6251 -0.5438
 8386SOL    HW236792   3.165   0.145   8.560  1.0745 -0.4484 -0.6103
 8387SOL     OW36793   1.523   3.318   1.710  0.1320 -0.4671 -0.5924
 8387SOL    HW136794   1.582   3.379   1.754  1.4946 -1.4353 -1.0838
 8387SOL    HW236795   1.548   3.330   1.618  2.0185 -1.4292 -0.1983
 8388SOL     OW36796   0.037   2.696   5.248  0.2074  0.3726  0.1538
 8388SOL    HW136797   4.731   2.627   5.299  1.4540 -1.6694 -1.5658
 8388SOL    HW236798   4.705   2.762   5.241 -0.5787 -0.2145  2.1664
 8389SOL     OW36799   4.019   0.633   2.088  0.3254 -0.0149  0.5670
 8389SOL    HW136800   4.069   0.633   2.170  0.1628  0.1719  0.6668
 8389SOL    HW236801   3.946   0.578   2.117 -0.1157  0.3714  0.1856
 8390SOL     OW36802   0.834   3.328   3.821  0.4738 -0.5140 -0.4381
 8390SOL    HW136803   0.762   3.265   3.834  1.0752 -1.2348 -0.5885
 8390SOL    HW236804   0.839   3.338   3.726  0.9630  2.0045 -0.1520
 8391SOL     OW36805   4.266   1.096  10.396  0.0874  0.0320 -0.0199
 8391SOL    HW136806   4.200   1.030  10.419 -0.5043  0.6334 -0.0058
 8391SOL    HW236807   4.332   1.043  10.440 -1.2090 -1.8648 -0.3499
 8392SOL     OW36808   2.588   2.425   4.093 -0.3886 -0.2892 -0.0259
 8392SOL    HW136809   2.647   2.352   4.112  1.3345  0.5893 -1.9148
 8392SOL    HW236810   2.647   2.501   4.090  0.6016 -0.9891  1.4348
 8393SOL     OW36811   2.744   3.644   3.805  0.0881 -0.1571 -0.1415
 8393SOL    HW136812   2.672   3.696   3.771 -0.4806 -0.0612  1.2061
 8393SOL    HW236813   2.701   3.560   3.820 -0.3825 -0.0974 -1.1216
 8394SOL     OW36814   0.067   3.543   9.007 -0.0299  0.0475 -0.3082
 8394SOL    HW136815   0.138   3.586   9.055 -0.0354  0.5005 -0.7033
 8394SOL    HW236816   0.050   3.613   8.944 -1.6984  0.2754  0.3852
 8395SOL     OW36817   4.525   3.791   9.003 -0.1144 -0.1374 -0.3591
 8395SOL    HW136818   4.545   3.700   8.981 -1.4885 -0.1124 -1.6985
 8395SOL    HW236819   4.512   3.791   9.098 -1.3305 -1.7726 -0.5202
 8396SOL     OW36820   1.121   4.467   7.931 -0.3593 -0.0628 -0.1206
 8396SOL    HW136821   1.212   4.441   7.942 -0.0711  2.1971  2.7031
 8396SOL    HW236822   1.072   4.391   7.901 -0.0714 -0.0534 -0.6235
 8397SOL     OW36823   1.924   3.494   5.548  0.3784 -0.0814 -0.3932
 8397SOL    HW136824   1.979   3.457   5.479 -0.9686 -0.3719 -1.3230
 8397SOL    HW236825   1.840   3.461   5.515  0.4758 -0.8823  0.1683
 8398SOL     OW36826   1.558   3.653   3.718 -0.5464  0.1243  0.2234
 8398SOL    HW136827   1.488   3.709   3.753  0.4478 -0.0658  2.5355
 8398SOL    HW236828   1.527   3.566   3.743 -0.8244  0.1305 -0.0973
 8399SOL     OW36829   1.789   0.887  16.830 -0.3787  0.7873 -0.2745
 8399SOL    HW136830   1.740   0.874  16.911  0.7206  1.0685  0.4439
 8399SOL    HW236831   1.882   0.877  16.852 -0.7185 -1.4972  0.1433
 8400SOL     OW36832   3.658   0.561   7.140  0.7055  0.0711  0.1333
 8400SOL    HW136833   3.709   0.527   7.066  1.4332  1.9743 -0.2719
 8400SOL    HW236834   3.574   0.570   7.096  0.9518 -1.7653 -0.6980
 8401SOL     OW36835   4.379   0.299   2.937 -0.0999  0.3767 -0.3415
 8401SOL    HW136836   4.404   0.334   2.851 -0.7430  1.0365 -0.2680
 8401SOL    HW236837   4.306   0.239   2.919  0.9683 -0.4634 -1.8545
 8402SOL     OW36838   2.714   1.973   4.820  0.0677 -0.0810 -0.8650
 8402SOL    HW136839   2.793   1.949   4.774  0.8161 -2.4212  1.6305
 8402SOL    HW236840   2.705   2.062   4.787 -1.2434 -0.3581 -1.2778
 8403SOL     OW36841   4.189   2.018   6.322 -0.4588  0.7418  0.2593
 8403SOL    HW136842   4.203   2.092   6.263  1.1631 -0.4922 -0.9144
 8403SOL    HW236843   4.118   1.974   6.275  0.6804  1.3222 -2.0311
 8404SOL     OW36844   3.731   2.633   9.137  0.2467  0.3797  0.7913
 8404SOL    HW136845   3.777   2.709   9.103  1.9406 -1.0801 -0.1805
 8404SOL    HW236846   3.779   2.607   9.215  0.0087 -0.2348  0.7328
 8405SOL     OW36847   1.650   2.323  15.414 -0.2191 -0.0095 -0.3656
 8405SOL    HW136848   1.650   2.407  15.368 -0.0376  1.0525  1.5884
 8405SOL    HW236849   1.697   2.355  15.492  0.0736  0.0727 -0.5731
 8406SOL     OW36850   3.928   3.633   7.479 -0.0224 -0.2773  0.3962
 8406SOL    HW136851   3.933   3.702   7.412 -0.4927 -0.3173  0.3205
 8406SOL    HW236852   3.992   3.655   7.547  0.0623 -0.1734  0.2845
 8407SOL     OW36853   0.512   1.389  13.635  0.2005  0.2071 -0.3015
 8407SOL    HW136854   0.492   1.296  13.650  0.5661  0.2056  0.1669
 8407SOL    HW236855   0.589   1.381  13.579  1.9224  1.1728  1.9180
 8408SOL     OW36856   4.385   1.271  12.918  0.3605  0.5106 -0.2529
 8408SOL    HW136857   4.471   1.311  12.905  2.0064 -2.3889  1.8293
 8408SOL    HW236858   4.342   1.301  12.837  0.6642  0.3709 -0.4663
 8409SOL     OW36859   3.824   4.132   8.122  0.1370  0.2810  0.2983
 8409SOL    HW136860   3.867   4.066   8.068  0.0188  0.7846 -0.4096
 8409SOL    HW236861   3.757   4.081   8.167  0.9796  0.3599  1.6493
 8410SOL     OW36862   3.895   1.136  10.429  0.5561 -0.1213  1.2341
 8410SOL    HW136863   3.956   1.062  10.433 -0.0687 -0.8131 -1.7791
 8410SOL    HW236864   3.959   1.208  10.426 -0.6080  0.8488 -0.3140
 8411SOL     OW36865   2.714   0.446  15.128 -0.4296 -0.2086 -0.1124
 8411SOL    HW136866   2.738   0.355  15.143 -2.1071 -0.2409  2.2400
 8411SOL    HW236867   2.800   0.477  15.097 -0.9127  0.7216 -0.5194
 8412SOL     OW36868   2.505   0.425   7.806 -0.0567 -0.0554  0.0531
 8412SOL    HW136869   2.593   0.416   7.844  0.1586  1.1358 -0.1716
 8412SOL    HW236870   2.489   0.331   7.807  1.4395 -0.3531 -2.8084
 8413SOL     OW36871   0.208   2.385   4.189  0.9502  0.6847 -0.1907
 8413SOL    HW136872   0.302   2.385   4.168  1.4144 -1.1077  1.8784
 8413SOL    HW236873   0.208   2.336   4.271  1.6912 -0.9261 -1.1530
 8414SOL     OW36874   1.054   0.762   5.501  0.2634  0.3733 -0.3626
 8414SOL    HW136875   1.045   0.857   5.515  1.9236  0.7974 -2.1927
 8414SOL    HW236876   0.961   0.740   5.498  0.2676  0.0335  2.1050
 8415SOL     OW36877   4.402   0.529  14.269  0.3483  0.6144 -0.6715
 8415SOL    HW136878   4.469   0.592  14.244  1.1730 -1.0581 -2.7070
 8415SOL    HW236879   4.341   0.592  14.308 -0.5266 -0.2158 -0.6917
 8416SOL     OW36880   2.526   2.038   5.424  0.0530  0.6060 -0.0660
 8416SOL    HW136881   2.499   2.103   5.489  2.5725 -1.6900  3.3057
 8416SOL    HW236882   2.621   2.029   5.430  0.2593  3.3286  0.8505
 8417SOL     OW36883   1.514   3.346   5.965  0.3054 -0.5514  0.2345
 8417SOL    HW136884   1.574   3.271   5.960 -1.1995 -1.6618 -1.2000
 8417SOL    HW236885   1.502   3.355   6.059 -0.8771 -2.5440  0.2847
 8418SOL     OW36886   0.038   0.294  16.092  0.0437 -0.7028  0.1714
 8418SOL    HW136887   0.075   0.298  16.180  1.3851  0.1744 -0.4389
 8418SOL    HW236888   0.107   0.243  16.050  0.2336  1.0612 -1.6904
 8419SOL     OW36889   1.320   2.725   6.619 -0.3493  0.1121  0.5756
 8419SOL    HW136890   1.295   2.773   6.540 -0.5866 -0.8793  0.0495
 8419SOL    HW236891   1.404   2.770   6.630 -0.4573  0.9510 -1.9429
 8420SOL     OW36892   1.697   2.595   9.615  0.0598 -0.4153 -0.2531
 8420SOL    HW136893   1.747   2.653   9.673 -2.7424  0.5881  1.1216
 8420SOL    HW236894   1.707   2.639   9.531  0.4967  1.4731  0.7813
 8421SOL     OW36895   2.842   2.861   6.124 -0.7744 -0.1418  0.4871
 8421SOL    HW136896   2.850   2.877   6.218  1.1487 -1.5029  0.5613
 8421SOL    HW236897   2.914   2.913   6.089  0.6559 -0.2358  3.3149
 8422SOL     OW36898   1.550   4.137   3.946 -0.4251  0.2890  0.1211
 8422SOL    HW136899   1.593   4.118   3.863  2.9397  1.2126  1.6495
 8422SOL    HW236900   1.546   4.233   3.948 -1.0744  0.2731 -0.5405
 8423SOL     OW36901   4.022   1.010   8.029  0.3727  0.3955 -0.3437
 8423SOL    HW136902   3.966   1.038   7.957 -1.5972  1.5720  1.6331
 8423SOL    HW236903   3.962   1.021   8.104  2.3440  0.5574  1.2236
 8424SOL     OW36904   4.118   4.586  13.113 -0.2901  0.3913  0.3025
 8424SOL    HW136905   4.180   4.657  13.126 -0.7490  0.6816  0.9203
 8424SOL    HW236906   4.153   4.547  13.033  0.2011  0.7669  0.3421
 8425SOL     OW36907   4.343   2.542   3.372 -0.1637 -0.1855  0.4764
 8425SOL    HW136908   4.434   2.517   3.355 -0.4974 -0.3554 -1.0652
 8425SOL    HW236909   4.353   2.581   3.459 -1.0100 -1.4658  1.1476
 8426SOL     OW36910   3.432   1.902   6.179 -0.5825  0.2931  0.4731
 8426SOL    HW136911   3.431   1.817   6.224 -0.0268  0.5790  1.0209
 8426SOL    HW236912   3.521   1.925   6.204 -0.8072  2.4713 -0.7477
 8427SOL     OW36913   4.636   3.841   4.736  0.0671  0.4135 -0.1761
 8427SOL    HW136914   4.607   3.754   4.709 -0.9256  0.8730 -0.6181
 8427SOL    HW236915   4.719   3.862   4.693  0.3696 -0.2559  0.0778
 8428SOL     OW36916   2.792   1.746  14.961 -0.0075 -0.1446  0.6457
 8428SOL    HW136917   2.878   1.765  14.997 -1.1602  1.9401  2.2745
 8428SOL    HW236918   2.775   1.822  14.905 -0.4577  1.2034  2.6098
 8429SOL     OW36919   0.074   1.569   1.954 -0.0491 -0.4984  0.6462
 8429SOL    HW136920   4.729   1.612   1.981 -0.6356 -2.1107  1.4046
 8429SOL    HW236921   0.116   1.651   1.928 -1.3195 -1.0215 -3.0329
 8430SOL     OW36922   3.187   3.980   0.188 -0.3864 -0.0230  0.6254
 8430SOL    HW136923   3.205   3.894   0.226 -0.2175 -0.6073 -0.7872
 8430SOL    HW236924   3.261   3.977   0.127 -1.1510  0.5267 -0.3339
 8431SOL     OW36925   3.238   4.077  17.603  0.6439 -0.0551 -0.2681
 8431SOL    HW136926   3.207   4.157  17.645  0.1676 -0.0276 -0.6679
 8431SOL    HW236927   3.176   4.065  17.531  0.4166 -1.3288  0.1460
 8432SOL     OW36928   4.294   0.351   9.485 -0.1518 -0.3017  0.6718
 8432SOL    HW136929   4.336   0.278   9.440 -0.1514  0.3667 -0.3962
 8432SOL    HW236930   4.229   0.308   9.539  1.0021 -1.4576  1.1389
 8433SOL     OW36931   1.618   1.232   6.618  0.0282  0.5628 -0.3239
 8433SOL    HW136932   1.571   1.252   6.537  0.1569  0.4199 -0.4342
 8433SOL    HW236933   1.680   1.305   6.621 -1.7233  1.9465  2.2710
 8434SOL     OW36934   1.731   3.582  10.443 -0.2939 -0.1094  0.6935
 8434SOL    HW136935   1.688   3.582  10.528  2.3430  0.8692  2.0414
 8434SOL    HW236936   1.666   3.605  10.377  1.3378  1.8315 -0.2579
 8435SOL     OW36937   4.601   4.547   7.253 -0.4586  0.5910 -0.1768
 8435SOL    HW136938   4.553   4.583   7.328 -1.8044  0.3347 -0.9213
 8435SOL    HW236939   4.676   4.605   7.245  0.8840 -0.7238  2.8170
 8436SOL     OW36940   2.432   4.060   7.777 -0.3136  0.1284  0.0670
 8436SOL    HW136941   2.410   4.123   7.846  1.7101  1.9226 -0.9404
 8436SOL    HW236942   2.516   4.091   7.744  0.0476  0.5380  1.3628
 8437SOL     OW36943   3.816   0.211   6.242 -0.2641  0.4014  0.2108
 8437SOL    HW136944   3.757   0.285   6.258  1.9374  1.8858  1.3571
 8437SOL    HW236945   3.898   0.256   6.258 -0.5813  0.8506  0.5834
 8438SOL     OW36946   1.094   4.700  17.678 -0.4232 -0.4858 -0.2346
 8438SOL    HW136947   1.108   0.050  17.640  0.6325 -0.9629 -0.9167
 8438SOL    HW236948   1.014   4.672  17.633  0.4210 -2.4150 -0.5490
 8439SOL     OW36949   4.139   2.767   5.676 -0.1400 -0.4746  0.6943
 8439SOL    HW136950   4.189   2.686   5.665 -0.0507 -0.4283  0.7582
 8439SOL    HW236951   4.185   2.810   5.749 -0.2999 -0.8549  1.0193
 8440SOL     OW36952   2.168   1.022  17.112  0.0071  0.7162  0.5628
 8440SOL    HW136953   2.187   0.992  17.201 -2.3424 -1.6894  0.2468
 8440SOL    HW236954   2.073   1.015  17.104 -0.0857 -0.0460  2.3477
 8441SOL     OW36955   4.264   0.109   3.486 -0.3896  0.1095 -0.4470
 8441SOL    HW136956   4.223   0.026   3.461  3.0933 -1.4907 -0.8823
 8441SOL    HW236957   4.243   0.163   3.410  1.1436  1.9747  0.4519
 8442SOL     OW36958   0.962   3.258  11.475 -0.0077 -0.0869  0.1791
 8442SOL    HW136959   0.956   3.289  11.565 -2.2232 -1.7894  0.6209
 8442SOL    HW236960   1.036   3.200  11.491  0.7412  0.8193  0.0127
 8443SOL     OW36961   3.306   1.091   0.123 -0.2692  0.0542  0.1898
 8443SOL    HW136962   3.320   1.093   0.218  1.1853 -1.1070 -0.0057
 8443SOL    HW236963   3.293   1.184   0.104  0.1002  0.7293  3.1847
 8444SOL     OW36964   2.225   3.299   8.979 -0.0093  0.5568 -0.5191
 8444SOL    HW136965   2.272   3.258   8.907  0.4362  4.3063 -2.3677
 8444SOL    HW236966   2.134   3.302   8.951  0.0480  2.3578 -0.5025
 8445SOL     OW36967   1.405   0.852   2.617  0.2596 -0.4439  0.1564
 8445SOL    HW136968   1.404   0.764   2.581  0.5710  0.2425 -1.5630
 8445SOL    HW236969   1.374   0.826   2.704 -0.6441  2.5901  0.7561
 8446SOL     OW36970   3.385   0.786   6.168  0.3589 -0.3509  0.1789
 8446SOL    HW136971   3.354   0.713   6.114 -0.4936 -0.5211  0.9012
 8446SOL    HW236972   3.303   0.829   6.191  0.8492  0.9271 -0.4901
 8447SOL     OW36973   4.051   3.053  13.713  0.4967 -0.4388 -0.0622
 8447SOL    HW136974   4.089   2.996  13.780  3.0440  0.3275 -0.8653
 8447SOL    HW236975   4.120   3.118  13.702 -1.6186  1.8584  0.3113
 8448SOL     OW36976   3.536   3.284   0.324 -0.0700  0.0803 -0.0888
 8448SOL    HW136977   3.459   3.290   0.268  1.0744  1.2737 -1.5416
 8448SOL    HW236978   3.600   3.292   0.253 -0.8460  1.3440 -0.6424
 8449SOL     OW36979   4.546   0.540   8.692  0.1722  0.0165  0.4343
 8449SOL    HW136980   4.592   0.466   8.652  1.1265  1.2445 -0.7495
 8449SOL    HW236981   4.582   0.609   8.636  2.2239  0.4422  2.2880
 8450SOL     OW36982   2.508   3.104   4.344  0.1391  0.3755  0.1591
 8450SOL    HW136983   2.526   3.159   4.268  1.9283 -0.1096  0.2335
 8450SOL    HW236984   2.418   3.119   4.375  0.2137  0.4162  0.3562
 8451SOL     OW36985   2.110   3.532   6.550 -0.1409  0.0148 -0.4181
 8451SOL    HW136986   2.052   3.539   6.474  0.4881  1.1043 -0.7925
 8451SOL    HW236987   2.053   3.527   6.626 -1.7787  2.7016 -1.4883
 8452SOL     OW36988   1.944   2.899   3.634 -0.1824 -0.0684 -0.1303
 8452SOL    HW136989   1.962   2.830   3.571 -0.9767 -1.2625  0.9638
 8452SOL    HW236990   1.966   2.976   3.582  2.4354  1.5891  3.3342
 8453SOL     OW36991   2.069   0.327   8.187 -0.7208 -0.0274 -0.5769
 8453SOL    HW136992   2.065   0.329   8.092 -0.6085  1.4223 -0.5456
 8453SOL    HW236993   1.993   0.275   8.215 -0.1168 -0.2439  0.6673
 8454SOL     OW36994   1.448   0.808   5.491 -0.1916 -0.3941  0.3897
 8454SOL    HW136995   1.523   0.851   5.449  1.1404 -2.3069  0.8107
 8454SOL    HW236996   1.488   0.739   5.544  0.9425 -0.0802 -0.0590
 8455SOL     OW36997   2.690   0.279   6.562 -0.1238 -0.5351 -0.2791
 8455SOL    HW136998   2.683   0.374   6.559 -1.3349 -0.6005  0.4499
 8455SOL    HW236999   2.616   0.252   6.616  0.4255 -0.5843  0.4541
 8456SOL     OW37000   3.277   0.374   2.288  0.1851 -0.4750  0.0451
 8456SOL    HW137001   3.184   0.380   2.310  0.1273 -0.3274 -0.2554
 8456SOL    HW237002   3.302   0.313   2.358  1.3070 -0.5108 -0.3845
 8457SOL     OW37003   2.781   4.197   0.092  0.2219 -0.1669  0.6410
 8457SOL    HW137004   2.713   4.209   0.025  1.5820  0.3296 -0.6567
 8457SOL    HW237005   2.822   4.283   0.080  0.7815 -0.9127 -2.6772
 8458SOL     OW37006   2.652   1.879   8.239  0.1234  0.5334  0.7918
 8458SOL    HW137007   2.594   1.913   8.171 -0.5619  0.5068  1.3582
 8458SOL    HW237008   2.593   1.804   8.253 -2.9321  2.4469 -1.8146
 8459SOL     OW37009   0.397   4.079   4.279  0.7021  0.1738  0.2055
 8459SOL    HW137010   0.317   4.125   4.256 -0.2129 -1.0792  0.8516
 8459SOL    HW237011   0.426   4.120   4.361  0.1422 -0.5549  0.7654
 8460SOL     OW37012   3.181   0.070   6.966  0.2797  0.3174  0.4381
 8460SOL    HW137013   3.187   0.032   6.879 -0.7632 -0.0221  0.5230
 8460SOL    HW237014   3.119   0.015   7.012  0.5778 -2.4994 -2.5112
 8461SOL     OW37015   0.941   1.666  12.363 -0.1668 -0.8602 -0.2634
 8461SOL    HW137016   0.954   1.572  12.376  1.7004 -0.5424  0.2132
 8461SOL    HW237017   0.976   1.699  12.447  1.1818  0.9651 -1.5282
 8462SOL     OW37018   4.594   1.022   6.228  0.0112  0.1602 -0.4535
 8462SOL    HW137019   4.624   1.080   6.158  0.2299  0.7042  0.0930
 8462SOL    HW237020   4.676   1.004   6.273 -0.2833 -0.1826 -0.0537
 8463SOL     OW37021   4.070   3.996   7.583 -0.1756 -1.1212 -0.3554
 8463SOL    HW137022   4.092   3.907   7.613 -0.7843 -0.8490  0.9216
 8463SOL    HW237023   3.977   4.007   7.605 -0.2742 -0.9500 -0.8579
 8464SOL     OW37024   3.361   0.261   0.798 -0.2195  0.0615  0.6665
 8464SOL    HW137025   3.345   0.183   0.745 -0.8583  0.8538 -0.2857
 8464SOL    HW237026   3.421   0.233   0.868 -0.4773  0.3565  1.0071
 8465SOL     OW37027   4.480   1.310   2.097 -0.3683 -0.3270  0.0430
 8465SOL    HW137028   4.567   1.271   2.110  0.1732  1.2465  1.0877
 8465SOL    HW237029   4.482   1.339   2.006  0.3440 -1.8380 -0.4292
 8466SOL     OW37030   0.174   0.569   7.940  0.2770 -0.3242 -0.3671
 8466SOL    HW137031   0.121   0.635   7.895  1.5486  1.5059  0.7961
 8466SOL    HW237032   0.115   0.533   8.007  0.1066 -1.3333 -1.0588
 8467SOL     OW37033   2.256   4.552  15.616  0.4593 -0.3227  0.1638
 8467SOL    HW137034   2.205   4.490  15.668 -1.7029  0.5331 -0.9203
 8467SOL    HW237035   2.236   4.635  15.659  1.3647  0.5284 -1.0685
 8468SOL     OW37036   4.505   1.793   0.655  0.2142 -0.1191 -0.2895
 8468SOL    HW137037   4.580   1.755   0.610  0.9751 -0.1451  0.9969
 8468SOL    HW237038   4.543   1.818   0.740 -2.3809 -0.2251  0.9229
 8469SOL     OW37039   0.194   4.340   6.950  0.2804  0.1023  0.3321
 8469SOL    HW137040   0.254   4.345   6.875 -2.2231  0.3802 -1.6331
 8469SOL    HW237041   0.200   4.424   6.996 -1.6078 -0.7373  2.0965
 8470SOL     OW37042   2.133   1.555  11.842 -0.1575 -0.3755 -0.4557
 8470SOL    HW137043   2.139   1.618  11.770  0.8562  1.0199  0.8506
 8470SOL    HW237044   2.059   1.592  11.891  0.3222 -1.1914  0.8833
 8471SOL     OW37045   4.346   1.935   7.325 -0.3268  0.2766  1.0701
 8471SOL    HW137046   4.425   1.982   7.301  0.8398 -2.2948 -0.0960
 8471SOL    HW237047   4.284   1.982   7.270 -0.0851 -2.8945 -1.9001
 8472SOL     OW37048   3.408   1.332   5.621  0.3031  0.3288  0.0047
 8472SOL    HW137049   3.414   1.396   5.550 -1.5961  3.5922  2.7854
 8472SOL    HW237050   3.495   1.294   5.623 -0.1910 -0.7596  1.4031
 8473SOL     OW37051   3.757   1.192   6.459  0.5610  0.0665 -0.1834
 8473SOL    HW137052   3.824   1.258   6.440  0.0024  0.3126 -1.3635
 8473SOL    HW237053   3.717   1.174   6.373  1.3296 -0.3601 -0.4469
 8474SOL     OW37054   2.394   1.218   2.111  0.5074 -0.1827 -0.0482
 8474SOL    HW137055   2.363   1.275   2.182  0.1976  0.1925 -0.4847
 8474SOL    HW237056   2.311   1.191   2.073  0.5004 -0.9567  0.5095
 8475SOL     OW37057   3.465   3.271   0.606 -0.8769 -0.4116  0.2902
 8475SOL    HW137058   3.477   3.303   0.516 -0.7163 -1.2640  0.0047
 8475SOL    HW237059   3.425   3.185   0.592  1.4726 -1.1144 -2.2456
 8476SOL     OW37060   2.646   1.097   3.244 -0.2652  0.2855 -0.7512
 8476SOL    HW137061   2.691   1.109   3.327  1.3420  0.1465 -1.6186
 8476SOL    HW237062   2.606   1.182   3.225  2.7862  1.8492 -0.0980
 8477SOL     OW37063   3.674   3.433  12.129  0.3505 -0.4478  0.3735
 8477SOL    HW137064   3.609   3.496  12.161 -0.0530 -2.2441  3.1474
 8477SOL    HW237065   3.623   3.362  12.092  0.9264 -0.4495 -0.4074
 8478SOL     OW37066   2.685   3.492   3.252 -0.6381  0.4391 -0.2228
 8478SOL    HW137067   2.664   3.543   3.174  1.2014  2.9776  0.9156
 8478SOL    HW237068   2.677   3.404   3.215  0.7710  0.3367 -0.2962
 8479SOL     OW37069   4.649   1.123   4.551 -0.0967  1.0565 -0.3549
 8479SOL    HW137070   4.570   1.165   4.518 -0.3226  1.5493  0.7984
 8479SOL    HW237071   4.686   1.178   4.620 -0.3122 -0.6188  1.0966
 8480SOL     OW37072   1.149   4.321   5.000 -0.3779  0.5801  0.4846
 8480SOL    HW137073   1.185   4.245   5.046 -0.4004 -0.4066 -1.1242
 8480SOL    HW237074   1.113   4.375   5.070 -0.6242  0.2436  0.6188
 8481SOL     OW37075   4.415   2.645   3.617  0.6295 -0.6147  0.0311
 8481SOL    HW137076   4.457   2.586   3.680 -0.2109  0.0374  1.1901
 8481SOL    HW237077   4.458   2.730   3.628 -0.1447 -0.3767  1.2609
 8482SOL     OW37078   4.456   4.622   7.920  0.2608 -1.0319  0.0396
 8482SOL    HW137079   4.388   4.555   7.927  1.4542 -2.3415 -0.8810
 8482SOL    HW237080   4.474   4.634   8.013 -1.8166  3.0271 -0.0736
 8483SOL     OW37081   4.128   4.352   8.372 -0.0101 -0.0349 -0.4323
 8483SOL    HW137082   4.064   4.300   8.322 -0.1800  0.7510 -1.0282
 8483SOL    HW237083   4.189   4.377   8.303  0.1050 -2.5002 -1.2388
 8484SOL     OW37084   0.166   2.629   4.848  0.2146  0.9601 -0.1637
 8484SOL    HW137085   0.219   2.560   4.807  0.9369  0.1925  2.0420
 8484SOL    HW237086   0.182   2.613   4.941 -1.0692 -2.3195 -0.5048
 8485SOL     OW37087   0.227   2.447   3.408  0.0969  0.2817  0.4187
 8485SOL    HW137088   0.147   2.394   3.404  0.8750 -0.9504  1.1049
 8485SOL    HW237089   0.213   2.480   3.497  1.4671  0.2104  0.6566
 8486SOL     OW37090   4.526   0.374   6.610 -0.0792 -0.2037 -0.1839
 8486SOL    HW137091   4.458   0.308   6.601  0.8735 -1.1619 -0.2936
 8486SOL    HW237092   4.521   0.407   6.520 -1.6117  0.0755 -0.0050
 8487SOL     OW37093   1.098   1.905   1.625 -0.7466 -0.0559 -0.1359
 8487SOL    HW137094   1.124   1.921   1.716  0.3893 -2.0190 -0.0938
 8487SOL    HW237095   1.110   1.990   1.583  0.6572  0.3945  1.1943
 8488SOL     OW37096   0.764   0.015   5.536  0.5270  0.0192 -0.1216
 8488SOL    HW137097   0.801   0.103   5.527  0.9406 -0.1628 -0.2406
 8488SOL    HW237098   0.809   4.727   5.617 -1.6815  3.5163  2.1017
 8489SOL     OW37099   2.645   4.505   1.632  0.0169 -0.0299  0.5184
 8489SOL    HW137100   2.711   4.563   1.594  2.3952 -2.6496  0.6300
 8489SOL    HW237101   2.680   4.498   1.721  1.3805 -0.3536 -0.0438
 8490SOL     OW37102   2.679   2.734  16.530 -0.1692 -0.0388 -0.6239
 8490SOL    HW137103   2.652   2.821  16.560  3.0472  0.6345  0.3867
 8490SOL    HW237104   2.683   2.748  16.436  1.4976 -1.4997 -0.7846
 8491SOL     OW37105   0.377   4.322  14.390  0.5377 -0.6820 -0.8341
 8491SOL    HW137106   0.333   4.358  14.467 -0.3694 -0.7209 -1.3488
 8491SOL    HW237107   0.448   4.274  14.433  0.7273 -1.9574 -2.5697
 8492SOL     OW37108   4.468   4.560   2.617  0.0958  0.0701 -0.0217
 8492SOL    HW137109   4.499   4.518   2.537 -0.2323 -0.0196 -0.0984
 8492SOL    HW237110   4.547   4.547   2.671 -1.0850  3.2773  2.4840
 8493SOL     OW37111   3.655   0.463   8.326 -0.2301  0.5712  0.8637
 8493SOL    HW137112   3.676   0.549   8.288  0.3797 -0.4857 -1.1774
 8493SOL    HW237113   3.567   0.440   8.296  0.1230 -0.3219  0.5258
 8494SOL     OW37114   0.851   0.761   8.603 -0.1615 -0.2348 -0.1894
 8494SOL    HW137115   0.927   0.813   8.628  0.4525 -0.6325 -1.2272
 8494SOL    HW237116   0.875   0.727   8.517  2.6781  0.2387  0.4450
 8495SOL     OW37117   3.797   1.311   9.140 -0.2142  0.9580 -0.1102
 8495SOL    HW137118   3.869   1.247   9.135  0.0427  1.4359 -2.7920
 8495SOL    HW237119   3.765   1.304   9.050  1.6245  1.5049 -0.8164
 8496SOL     OW37120   2.139   2.535   8.901  0.1090 -0.7282 -0.3458
 8496SOL    HW137121   2.055   2.494   8.923 -1.0126  2.3135  1.0492
 8496SOL    HW237122   2.153   2.569   8.990  2.9584  0.8949 -1.4366
 8497SOL     OW37123   2.499   3.715  17.130 -0.5489  0.3490 -0.1122
 8497SOL    HW137124   2.539   3.715  17.043 -0.0377  3.0776  0.1090
 8497SOL    HW237125   2.414   3.756  17.114 -0.6819  0.8385  1.8278
 8498SOL     OW37126   0.680   2.644   6.931 -0.1560 -0.5892 -0.1651
 8498SOL    HW137127   0.745   2.703   6.892 -0.3192 -0.9521 -0.9894
 8498SOL    HW237128   0.732   2.564   6.923 -0.1370 -0.6859  0.8612
 8499SOL     OW37129   0.551   0.261   3.142  0.0840  0.1451  0.0532
 8499SOL    HW137130   0.586   0.186   3.191  2.4817 -1.2648 -3.7629
 8499SOL    HW237131   0.459   0.236   3.143  0.6862 -2.0675  0.8596
 8500SOL     OW37132   4.347   4.657  17.409  0.0976 -0.5242  0.3731
 8500SOL    HW137133   4.347   0.002  17.358 -0.9526 -0.2067  0.8667
 8500SOL    HW237134   4.383   4.684  17.494 -1.5165  1.0845  0.5679
 8501SOL     OW37135   3.134   4.331   0.662 -0.2486 -0.0908  0.3657
 8501SOL    HW137136   3.178   4.354   0.581 -3.8531 -1.1057 -1.8644
 8501SOL    HW237137   3.140   4.235   0.665  1.0071  0.0307  1.8820
 8502SOL     OW37138   4.357   3.357   8.604 -0.0310 -0.0203  0.2969
 8502SOL    HW137139   4.296   3.286   8.583 -4.4050  3.4440  1.1115
 8502SOL    HW237140   4.359   3.357   8.700  0.7465 -2.4011  0.2796
 8503SOL     OW37141   1.797   2.690  12.887 -0.1345  0.1379 -0.4844
 8503SOL    HW137142   1.859   2.718  12.819 -0.4748 -0.1513 -0.9111
 8503SOL    HW237143   1.718   2.722  12.843 -1.2934 -0.2660  1.3253
 8504SOL     OW37144   3.101   3.487   6.727  0.7623  0.1372  0.3436
 8504SOL    HW137145   3.056   3.403   6.735 -0.8772  1.1007  1.4397
 8504SOL    HW237146   3.189   3.464   6.756  0.9459 -0.0087 -0.3231
 8505SOL     OW37147   4.198   2.468   9.451 -0.1749 -0.4529 -0.8781
 8505SOL    HW137148   4.153   2.491   9.532 -1.4884  1.0323 -2.0227
 8505SOL    HW237149   4.233   2.551   9.418 -0.1444 -0.7262 -1.5215
 8506SOL     OW37150   0.797   1.318   5.707 -0.1282  0.1128  0.1513
 8506SOL    HW137151   0.797   1.261   5.784 -0.0330 -0.7917 -0.5298
 8506SOL    HW237152   0.745   1.390   5.742  2.0703  2.6429 -1.7654
 8507SOL     OW37153   1.469   2.469   7.409  0.5049  0.1207 -0.2179
 8507SOL    HW137154   1.383   2.486   7.447  0.3231 -1.4009  0.0156
 8507SOL    HW237155   1.525   2.521   7.467  1.5477 -0.7970 -0.4005
 8508SOL     OW37156   2.496   4.303   0.937 -0.1016  0.3013 -1.0281
 8508SOL    HW137157   2.408   4.272   0.960  1.1101 -1.7744  0.8877
 8508SOL    HW237158   2.523   4.222   0.894 -0.0837  0.1830 -0.7965
 8509SOL     OW37159   0.689   3.777   9.080 -0.2751 -0.0635 -0.5196
 8509SOL    HW137160   0.774   3.733   9.080  0.4925  1.4098 -1.8704
 8509SOL    HW237161   0.707   3.857   9.128  2.7861  0.2681 -2.1810
 8510SOL     OW37162   1.515   4.373   7.306  0.0454 -0.2008 -0.4907
 8510SOL    HW137163   1.578   4.433   7.347  2.1479 -2.2967 -0.6301
 8510SOL    HW237164   1.452   4.366   7.378  0.4357  2.3662  0.0901
 8511SOL     OW37165   2.685   3.248  10.403  0.0293 -0.7010  0.8325
 8511SOL    HW137166   2.634   3.174  10.437 -0.9031  0.0470  1.0583
 8511SOL    HW237167   2.657   3.311  10.469  1.0536  1.5867 -0.9446
 8512SOL     OW37168   4.192   0.311   2.188 -0.2285 -0.2473  0.2667
 8512SOL    HW137169   4.167   0.399   2.159 -0.9754 -1.4101 -2.6943
 8512SOL    HW237170   4.232   0.330   2.273  0.1957  1.4638 -0.3150
 8513SOL     OW37171   1.301   3.400   7.778 -0.5093 -0.0684 -0.2002
 8513SOL    HW137172   1.368   3.469   7.775  0.7696 -1.2834  0.3317
 8513SOL    HW237173   1.357   3.324   7.761 -0.5082 -0.1011 -0.0573
 8514SOL     OW37174   0.008   4.123  16.058 -0.1349  0.1623 -0.5642
 8514SOL    HW137175   0.074   4.129  15.989  1.3483 -1.3857  0.7067
 8514SOL    HW237176   4.669   4.159  16.012 -1.1937 -0.0786  0.9749
 8515SOL     OW37177   0.509   1.592   2.498  0.3211  0.1871  0.0373
 8515SOL    HW137178   0.490   1.530   2.429  1.5149 -0.7198  0.5424
 8515SOL    HW237179   0.604   1.589   2.510  0.0423 -0.5076  2.0768
 8516SOL     OW37180   2.702   4.266   2.075 -0.4075  0.3236 -0.5260
 8516SOL    HW137181   2.686   4.238   1.984  1.2211 -0.1292 -0.6735
 8516SOL    HW237182   2.771   4.329   2.056 -0.5449  0.7150  0.3000
 8517SOL     OW37183   4.690   2.010   6.736 -0.1118 -0.6437  0.2972
 8517SOL    HW137184   4.611   1.959   6.752 -0.5573 -0.9237 -2.7376
 8517SOL    HW237185   4.699   2.051   6.822 -0.6960 -2.7246  1.3459
 8518SOL     OW37186   3.893   4.027   8.675 -0.3684  0.0641 -0.6255
 8518SOL    HW137187   3.944   4.014   8.596  2.7273  0.1278  1.3457
 8518SOL    HW237188   3.806   3.994   8.654 -0.3876 -0.9615  1.0649
 8519SOL     OW37189   0.321   0.660   1.955  0.0191  0.4044  0.0752
 8519SOL    HW137190   0.261   0.727   1.922  0.3712  0.2458 -0.9109
 8519SOL    HW237191   0.289   0.641   2.043 -0.0566  2.1745  0.4196
 8520SOL     OW37192   3.151   1.913   7.320 -0.3267 -0.0467  0.7035
 8520SOL    HW137193   3.074   1.924   7.265  1.5792  2.1159 -1.5626
 8520SOL    HW237194   3.214   1.879   7.256  0.7995 -0.3559  1.9590
 8521SOL     OW37195   0.510   0.304   8.885 -0.5851  0.6469 -0.1855
 8521SOL    HW137196   0.420   0.272   8.872 -0.2018 -0.0069 -1.1963
 8521SOL    HW237197   0.517   0.307   8.980 -0.7156  0.3299 -0.1660
 8522SOL     OW37198   4.145   1.926   3.492 -0.1671  0.4625 -0.5164
 8522SOL    HW137199   4.102   1.926   3.578 -4.4253  0.0310 -2.6763
 8522SOL    HW237200   4.142   1.835   3.461 -0.1637  0.9171 -1.8562
 8523SOL     OW37201   2.952   4.269  15.176 -0.4418  0.5935 -0.3812
 8523SOL    HW137202   2.929   4.186  15.134  1.8517 -0.1310 -0.2281
 8523SOL    HW237203   2.957   4.239  15.267 -2.3130  0.4300 -0.3279
 8524SOL     OW37204   3.761   1.500  16.969  0.6187 -0.0002 -0.1224
 8524SOL    HW137205   3.800   1.544  16.893  1.3646 -1.6919 -0.7324
 8524SOL    HW237206   3.829   1.439  17.000  1.0364 -0.3821 -1.8193
 8525SOL     OW37207   0.964   3.039   0.087  0.3716 -0.2073  0.5811
 8525SOL    HW137208   0.984   2.991   0.167  0.8552 -0.8136  0.0945
 8525SOL    HW237209   0.877   3.005   0.070  0.3244  0.1473  0.0984
 8526SOL     OW37210   1.776   1.515  16.962  0.4518  0.2650  0.1872
 8526SOL    HW137211   1.771   1.606  16.992 -1.9617  1.1223 -2.6772
 8526SOL    HW237212   1.869   1.495  16.968 -0.0289 -2.3020 -0.9326
 8527SOL     OW37213   4.553   2.863   5.546  0.8703  0.0073  0.1707
 8527SOL    HW137214   4.561   2.863   5.642 -0.0851  1.9918  0.2544
 8527SOL    HW237215   4.530   2.773   5.523 -1.4075  0.3736  0.9971
 8528SOL     OW37216   0.324   2.603   3.205  0.2131 -0.4171 -0.3159
 8528SOL    HW137217   0.289   2.691   3.193  0.7940 -0.3689 -1.6591
 8528SOL    HW237218   0.270   2.562   3.272  0.7214  0.6779  0.7594
 8529SOL     OW37219   2.277   3.554  10.270  0.8078 -0.6350  0.6059
 8529SOL    HW137220   2.242   3.514  10.350  0.2591  2.3073  1.8157
 8529SOL    HW237221   2.269   3.482  10.206  0.5902  1.0042 -1.2189
 8530SOL     OW37222   4.714   2.083   9.274 -0.1520  0.0643  0.0455
 8530SOL    HW137223   4.640   2.139   9.250 -1.0994 -1.7551 -1.2701
 8530SOL    HW237224   4.734   2.117   9.361 -0.3257  0.8215 -0.2053
 8531SOL     OW37225   4.581   3.038   3.045  0.2106  0.1644  0.2088
 8531SOL    HW137226   4.527   2.969   3.084 -0.0424  0.2363 -0.0227
 8531SOL    HW237227   4.634   2.993   2.980  0.4250  0.3765  0.2364
 8532SOL     OW37228   0.096   0.627   4.773  0.2902  0.4512  0.2498
 8532SOL    HW137229   0.112   0.651   4.682 -1.8999 -0.3448 -0.3455
 8532SOL    HW237230   0.029   0.694   4.785 -0.9280 -0.3790 -2.0782
 8533SOL     OW37231   2.408   3.634   3.728  0.4483  0.3000 -0.1349
 8533SOL    HW137232   2.378   3.547   3.755  1.1279  0.8533  2.4055
 8533SOL    HW237233   2.369   3.640   3.641 -3.1382 -0.4023  1.4176
 8534SOL     OW37234   3.022   3.557   4.422 -0.5487 -0.2944  0.2694
 8534SOL    HW137235   3.009   3.649   4.397  0.0433 -0.0075  1.0309
 8534SOL    HW237236   2.957   3.512   4.368 -0.9766 -0.2908  0.7833
 8535SOL     OW37237   1.239   4.123   7.749  0.4262  0.1863  0.0546
 8535SOL    HW137238   1.326   4.106   7.713 -0.0424  0.5414 -1.2259
 8535SOL    HW237239   1.210   4.203   7.705 -2.0107 -0.9006 -0.3018
 8536SOL     OW37240   4.423   2.857   8.810  0.2139  0.3057  0.8334
 8536SOL    HW137241   4.398   2.898   8.893  0.4146 -0.7557  1.4268
 8536SOL    HW237242   4.500   2.909   8.789  0.4205 -0.4884 -0.3677
 8537SOL     OW37243   3.955   4.227   5.062 -0.3901 -0.2568 -0.2255
 8537SOL    HW137244   3.937   4.154   5.121  0.3494  0.1427  0.4838
 8537SOL    HW237245   3.876   4.282   5.055  0.6144  1.4606  1.9484
 8538SOL     OW37246   2.925   1.991   7.177  0.1977  0.1284  0.7702
 8538SOL    HW137247   2.872   2.023   7.104  0.3340 -0.6534  0.3335
 8538SOL    HW237248   2.960   2.072   7.214  1.9975  0.4373 -1.6731
 8539SOL     OW37249   0.630   0.272   9.967  1.1706 -0.3679  0.1122
 8539SOL    HW137250   0.672   0.358   9.976 -2.1859  1.3098  0.0439
 8539SOL    HW237251   0.537   0.288   9.982  1.4449  1.6707 -0.3480
 8540SOL     OW37252   4.370   4.541   1.195 -0.4175 -0.5446  0.3804
 8540SOL    HW137253   4.277   4.551   1.217 -0.2450  1.9766 -0.0360
 8540SOL    HW237254   4.368   4.548   1.099 -0.5043  0.4528  0.4472
 8541SOL     OW37255   2.771   0.848   3.831  0.3846 -0.5309  0.0164
 8541SOL    HW137256   2.801   0.860   3.921 -0.1958 -0.5664  0.2168
 8541SOL    HW237257   2.690   0.898   3.837  1.2445  0.9096 -0.2116
 8542SOL     OW37258   2.817   3.643   2.414  0.2520 -0.1952 -0.3313
 8542SOL    HW137259   2.881   3.713   2.427 -0.2126  0.2904 -0.6385
 8542SOL    HW237260   2.804   3.624   2.507 -0.9378 -1.1916 -0.7020
 8543SOL     OW37261   3.294   3.010   8.310 -0.1086 -0.4494 -0.7901
 8543SOL    HW137262   3.220   3.024   8.251 -0.4347 -1.2093 -0.5647
 8543SOL    HW237263   3.243   3.006   8.391  0.1160  0.1787 -0.6209
 8544SOL     OW37264   3.663   0.483  14.692  0.1814  0.7573 -0.1992
 8544SOL    HW137265   3.608   0.555  14.720 -0.4158 -1.0890  3.2803
 8544SOL    HW237266   3.661   0.429  14.771 -2.7339 -0.1769 -0.9144
 8545SOL     OW37267   4.369   2.350  12.428  0.1738 -0.5980 -0.2924
 8545SOL    HW137268   4.387   2.345  12.334 -2.5606 -1.3370 -0.7798
 8545SOL    HW237269   4.292   2.407  12.428 -0.3077 -1.2679 -1.8622
 8546SOL     OW37270   2.613   1.096   8.194  0.1466 -0.8834 -0.1480
 8546SOL    HW137271   2.657   1.017   8.164 -0.0370 -0.3784 -1.7591
 8546SOL    HW237272   2.522   1.087   8.166  0.9738  0.6036 -3.3799
 8547SOL     OW37273   4.490   4.267   7.476  0.7635 -0.5396  0.4265
 8547SOL    HW137274   4.445   4.183   7.477 -2.4181  1.1535 -0.1175
 8547SOL    HW237275   4.541   4.273   7.395 -1.2435 -0.9223 -0.8444
 8548SOL     OW37276   3.224   1.913   3.546  0.7570  0.4878  0.1318
 8548SOL    HW137277   3.153   1.934   3.485 -1.3280 -2.1735  1.6258
 8548SOL    HW237278   3.234   1.998   3.587 -0.1311  0.9966 -0.7023
 8549SOL     OW37279   0.709   0.905   8.203 -0.6611  0.1491 -0.1314
 8549SOL    HW137280   0.699   0.994   8.236 -0.4245  0.0359  0.2418
 8549SOL    HW237281   0.666   0.908   8.117 -0.7744  1.0168 -0.0354
 8550SOL     OW37282   2.001   1.375  17.248  0.1148  0.5327 -0.3935
 8550SOL    HW137283   2.080   1.358  17.300  1.2266 -2.3341 -2.9971
 8550SOL    HW237284   2.033   1.358  17.159 -0.0464 -0.1954 -0.3127
 8551SOL     OW37285   2.743   1.572   3.060 -0.4417 -1.0034 -0.0765
 8551SOL    HW137286   2.747   1.657   3.017  1.8782 -1.6420 -1.1546
 8551SOL    HW237287   2.817   1.580   3.121  0.4339  0.2306 -1.2944
 8552SOL     OW37288   3.916   2.131   5.114  0.6325  0.4368  0.0452
 8552SOL    HW137289   3.933   2.223   5.131 -0.5095  0.4750  0.9569
 8552SOL    HW237290   3.829   2.121   5.154  0.1308  0.5640 -0.9942
 8553SOL     OW37291   2.887   4.346   7.394 -0.0289  0.2481  0.8011
 8553SOL    HW137292   2.913   4.264   7.351  1.8092  1.0600  0.3351
 8553SOL    HW237293   2.958   4.404   7.366 -0.2855 -0.0929 -0.5721
 8554SOL     OW37294   0.290   0.070   6.549  0.2959  0.0708  0.1164
 8554SOL    HW137295   0.302   0.157   6.588  0.6696 -0.5915  1.4647
 8554SOL    HW237296   0.343   0.079   6.470 -1.9287  1.2719 -1.2600
 8555SOL     OW37297   3.400   2.838   9.556  0.2618 -0.1975 -0.1863
 8555SOL    HW137298   3.462   2.861   9.625 -1.2503  1.0387  0.7419
 8555SOL    HW237299   3.366   2.925   9.537 -0.8727 -0.4919  0.4553
 8556SOL     OW37300   2.295   3.392   8.443 -0.5728  0.4383 -0.3712
 8556SOL    HW137301   2.240   3.317   8.420 -0.4286  0.4574 -0.7728
 8556SOL    HW237302   2.325   3.413   8.355 -2.2999  2.1803 -0.5359
 8557SOL     OW37303   2.613   1.769   4.325  0.5560 -0.3866 -0.0681
 8557SOL    HW137304   2.702   1.775   4.290  0.7410  2.4999  0.8536
 8557SOL    HW237305   2.589   1.859   4.301 -0.6690 -0.7058 -0.0351
 8558SOL     OW37306   1.316   3.942   8.394  0.2228  1.0799  0.1818
 8558SOL    HW137307   1.290   3.986   8.313 -1.1644 -0.4149 -0.2016
 8558SOL    HW237308   1.356   3.862   8.359 -0.7479  0.7181 -0.1181
 8559SOL     OW37309   2.343   0.754   9.752  0.5808  0.5345 -0.6971
 8559SOL    HW137310   2.338   0.703   9.834  0.7082  1.3696 -0.1716
 8559SOL    HW237311   2.413   0.818   9.767 -0.7048  2.1688 -1.7377
 8560SOL     OW37312   0.776   3.008  12.811  0.1405  0.1098 -0.5643
 8560SOL    HW137313   0.807   3.058  12.887  0.8566  0.0268 -0.8037
 8560SOL    HW237314   0.725   2.941  12.857 -0.7084  0.2686 -1.2785
 8561SOL     OW37315   3.910   1.589  16.688 -0.2060 -0.5414  0.3273
 8561SOL    HW137316   3.924   1.683  16.700  1.9349 -0.6683 -1.1824
 8561SOL    HW237317   3.990   1.553  16.726  0.8814 -0.5830 -2.0008
 8562SOL     OW37318   0.708   4.600   7.629 -0.1303  0.3537 -0.3975
 8562SOL    HW137319   0.715   4.574   7.537  1.2839  0.5928 -0.3570
 8562SOL    HW237320   0.641   4.667   7.613 -0.4998  0.5039  1.7802
 8563SOL     OW37321   4.319   0.891   1.323 -0.3267  0.1082  0.1903
 8563SOL    HW137322   4.245   0.950   1.333 -0.0229  0.5955 -0.4287
 8563SOL    HW237323   4.285   0.820   1.378  0.6460 -1.9230 -1.8306
 8564SOL     OW37324   3.838   1.996  15.035  0.1504 -1.1204 -0.1386
 8564SOL    HW137325   3.782   1.921  15.057 -0.6727 -0.7616 -1.0186
 8564SOL    HW237326   3.779   2.043  14.976  2.8138  0.4169 -1.6042
 8565SOL     OW37327   0.299   4.222   5.749  0.1540 -0.0548 -0.2972
 8565SOL    HW137328   0.367   4.168   5.789 -2.1229 -4.9756 -3.1011
 8565SOL    HW237329   0.271   4.160   5.681  0.0181 -0.7702  0.4207
 8566SOL     OW37330   0.126   2.040   4.261  0.1593 -0.3856  0.4016
 8566SOL    HW137331   0.149   2.112   4.320 -0.4709  1.0299 -1.0933
 8566SOL    HW237332   0.089   2.080   4.182 -0.4776 -2.0446 -0.1477
 8567SOL     OW37333   2.005   0.286   2.133  0.2316 -0.2392 -0.0553
 8567SOL    HW137334   2.053   0.369   2.134  0.5651 -0.4040 -3.9617
 8567SOL    HW237335   1.925   0.324   2.170 -0.8579 -1.1265 -1.4675
 8568SOL     OW37336   0.585   2.570  15.355  0.6576  0.8925 -0.2391
 8568SOL    HW137337   0.603   2.626  15.430 -0.5297  3.2426 -1.6964
 8568SOL    HW237338   0.658   2.600  15.301  1.2718 -0.3823 -0.1249
 8569SOL     OW37339   2.402   1.094   3.672 -0.3889  0.2686  0.4212
 8569SOL    HW137340   2.415   1.137   3.588  1.2056 -1.5732 -0.2697
 8569SOL    HW237341   2.350   1.017   3.649 -2.4716  1.9694 -0.5854
 8570SOL     OW37342   3.653   4.148   3.603  0.1232  0.1429  0.4981
 8570SOL    HW137343   3.674   4.061   3.568  2.6178  0.4362  1.2408
 8570SOL    HW237344   3.612   4.191   3.529 -0.2100  1.0390  1.2019
 8571SOL     OW37345   3.122   4.113   1.385  0.1183  0.7203  0.0917
 8571SOL    HW137346   3.031   4.129   1.361 -0.1765 -0.5102  0.3906
 8571SOL    HW237347   3.153   4.201   1.404  0.5186  0.6604 -0.2608
 8572SOL     OW37348   4.702   4.712   3.297 -0.3130  0.2177 -0.3658
 8572SOL    HW137349   4.666   0.052   3.251 -0.6933  0.6798  0.6944
 8572SOL    HW237350   4.620   4.661   3.295 -0.1292 -0.1281  0.9181
 8573SOL     OW37351   2.524   2.020   1.292 -0.2846  0.1270 -0.0581
 8573SOL    HW137352   2.522   2.110   1.259  2.2535 -0.2470 -1.2307
 8573SOL    HW237353   2.574   2.037   1.371 -0.6911 -0.3795  0.3106
 8574SOL     OW37354   4.349   2.804  12.215  0.0180  0.6273  0.0873
 8574SOL    HW137355   4.386   2.797  12.126  1.4525  1.8066  0.5857
 8574SOL    HW237356   4.258   2.815  12.186  0.6400  1.0412 -1.7537
 8575SOL     OW37357   2.640   2.216  14.443 -0.1787 -0.5412 -0.0596
 8575SOL    HW137358   2.578   2.282  14.411  1.3332  1.0803  0.3554
 8575SOL    HW237359   2.641   2.154  14.370 -0.9823  0.2027 -0.7108
 8576SOL     OW37360   2.454   4.436   1.917  0.0499 -0.3951 -0.2204
 8576SOL    HW137361   2.535   4.385   1.918  1.1958  1.3849 -2.5338
 8576SOL    HW237362   2.467   4.494   1.991  0.9311 -2.4091  1.2175
 8577SOL     OW37363   0.040   2.503   1.445 -0.2178 -0.2369 -0.6351
 8577SOL    HW137364   4.714   2.550   1.501  0.1640  0.4499 -0.7910
 8577SOL    HW237365   0.015   2.539   1.360 -0.6885 -3.6194 -1.9255
 8578SOL     OW37366   3.158   0.360   7.373  0.3126  0.3352 -0.1920
 8578SOL    HW137367   3.230   0.423   7.369  1.3757 -0.7591  1.8164
 8578SOL    HW237368   3.191   0.308   7.300  2.7766  1.0762  0.3928
 8579SOL     OW37369   0.611   3.730  15.145  0.0923 -0.3841  0.0038
 8579SOL    HW137370   0.689   3.768  15.186  0.2747  0.0284 -0.7371
 8579SOL    HW237371   0.568   3.798  15.095  0.3911 -1.4750 -1.7289
 8580SOL     OW37372   3.526   3.451   1.592 -0.1801  0.8144 -0.8941
 8580SOL    HW137373   3.546   3.418   1.504  1.5663  0.0185 -0.1978
 8580SOL    HW237374   3.513   3.542   1.567  0.9445  0.8813 -1.2368
 8581SOL     OW37375   1.525   0.261   0.747 -0.0880 -0.6512  0.3957
 8581SOL    HW137376   1.587   0.332   0.763  0.2357 -0.3491 -2.2223
 8581SOL    HW237377   1.455   0.288   0.805  0.7740 -0.7509  1.4810
 8582SOL     OW37378   3.593   3.808  17.402  0.0754 -0.3973 -0.0064
 8582SOL    HW137379   3.582   3.725  17.356  2.1847 -0.1527 -0.9774
 8582SOL    HW237380   3.681   3.823  17.366 -0.2278  1.6592  0.1609
 8583SOL     OW37381   1.749   1.870   3.789  0.2801 -0.0480  0.3505
 8583SOL    HW137382   1.812   1.839   3.854  0.4081  0.4863  0.4765
 8583SOL    HW237383   1.782   1.954   3.759 -0.1371  1.0960  3.1080
 8584SOL     OW37384   1.404   3.293  14.551 -0.2726 -0.1532 -0.5235
 8584SOL    HW137385   1.330   3.308  14.492 -0.1529 -0.0498 -0.6507
 8584SOL    HW237386   1.366   3.273  14.636 -0.9040 -1.2834 -1.0801
 8585SOL     OW37387   0.404   2.098  16.814 -0.2971 -0.7959  0.0965
 8585SOL    HW137388   0.341   2.086  16.885 -0.1233  2.7410  0.8439
 8585SOL    HW237389   0.338   2.151  16.769  1.0070  0.8428  0.1312
 8586SOL     OW37390   3.165   3.748  11.082  0.0350  0.1524 -0.4618
 8586SOL    HW137391   3.166   3.655  11.058  1.0995  0.5032 -1.7805
 8586SOL    HW237392   3.072   3.769  11.077 -0.2793 -1.4054 -1.5501
 8587SOL     OW37393   1.974   1.560   9.451  0.1714 -0.6180 -0.0234
 8587SOL    HW137394   2.059   1.518   9.464  1.1188  0.5742 -2.3989
 8587SOL    HW237395   1.957   1.530   9.362 -0.6558  1.2601 -0.4917
 8588SOL     OW37396   2.914   0.673  11.154 -0.4620  0.0860 -0.0453
 8588SOL    HW137397   2.895   0.654  11.246 -0.5743  3.4859  0.6189
 8588SOL    HW237398   2.952   0.589  11.127 -0.3951  0.1403 -0.1179
 8589SOL     OW37399   1.457   1.661   4.125  0.0986 -0.2169  0.0366
 8589SOL    HW137400   1.425   1.614   4.202  0.9886 -4.1797 -2.0417
 8589SOL    HW237401   1.376   1.700   4.092 -0.2926 -0.8841  0.2103
 8590SOL     OW37402   0.424   2.016   5.283  0.2172 -0.5005  0.1450
 8590SOL    HW137403   0.428   2.103   5.323  0.5069  1.3471 -3.8576
 8590SOL    HW237404   0.501   1.977   5.324  0.3364  0.3319  0.7117
 8591SOL     OW37405   1.525   3.924  12.026 -0.2347  0.6725  0.6330
 8591SOL    HW137406   1.567   4.004  11.994 -1.1044  0.7681 -0.2804
 8591SOL    HW237407   1.550   3.857  11.963 -2.1401  2.8543 -2.4584
 8592SOL     OW37408   3.719   4.334   4.599 -0.4250  0.0660  0.0739
 8592SOL    HW137409   3.709   4.424   4.568  0.5500  0.4078  0.7737
 8592SOL    HW237410   3.639   4.334   4.653 -0.9645  0.7595 -0.7345
 8593SOL     OW37411   2.532   0.880   9.031  0.0866 -0.5333  0.0184
 8593SOL    HW137412   2.609   0.936   9.026 -0.0095 -0.5127 -1.4169
 8593SOL    HW237413   2.576   0.795   9.038 -0.4067 -0.7892  0.0017
 8594SOL     OW37414   3.321   2.688   9.323 -0.1947 -0.3690  0.3839
 8594SOL    HW137415   3.349   2.728   9.405  2.3904  1.4227 -1.3794
 8594SOL    HW237416   3.228   2.668   9.335 -0.5559 -0.3657 -2.3778
 8595SOL     OW37417   3.359   0.378   3.064  0.0713  0.0621  0.1486
 8595SOL    HW137418   3.444   0.422   3.065 -0.1330  0.4545  0.3351
 8595SOL    HW237419   3.347   0.353   3.156  1.3733 -2.6150 -0.4155
 8596SOL     OW37420   2.704   3.041   7.916 -0.4947  0.3895 -0.1697
 8596SOL    HW137421   2.675   3.040   8.007  3.3972 -0.2801  1.0546
 8596SOL    HW237422   2.667   3.121   7.878  0.3031 -0.8232 -3.4952
 8597SOL     OW37423   1.218   3.984   1.191  0.2777 -0.5694  0.2541
 8597SOL    HW137424   1.273   4.056   1.162 -0.2590 -1.0776 -1.9894
 8597SOL    HW237425   1.220   3.923   1.117  0.9514 -1.8105  1.2782
 8598SOL     OW37426   3.071   1.604   8.555  0.0549  0.6188  0.5835
 8598SOL    HW137427   3.044   1.625   8.466  1.3147 -1.0786 -0.1996
 8598SOL    HW237428   3.000   1.645   8.603 -1.1879 -0.2522 -0.5022
 8599SOL     OW37429   0.135   1.281   9.719  0.5816  0.6976 -0.0925
 8599SOL    HW137430   0.052   1.326   9.706  0.3365  0.3897  0.3891
 8599SOL    HW237431   0.169   1.330   9.795 -2.5644  1.1157  1.0449
 8600SOL     OW37432   3.573   4.184   8.848  0.5552 -0.3637  0.4519
 8600SOL    HW137433   3.586   4.246   8.776  0.2830  0.1550  0.8559
 8600SOL    HW237434   3.522   4.239   8.907  0.8247  0.8115 -0.4090
 8601SOL     OW37435   0.412   3.886  11.007  0.1965 -0.6196  0.0832
 8601SOL    HW137436   0.326   3.918  11.036 -0.2798 -0.4977 -1.4731
 8601SOL    HW237437   0.446   3.961  10.958 -1.5062 -1.2837 -2.1007
 8602SOL     OW37438   4.138   1.320   3.715  1.1421 -0.2172 -0.3571
 8602SOL    HW137439   4.124   1.410   3.744  4.7476 -0.2619  1.4285
 8602SOL    HW237440   4.205   1.335   3.649 -0.2949 -0.0171 -1.7920
 8603SOL     OW37441   2.924   2.553   8.836 -0.1258  0.0996 -0.1443
 8603SOL    HW137442   2.838   2.523   8.863 -1.5696  2.7946 -1.6517
 8603SOL    HW237443   2.962   2.570   8.922 -0.6238  1.0483 -0.1092
 8604SOL     OW37444   3.093   3.593   8.469  0.4148 -0.4042  0.3731
 8604SOL    HW137445   3.128   3.504   8.468  1.7944  0.1377  0.6837
 8604SOL    HW237446   3.011   3.571   8.514  0.3929 -0.7647  0.1598
 8605SOL     OW37447   3.774   0.781   6.998  0.7237  0.0744 -0.3671
 8605SOL    HW137448   3.857   0.823   7.018  1.7853 -0.5510 -3.4189
 8605SOL    HW237449   3.747   0.743   7.081  1.5897  1.7294  0.6541
 8606SOL     OW37450   3.431   4.453  16.718  0.1268 -0.3780  0.2220
 8606SOL    HW137451   3.362   4.515  16.740  0.6649 -0.9484  3.5640
 8606SOL    HW237452   3.498   4.512  16.684 -1.1941  0.2758 -1.2196
 8607SOL     OW37453   2.188   1.370   2.851 -0.4217 -0.2008  0.0949
 8607SOL    HW137454   2.105   1.343   2.890 -0.2221 -1.5971 -0.4666
 8607SOL    HW237455   2.175   1.330   2.765 -1.3381  0.5135 -0.1021
 8608SOL     OW37456   1.778   2.089   1.953 -0.4932  0.5802  0.1251
 8608SOL    HW137457   1.786   2.001   1.989 -0.7565  0.3307 -0.4271
 8608SOL    HW237458   1.711   2.069   1.888 -1.1695 -0.4415  1.1394
 8609SOL     OW37459   0.292   2.173  13.778 -0.1804 -0.2256 -0.1354
 8609SOL    HW137460   0.332   2.161  13.864 -0.3611 -2.3829 -0.3607
 8609SOL    HW237461   0.245   2.256  13.790 -0.9120 -0.5346 -0.8853
 8610SOL     OW37462   3.056   2.105   8.827 -0.7473 -0.5620  0.2735
 8610SOL    HW137463   3.097   2.191   8.814 -0.2975 -0.8724 -0.3323
 8610SOL    HW237464   3.135   2.052   8.824 -0.8478 -0.6918 -0.0844
 8611SOL     OW37465   1.029   3.439   6.679 -0.3922  0.3714 -0.2747
 8611SOL    HW137466   1.040   3.430   6.774  2.2809 -2.7313 -0.8787
 8611SOL    HW237467   1.056   3.530   6.669  1.2797  0.0367  1.2081
 8612SOL     OW37468   4.324   3.848   9.502  0.0804 -0.4996  0.1749
 8612SOL    HW137469   4.243   3.875   9.545  0.2030 -2.6042  1.6796
 8612SOL    HW237470   4.374   3.926   9.528 -0.8323  0.4997 -1.0578
 8613SOL     OW37471   2.309   4.374   5.483  0.1567  0.1430 -0.2886
 8613SOL    HW137472   2.334   4.324   5.404  1.0420 -2.0375  1.3649
 8613SOL    HW237473   2.390   4.411   5.518 -0.9359  0.9614  1.3707
 8614SOL     OW37474   2.023   1.403   3.115  0.2488  0.3927 -0.2842
 8614SOL    HW137475   1.971   1.478   3.145 -2.5940 -0.4140 -3.2973
 8614SOL    HW237476   2.094   1.454   3.076  0.4414  1.2475  1.1991
 8615SOL     OW37477   2.355   4.719   6.528 -0.1038 -0.5818  0.7882
 8615SOL    HW137478   2.405   0.026   6.597  1.5892  0.5454 -1.1111
 8615SOL    HW237479   2.362   4.633   6.570 -0.1682  0.1024  2.1607
 8616SOL     OW37480   3.467   3.023   1.746  0.2999  0.3338  0.2497
 8616SOL    HW137481   3.527   3.016   1.820  1.5504 -0.0352 -0.7905
 8616SOL    HW237482   3.481   2.934   1.712 -2.1477 -0.0861  0.3317
 8617SOL     OW37483   0.270   3.359   6.231 -0.3646 -0.1742 -0.0213
 8617SOL    HW137484   0.198   3.422   6.236  0.5382  0.8991 -0.4881
 8617SOL    HW237485   0.226   3.286   6.188 -0.9268  0.9795 -1.4137
 8618SOL     OW37486   4.495   4.688   2.925 -0.0579  0.1952 -0.0314
 8618SOL    HW137487   4.519   0.002   3.004  1.6337  0.4043 -0.6629
 8618SOL    HW237488   4.579   4.694   2.878 -0.9287 -0.2198 -1.6202
 8619SOL     OW37489   2.258   3.179   4.429  0.1913  0.4568  0.6662
 8619SOL    HW137490   2.250   3.174   4.525  2.1143  1.0077  0.8700
 8619SOL    HW237491   2.165   3.190   4.412  0.4564  1.4169 -0.1777
 8620SOL     OW37492   4.167   3.745   8.944 -0.1790  0.1588  0.1591
 8620SOL    HW137493   4.213   3.741   8.860 -0.4933  0.6143 -0.0379
 8620SOL    HW237494   4.240   3.732   9.005 -0.8704 -1.4480  0.6238
 8621SOL     OW37495   3.172   2.526   9.665 -0.2069 -0.0677 -0.4460
 8621SOL    HW137496   3.098   2.552   9.610 -0.8999 -1.3189 -0.1248
 8621SOL    HW237497   3.194   2.602   9.718  0.1979 -1.1107  0.8727
 8622SOL     OW37498   4.336   3.969   7.492  0.0823  0.1934 -0.7933
 8622SOL    HW137499   4.337   3.926   7.407  1.1003  0.9823 -1.1788
 8622SOL    HW237500   4.241   3.970   7.508  0.2156  1.5361 -0.1246
 8623SOL     OW37501   2.403   0.346   0.638 -0.1205  0.3481 -0.6603
 8623SOL    HW137502   2.344   0.388   0.576  0.1555  2.1103  0.2852
 8623SOL    HW237503   2.488   0.387   0.620  0.3037 -0.4577 -0.5188
 8624SOL     OW37504   3.774   2.174   9.367  0.3950  0.0743 -0.4152
 8624SOL    HW137505   3.818   2.244   9.416 -0.0029 -0.7180  1.0649
 8624SOL    HW237506   3.686   2.180   9.403 -0.0661  2.8514 -2.0375
 8625SOL     OW37507   3.901   1.614  13.230  0.3858 -0.1281 -0.2775
 8625SOL    HW137508   3.958   1.575  13.164 -0.4764 -0.6174 -0.7333
 8625SOL    HW237509   3.927   1.706  13.233  0.3766 -0.1248 -0.3010
 8626SOL     OW37510   1.644   2.520  17.459 -0.0407  0.4182 -0.5140
 8626SOL    HW137511   1.622   2.433  17.427  0.2290  0.7031 -1.4571
 8626SOL    HW237512   1.666   2.558  17.374  0.6852  0.9889 -0.0703
 8627SOL     OW37513   0.270   1.945   9.835 -0.5970  0.4849  0.3044
 8627SOL    HW137514   0.315   1.882   9.891  0.6446  1.5813  0.5403
 8627SOL    HW237515   0.315   1.918   9.755 -1.7220  1.9916 -0.8357
 8628SOL     OW37516   3.273   0.766   2.523 -0.4633  0.2949  0.5915
 8628SOL    HW137517   3.321   0.849   2.518 -1.6434  1.0133  1.1654
 8628SOL    HW237518   3.249   0.753   2.432  1.1288 -0.2092  0.2516
 8629SOL     OW37519   4.337   1.368   2.961  0.8605 -0.1312  0.1399
 8629SOL    HW137520   4.419   1.417   2.956  1.3478 -0.9981 -0.4429
 8629SOL    HW237521   4.297   1.391   2.877  2.3775 -1.3895 -0.9295
 8630SOL     OW37522   0.090   0.169   5.368  0.1887 -0.1424 -0.0081
 8630SOL    HW137523   0.053   0.115   5.438  2.2080  0.8140  1.8209
 8630SOL    HW237524   0.014   0.155   5.312 -0.2296  0.8638  0.2952
 8631SOL     OW37525   2.288   2.833   6.801  0.0072 -0.5971  0.2201
 8631SOL    HW137526   2.338   2.766   6.848 -0.3226  0.0936  1.5436
 8631SOL    HW237527   2.201   2.793   6.799 -0.3401  0.1881 -0.7053
 8632SOL     OW37528   0.048   1.551  13.467  0.1235  0.2335  0.1715
 8632SOL    HW137529   0.033   1.598  13.385  2.8997 -1.0997 -1.0667
 8632SOL    HW237530   0.139   1.528  13.450 -0.1470 -1.1576  0.6931
 8633SOL     OW37531   4.380   0.507   7.367  0.3788 -0.4060 -0.0195
 8633SOL    HW137532   4.386   0.569   7.294  1.6184 -0.0369  0.3955
 8633SOL    HW237533   4.472   0.510   7.392  0.0902 -2.5745  1.3231
 8634SOL     OW37534   1.402   2.024   5.945 -0.3987  0.0430 -0.4429
 8634SOL    HW137535   1.456   1.971   5.887  0.5374 -0.0369  0.4979
 8634SOL    HW237536   1.319   1.977   5.934  0.7850 -2.5743  1.6396
 8635SOL     OW37537   3.686   1.911   2.514  0.0106 -0.4009 -0.4983
 8635SOL    HW137538   3.731   1.956   2.585  0.1138 -1.4036  0.0697
 8635SOL    HW237539   3.724   1.823   2.523  1.1589 -0.1601 -2.9898
 8636SOL     OW37540   2.510   2.434   3.379 -0.3309 -0.3362 -0.2892
 8636SOL    HW137541   2.458   2.506   3.415 -0.8004 -2.0299  2.3778
 8636SOL    HW237542   2.499   2.357   3.434 -1.7351 -0.5531 -0.8893
 8637SOL     OW37543   2.316   2.936   7.582  0.3584 -0.3777 -0.4380
 8637SOL    HW137544   2.245   2.893   7.629 -0.0144  1.6486  0.8344
 8637SOL    HW237545   2.382   2.871   7.606  1.1204 -0.0282 -1.5578
 8638SOL     OW37546   0.160   1.810   1.816 -0.1693  0.7159 -0.0740
 8638SOL    HW137547   0.078   1.857   1.803 -0.2208  0.6389 -0.0268
 8638SOL    HW237548   0.221   1.851   1.754 -0.6508  0.2815 -0.8317
 8639SOL     OW37549   4.393   0.170  14.243 -0.1312  0.6831  0.1857
 8639SOL    HW137550   4.458   0.219  14.294 -0.6237 -1.8446  3.2599
 8639SOL    HW237551   4.427   0.185  14.155  0.6841 -1.0497  0.1879
 8640SOL     OW37552   1.705   1.483  11.297  0.6601 -0.7717 -0.2067
 8640SOL    HW137553   1.699   1.578  11.287  1.2709 -0.7815 -0.6780
 8640SOL    HW237554   1.776   1.469  11.359 -0.1459  0.3051  0.9584
 8641SOL     OW37555   0.861   1.531   9.365  0.0407 -0.0922  0.3338
 8641SOL    HW137556   0.798   1.542   9.436  0.6530  0.8276  0.7224
 8641SOL    HW237557   0.809   1.466   9.318  0.4665 -2.1265  2.6937
 8642SOL     OW37558   4.366   3.484   4.239  0.3060  0.2513 -0.1099
 8642SOL    HW137559   4.359   3.518   4.150  0.0976  1.5190  0.4031
 8642SOL    HW237560   4.432   3.539   4.280  0.8216  0.0394 -0.6461
 8643SOL     OW37561   4.622   3.984  11.203 -0.5106  0.8847  0.1496
 8643SOL    HW137562   4.664   3.952  11.283 -0.5895  0.2760 -0.0566
 8643SOL    HW237563   4.635   4.078  11.219  4.2722  0.1897  0.3575
 8644SOL     OW37564   0.078   4.713   7.246  0.1136  0.4608 -0.3209
 8644SOL    HW137565   0.073   0.013   7.157  0.9894 -1.6740 -1.2305
 8644SOL    HW237566   0.052   0.041   7.312  0.3006  0.4415 -0.2273
 8645SOL     OW37567   2.133   1.511   7.400 -0.2561  0.5801 -0.3326
 8645SOL    HW137568   2.091   1.436   7.358  0.9904  0.1971 -0.8830
 8645SOL    HW237569   2.216   1.468   7.420 -1.7458 -1.8541  0.6507
 8646SOL     OW37570   1.998   1.945   3.604 -0.8771 -0.3636  0.2595
 8646SOL    HW137571   2.007   1.851   3.591 -0.2053 -0.3863  0.8708
 8646SOL    HW237572   1.946   1.965   3.526 -0.1618 -3.0009 -0.8738
 8647SOL     OW37573   0.129   4.236   4.214 -0.2917  0.1573  0.2532
 8647SOL    HW137574   0.180   4.267   4.288  1.2429  1.3112 -1.2675
 8647SOL    HW237575   0.078   4.164   4.250 -0.0892  1.1543  2.4910
 8648SOL     OW37576   3.589   4.576   3.423 -0.2828 -0.7701  0.4851
 8648SOL    HW137577   3.644   4.503   3.454 -1.4082 -1.4489  0.9046
 8648SOL    HW237578   3.535   4.601   3.498  0.0092 -1.8430  1.0510
 8649SOL     OW37579   4.105   1.478  12.786 -0.4476  0.3086  0.6304
 8649SOL    HW137580   4.177   1.437  12.738  1.1008  2.2569  1.2672
 8649SOL    HW237581   4.038   1.475  12.718  0.9852 -2.2013 -0.6813
 8650SOL     OW37582   0.348   4.212   3.109  0.2388 -0.3638  0.0040
 8650SOL    HW137583   0.396   4.256   3.039  0.9131  0.9756  1.3073
 8650SOL    HW237584   0.392   4.127   3.106  2.0413  0.5350  0.5163
 8651SOL     OW37585   1.992   2.336  13.026 -0.1732  0.0065 -0.3955
 8651SOL    HW137586   2.042   2.382  13.094  1.9983 -0.2918 -1.7933
 8651SOL    HW237587   1.998   2.393  12.950 -2.2821  2.0010  0.9504
 8652SOL     OW37588   1.207   3.133  11.506  0.2213 -0.0936 -0.0714
 8652SOL    HW137589   1.296   3.158  11.527  0.5929 -1.4999  0.0553
 8652SOL    HW237590   1.222   3.067  11.438  2.4031  1.7781 -1.3736
 8653SOL     OW37591   3.273   4.482   8.209  0.5173 -0.7157  0.5604
 8653SOL    HW137592   3.303   4.471   8.119  0.9998  0.6188  0.5610
 8653SOL    HW237593   3.330   4.414   8.244  0.2874 -0.7553  0.8564
 8654SOL     OW37594   3.414   0.195   9.506  0.0336  0.6351  0.1348
 8654SOL    HW137595   3.351   0.173   9.437  2.3755  1.6683 -2.3019
 8654SOL    HW237596   3.442   0.106   9.530 -0.8798  0.9346  2.2546
 8655SOL     OW37597   3.676   1.914   7.317 -0.4027 -0.2034 -0.3984
 8655SOL    HW137598   3.736   1.919   7.392 -0.5078 -0.2043 -0.3143
 8655SOL    HW237599   3.725   1.951   7.244 -0.2800  1.2358  0.4205
 8656SOL     OW37600   0.342   0.168   1.888 -0.1070  0.4714 -0.3876
 8656SOL    HW137601   0.251   0.184   1.864 -0.2359  3.4671  1.9797
 8656SOL    HW237602   0.381   0.129   1.811 -0.6998  0.2074 -0.5537
 8657SOL     OW37603   1.384   0.096   4.361 -0.2350 -0.2081 -0.5060
 8657SOL    HW137604   1.453   0.066   4.302  1.8225  1.2357  1.1507
 8657SOL    HW237605   1.329   0.018   4.353 -0.2007 -0.0506 -2.1398
 8658SOL     OW37606   1.308   4.187   5.206  0.3292  0.0762  0.1996
 8658SOL    HW137607   1.398   4.203   5.235 -0.0057 -1.5910  2.1229
 8658SOL    HW237608   1.268   4.150   5.285  1.5024 -1.8584 -0.1238
 8659SOL     OW37609   3.305   3.794  11.854 -0.0515 -0.2968  0.2825
 8659SOL    HW137610   3.248   3.716  11.852  1.3386 -1.3158  0.5263
 8659SOL    HW237611   3.253   3.849  11.796  0.6953  0.5905  0.4752
 8660SOL     OW37612   0.680   0.549   8.266 -0.0933 -0.1520  0.3992
 8660SOL    HW137613   0.679   0.527   8.359 -0.2823 -0.1221  0.4046
 8660SOL    HW237614   0.757   0.606   8.262  1.1816 -1.9955 -0.8648
 8661SOL     OW37615   0.859   1.567   8.980  0.3515 -0.4984  0.0626
 8661SOL    HW137616   0.783   1.509   8.976 -1.5697  2.0987 -1.0776
 8661SOL    HW237617   0.912   1.512   9.038  2.4556 -0.2198 -1.5718
 8662SOL     OW37618   2.980   4.624   4.634 -0.1970  0.1234  0.0548
 8662SOL    HW137619   3.058   4.656   4.588 -1.1337 -0.8129 -2.1654
 8662SOL    HW237620   2.922   4.700   4.640  1.1955  1.3041 -1.4366
 8663SOL     OW37621   2.367   0.288  13.042 -0.7990 -0.6421  0.3826
 8663SOL    HW137622   2.334   0.262  13.128 -0.9808  1.7899  1.0240
 8663SOL    HW237623   2.313   0.365  13.027  0.4794  0.2895  0.5835
 8664SOL     OW37624   2.849   4.704  10.489  0.5138  0.4402  0.1339
 8664SOL    HW137625   2.882   0.024  10.560  3.9546 -0.8327 -0.4386
 8664SOL    HW237626   2.924   4.729  10.435  1.1837 -1.1086  0.3378
 8665SOL     OW37627   2.362   2.905   2.636  0.5638  0.4536 -0.3629
 8665SOL    HW137628   2.401   2.829   2.678  1.6646 -1.0630 -4.1674
 8665SOL    HW237629   2.296   2.861   2.583 -0.0149  0.9275 -0.0396
 8666SOL     OW37630   0.729   3.862   2.460 -0.0900 -0.0308 -0.2266
 8666SOL    HW137631   0.706   3.932   2.399 -0.3267 -0.7689 -0.9782
 8666SOL    HW237632   0.792   3.916   2.508  0.1602 -0.6336  0.1275
 8667SOL     OW37633   2.931   4.044  11.995  0.1862 -0.0562 -0.1020
 8667SOL    HW137634   2.907   4.135  12.013  0.5648 -0.7028  3.7501
 8667SOL    HW237635   2.994   4.044  11.923 -2.8644 -2.3479 -2.7255
 8668SOL     OW37636   2.072   4.484   0.253 -0.7194  0.0313 -0.3688
 8668SOL    HW137637   2.072   4.526   0.167 -3.6117  0.6685 -0.0418
 8668SOL    HW237638   2.130   4.537   0.308  1.4673  0.7261 -3.3411
 8669SOL     OW37639   2.286   4.370   2.282  0.0805  0.6652  0.1172
 8669SOL    HW137640   2.266   4.279   2.305  2.1037  0.3814  0.7232
 8669SOL    HW237641   2.263   4.362   2.189 -0.0503  0.0737  0.1978
 8670SOL     OW37642   2.293   0.068  10.536  0.1699  0.4287  0.1118
 8670SOL    HW137643   2.352   0.127  10.583 -3.2952  2.2450  2.1895
 8670SOL    HW237644   2.318   4.717  10.568 -1.5216  0.4423  1.4938
 8671SOL     OW37645   1.959   3.275   8.966 -0.4364  0.3044  0.0210
 8671SOL    HW137646   1.896   3.327   8.916  0.4804 -0.5999 -2.0841
 8671SOL    HW237647   1.901   3.217   9.016 -1.5801  1.0382 -0.4531
 8672SOL     OW37648   0.290   2.915   5.982 -0.3730  0.7687  0.7112
 8672SOL    HW137649   0.359   2.931   5.917  0.7777 -2.8794  1.0195
 8672SOL    HW237650   0.217   2.924   5.921 -1.2952 -0.2942  1.6666
 8673SOL     OW37651   4.585   2.346  10.872  0.1295 -0.0216  0.1080
 8673SOL    HW137652   4.637   2.269  10.893  0.4419 -0.2692 -1.5472
 8673SOL    HW237653   4.544   2.362  10.957  1.5595  0.5067  0.7133
 8674SOL     OW37654   2.252   3.925  10.049 -0.1430 -0.3856 -0.2930
 8674SOL    HW137655   2.211   3.859   9.992  0.4051 -1.8213  0.9817
 8674SOL    HW237656   2.330   3.877  10.077  1.1260  1.0933 -1.2498
 8675SOL     OW37657   4.613   2.201   4.771  0.0359 -0.1326  0.1189
 8675SOL    HW137658   4.650   2.267   4.714  1.3370 -0.7227  0.2787
 8675SOL    HW237659   4.630   2.234   4.859 -1.2573 -0.2099  0.4044
 8676SOL     OW37660   3.751   3.403   3.288 -0.2564 -0.5697 -0.3690
 8676SOL    HW137661   3.744   3.337   3.357 -0.5595 -1.4191 -1.2092
 8676SOL    HW237662   3.667   3.396   3.242 -0.3569 -0.5454 -0.1905
 8677SOL     OW37663   1.997   2.225  15.718 -0.2303  0.4803 -0.4657
 8677SOL    HW137664   1.998   2.199  15.811 -1.3362 -0.8897 -0.8365
 8677SOL    HW237665   2.054   2.158  15.681 -1.5996 -1.2606  0.5542
 8678SOL     OW37666   3.891   4.124   1.889 -0.3039 -0.1923 -0.2277
 8678SOL    HW137667   3.867   4.216   1.876 -0.6818 -0.3070 -0.3735
 8678SOL    HW237668   3.857   4.086   1.808  1.5911 -0.6155 -0.8240
 8679SOL     OW37669   2.060   4.045  12.635 -0.1284  0.0617  0.5608
 8679SOL    HW137670   2.153   4.026  12.647 -0.0912  0.1989  0.4957
 8679SOL    HW237671   2.053   4.074  12.544 -1.4181 -2.6767 -0.1984
 8680SOL     OW37672   3.974   1.972   6.169 -0.0246  0.4679  0.3247
 8680SOL    HW137673   3.935   1.999   6.086 -1.2891 -0.9360  0.4547
 8680SOL    HW237674   3.939   2.030   6.237 -1.6955 -0.1991  0.0422
 8681SOL     OW37675   2.763   3.836   1.201 -0.2496 -0.1763  0.5004
 8681SOL    HW137676   2.703   3.910   1.200 -0.0132 -0.0032 -0.8744
 8681SOL    HW237677   2.701   3.769   1.228 -1.3443 -0.7863 -3.5071
 8682SOL     OW37678   3.595   3.787   7.298 -0.5334 -0.2224  0.3207
 8682SOL    HW137679   3.593   3.693   7.313  2.1617 -0.6631 -2.0385
 8682SOL    HW237680   3.539   3.783   7.220  0.1953  0.7084 -0.2502
 8683SOL     OW37681   4.163   2.715  15.113 -0.4412  0.5971 -0.4225
 8683SOL    HW137682   4.200   2.665  15.186 -0.6068  2.1545  0.7316
 8683SOL    HW237683   4.238   2.758  15.073  1.3930  1.6634  4.1965
 8684SOL     OW37684   4.702   0.328  15.786  0.3350  0.3182  0.2369
 8684SOL    HW137685   0.019   0.408  15.793  0.2671  0.3392  0.5170
 8684SOL    HW237686   4.721   0.287  15.871  0.9038 -0.5579 -0.3106
 8685SOL     OW37687   2.653   0.553   8.794 -0.0900  0.4318 -0.3348
 8685SOL    HW137688   2.639   0.541   8.888 -0.1013 -0.2146 -0.4176
 8685SOL    HW237689   2.638   0.461   8.770 -0.5718  0.3661  0.2202
 8686SOL     OW37690   1.315   1.062   3.791 -0.3144 -0.1025  0.0320
 8686SOL    HW137691   1.296   1.112   3.870  0.0138 -0.6479  0.4535
 8686SOL    HW237692   1.380   0.998   3.819 -1.3355 -0.9986  0.3531
 8687SOL     OW37693   2.954   1.162   3.677 -0.4378 -0.2796  0.2847
 8687SOL    HW137694   2.912   1.077   3.670  1.5973 -1.2452 -0.2264
 8687SOL    HW237695   3.045   1.137   3.660 -0.3249 -0.2391  0.8230
 8688SOL     OW37696   1.282   0.810   4.604  0.5484 -0.0743  0.1419
 8688SOL    HW137697   1.283   0.779   4.695 -0.5424  0.2010  0.2441
 8688SOL    HW237698   1.294   0.905   4.615  0.3730  0.0683 -0.9574
 8689SOL     OW37699   0.460   1.489   2.246 -0.2702  0.1711 -0.1890
 8689SOL    HW137700   0.499   1.522   2.164 -0.7940 -0.1736 -0.5716
 8689SOL    HW237701   0.457   1.395   2.230 -0.2439  0.4616 -1.9421
 8690SOL     OW37702   2.592   3.003   2.496  0.7514  0.2651  0.5014
 8690SOL    HW137703   2.536   3.037   2.426  1.8253 -1.9777 -1.4429
 8690SOL    HW237704   2.523   2.974   2.555 -2.7233 -0.9059 -4.1770
 8691SOL     OW37705   3.614   2.706   3.963 -0.0817  0.2729 -0.0568
 8691SOL    HW137706   3.596   2.613   3.976  0.0003  0.2905  0.1755
 8691SOL    HW237707   3.671   2.699   3.886 -0.8974  0.5425 -0.6900
 8692SOL     OW37708   1.769   3.648   2.653  0.1892  0.2253 -0.4224
 8692SOL    HW137709   1.735   3.587   2.719 -0.7312  1.5267  0.2897
 8692SOL    HW237710   1.785   3.612   2.566 -3.1237 -1.0096 -0.5181
 8693SOL     OW37711   2.093   3.397  14.416  0.4802 -0.3608 -0.3207
 8693SOL    HW137712   2.034   3.362  14.350 -0.2913  2.1243 -0.9673
 8693SOL    HW237713   2.043   3.360  14.489  0.7802 -0.4248 -0.1465
 8694SOL     OW37714   2.818   4.692   6.889  0.9048  0.2671 -0.6796
 8694SOL    HW137715   2.809   0.002   6.805 -0.4390  1.3508  0.0496
 8694SOL    HW237716   2.852   4.611   6.851 -0.4505 -0.5184 -0.2252
 8695SOL     OW37717   0.891   3.677   5.042  0.4022  0.3944 -0.3359
 8695SOL    HW137718   0.864   3.766   5.065 -0.0635 -0.7781  3.6175
 8695SOL    HW237719   0.954   3.694   4.972  0.3078 -0.4874 -0.6283
 8696SOL     OW37720   2.344   3.219   8.722 -0.0749 -0.3280 -0.0550
 8696SOL    HW137721   2.324   3.240   8.630 -1.8377  0.0763  0.4228
 8696SOL    HW237722   2.382   3.132   8.713 -0.3380 -0.3521 -1.0339
 8697SOL     OW37723   2.643   0.671   7.323 -0.3554 -0.1121  0.2252
 8697SOL    HW137724   2.616   0.677   7.415  1.6235 -0.5651  0.8386
 8697SOL    HW237725   2.566   0.621   7.294 -0.0913  0.3507 -1.2860
 8698SOL     OW37726   0.104   3.184   5.192 -0.5224  0.2124 -0.5944
 8698SOL    HW137727   0.096   3.108   5.135 -1.8744 -0.3094  0.2904
 8698SOL    HW237728   0.037   3.151   5.252 -2.3059  0.6909 -2.3120
 8699SOL     OW37729   1.346   1.814   6.320  0.2851 -0.1244  0.8675
 8699SOL    HW137730   1.292   1.843   6.394  0.3226  0.5381  0.6363
 8699SOL    HW237731   1.382   1.898   6.291  1.4216 -0.1791  2.0889
 8700SOL     OW37732   3.963   3.686   5.000  0.1550 -0.8707 -0.3495
 8700SOL    HW137733   3.920   3.723   5.076  1.2680  0.1295 -0.2030
 8700SOL    HW237734   3.976   3.598   5.034 -0.4855 -1.7771 -2.4276
 8701SOL     OW37735   0.696   3.041   2.493 -0.2227 -0.3302 -0.3887
 8701SOL    HW137736   0.757   2.982   2.538  1.6669  0.7716 -1.5224
 8701SOL    HW237737   0.731   3.126   2.520  0.3841 -0.8085  0.3001
 8702SOL     OW37738   1.810   1.312  16.036 -0.8492  0.3569 -0.4096
 8702SOL    HW137739   1.820   1.217  16.032  0.1204  0.5075 -1.5766
 8702SOL    HW237740   1.891   1.344  15.996 -0.2764 -0.0061  0.4880
 8703SOL     OW37741   3.322   1.751   5.775  0.2181  0.6277 -0.5072
 8703SOL    HW137742   3.286   1.772   5.861  2.1688  1.4766  0.0926
 8703SOL    HW237743   3.407   1.730   5.813  0.2457  0.9430 -0.3997
 8704SOL     OW37744   1.457   3.295   2.020  0.2956  0.3228  0.6647
 8704SOL    HW137745   1.404   3.357   1.970 -0.3509  0.4935  1.5661
 8704SOL    HW237746   1.407   3.214   2.009  1.7950 -0.3964 -0.9062
 8705SOL     OW37747   2.772   0.299   3.754  0.5640  0.1427  0.4355
 8705SOL    HW137748   2.678   0.301   3.734  0.4138 -0.9901  1.0535
 8705SOL    HW237749   2.803   0.233   3.692 -0.2069  0.9598 -0.8322
 8706SOL     OW37750   1.996   3.429   3.210 -0.3927 -0.0865 -0.1635
 8706SOL    HW137751   2.031   3.366   3.273  0.2739  0.8722  0.4449
 8706SOL    HW237752   2.049   3.507   3.228 -0.5135 -0.2574  0.9466
 8707SOL     OW37753   2.171   2.655   7.949 -0.1987  0.4442 -0.5184
 8707SOL    HW137754   2.161   2.725   7.884  2.1439 -1.1359 -2.5962
 8707SOL    HW237755   2.120   2.585   7.908  0.4438  1.1551 -2.5076
 8708SOL     OW37756   2.017   0.032   2.445 -0.1955 -0.1706  0.3197
 8708SOL    HW137757   2.080   4.696   2.430 -1.8050 -1.5787  0.3237
 8708SOL    HW237758   2.073   0.104   2.472  0.2805  0.1255 -1.4460
 8709SOL     OW37759   0.775   1.903   9.999  0.6933  0.1170  0.5022
 8709SOL    HW137760   0.717   1.917   9.925  0.9645 -2.2947 -0.1805
 8709SOL    HW237761   0.764   1.810  10.022  0.4280 -0.3354 -1.4898
 8710SOL     OW37762   1.860   4.306  11.328 -0.2038  0.0316  0.3405
 8710SOL    HW137763   1.786   4.364  11.347  0.6194  0.9756  0.7016
 8710SOL    HW237764   1.856   4.286  11.235 -2.2274  0.4861  0.3276
 8711SOL     OW37765   1.162   3.530   8.977  0.0725  0.1501  0.0493
 8711SOL    HW137766   1.254   3.527   9.001 -0.1254  0.2495  0.8171
 8711SOL    HW237767   1.127   3.460   9.032 -2.0126 -1.0628 -2.8084
 8712SOL     OW37768   1.240   3.286   7.394 -0.9612 -0.5034  0.4642
 8712SOL    HW137769   1.312   3.223   7.391  1.3766  2.2474 -0.5172
 8712SOL    HW237770   1.286   3.369   7.387  2.2708 -2.5360 -2.1217
 8713SOL     OW37771   2.860   3.260  10.704  0.5170 -0.2174  0.0022
 8713SOL    HW137772   2.866   3.170  10.735  1.4842 -0.5544 -1.1570
 8713SOL    HW237773   2.781   3.266  10.649  0.9879  0.0348 -0.6498
 8714SOL     OW37774   2.223   0.772   2.716 -0.1414  0.4806  0.0004
 8714SOL    HW137775   2.213   0.784   2.621 -0.9650  2.6348  0.3674
 8714SOL    HW237776   2.194   0.861   2.736  0.2098  0.3597  1.0349
 8715SOL     OW37777   1.799   3.204   5.893 -0.1892  0.3958 -0.8816
 8715SOL    HW137778   1.834   3.285   5.854  0.0344  0.1691 -1.1474
 8715SOL    HW237779   1.844   3.141   5.838 -2.7124 -1.4518 -0.8043
 8716SOL     OW37780   3.911   4.017   2.841 -0.2445 -0.0761 -0.1159
 8716SOL    HW137781   4.006   4.019   2.845 -0.1307 -1.1663 -2.3658
 8716SOL    HW237782   3.885   4.042   2.930  0.8300 -1.0811  0.4783
 8717SOL     OW37783   0.097   4.244   1.761 -0.3473  0.2148  0.3414
 8717SOL    HW137784   0.029   4.188   1.798 -1.1857  1.3144  0.4731
 8717SOL    HW237785   0.064   4.330   1.789 -0.5762  0.5548 -0.9781
 8718SOL     OW37786   3.462   2.390   0.703  0.1678  0.4987 -0.2127
 8718SOL    HW137787   3.483   2.390   0.609 -0.8345  0.2347 -0.4446
 8718SOL    HW237788   3.532   2.369   0.764  0.4963  3.0533  0.2845
 8719SOL     OW37789   3.910   1.973  17.436  0.3637  0.0014 -0.4440
 8719SOL    HW137790   3.956   1.889  17.428  0.8319  0.3124 -1.0203
 8719SOL    HW237791   3.827   1.956  17.391 -0.8199  1.4169  1.2351
 8720SOL     OW37792   3.125   2.295  16.193 -0.3105  0.6294 -0.0683
 8720SOL    HW137793   3.059   2.241  16.150  0.7671  0.1705 -1.1277
 8720SOL    HW237794   3.074   2.311  16.273  0.7720 -2.8749  1.3348
 8721SOL     OW37795   3.562   3.029   0.435 -0.3880  0.0069 -0.8000
 8721SOL    HW137796   3.475   3.016   0.471 -0.0476  0.6836  0.2528
 8721SOL    HW237797   3.559   3.117   0.398 -0.8233 -0.0024 -0.7813
 8722SOL     OW37798   4.707   2.590   9.307  0.0563  0.2835  0.1556
 8722SOL    HW137799   4.731   2.536   9.231  2.0218 -1.0428  1.7179
 8722SOL    HW237800   4.721   2.677   9.268 -2.3407  1.2577  1.4984
 8723SOL     OW37801   0.512   1.620   7.594 -0.0509 -0.2473  0.0209
 8723SOL    HW137802   0.546   1.593   7.679  1.5728  0.6106 -0.3609
 8723SOL    HW237803   0.418   1.611   7.613 -0.5145  1.6002 -1.4019
 8724SOL     OW37804   0.429   0.612   0.038 -0.5104 -0.2375 -0.3154
 8724SOL    HW137805   0.435   0.528  17.734 -1.7404  0.0355 -0.9628
 8724SOL    HW237806   0.381   0.584   0.116  0.6705 -0.6534  0.2663
 8725SOL     OW37807   1.623   1.058  10.550  0.1031  0.3668 -0.3389
 8725SOL    HW137808   1.567   0.999  10.499 -0.2296  0.7150 -0.3733
 8725SOL    HW237809   1.620   1.024  10.639  0.5326 -4.0041 -1.9876
 8726SOL     OW37810   2.176   2.905   4.368  0.9094  0.8677  0.2123
 8726SOL    HW137811   2.128   2.822   4.370  1.0992  0.7781  1.1311
 8726SOL    HW237812   2.192   2.919   4.462  2.0485 -3.5232  0.6954
 8727SOL     OW37813   3.367   3.625  14.714 -0.5046  0.5418  0.0626
 8727SOL    HW137814   3.428   3.571  14.663 -0.6454  2.5441 -2.1987
 8727SOL    HW237815   3.320   3.672  14.646 -0.9849  1.6658  1.1745
 8728SOL     OW37816   3.373   1.863   5.533 -0.4518 -0.1088 -0.5328
 8728SOL    HW137817   3.359   1.827   5.620  0.5838  0.1184 -0.2745
 8728SOL    HW237818   3.457   1.823   5.512 -0.0038  0.4770  0.1885
 8729SOL     OW37819   2.984   2.021   6.344 -0.5155 -0.5967 -0.2926
 8729SOL    HW137820   2.908   2.057   6.298  0.7046 -0.3137 -2.0453
 8729SOL    HW237821   3.008   2.091   6.406 -2.5456 -0.4388  0.3211
 8730SOL     OW37822   3.760   2.289   9.105  0.1654 -0.8136  0.3297
 8730SOL    HW137823   3.760   2.236   9.184  1.3525  2.3820  2.4677
 8730SOL    HW237824   3.819   2.361   9.125  1.0349 -1.2119 -0.8228
 8731SOL     OW37825   1.749   0.526   4.097  0.1125  0.4574  0.0126
 8731SOL    HW137826   1.731   0.619   4.086  0.6385  0.5675  0.0795
 8731SOL    HW237827   1.661   0.489   4.110 -0.1626  1.6025  1.3730
 8732SOL     OW37828   3.429   2.716   7.436 -0.2096  0.9046  0.0825
 8732SOL    HW137829   3.420   2.663   7.516  2.8114  0.5844  0.2036
 8732SOL    HW237830   3.503   2.669   7.398 -1.9576 -0.9244 -1.0889
 8733SOL     OW37831   0.875   3.562   5.296  0.1222  0.0073 -0.4382
 8733SOL    HW137832   0.859   3.618   5.221 -0.1743 -0.1160 -0.4653
 8733SOL    HW237833   0.946   3.515   5.252  0.2847 -1.8917  1.7980
 8734SOL     OW37834   2.319   2.129   7.462 -0.1028  0.5032  0.3133
 8734SOL    HW137835   2.255   2.081   7.515  0.7576  0.7038  1.5201
 8734SOL    HW237836   2.267   2.203   7.430  1.4463  1.4884  0.0580
 8735SOL     OW37837   4.687   4.349   9.602  0.1326 -0.1021  0.0682
 8735SOL    HW137838   4.619   4.379   9.662 -0.9600  1.4018 -1.9302
 8735SOL    HW237839   0.012   4.420   9.581 -2.8301  1.7387 -2.1919
 8736SOL     OW37840   2.385   2.796   3.957 -0.0107 -0.0125 -0.0378
 8736SOL    HW137841   2.326   2.742   3.904 -0.6266  1.1511 -0.5602
 8736SOL    HW237842   2.321   2.857   3.994 -0.3785 -2.5813  3.5024
 8737SOL     OW37843   4.363   2.722   9.657  0.5521  0.1714 -0.2652
 8737SOL    HW137844   4.279   2.676   9.662  1.0084 -0.6541 -0.2070
 8737SOL    HW237845   4.401   2.661   9.594 -2.4618  0.6138 -2.5307
 8738SOL     OW37846   2.796   3.952   3.817  0.2387  0.4708 -0.1369
 8738SOL    HW137847   2.784   3.996   3.901  0.6548 -0.5101  0.4263
 8738SOL    HW237848   2.704   3.928   3.805  0.4941 -0.7300  0.3722
 8739SOL     OW37849   1.013   2.595   0.013 -0.4887 -0.4698  0.2606
 8739SOL    HW137850   0.956   2.637   0.077 -1.7877 -2.1366  0.2040
 8739SOL    HW237851   1.098   2.599   0.056 -0.1271  1.1580 -0.6150
 8740SOL     OW37852   2.280   4.392   4.912  0.5132 -0.6637  0.7662
 8740SOL    HW137853   2.285   4.487   4.910  1.2573 -0.6754  2.0592
 8740SOL    HW237854   2.333   4.364   4.838  1.0342 -1.1451  1.3108
 8741SOL     OW37855   4.221   0.726  12.357 -0.2216 -0.0405  0.0538
 8741SOL    HW137856   4.176   0.711  12.274  0.2956  0.8646 -0.3873
 8741SOL    HW237857   4.152   0.695  12.416  0.5007  3.2242  2.6272
 8742SOL     OW37858   0.353   0.519   9.329 -0.1603  0.2262 -0.0086
 8742SOL    HW137859   0.307   0.507   9.412 -1.9426 -1.8092 -1.3137
 8742SOL    HW237860   0.324   0.610   9.317 -1.0705  0.1030  1.2441
 8743SOL     OW37861   1.196   1.622   2.918 -0.2872  0.4912  0.0129
 8743SOL    HW137862   1.260   1.603   2.987 -1.3575 -0.9724  0.6164
 8743SOL    HW237863   1.109   1.615   2.957  0.8438 -1.8619  2.2123
 8744SOL     OW37864   2.522   1.117   6.035  0.1099 -0.5708  0.3213
 8744SOL    HW137865   2.506   1.036   6.083 -1.0586 -1.5281 -1.6686
 8744SOL    HW237866   2.447   1.116   5.975  0.1239  0.4943  0.2780
 8745SOL     OW37867   2.273   3.300  11.140 -0.0431  0.0606 -0.0811
 8745SOL    HW137868   2.226   3.382  11.139 -0.1144  0.0482  1.6573
 8745SOL    HW237869   2.200   3.245  11.169 -0.2850  0.2774 -0.2844
 8746SOL     OW37870   4.319   1.004  11.269 -0.0500 -0.0370  0.1937
 8746SOL    HW137871   4.392   0.985  11.211 -0.9987  0.4126 -1.1454
 8746SOL    HW237872   4.254   1.033  11.204 -0.4314 -1.4305 -0.0304
 8747SOL     OW37873   3.271   2.617   8.448 -0.1339 -0.5151  0.5227
 8747SOL    HW137874   3.285   2.672   8.524  3.0732  0.8048 -1.0356
 8747SOL    HW237875   3.209   2.668   8.397 -1.8928 -1.4613  1.7198
 8748SOL     OW37876   3.423   4.290   9.039 -0.0045  0.0475  0.1929
 8748SOL    HW137877   3.454   4.253   9.122  1.9167  2.8045  0.7072
 8748SOL    HW237878   3.343   4.238   9.026 -0.4207  0.8620 -0.5322
 8749SOL     OW37879   0.894   4.506   5.091  0.7561 -0.0141  0.2520
 8749SOL    HW137880   0.973   4.505   5.145  0.6995  1.5648  0.3688
 8749SOL    HW237881   0.835   4.561   5.142  2.1212  0.2683  1.5300
 8750SOL     OW37882   3.397   0.217   3.548  0.3217  0.0327 -0.2228
 8750SOL    HW137883   3.363   0.132   3.577  3.2550 -1.2027 -0.3795
 8750SOL    HW237884   3.491   0.203   3.540  0.3797  0.5158 -0.3506
 8751SOL     OW37885   3.001   2.576   7.495 -0.0291 -0.8134  0.2556
 8751SOL    HW137886   2.911   2.546   7.509  1.1349 -2.5980  3.8948
 8751SOL    HW237887   3.001   2.666   7.529  1.4642 -0.4804 -0.6269
 8752SOL     OW37888   2.129   0.274  10.280 -0.3710 -0.4222  0.0365
 8752SOL    HW137889   2.066   0.304  10.345 -0.0681  0.8391 -0.2476
 8752SOL    HW237890   2.209   0.318  10.310 -1.2518  2.2474 -1.4774
 8753SOL     OW37891   3.603   4.357  11.700 -0.2873 -0.3803 -0.8175
 8753SOL    HW137892   3.624   4.373  11.608  1.6665  0.1073 -0.2875
 8753SOL    HW237893   3.669   4.292  11.725 -0.4916  0.2730  1.4148
 8754SOL     OW37894   2.108   2.998   7.956 -0.1815  0.0205  0.5407
 8754SOL    HW137895   2.053   2.942   8.011  1.4935 -1.0405  1.1369
 8754SOL    HW237896   2.098   2.946   7.876  0.8036 -0.5016  0.7534
 8755SOL     OW37897   2.592   2.906   2.019 -0.3108  0.2460  0.1357
 8755SOL    HW137898   2.532   2.854   2.072 -0.2665  0.1719  0.1119
 8755SOL    HW237899   2.610   2.841   1.951 -1.5079  0.7782 -0.6915
 8756SOL     OW37900   3.531   3.904   5.175  0.0711  0.6547 -0.1410
 8756SOL    HW137901   3.570   3.870   5.095 -0.7713  0.1762 -0.3470
 8756SOL    HW237902   3.602   3.886   5.237 -0.1531 -0.1903 -0.1225
 8757SOL     OW37903   3.723   4.021   4.924 -0.5615 -0.1677  0.3030
 8757SOL    HW137904   3.654   4.087   4.933  0.3311  0.7124  0.6214
 8757SOL    HW237905   3.772   4.017   5.005 -0.7445 -0.7994  0.3820
 8758SOL     OW37906   0.611   3.853  14.087 -0.3011  0.7194  0.1910
 8758SOL    HW137907   0.587   3.942  14.060  0.1477  0.3739 -1.3169
 8758SOL    HW237908   0.645   3.868  14.175 -1.1857 -2.0243  1.0047
 8759SOL     OW37909   3.292   4.171   5.965  0.3103 -0.7670 -0.1190
 8759SOL    HW137910   3.240   4.227   6.021 -0.7883  0.7850 -2.6900
 8759SOL    HW237911   3.353   4.235   5.928 -0.8109  0.7659  0.7154
 8760SOL     OW37912   2.154   1.348   2.575  0.2086  0.7524 -0.2670
 8760SOL    HW137913   2.217   1.420   2.579  1.7361 -0.4945 -2.0295
 8760SOL    HW237914   2.182   1.291   2.503  0.2137 -0.7602  0.9361
 8761SOL     OW37915   0.280   4.184   3.749  0.4725  0.7418  0.4938
 8761SOL    HW137916   0.245   4.231   3.825 -0.9415  0.0423  0.2844
 8761SOL    HW237917   0.199   4.189   3.697  0.4877 -1.0185  0.2978
 8762SOL     OW37918   0.585   0.492   5.185  0.2935 -0.1356 -0.1317
 8762SOL    HW137919   0.598   0.544   5.105  0.6109  1.1595  0.7573
 8762SOL    HW237920   0.600   0.400   5.166  1.7190 -0.1478  1.0502
 8763SOL     OW37921   3.891   2.867   2.885 -0.3792 -0.4206 -0.8252
 8763SOL    HW137922   3.868   2.955   2.857  1.8271 -0.3320 -2.3340
 8763SOL    HW237923   3.975   2.861   2.840  0.9692  2.1713  1.3024
 8764SOL     OW37924   2.230   0.967   1.286  0.2629 -0.4232 -0.8710
 8764SOL    HW137925   2.151   0.932   1.245  1.1820 -1.1937 -1.9779
 8764SOL    HW237926   2.219   1.062   1.286  0.4074 -0.4014  0.6880
 8765SOL     OW37927   3.977   3.085   3.424 -0.4578  0.1119  0.2866
 8765SOL    HW137928   3.883   3.090   3.408 -0.2430 -0.7992 -1.2610
 8765SOL    HW237929   4.000   3.136   3.346 -1.0153  0.2850  0.2375
 8766SOL     OW37930   0.339   1.133   6.448 -0.0170  0.5566 -0.1556
 8766SOL    HW137931   0.295   1.201   6.397 -3.0408 -0.7492  0.7216
 8766SOL    HW237932   0.388   1.184   6.513  0.5868 -0.2501  0.0185
 8767SOL     OW37933   3.087   3.767   2.073  0.3194  0.7147  0.1738
 8767SOL    HW137934   3.176   3.733   2.066  0.1754  0.3128  0.2823
 8767SOL    HW237935   3.040   3.697   2.119  0.4312  0.0898 -0.6424
 8768SOL     OW37936   0.623   0.719   9.910 -0.0866 -0.3270 -0.6392
 8768SOL    HW137937   0.678   0.755   9.980  1.4871 -1.9640 -1.0017
 8768SOL    HW237938   0.594   0.643   9.961  0.0404  0.0858  0.0477
 8769SOL     OW37939   1.802   0.506   3.701 -0.1405  0.0952 -0.0699
 8769SOL    HW137940   1.869   0.547   3.646  0.3514 -0.4656  0.1027
 8769SOL    HW237941   1.735   0.498   3.634  1.5543  2.6538 -2.0872
 8770SOL     OW37942   4.101   2.180   2.012 -0.1217 -0.0673 -0.3104
 8770SOL    HW137943   4.043   2.245   2.052  0.4731  1.2308 -1.5643
 8770SOL    HW237944   4.157   2.242   1.966 -0.3987  1.1817  1.0361
 8771SOL     OW37945   4.210   0.689  17.076  0.5357 -0.0939 -0.0811
 8771SOL    HW137946   4.191   0.681  17.169 -0.1501  0.6961 -0.1550
 8771SOL    HW237947   4.194   0.781  17.060  0.8411 -0.2476 -1.2320
 8772SOL     OW37948   2.779   3.986  14.830  0.5685 -0.2506  0.0235
 8772SOL    HW137949   2.706   4.036  14.865  0.9198  0.3418 -0.0769
 8772SOL    HW237950   2.748   3.898  14.810 -1.0349  0.6969 -1.6645
 8773SOL     OW37951   3.041   1.508   3.772  0.2138  0.1105  0.5843
 8773SOL    HW137952   3.058   1.454   3.695  0.4542  2.0630 -0.7346
 8773SOL    HW237953   3.052   1.449   3.846 -0.2440  0.3071  0.8127
 8774SOL     OW37954   3.298   1.901   7.681 -0.3267  0.7253 -0.7154
 8774SOL    HW137955   3.213   1.897   7.725 -0.7166  0.6145 -1.4788
 8774SOL    HW237956   3.355   1.910   7.758  0.5164 -0.6884 -1.1695
 8775SOL     OW37957   4.161   1.974   4.081  0.2754 -0.0910  0.8073
 8775SOL    HW137958   4.141   1.880   4.083  0.1705 -0.0870 -0.3549
 8775SOL    HW237959   4.073   2.000   4.107 -0.9261 -1.2887 -2.0045
 8776SOL     OW37960   2.829   3.714   2.717 -0.0428 -0.3896 -0.0339
 8776SOL    HW137961   2.858   3.802   2.742 -0.5893 -0.4375  0.7873
 8776SOL    HW237962   2.912   3.667   2.728 -0.6306 -1.4601 -0.2358
 8777SOL     OW37963   1.358   3.120   7.130 -0.3444  0.0716  0.3827
 8777SOL    HW137964   1.347   3.026   7.114 -0.7595 -0.0993  1.7181
 8777SOL    HW237965   1.300   3.129   7.206  1.3372 -2.2653  1.9165
 8778SOL     OW37966   2.055   0.882   7.356 -0.1345 -0.7171 -0.1144
 8778SOL    HW137967   2.112   0.943   7.404 -0.9821  1.1925 -1.5232
 8778SOL    HW237968   2.120   0.816   7.334  1.0939  0.0581  1.2162
 8779SOL     OW37969   3.390   1.965   4.942 -0.1765  0.4706 -0.1038
 8779SOL    HW137970   3.422   2.009   5.020 -1.2034  1.5588 -0.3037
 8779SOL    HW237971   3.369   1.877   4.975  1.5804  0.8672  2.0180
 8780SOL     OW37972   1.242   2.563   6.393 -0.2324 -0.3827 -0.0507
 8780SOL    HW137973   1.223   2.655   6.378  1.1369 -0.5250 -2.6323
 8780SOL    HW237974   1.328   2.572   6.435 -0.3733 -1.1845  0.4151
 8781SOL     OW37975   2.215   0.385   1.291 -0.1078 -0.9354 -0.1176
 8781SOL    HW137976   2.295   0.358   1.338  0.1726 -0.2253 -0.1811
 8781SOL    HW237977   2.159   0.320   1.333 -1.8069  1.3344  1.1898
 8782SOL     OW37978   2.980   0.784   2.104  0.3141  0.6443  0.5064
 8782SOL    HW137979   2.979   0.744   2.191 -2.6017 -0.5197 -0.0902
 8782SOL    HW237980   2.887   0.790   2.082  0.0673  2.3673  2.0059
 8783SOL     OW37981   1.347   2.462   9.270 -0.2522  0.5161 -0.2098
 8783SOL    HW137982   1.409   2.418   9.329 -0.0283 -0.5977 -1.2759
 8783SOL    HW237983   1.406   2.531   9.239 -2.3993  2.2579 -0.4227
 8784SOL     OW37984   1.024   1.926   8.047 -0.0188  0.8410  0.1676
 8784SOL    HW137985   0.977   1.975   8.113 -0.7517  0.5137 -0.1100
 8784SOL    HW237986   0.961   1.933   7.975 -1.2781  0.0226  1.2014
 8785SOL     OW37987   2.832   3.735   6.353  0.8658  0.2679  0.0243
 8785SOL    HW137988   2.769   3.698   6.414 -0.0194 -0.6911 -1.4616
 8785SOL    HW237989   2.877   3.655   6.327 -0.1924 -1.2394  2.8274
 8786SOL     OW37990   3.475   1.713   7.354  0.6330  0.4535  0.7535
 8786SOL    HW137991   3.436   1.740   7.270  0.1808 -0.0770  0.7939
 8786SOL    HW237992   3.548   1.775   7.349  0.0246  1.1736  0.7527
 8787SOL     OW37993   0.883   1.375   1.645 -0.1641  0.2417 -0.1588
 8787SOL    HW137994   0.973   1.403   1.628  0.6588 -2.4533 -0.2052
 8787SOL    HW237995   0.871   1.329   1.561  1.8218 -0.1346 -0.2302
 8788SOL     OW37996   4.069   1.338   5.947  0.2895 -0.4125 -0.0640
 8788SOL    HW137997   3.998   1.280   5.974  0.0589 -0.9909 -1.8924
 8788SOL    HW237998   4.122   1.344   6.027 -0.1668  1.4508  0.0865
 8789SOL     OW37999   4.721   0.950   4.379 -0.5161  0.1168  0.0866
 8789SOL    HW138000   4.717   1.013   4.451  0.2622 -0.4365  0.6101
 8789SOL    HW238001   4.630   0.951   4.350 -1.1836  2.1788  2.3176
 8790SOL     OW38002   0.865   3.368   9.915 -0.3580  0.3483  0.6357
 8790SOL    HW138003   0.918   3.427   9.862 -1.0474 -0.0657 -0.5111
 8790SOL    HW238004   0.927   3.297   9.933  1.0045  1.9628  2.2109
 8791SOL     OW38005   2.692   0.267   8.355 -0.3862  0.4986  0.0762
 8791SOL    HW138006   2.712   0.257   8.448  0.8828 -0.6624 -0.3055
 8791SOL    HW238007   2.601   0.293   8.365 -0.7101 -0.0627 -1.4217
 8792SOL     OW38008   0.857   3.845   9.319 -0.2187 -0.1901  0.4517
 8792SOL    HW138009   0.881   3.936   9.335  1.5722 -0.6537  0.3885
 8792SOL    HW238010   0.921   3.815   9.254 -0.8080 -2.9433  1.1462
 8793SOL     OW38011   3.198   2.436   7.980 -0.1369 -0.3437  0.0089
 8793SOL    HW138012   3.257   2.476   8.043 -0.7255  0.3382  0.1381
 8793SOL    HW238013   3.155   2.520   7.962  1.2540  0.4804  0.5157
 8794SOL     OW38014   3.460   4.107   9.248 -0.2167 -0.1248  0.2302
 8794SOL    HW138015   3.396   4.045   9.284  0.2638 -2.4821 -2.9547
 8794SOL    HW238016   3.449   4.184   9.304  0.2868  0.3465 -0.3175
 8795SOL     OW38017   1.939   0.568  13.198 -0.0813 -0.9780 -0.2031
 8795SOL    HW138018   1.867   0.538  13.143 -0.4469  0.1997 -0.3706
 8795SOL    HW238019   1.901   0.581  13.285  1.4277 -0.0495  0.3290
 8796SOL     OW38020   0.601   3.322  17.043  0.4425  0.4624 -0.0908
 8796SOL    HW138021   0.613   3.263  16.968  0.5492 -1.3941  1.3966
 8796SOL    HW238022   0.571   3.263  17.111 -1.5961  0.8782 -0.6399
 8797SOL     OW38023   3.009   3.776   4.004 -0.1899  0.7831 -0.2667
 8797SOL    HW138024   2.981   3.858   4.044 -1.1307  0.8480 -1.0518
 8797SOL    HW238025   2.932   3.753   3.952  0.4741 -1.6618 -0.1633
 8798SOL     OW38026   2.742   4.687  14.526 -0.2465  0.1798 -0.2694
 8798SOL    HW138027   2.796   4.660  14.601 -1.0498 -2.6057 -0.6829
 8798SOL    HW238028   2.785   0.035  14.509  1.1730 -0.6447 -0.7710
 8799SOL     OW38029   2.521   4.609   2.307 -0.1865  0.0297  0.3589
 8799SOL    HW138030   2.491   4.689   2.265  0.2001 -0.2883 -0.5358
 8799SOL    HW238031   2.450   4.547   2.292  1.3888 -1.6293 -0.3856
 8800SOL     OW38032   1.875   0.534   1.636  0.2205 -0.3871 -0.2960
 8800SOL    HW138033   1.861   0.503   1.726  0.1613 -0.8518 -0.4607
 8800SOL    HW238034   1.956   0.583   1.642 -0.1501  0.2545 -0.5094
 8801SOL     OW38035   2.839   4.689   1.555  0.1270  0.3938 -0.5529
 8801SOL    HW138036   2.874   0.041   1.571 -2.0525  1.1533  0.0215
 8801SOL    HW238037   2.808   4.704   1.466  0.0422 -0.1768 -0.6158
 8802SOL     OW38038   0.474   4.200   2.680  0.1850 -0.0617  0.1505
 8802SOL    HW138039   0.407   4.133   2.693 -0.0679  0.3287  0.8729
 8802SOL    HW238040   0.496   4.227   2.769  0.2036  1.2935 -0.2617
 8803SOL     OW38041   0.587   0.782   9.082 -0.0908 -0.4347  0.6136
 8803SOL    HW138042   0.661   0.725   9.102  1.6113  1.1504 -1.2414
 8803SOL    HW238043   0.590   0.775   8.987 -2.6221 -0.6349  0.5307
 8804SOL     OW38044   0.180   3.394   7.380 -0.5551 -0.0758 -0.4452
 8804SOL    HW138045   0.163   3.395   7.474  0.3517  0.6193 -0.2832
 8804SOL    HW238046   0.191   3.489   7.369 -1.4588  0.1959  1.0033
 8805SOL     OW38047   4.050   1.631   5.511 -0.3538 -0.0751 -0.9740
 8805SOL    HW138048   4.126   1.614   5.454  1.5684  0.3645  1.4536
 8805SOL    HW238049   4.034   1.550   5.559  0.2367 -0.3473 -1.2376
 8806SOL     OW38050   2.959   3.314   8.773  0.3676  0.4769 -0.0408
 8806SOL    HW138051   3.025   3.383   8.761  1.6499 -1.0547 -1.9420
 8806SOL    HW238052   3.020   3.242   8.758  1.2493  1.1872  0.0632
 8807SOL     OW38053   0.450   4.450   2.077  0.0729  0.1168  0.1983
 8807SOL    HW138054   0.360   4.472   2.097 -0.2927 -0.6330 -0.6172
 8807SOL    HW238055   0.434   4.375   2.019 -0.6883 -1.6518  2.7184
 8808SOL     OW38056   4.525   3.523   9.453 -0.4515  0.5792 -0.5189
 8808SOL    HW138057   4.566   3.458   9.510 -0.3815  1.0854 -0.0018
 8808SOL    HW238058   4.520   3.473   9.371  3.9122 -1.3714  0.3860
 8809SOL     OW38059   0.292   1.935  15.229 -0.4487  0.8568  0.0441
 8809SOL    HW138060   0.342   1.975  15.300  0.4688  0.4291 -0.3512
 8809SOL    HW238061   0.356   1.927  15.158  0.6419 -1.6555  1.2956
 8810SOL     OW38062   4.600   0.999  14.302  0.4174 -0.1466  0.1265
 8810SOL    HW138063   4.573   1.047  14.224  0.7553  1.7602  1.2022
 8810SOL    HW238064   4.514   0.988  14.341  0.1204 -1.4954 -0.8990
 8811SOL     OW38065   1.916   4.438   8.629 -1.0628  0.9598 -0.4144
 8811SOL    HW138066   1.894   4.529   8.610 -4.5267  0.5233  1.5495
 8811SOL    HW238067   1.849   4.398   8.573 -0.7594  0.3816 -0.3612
 8812SOL     OW38068   4.532   2.744   8.204 -0.2606 -0.6322  0.4157
 8812SOL    HW138069   4.467   2.707   8.143  0.5410 -0.7953 -0.3449
 8812SOL    HW238070   4.472   2.783   8.267 -0.2057 -0.1929  0.1969
 8813SOL     OW38071   3.170   4.146   9.261  0.3572 -0.9707  0.6346
 8813SOL    HW138072   3.092   4.199   9.276  2.8460  2.8653  0.1245
 8813SOL    HW238073   3.138   4.058   9.279 -2.2717  0.1937  1.6020
 8814SOL     OW38074   1.427   2.557   7.127 -0.7108 -0.0475  0.1243
 8814SOL    HW138075   1.437   2.624   7.195  0.5938 -1.5264  1.4127
 8814SOL    HW238076   1.494   2.495   7.158  0.2136  0.4644 -0.8666
 8815SOL     OW38077   4.283   3.346   7.136 -0.4381  0.0704 -0.4050
 8815SOL    HW138078   4.243   3.260   7.150 -1.8911  0.9392  0.7959
 8815SOL    HW238079   4.352   3.335   7.071  0.4972  1.0281  0.4234
 8816SOL     OW38080   3.233   4.590   9.487  0.6496  0.1812  0.0104
 8816SOL    HW138081   3.327   4.605   9.478  0.7330  1.0486  2.4606
 8816SOL    HW238082   3.212   4.673   9.444  0.7949 -0.3228 -1.0293
 8817SOL     OW38083   3.859   3.828  17.264  0.2939  0.0170 -0.0002
 8817SOL    HW138084   3.894   3.917  17.267  0.8874 -0.2451  0.9563
 8817SOL    HW238085   3.915   3.778  17.323 -0.7694 -0.4192  0.6317
 8818SOL     OW38086   2.325   0.600   7.884  0.3947 -0.1113  0.0308
 8818SOL    HW138087   2.387   0.528   7.874  0.8175 -0.1723  3.0728
 8818SOL    HW238088   2.293   0.636   7.801 -1.7473 -3.1294 -0.4381
 8819SOL     OW38089   1.689   1.244   9.637  0.3228  0.3791  0.1963
 8819SOL    HW138090   1.623   1.216   9.700 -0.3998  0.9526 -0.3050
 8819SOL    HW238091   1.765   1.241   9.695 -0.6438  0.8262  1.4858
 8820SOL     OW38092   1.745   0.217   6.108  0.0020  0.2116 -0.4474
 8820SOL    HW138093   1.758   0.162   6.031 -0.6678  2.9972 -2.5814
 8820SOL    HW238094   1.835   0.249   6.113  0.0053  0.1012  0.1511
 8821SOL     OW38095   4.343   1.742   7.061  0.0941  0.0464  0.2245
 8821SOL    HW138096   4.331   1.722   7.153  1.2919  0.5164  0.4887
 8821SOL    HW238097   4.420   1.800   7.061 -0.6667  1.0812 -1.8267
 8822SOL     OW38098   4.490   3.731  12.714  0.3002 -0.2568  0.2367
 8822SOL    HW138099   4.396   3.714  12.710  0.2404 -0.1304  1.1118
 8822SOL    HW238100   4.514   3.641  12.736 -3.4646 -1.5228 -0.9239
 8823SOL     OW38101   0.587   2.706   9.875 -0.8698 -0.0196  0.4181
 8823SOL    HW138102   0.550   2.701   9.787  0.9816  1.7650 -0.4814
 8823SOL    HW238103   0.587   2.801   9.887  1.2467 -0.2915  2.5946
 8824SOL     OW38104   2.914   1.525   8.910 -0.3371 -0.3581  0.1538
 8824SOL    HW138105   2.882   1.591   8.848  1.5403 -0.7757 -1.2607
 8824SOL    HW238106   2.867   1.552   8.989 -1.3684  0.3345 -0.6927
 8825SOL     OW38107   0.659   3.044   4.805 -0.3908 -0.1161  0.2097
 8825SOL    HW138108   0.705   2.973   4.849 -0.5632 -0.0241  0.5379
 8825SOL    HW238109   0.708   3.124   4.824  1.6870 -1.2026 -0.5468
 8826SOL     OW38110   4.228   2.662   9.066 -0.1262 -0.5302  0.2800
 8826SOL    HW138111   4.246   2.586   9.122  0.9091 -1.0554 -0.7766
 8826SOL    HW238112   4.314   2.674   9.026  0.3285 -0.0606  1.4068
 8827SOL     OW38113   1.460   3.873   0.398 -0.6185 -0.4771 -0.4446
 8827SOL    HW138114   1.514   3.818   0.341  1.2662  0.6714  0.2205
 8827SOL    HW238115   1.395   3.810   0.428 -0.0468 -0.3126  1.1124
 8828SOL     OW38116   1.729   1.234   2.781 -0.1156 -0.0332  0.2631
 8828SOL    HW138117   1.790   1.303   2.807  0.6624  0.1281 -2.0115
 8828SOL    HW238118   1.643   1.276   2.782 -0.0568  0.0914  0.0775
 8829SOL     OW38119   0.254   1.590   7.144  0.5331  0.0427 -0.0899
 8829SOL    HW138120   0.334   1.537   7.148  1.1412  0.9894  0.1083
 8829SOL    HW238121   0.189   1.525   7.171 -2.4195  1.2299 -4.3306
 8830SOL     OW38122   2.819   3.371   4.301  0.1358  0.4070 -0.5464
 8830SOL    HW138123   2.804   3.295   4.245  1.9843  2.8413 -4.3490
 8830SOL    HW238124   2.804   3.438   4.234  0.3761  0.1422 -0.8624
 8831SOL     OW38125   1.426   0.227   1.914 -0.0165 -0.4739  0.5581
 8831SOL    HW138126   1.480   0.172   1.970  0.7495  0.0509  0.3371
 8831SOL    HW238127   1.407   0.170   1.839 -0.1355  0.1792  0.0883
 8832SOL     OW38128   1.449   1.669   3.458  0.5212  0.2203  0.1898
 8832SOL    HW138129   1.459   1.653   3.552 -1.7252  2.0254  0.7339
 8832SOL    HW238130   1.543   1.666   3.439  0.1712 -3.0546 -1.0623
 8833SOL     OW38131   2.120   4.129   4.113  0.0846 -0.7696 -0.0451
 8833SOL    HW138132   2.106   4.213   4.068  1.6990 -1.0274 -1.0398
 8833SOL    HW238133   2.207   4.140   4.150 -0.1067  0.3523  0.0919
 8834SOL     OW38134   1.285   3.746   6.851  0.2002 -0.6381 -0.4952
 8834SOL    HW138135   1.216   3.812   6.852  2.8833  2.1756  0.4507
 8834SOL    HW238136   1.253   3.687   6.782 -1.0624  0.6851 -1.0272
 8835SOL     OW38137   2.335   2.402  14.851 -0.5340 -0.1145 -0.2635
 8835SOL    HW138138   2.358   2.316  14.815 -2.5896 -0.7787 -0.0176
 8835SOL    HW238139   2.272   2.424  14.782  0.6802 -4.1184 -2.6694
 8836SOL     OW38140   3.873   0.658   1.827  0.4120 -0.5142  0.8331
 8836SOL    HW138141   3.948   0.620   1.781  1.7956  0.8020  2.0144
 8836SOL    HW238142   3.885   0.603   1.905  1.7538  1.6712  2.1643
 8837SOL     OW38143   3.190   4.551   7.478 -0.0209  0.0581 -0.2887
 8837SOL    HW138144   3.158   4.513   7.396  1.8042  0.9746 -1.4132
 8837SOL    HW238145   3.114   4.606   7.496 -0.1375 -1.0331  2.5750
 8838SOL     OW38146   0.093   1.083   3.613  0.3960  0.3837  0.0277
 8838SOL    HW138147   0.016   1.097   3.559  0.0930 -1.6541 -0.0681
 8838SOL    HW238148   0.109   1.175   3.634  0.6312  0.5123 -0.7091
 8839SOL     OW38149   4.068   1.004   1.312 -0.0492 -0.7218  0.2055
 8839SOL    HW138150   4.008   0.988   1.240 -1.8202 -0.1838  1.5771
 8839SOL    HW238151   4.052   1.097   1.325  2.3470 -0.2084 -0.4330
 8840SOL     OW38152   0.088   3.092   3.223 -0.2050  0.0448  0.2568
 8840SOL    HW138153   0.014   3.047   3.182 -0.0575  0.5745 -0.5881
 8840SOL    HW238154   0.161   3.071   3.164 -1.5108  3.2385 -2.4672
 8841SOL     OW38155   2.927   3.211   1.537 -0.9325 -0.2829  0.1997
 8841SOL    HW138156   2.964   3.290   1.575  0.2914 -0.4848 -0.5509
 8841SOL    HW238157   2.881   3.246   1.461 -1.6852  0.7616  1.1434
 8842SOL     OW38158   2.782   3.501  11.236 -0.3246  0.4532 -1.2061
 8842SOL    HW138159   2.760   3.505  11.329  1.6629 -1.0071 -0.6905
 8842SOL    HW238160   2.767   3.408  11.220  1.4888  0.1458 -1.1223
 8843SOL     OW38161   3.392   4.206   2.273 -0.6201  0.1650 -0.0356
 8843SOL    HW138162   3.361   4.175   2.358 -1.3852 -2.9295 -1.4227
 8843SOL    HW238163   3.368   4.298   2.276  0.4395  0.4658 -0.6593
 8844SOL     OW38164   3.699   2.575   7.423  0.1407 -0.2074 -0.9503
 8844SOL    HW138165   3.703   2.481   7.439  1.9295 -0.0327 -0.3841
 8844SOL    HW238166   3.772   2.594   7.364  1.0322  0.3908  0.3395
 8845SOL     OW38167   2.243   0.153  13.242  0.0657  1.1540  0.0532
 8845SOL    HW138168   2.231   0.059  13.249 -1.1577  1.1720 -1.9718
 8845SOL    HW238169   2.152   0.181  13.234  0.0545  1.2733  0.5544
 8846SOL     OW38170   2.878   0.557  16.389 -0.7173  0.1225  0.0606
 8846SOL    HW138171   2.947   0.495  16.416 -2.5793 -2.1333 -0.3853
 8846SOL    HW238172   2.914   0.637  16.427 -1.0164  0.4201 -0.2811
 8847SOL     OW38173   0.014   0.963   3.933  0.3675 -0.1783  0.5971
 8847SOL    HW138174   4.701   0.899   3.882  0.0305 -1.5023  2.5725
 8847SOL    HW238175   4.704   1.047   3.926  1.8309  0.5138 -0.7641
 8848SOL     OW38176   2.651   0.457   4.650  0.1701 -0.3714 -0.3807
 8848SOL    HW138177   2.683   0.516   4.582 -1.3722  0.8139 -0.0924
 8848SOL    HW238178   2.637   0.379   4.596 -1.0079  0.3479 -1.1284
 8849SOL     OW38179   4.207   0.694   4.980  0.3101 -0.8083 -0.0299
 8849SOL    HW138180   4.215   0.787   4.963 -2.7545 -0.3426  1.0654
 8849SOL    HW238181   4.164   0.697   5.065  1.0313  1.5122  0.2564
 8850SOL     OW38182   4.590   1.162   1.738 -0.0207  0.7491 -0.1436
 8850SOL    HW138183   4.576   1.246   1.781 -0.5043  0.5905  0.0086
 8850SOL    HW238184   4.613   1.104   1.811  1.7234 -0.6103 -1.7716
 8851SOL     OW38185   0.155   1.001   2.101 -0.4020  0.1080 -0.0076
 8851SOL    HW138186   0.117   0.953   2.027 -0.2010 -0.9557  0.5730
 8851SOL    HW238187   0.250   0.993   2.092 -0.5140 -0.4251 -0.6897
 8852SOL     OW38188   1.735   0.002  11.338 -0.3961  0.0704 -0.2026
 8852SOL    HW138189   1.762   4.672  11.273  1.0201  0.2253  0.2295
 8852SOL    HW238190   1.658   0.040  11.296  1.0971  0.1534 -2.8278
 8853SOL     OW38191   3.878   1.062  14.993 -0.2186  0.2878 -0.5543
 8853SOL    HW138192   3.838   1.007  14.925  1.1108 -2.1877  0.6705
 8853SOL    HW238193   3.871   1.149  14.953 -0.9123 -0.4679 -2.1020
 8854SOL     OW38194   2.198   0.281   8.844 -0.6251  0.2162  0.2740
 8854SOL    HW138195   2.116   0.252   8.883 -0.6428 -1.6494 -1.1518
 8854SOL    HW238196   2.179   0.270   8.751  0.3389 -0.5726  0.1627
 8855SOL     OW38197   4.053   1.139  13.711  1.0223  0.2280  0.3736
 8855SOL    HW138198   4.135   1.096  13.735  2.3204  2.3499 -0.2161
 8855SOL    HW238199   4.057   1.223  13.757  0.7584  0.4149  0.0487
 8856SOL     OW38200   4.472   2.256  17.065  0.2000 -0.1402  0.6251
 8856SOL    HW138201   4.469   2.333  17.122  1.5200 -0.1842  0.7503
 8856SOL    HW238202   4.553   2.273  17.017  1.1017 -2.7740  1.1880
 8857SOL     OW38203   1.705   1.096  12.292  0.3798 -0.7379  0.5258
 8857SOL    HW138204   1.645   1.166  12.268  0.9305 -0.3630  0.2454
 8857SOL    HW238205   1.771   1.140  12.346  0.3294 -0.1167  0.0779
 8858SOL     OW38206   1.346   1.228   7.215 -0.4997  0.7615  0.1389
 8858SOL    HW138207   1.363   1.200   7.125  2.9221 -0.7205  1.2560
 8858SOL    HW238208   1.315   1.318   7.202 -1.1960  0.5635  0.4477
 8859SOL     OW38209   0.459   3.729  15.409  0.2356  0.2235 -0.0665
 8859SOL    HW138210   0.458   3.729  15.313  1.7792  1.1295 -0.0789
 8859SOL    HW238211   0.537   3.781  15.429  0.5167 -0.5258  0.7872
 8860SOL     OW38212   0.543   0.934   2.867  0.1017 -0.3620 -0.4758
 8860SOL    HW138213   0.567   0.956   2.957 -0.0386  1.1305 -0.8021
 8860SOL    HW238214   0.512   0.844   2.875 -2.1706  0.7389  3.2956
 8861SOL     OW38215   1.406   0.444   7.893 -0.1080  0.9347 -0.0615
 8861SOL    HW138216   1.495   0.436   7.857 -0.2521 -2.0081  0.2340
 8861SOL    HW238217   1.405   0.539   7.887  1.8269  0.8166 -2.2598
 8862SOL     OW38218   1.071   0.844   2.864  0.1995 -0.2410 -0.6310
 8862SOL    HW138219   1.167   0.842   2.874 -0.0864 -1.5790  1.5962
 8862SOL    HW238220   1.053   0.760   2.904 -0.4955  0.2599  0.1070
 8863SOL     OW38221   3.353   3.682   0.160  0.0204 -0.1455 -0.2413
 8863SOL    HW138222   3.400   3.685   0.077 -0.6612  3.1547 -0.5211
 8863SOL    HW238223   3.370   3.592   0.186 -1.5184 -1.1962 -2.8344
 8864SOL     OW38224   0.204   0.038   9.308  0.7169  0.3814  0.2387
 8864SOL    HW138225   0.215   4.705   9.242  0.5044  0.8818 -0.3194
 8864SOL    HW238226   0.256   0.103   9.261  0.5484  1.0648  1.0058
 8865SOL     OW38227   0.180   3.354   3.098 -0.5699 -0.7476 -0.3086
 8865SOL    HW138228   0.085   3.361   3.090 -0.5695 -0.4031 -0.0092
 8865SOL    HW238229   0.187   3.259   3.091  2.3171 -0.5129 -0.6209
 8866SOL     OW38230   0.299   0.098   8.857 -0.3329  0.1053  0.5190
 8866SOL    HW138231   0.365   0.048   8.905 -1.6894 -0.1528  2.0785
 8866SOL    HW238232   0.238   0.031   8.827  0.8334  0.1422 -1.9380
 8867SOL     OW38233   0.962   2.890   8.075  0.9997 -0.1940 -0.2419
 8867SOL    HW138234   0.985   2.872   8.167 -0.4024 -2.6242 -0.3682
 8867SOL    HW238235   0.889   2.952   8.083  0.2837 -1.4566  2.8392
 8868SOL     OW38236   3.813   0.795  13.446 -0.2197 -0.0760 -0.1857
 8868SOL    HW138237   3.842   0.720  13.498 -0.6738  0.2913  0.5820
 8868SOL    HW238238   3.869   0.866  13.476 -0.6296  1.5323 -3.1885
 8869SOL     OW38239   3.265   1.354  11.937 -0.3515  0.0202  0.4712
 8869SOL    HW138240   3.311   1.399  12.008  0.7527 -0.9580  0.3791
 8869SOL    HW238241   3.186   1.406  11.927 -1.4743 -1.9033 -0.6570
 8870SOL     OW38242   2.611   3.022   6.906  0.3659  0.1424  0.2455
 8870SOL    HW138243   2.621   3.032   6.812 -0.6927  1.0861  0.2397
 8870SOL    HW238244   2.518   3.043   6.916  0.3918 -0.9217  2.8672
 8871SOL     OW38245   0.352   1.944   5.010 -0.2471  0.1150  0.0917
 8871SOL    HW138246   0.368   1.994   5.090  1.7400 -1.4979  0.7135
 8871SOL    HW238247   0.379   1.856   5.037  2.0506  0.0892 -2.3941
 8872SOL     OW38248   4.001   1.068   6.686 -0.6706 -0.1539  0.2353
 8872SOL    HW138249   3.924   1.123   6.696 -1.4550 -1.1064 -0.5450
 8872SOL    HW238250   4.065   1.136   6.664 -1.4658 -0.3776 -2.7765
 8873SOL     OW38251   0.065   3.446   7.094 -0.2376  0.0734  0.1910
 8873SOL    HW138252   0.100   3.428   7.182 -1.6564 -0.6109  0.6177
 8873SOL    HW238253   0.010   3.520   7.120  0.4107  0.9144 -0.8372
 8874SOL     OW38254   1.808   0.244   8.276  0.3431 -0.3111 -0.0713
 8874SOL    HW138255   1.787   0.327   8.319 -1.1991 -0.5582 -0.3323
 8874SOL    HW238256   1.780   0.177   8.338  0.0740  0.8191  1.0333
 8875SOL     OW38257   2.786   3.003  16.650  0.3006 -0.4390  0.2184
 8875SOL    HW138258   2.738   3.083  16.669 -0.8203 -0.6034 -1.9243
 8875SOL    HW238259   2.777   2.953  16.732 -2.4587 -0.9817 -0.4320
 8876SOL     OW38260   2.650   2.290   6.403 -0.3120  0.1260 -0.2691
 8876SOL    HW138261   2.571   2.277   6.457 -0.8427  0.6341 -0.9256
 8876SOL    HW238262   2.714   2.288   6.474  0.0679 -0.7161 -0.6285
 8877SOL     OW38263   1.184   4.093   2.640 -0.4134  0.7651 -0.4960
 8877SOL    HW138264   1.250   4.153   2.605 -0.0896 -0.4015 -1.8700
 8877SOL    HW238265   1.200   4.001   2.624  0.6133  0.9486 -0.5035
 8878SOL     OW38266   2.489   4.468   8.747  0.3807  0.0133  0.4494
 8878SOL    HW138267   2.470   4.561   8.739 -1.8628 -0.5300 -0.8502
 8878SOL    HW238268   2.398   4.438   8.740  0.7551 -1.3956  1.6907
 8879SOL     OW38269   1.179   4.675  10.298 -0.6990  0.2260  0.3641
 8879SOL    HW138270   1.165   4.696  10.391  2.0064  0.5500  0.7019
 8879SOL    HW238271   1.102   4.711  10.255 -2.4060 -2.3109  1.3066
 8880SOL     OW38272   3.660   3.804   7.642  0.1466  0.3874  0.1003
 8880SOL    HW138273   3.717   3.843   7.575 -0.2351 -0.7454 -0.8899
 8880SOL    HW238274   3.587   3.866   7.642 -0.3866 -0.2843  2.6448
 8881SOL     OW38275   3.439   1.571   2.499  0.1746  0.0283  0.0434
 8881SOL    HW138276   3.474   1.514   2.569 -1.9314 -0.9424  0.2940
 8881SOL    HW238277   3.506   1.638   2.510 -0.3616  0.0724  3.0533
 8882SOL     OW38278   1.992   1.957   1.370  0.1567 -0.3960 -0.4677
 8882SOL    HW138279   2.038   1.958   1.286 -0.4880  0.2549 -0.8124
 8882SOL    HW238280   1.964   1.865   1.367  0.2941 -0.5353  2.2993
 8883SOL     OW38281   3.183   1.494   2.415 -0.3896  0.3448 -0.0055
 8883SOL    HW138282   3.266   1.526   2.450 -0.9701  1.0492  0.7367
 8883SOL    HW238283   3.198   1.498   2.320 -0.9016 -2.1985 -0.1929
 8884SOL     OW38284   1.516   3.042   4.927 -0.4564  0.5911 -0.1677
 8884SOL    HW138285   1.581   2.979   4.895 -0.3050  0.6177  0.0833
 8884SOL    HW238286   1.454   3.024   4.857 -0.4014  0.3619 -0.1564
 8885SOL     OW38287   1.120   3.270   0.842 -0.0121 -0.3838  0.2915
 8885SOL    HW138288   1.073   3.345   0.877  1.8503  0.0658  1.8624
 8885SOL    HW238289   1.041   3.222   0.819 -0.3266  0.2243  0.1261
 8886SOL     OW38290   3.485   3.577   2.947  0.2426 -0.8776 -0.2214
 8886SOL    HW138291   3.531   3.546   2.869  0.9202  1.3442 -0.6940
 8886SOL    HW238292   3.561   3.591   3.004 -0.3486 -0.3579  0.4509
 8887SOL     OW38293   3.008   0.717   8.347  0.7048 -0.2432  0.1152
 8887SOL    HW138294   2.959   0.798   8.364 -0.8010 -1.4571  1.5356
 8887SOL    HW238295   3.088   0.739   8.394  1.2386  0.6545 -1.2049
 8888SOL     OW38296   1.993   2.142   6.494  0.1097 -0.0087  0.3432
 8888SOL    HW138297   1.918   2.118   6.549  0.1702  1.6411  1.1715
 8888SOL    HW238298   1.947   2.196   6.429 -0.2214  0.4987  0.9983
 8889SOL     OW38299   4.033   0.744   5.662  0.3120  0.4571  0.5976
 8889SOL    HW138300   4.049   0.830   5.624  1.6800 -0.0913 -0.0630
 8889SOL    HW238301   4.120   0.719   5.694  1.3978  1.3315 -1.7146
 8890SOL     OW38302   1.100   2.328   9.230 -0.0889 -0.7657 -0.7189
 8890SOL    HW138303   1.078   2.252   9.282  0.4991  0.3077  1.0821
 8890SOL    HW238304   1.191   2.347   9.252 -0.7508  2.5856 -0.7695
 8891SOL     OW38305   0.078   3.634   2.964 -0.0584  0.7808  0.6824
 8891SOL    HW138306   0.125   3.596   2.889 -1.9501 -0.6943  0.2378
 8891SOL    HW238307   0.147   3.616   3.028  0.6580  0.2510 -0.2301
 8892SOL     OW38308   2.252   4.674   1.998  0.4459 -0.4109 -0.3757
 8892SOL    HW138309   2.236   4.687   1.905 -0.0982 -0.6258 -0.3118
 8892SOL    HW238310   2.267   4.579   1.995  2.0128 -0.2155  0.9126
 8893SOL     OW38311   0.516   1.594   9.077  0.2780  0.7135 -0.3036
 8893SOL    HW138312   0.557   1.516   9.040 -0.0105  0.5123 -0.1953
 8893SOL    HW238313   0.434   1.586   9.029  0.4159  1.6147 -0.6929
 8894SOL     OW38314   3.795   1.259   8.348 -0.0578 -0.4907 -0.0512
 8894SOL    HW138315   3.820   1.313   8.274 -1.4204  1.1533  0.7103
 8894SOL    HW238316   3.722   1.312   8.379 -1.1013 -1.6550 -0.4878
 8895SOL     OW38317   0.720   3.969   1.750 -0.3384 -0.3932 -0.7236
 8895SOL    HW138318   0.634   4.000   1.724 -0.4092  1.1918  1.4073
 8895SOL    HW238319   0.715   3.878   1.718  1.3460 -0.7411 -0.0248
 8896SOL     OW38320   1.602   0.378   3.884 -0.4172 -0.1556 -0.1336
 8896SOL    HW138321   1.561   0.377   3.797 -0.3928  3.4505 -0.1940
 8896SOL    HW238322   1.685   0.417   3.856 -0.4314  0.6512  0.9420
 8897SOL     OW38323   1.250   4.584   3.421 -0.3004  0.3582 -0.5982
 8897SOL    HW138324   1.189   4.545   3.484  0.0558  1.1398  0.2358
 8897SOL    HW238325   1.211   4.671   3.409 -2.8378 -1.0131 -2.3256
 8898SOL     OW38326   4.202   2.689   3.222  0.2374  0.5911  0.3987
 8898SOL    HW138327   4.151   2.726   3.294 -0.7765 -1.3794  0.6993
 8898SOL    HW238328   4.269   2.652   3.279  0.3739 -1.2171 -0.9241
 8899SOL     OW38329   0.944   0.024  16.779  0.3351 -0.2525 -0.4877
 8899SOL    HW138330   0.998   4.708  16.719  0.1834 -0.3884 -0.5087
 8899SOL    HW238331   0.886   0.049  16.707  1.6324 -0.7082 -1.6761
 8900SOL     OW38332   2.041   4.652   7.521 -0.1098  0.0235  0.8262
 8900SOL    HW138333   2.087   4.723   7.477 -2.2611 -0.6654 -2.5011
 8900SOL    HW238334   2.015   4.697   7.602 -0.2322 -1.2655  1.5080
 8901SOL     OW38335   2.120   3.880   1.777 -0.0964 -0.2104  0.6016
 8901SOL    HW138336   2.148   3.851   1.690 -0.4332 -0.1151  0.4607
 8901SOL    HW238337   2.179   3.842   1.842 -1.1865 -1.6269  0.7549
 8902SOL     OW38338   3.678   0.290   8.999  0.4507 -0.0558 -0.4211
 8902SOL    HW138339   3.735   0.326   8.931 -1.3042  0.6179 -1.5318
 8902SOL    HW238340   3.618   0.237   8.948 -0.0468  0.5529 -0.4697
 8903SOL     OW38341   0.501   3.243   0.745 -0.3446 -0.4914  0.2135
 8903SOL    HW138342   0.513   3.166   0.800  1.4353  1.3050  2.3385
 8903SOL    HW238343   0.447   3.293   0.807  0.5789  0.8150 -0.0131
 8904SOL     OW38344   3.196   2.057   9.647  0.3334  0.2994  0.1757
 8904SOL    HW138345   3.136   2.058   9.722  1.4445  1.0583  1.0552
 8904SOL    HW238346   3.274   2.024   9.692  0.0422 -0.1939  0.3312
 8905SOL     OW38347   0.508   3.745   9.546  0.3416  0.1533 -0.3943
 8905SOL    HW138348   0.477   3.834   9.559 -0.1947 -0.0056 -0.5465
 8905SOL    HW238349   0.602   3.757   9.533  0.2172  0.3390 -1.1628
 8906SOL     OW38350   1.678   4.645  16.589 -0.3947  0.0959  0.2674
 8906SOL    HW138351   1.583   4.651  16.582 -0.5216  0.3647  2.4013
 8906SOL    HW238352   1.709   4.698  16.516  1.7637 -2.5606 -0.7547
 8907SOL     OW38353   2.448   3.874   7.460  0.1743  0.1893  0.1265
 8907SOL    HW138354   2.498   3.942   7.415  0.8010 -1.7465 -2.0747
 8907SOL    HW238355   2.468   3.888   7.553  1.2088 -1.1628  0.1142
 8908SOL     OW38356   0.216   1.003   4.173  0.3083 -0.1562 -0.2969
 8908SOL    HW138357   0.261   1.039   4.249  0.0953 -0.7425  0.1119
 8908SOL    HW238358   0.127   1.002   4.208  1.0569 -2.8051  1.5837
 8909SOL     OW38359   2.870   1.976   2.113 -0.3214 -0.0400 -0.0485
 8909SOL    HW138360   2.887   1.889   2.150  0.5088  0.3433  0.4831
 8909SOL    HW238361   2.787   1.984   2.160  0.5245 -1.0317  1.6051
 8910SOL     OW38362   2.299   4.604  17.256  0.3096 -0.1549 -0.0358
 8910SOL    HW138363   2.248   4.683  17.240 -2.9135 -1.8017  2.0647
 8910SOL    HW238364   2.381   4.638  17.291  0.2738  3.0519 -3.0639
 8911SOL     OW38365   1.862   2.013  10.062  0.5236  0.0954 -0.5228
 8911SOL    HW138366   1.911   1.993   9.982 -1.4464  0.0292 -1.7130
 8911SOL    HW238367   1.933   2.009  10.126  0.8083  1.0829 -0.7733
 8912SOL     OW38368   3.016   2.242  12.593  0.2437  0.2904 -0.0629
 8912SOL    HW138369   3.084   2.246  12.526 -0.9859  1.5078 -1.2413
 8912SOL    HW238370   3.056   2.277  12.673 -3.1365 -0.0871  1.8030
 8913SOL     OW38371   4.548   0.791   0.673  0.2452  0.3957  0.5061
 8913SOL    HW138372   4.559   0.879   0.709 -1.0056  0.1778  1.4088
 8913SOL    HW238373   4.472   0.768   0.726 -0.3331  0.9043 -0.0936
 8914SOL     OW38374   3.735   2.632   2.365  0.3626 -0.2549  0.3072
 8914SOL    HW138375   3.786   2.675   2.433 -0.4128 -0.7145  1.1712
 8914SOL    HW238376   3.778   2.547   2.361  1.8337  0.4015  2.2673
 8915SOL     OW38377   0.736   0.843   4.104  0.0180  0.2995 -0.1144
 8915SOL    HW138378   0.647   0.808   4.112 -0.3498  0.7009 -2.5701
 8915SOL    HW238379   0.787   0.768   4.135  0.1381  1.0749  1.5536
 8916SOL     OW38380   0.728   3.062  13.339  0.1745 -0.1111  0.1472
 8916SOL    HW138381   0.814   3.104  13.330  0.4519 -1.3292 -2.8880
 8916SOL    HW238382   0.712   3.077  13.432  1.7498 -1.6795  0.6661
 8917SOL     OW38383   2.516   1.642   8.305 -0.0763  0.2726  0.3800
 8917SOL    HW138384   2.471   1.640   8.389 -0.7620 -1.3716 -0.0228
 8917SOL    HW238385   2.550   1.554   8.289  1.1621  0.7315  0.5312
 8918SOL     OW38386   2.671   3.979   2.093  0.1338 -0.1087  0.5813
 8918SOL    HW138387   2.662   4.066   2.131  1.9200  0.0641  0.6381
 8918SOL    HW238388   2.754   3.981   2.046  0.3589 -1.0031  0.9405
 8919SOL     OW38389   0.357   1.700   8.097  0.2558  0.3054  0.1367
 8919SOL    HW138390   0.414   1.624   8.087 -2.8061 -1.9933  0.0203
 8919SOL    HW238391   0.360   1.725   8.190 -1.3783 -0.2464  0.3498
 8920SOL     OW38392   2.404   1.526  12.614  0.0438  0.2656 -0.0233
 8920SOL    HW138393   2.433   1.478  12.536  0.2937  1.2163 -0.5167
 8920SOL    HW238394   2.388   1.451  12.672 -1.4499  0.9666  0.4489
 8921SOL     OW38395   2.561   0.033   3.255 -0.1496 -0.2509  0.6399
 8921SOL    HW138396   2.647   0.073   3.239 -0.0693 -1.1364 -1.1903
 8921SOL    HW238397   2.537   0.020   3.163  0.7651  1.1653  0.2027
 8922SOL     OW38398   3.940   1.956   7.499 -0.2198  0.1976 -0.4836
 8922SOL    HW138399   3.948   1.972   7.405  1.0577  0.1620 -0.3810
 8922SOL    HW238400   4.033   1.964   7.521 -0.5481  1.0320  0.5788
 8923SOL     OW38401   2.792   2.408   4.395  0.0483 -0.1382  0.0707
 8923SOL    HW138402   2.883   2.439   4.398  0.1090 -0.2548 -0.4520
 8923SOL    HW238403   2.744   2.490   4.396 -2.3533 -1.5309 -0.9808
 8924SOL     OW38404   0.924   2.994   1.684  0.3537  0.1032 -0.0344
 8924SOL    HW138405   0.839   3.017   1.721 -0.5977 -0.5570 -1.7874
 8924SOL    HW238406   0.973   3.018   1.762 -0.1152 -0.7007  0.5043
 8925SOL     OW38407   0.966   0.225  13.237 -0.5612 -0.0364 -0.6804
 8925SOL    HW138408   0.973   0.207  13.143  0.7067 -1.0022 -0.4075
 8925SOL    HW238409   1.005   0.312  13.239 -0.3950 -0.0519 -2.4785
 8926SOL     OW38410   1.022   2.008   4.707  0.2610 -0.2807  0.5557
 8926SOL    HW138411   0.953   2.061   4.668  0.1881 -0.6603  0.1617
 8926SOL    HW238412   1.093   2.071   4.720 -2.0263  2.6547 -1.3633
 8927SOL     OW38413   3.493   1.643   0.240 -0.2983 -0.3541 -0.3055
 8927SOL    HW138414   3.504   1.639   0.335  0.3106  2.6786 -0.2595
 8927SOL    HW238415   3.547   1.571   0.207 -0.6952 -1.4598  1.4233
 8928SOL     OW38416   1.789   0.630  16.573 -0.2019  0.8152  0.5545
 8928SOL    HW138417   1.783   0.547  16.621  1.8755  1.1113  1.3431
 8928SOL    HW238418   1.880   0.659  16.575 -0.5591  1.9685  0.0147
 8929SOL     OW38419   4.483   4.198   2.479 -0.1019  0.0483 -0.1269
 8929SOL    HW138420   4.531   4.277   2.454 -1.0356  0.5466 -0.3321
 8929SOL    HW238421   4.461   4.209   2.572 -1.7885 -1.4014 -0.3562
 8930SOL     OW38422   3.157   1.936   6.907 -0.4691  0.3145  0.2986
 8930SOL    HW138423   3.067   1.907   6.892  0.0259  0.4110 -2.8224
 8930SOL    HW238424   3.162   2.021   6.863  0.7868 -0.0455 -0.2452
 8931SOL     OW38425   4.405   0.689   7.179  0.0857 -0.0105 -0.4162
 8931SOL    HW138426   4.337   0.724   7.121 -0.6224  0.4829  0.6986
 8931SOL    HW238427   4.481   0.706   7.124 -0.7135  1.0168 -1.2280
 8932SOL     OW38428   1.717   1.451   5.045  0.0971 -0.6194 -0.4101
 8932SOL    HW138429   1.775   1.430   4.972  0.5782  2.4228 -0.9154
 8932SOL    HW238430   1.681   1.537   5.023  0.5645 -0.7576 -1.7569
 8933SOL     OW38431   1.590   1.714   2.327  0.0185  0.0370 -0.0743
 8933SOL    HW138432   1.609   1.804   2.352 -0.4913 -0.1506  0.9775
 8933SOL    HW238433   1.597   1.723   2.232 -1.6711  2.2373  0.0063
 8934SOL     OW38434   0.622   0.417   3.970  0.0714 -0.0149  0.3743
 8934SOL    HW138435   0.622   0.375   4.056  0.5630 -0.5796  0.0983
 8934SOL    HW238436   0.548   0.475   3.985  1.2691  2.1038 -1.7194
 8935SOL     OW38437   1.015   3.802   0.695 -0.0815 -0.4387  0.8100
 8935SOL    HW138438   1.029   3.718   0.651  1.0955 -1.4465  3.1467
 8935SOL    HW238439   0.961   3.842   0.626 -0.0546 -2.5026 -0.4237
 8936SOL     OW38440   2.885   4.253   4.008 -0.1461  0.4369  0.2322
 8936SOL    HW138441   2.891   4.167   3.966 -0.1488 -0.2707  1.6999
 8936SOL    HW238442   2.974   4.270   4.037  0.2812  0.9523 -1.3835
 8937SOL     OW38443   3.230   2.150   5.814 -0.4136 -0.1914 -0.5580
 8937SOL    HW138444   3.211   2.070   5.863 -0.0175 -1.2348 -2.0744
 8937SOL    HW238445   3.325   2.146   5.818 -0.2765  0.7392 -2.7106
 8938SOL     OW38446   0.711   1.171  15.727  0.0168  0.3277  0.2456
 8938SOL    HW138447   0.643   1.105  15.715 -0.7002  1.2289 -0.5925
 8938SOL    HW238448   0.660   1.248  15.702  0.9219  1.5484  2.1599
 8939SOL     OW38449   4.291   0.116   7.939  0.3626  0.4957 -0.4234
 8939SOL    HW138450   4.222   0.066   7.984  0.8909  1.3877  1.3971
 8939SOL    HW238451   4.351   0.047   7.911 -1.0560 -0.1765 -1.7921
 8940SOL     OW38452   2.770   2.835  16.890  0.3602 -0.4039  0.2509
 8940SOL    HW138453   2.852   2.793  16.864  0.1397 -0.9348  0.4198
 8940SOL    HW238454   2.715   2.760  16.913  1.6974 -1.3499  0.3373
 8941SOL     OW38455   3.118   4.365   5.528  0.2952  0.0365  0.5502
 8941SOL    HW138456   3.077   4.432   5.473 -0.0273  1.0372  2.0324
 8941SOL    HW238457   3.044   4.304   5.525  2.3365 -2.4709  1.0253
 8942SOL     OW38458   4.290   0.988   3.643  0.6918  0.0353  0.0779
 8942SOL    HW138459   4.209   0.983   3.592 -0.0837 -1.5604  1.4526
 8942SOL    HW238460   4.333   0.904   3.625 -1.6202 -1.2945  0.7079
 8943SOL     OW38461   0.420   4.250   8.636 -0.1173 -0.0176 -0.1527
 8943SOL    HW138462   0.512   4.221   8.633 -0.0018  0.4544 -1.0962
 8943SOL    HW238463   0.391   4.188   8.703 -0.8124  2.7831  2.1158
 8944SOL     OW38464   0.314   3.416   0.860  0.0718  0.0280 -0.3133
 8944SOL    HW138465   0.239   3.435   0.916 -0.0873 -0.2390 -0.4351
 8944SOL    HW238466   0.376   3.469   0.911 -0.4987 -0.0831  0.4925
 8945SOL     OW38467   1.287   4.323   3.207 -0.0108 -0.2579 -0.3421
 8945SOL    HW138468   1.205   4.368   3.227 -0.5292 -0.9126 -0.9769
 8945SOL    HW238469   1.300   4.344   3.114  0.6346 -0.7470 -0.3675
 8946SOL     OW38470   0.997   3.613   5.917 -0.7882 -0.1895  0.0423
 8946SOL    HW138471   1.092   3.607   5.926 -0.7160  1.4035  0.3967
 8946SOL    HW238472   0.969   3.522   5.918 -2.2205  0.2360 -0.7070
 8947SOL     OW38473   2.890   2.051   4.015 -0.0557  0.1595  0.1610
 8947SOL    HW138474   2.882   1.958   4.039  1.2702  0.6149  2.3662
 8947SOL    HW238475   2.856   2.096   4.093 -1.0087 -2.4385  1.2478
 8948SOL     OW38476   2.900   0.987   8.363  0.3634  0.3444  0.3448
 8948SOL    HW138477   2.833   1.009   8.428 -0.5675 -2.8087  0.4287
 8948SOL    HW238478   2.976   1.038   8.391  1.3932  0.7514 -3.2423
 8949SOL     OW38479   2.382   2.107  16.447  0.2246 -0.3725 -0.1763
 8949SOL    HW138480   2.316   2.175  16.457  0.1160 -0.6809  1.1034
 8949SOL    HW238481   2.337   2.052  16.382 -0.6738 -0.0380  0.1743
 8950SOL     OW38482   3.488   3.845   1.201 -0.0442  0.1831 -0.1360
 8950SOL    HW138483   3.454   3.896   1.275  0.2402 -0.4817  0.4571
 8950SOL    HW238484   3.433   3.888   1.136  0.4878  1.1455  0.0400
 8951SOL     OW38485   4.120   0.444   8.800 -0.0054 -0.5613 -0.2378
 8951SOL    HW138486   4.148   0.408   8.884  1.0432  1.5940  0.3278
 8951SOL    HW238487   4.180   0.518   8.799 -2.0550  1.0818 -0.8644
 8952SOL     OW38488   4.735   2.266   9.536  0.1438 -0.3289  0.2182
 8952SOL    HW138489   0.008   2.341   9.595  1.7298  0.9883 -1.6648
 8952SOL    HW238490   0.088   2.269   9.499  0.1549  1.4542  0.3840
 8953SOL     OW38491   1.235   4.096   6.692 -0.0861  0.1093  0.4180
 8953SOL    HW138492   1.322   4.126   6.717  0.8540 -0.7691 -1.8668
 8953SOL    HW238493   1.193   4.066   6.773 -1.8312 -0.2491 -0.6122
 8954SOL     OW38494   3.360   4.574   6.129  0.1874  0.6409  0.0656
 8954SOL    HW138495   3.300   4.521   6.077 -0.7074  1.3434  0.3779
 8954SOL    HW238496   3.405   4.618   6.056 -0.7291  2.0157  0.3218
 8955SOL     OW38497   4.106   3.727   7.664 -0.0496 -0.2453  0.6428
 8955SOL    HW138498   4.185   3.674   7.655 -0.9238 -1.0372 -2.4327
 8955SOL    HW238499   4.101   3.720   7.759  0.2022  1.4341  0.7883
 8956SOL     OW38500   0.716   2.432   4.969 -0.1017  0.0489 -0.5610
 8956SOL    HW138501   0.685   2.352   5.010 -0.2767 -0.4776 -1.7040
 8956SOL    HW238502   0.679   2.497   5.029 -1.9671 -2.5308  1.0767
 8957SOL     OW38503   2.110   3.277   5.468 -0.6282  0.2551 -0.7303
 8957SOL    HW138504   2.116   3.187   5.437 -0.8503  0.2343 -0.7192
 8957SOL    HW238505   2.199   3.301   5.494 -2.4394  2.5363  3.4237
 8958SOL     OW38506   4.333   3.096   2.109  0.1261  0.4546  0.1329
 8958SOL    HW138507   4.394   3.097   2.182 -1.6334  0.2160  1.6010
 8958SOL    HW238508   4.258   3.142   2.148  0.8305  0.8562  0.9978
 8959SOL     OW38509   3.894   0.638   9.689 -0.3785 -0.4511 -0.0507
 8959SOL    HW138510   3.823   0.635   9.625 -1.2676 -1.7668  0.9843
 8959SOL    HW238511   3.903   0.543   9.695  2.2884 -0.2655 -1.0945
 8960SOL     OW38512   3.529   4.704   9.263  0.3545  0.5048 -0.1404
 8960SOL    HW138513   3.434   4.704   9.251  0.2436  0.9837  0.7123
 8960SOL    HW238514   3.560   4.661   9.183 -0.1378 -1.3444  0.6676
 8961SOL     OW38515   2.070   0.745  16.636  0.5159 -0.0278  0.4218
 8961SOL    HW138516   2.006   0.800  16.591  0.1496 -2.2735 -1.8377
 8961SOL    HW238517   2.077   0.793  16.718 -1.9556  0.0997  0.5630
 8962SOL     OW38518   2.031   3.822   2.223  0.0609 -0.0860  0.0518
 8962SOL    HW138519   2.087   3.763   2.172  0.1592  0.4074 -0.4086
 8962SOL    HW238520   2.054   3.901   2.174  1.0889  0.5530  1.5886
 8963SOL     OW38521   1.506   1.402   7.832 -0.1965  0.4103  0.2751
 8963SOL    HW138522   1.537   1.333   7.891 -0.8856  0.0325  0.1963
 8963SOL    HW238523   1.415   1.382   7.813 -0.0352  1.0404 -1.2124
 8964SOL     OW38524   1.917   4.024   1.872  0.1396 -0.0885 -0.0187
 8964SOL    HW138525   1.994   3.984   1.833  1.1981 -0.3686  2.3396
 8964SOL    HW238526   1.959   4.057   1.951  2.9019  0.7761 -1.8512
 8965SOL     OW38527   1.289   0.596   8.718  1.2573  0.2733 -0.4863
 8965SOL    HW138528   1.325   0.604   8.806  1.7494 -3.5190 -0.3426
 8965SOL    HW238529   1.312   0.504   8.701  1.9298  0.3532 -0.0024
 8966SOL     OW38530   0.831   1.891   1.590 -0.1464  0.5944 -0.5617
 8966SOL    HW138531   0.832   1.843   1.507 -1.8557 -0.0467 -0.2042
 8966SOL    HW238532   0.926   1.891   1.602 -0.2708 -0.8485  0.4919
 8967SOL     OW38533   3.526   2.465  16.234  0.1186 -0.6205 -0.0937
 8967SOL    HW138534   3.474   2.385  16.235 -1.2613  0.2616  0.0476
 8967SOL    HW238535   3.495   2.516  16.309  0.5105  0.4059 -0.6219
 8968SOL     OW38536   3.288   3.989   7.514 -0.1849 -0.4167  0.1966
 8968SOL    HW138537   3.257   3.911   7.559  0.6272 -0.5591  0.5184
 8968SOL    HW238538   3.269   3.970   7.422 -0.9643 -2.0285  0.7024
 8969SOL     OW38539   4.466   1.130   7.967  0.0016 -0.3582 -0.6070
 8969SOL    HW138540   4.407   1.057   7.949 -1.0697 -0.0144  1.5225
 8969SOL    HW238541   4.464   1.139   8.062  1.2282 -1.3701 -0.4792
 8970SOL     OW38542   4.493   2.102   3.303  0.0975  0.0948 -1.0942
 8970SOL    HW138543   4.431   2.130   3.370 -0.1268 -2.2671 -0.3391
 8970SOL    HW238544   4.476   2.008   3.302 -0.6022  0.2412 -3.0046
 8971SOL     OW38545   0.779   3.328   1.287 -0.1825  0.3573 -0.8816
 8971SOL    HW138546   0.794   3.242   1.326 -0.3836  0.0232 -1.5402
 8971SOL    HW238547   0.686   3.341   1.303 -0.3555 -1.7516 -0.2932
 8972SOL     OW38548   2.017   0.250  12.887  0.7821  0.5877 -0.1970
 8972SOL    HW138549   2.023   0.155  12.880 -0.8083  0.4762  0.0034
 8972SOL    HW238550   2.092   0.283  12.837 -1.4974  1.2683 -3.1641
 8973SOL     OW38551   0.654   2.491   6.473 -0.1299 -0.3853  0.0936
 8973SOL    HW138552   0.663   2.396   6.472  0.5354 -0.3116 -0.3047
 8973SOL    HW238553   0.744   2.519   6.489 -0.0882  0.9115 -2.4781
 8974SOL     OW38554   1.188   2.315  13.641 -0.3524  0.2533  0.4414
 8974SOL    HW138555   1.228   2.397  13.612 -0.7902 -0.1205 -1.1900
 8974SOL    HW238556   1.177   2.272  13.556 -1.1888  0.1949  0.5850
 8975SOL     OW38557   1.876   2.343   2.881 -0.0876  0.2925 -0.2270
 8975SOL    HW138558   1.969   2.329   2.863 -0.4618 -2.2003 -0.2714
 8975SOL    HW238559   1.840   2.287   2.812 -0.9436 -0.3102  0.7029
 8976SOL     OW38560   0.732   1.259   8.576  0.3116 -0.0877  0.5930
 8976SOL    HW138561   0.719   1.214   8.659 -1.8544  0.2323  0.4487
 8976SOL    HW238562   0.793   1.326   8.607  0.4086  1.4015 -2.8123
 8977SOL     OW38563   1.281   3.794   2.252 -0.1175  0.1790 -0.5507
 8977SOL    HW138564   1.214   3.746   2.301  0.6778 -0.8457 -0.4712
 8977SOL    HW238565   1.261   3.771   2.161  2.0630 -1.2841 -0.6580
 8978SOL     OW38566   4.535   1.552   3.399  0.0889  0.5889  0.0232
 8978SOL    HW138567   4.459   1.605   3.373  0.1101 -0.5502 -2.3966
 8978SOL    HW238568   4.502   1.520   3.483  0.6921 -0.7994 -0.2771
 8979SOL     OW38569   2.029   1.822   2.968 -0.1403 -0.4841 -0.0398
 8979SOL    HW138570   1.974   1.821   2.890  1.0331 -2.1029 -0.8535
 8979SOL    HW238571   2.099   1.877   2.932  1.7166 -2.0484  1.1095
 8980SOL     OW38572   0.777   1.730  16.900  0.5484 -0.0258  0.2368
 8980SOL    HW138573   0.726   1.661  16.858 -0.0491 -1.7285  3.7649
 8980SOL    HW238574   0.717   1.800  16.875  1.0925 -0.4070 -2.1036
 8981SOL     OW38575   2.707   1.268   0.502 -0.4893  0.5999 -0.3398
 8981SOL    HW138576   2.700   1.254   0.596  0.0751 -1.5288 -0.6049
 8981SOL    HW238577   2.751   1.352   0.506  0.7599 -0.0942  0.3291
 8982SOL     OW38578   4.406   4.503  12.912 -0.7010  0.0543 -0.2067
 8982SOL    HW138579   4.479   4.441  12.921  0.0588  1.2755  2.0200
 8982SOL    HW238580   4.437   4.561  12.843 -1.9670  0.5613 -0.3459
 8983SOL     OW38581   4.684   1.423   2.476 -0.6038 -0.3422  0.6887
 8983SOL    HW138582   0.040   1.425   2.449 -2.0186  0.8684 -4.0310
 8983SOL    HW238583   4.698   1.464   2.561  0.5767  0.7386 -0.0341
 8984SOL     OW38584   0.386   3.336  12.978 -0.4001  0.1538  0.5384
 8984SOL    HW138585   0.462   3.314  13.032  0.6840  3.0185  0.1543
 8984SOL    HW238586   0.418   3.422  12.951 -0.3044 -0.5236 -1.5103
 8985SOL     OW38587   3.165   2.788   9.722 -0.7332  0.1239  0.1128
 8985SOL    HW138588   3.118   2.778   9.639 -0.8173  0.0739  0.1671
 8985SOL    HW238589   3.218   2.865   9.700 -0.1952 -0.0852  0.7097
 8986SOL     OW38590   1.589   3.252   7.137  0.1062 -0.4043 -0.2626
 8986SOL    HW138591   1.616   3.234   7.047  0.1189  1.0346 -0.5410
 8986SOL    HW238592   1.513   3.193   7.138  0.2245 -0.5439  0.1884
 8987SOL     OW38593   3.408   4.005   4.380  0.1063  0.1409 -0.1752
 8987SOL    HW138594   3.327   3.957   4.363  0.5529 -0.6402 -0.1218
 8987SOL    HW238595   3.386   4.037   4.467  1.0198 -0.2053  0.1845
 8988SOL     OW38596   3.993   4.205   5.610 -0.2450 -0.5549 -0.1246
 8988SOL    HW138597   3.913   4.224   5.659  0.4019 -1.1101  1.1306
 8988SOL    HW238598   3.977   4.118   5.573 -0.1408 -1.5928  2.2928
 8989SOL     OW38599   1.005   2.941   2.055  0.3251  0.3433 -0.1897
 8989SOL    HW138600   1.089   2.965   2.016  0.0838  1.3636 -0.0720
 8989SOL    HW238601   1.018   2.855   2.095  0.8512  0.1075 -0.8628
 8990SOL     OW38602   3.554   2.225  10.247  0.8750  0.1664  0.0598
 8990SOL    HW138603   3.632   2.176  10.271  0.2700 -0.0974  1.5329
 8990SOL    HW238604   3.591   2.310  10.272 -1.1516  1.1850 -0.3327
 8991SOL     OW38605   3.115   3.765   7.626  0.5233 -0.8550  0.0357
 8991SOL    HW138606   3.112   3.772   7.721  1.0566  1.3666 -0.1347
 8991SOL    HW238607   3.092   3.672   7.618 -1.5759 -0.2678 -0.9977
 8992SOL     OW38608   2.314   2.243   3.134  0.2279  0.9155 -0.0035
 8992SOL    HW138609   2.384   2.249   3.200  1.2925 -0.4121 -1.0235
 8992SOL    HW238610   2.355   2.184   3.071 -2.5096 -0.8140 -0.1408
 8993SOL     OW38611   0.343   3.474  10.859 -0.1370 -0.2861 -0.1684
 8993SOL    HW138612   0.339   3.508  10.948 -3.8986 -0.5444 -0.2086
 8993SOL    HW238613   0.415   3.410  10.862  1.0130  0.9485 -1.8301
 8994SOL     OW38614   4.267   1.529   5.377  0.0924 -0.1289 -0.2562
 8994SOL    HW138615   4.342   1.528   5.317  0.6528 -3.4682  0.5367
 8994SOL    HW238616   4.275   1.443   5.417  1.2553  0.1531  0.1176
 8995SOL     OW38617   3.690   0.882   1.328 -0.4262  0.1342  0.5455
 8995SOL    HW138618   3.630   0.948   1.364 -0.4465  0.1467  0.4893
 8995SOL    HW238619   3.738   0.840   1.400  1.0533 -3.1522 -2.3444
 8996SOL     OW38620   2.433   0.699   6.755  0.1875  0.3986 -0.0624
 8996SOL    HW138621   2.397   0.698   6.666 -1.6272  1.3736  0.6508
 8996SOL    HW238622   2.423   0.791   6.781 -0.6550 -0.5407  2.8597
 8997SOL     OW38623   4.433   0.941  10.525 -0.4363  0.1856  0.3481
 8997SOL    HW138624   4.491   0.866  10.537  1.5458  2.1971  3.1186
 8997SOL    HW238625   4.467   1.002  10.591 -3.3807  1.4333  0.7198
 8998SOL     OW38626   1.505   4.109   6.735  0.4821 -0.4938 -0.0101
 8998SOL    HW138627   1.584   4.158   6.713  0.7080 -0.5004  0.7963
 8998SOL    HW238628   1.515   4.032   6.679 -0.2061 -0.3669 -0.3154
 8999SOL     OW38629   0.822   2.351   3.133 -0.1862  0.4450  0.3295
 8999SOL    HW138630   0.798   2.440   3.157 -0.2990  0.2802  0.8297
 8999SOL    HW238631   0.814   2.356   3.037  0.8305 -2.5623  0.0802
 9000SOL     OW38632   0.305   1.807   6.708 -0.1326  0.1532 -0.1197
 9000SOL    HW138633   0.315   1.716   6.681 -1.1892 -0.5466  1.8833
 9000SOL    HW238634   0.226   1.833   6.661  0.2971 -0.0688 -0.9737
 9001SOL     OW38635   3.479   0.310   4.791 -0.0286  0.6019 -0.0386
 9001SOL    HW138636   3.546   0.279   4.852 -1.1395 -0.8372  0.4687
 9001SOL    HW238637   3.451   0.383   4.847 -0.5493 -1.1136  1.9590
 9002SOL     OW38638   1.436   0.462   8.159  0.1036  0.3625 -0.2700
 9002SOL    HW138639   1.398   0.378   8.188  2.7920 -0.6055  0.4303
 9002SOL    HW238640   1.395   0.464   8.073 -0.1429  2.6554 -0.0909
 9003SOL     OW38641   0.756   0.615   7.342 -0.4113 -0.0135 -0.0155
 9003SOL    HW138642   0.721   0.574   7.422 -1.0867  1.5296  0.4784
 9003SOL    HW238643   0.813   0.538   7.331 -2.7435 -1.6285 -0.7990
 9004SOL     OW38644   3.155   0.551   3.043  0.3487 -0.1128 -0.4152
 9004SOL    HW138645   3.233   0.498   3.059  0.0765 -0.1077  0.9580
 9004SOL    HW238646   3.130   0.582   3.131  2.3758 -4.4672  1.6778
 9005SOL     OW38647   3.239   4.455   0.395  0.2823  0.1668  0.0367
 9005SOL    HW138648   3.286   4.500   0.325 -0.2222 -0.5106 -0.7337
 9005SOL    HW238649   3.203   4.384   0.341 -0.4103 -0.6889  1.6265
 9006SOL     OW38650   3.295   3.090   9.518  0.2914  0.2143  0.1132
 9006SOL    HW138651   3.370   3.128   9.473  0.8544 -1.8551 -0.6700
 9006SOL    HW238652   3.229   3.160   9.514 -1.5865 -1.7071 -2.4205
 9007SOL     OW38653   2.384   0.504   4.463  0.4379 -0.2502 -0.0397
 9007SOL    HW138654   2.346   0.493   4.550  2.6389  1.2513  1.1082
 9007SOL    HW238655   2.368   0.416   4.429 -2.1608 -0.7522  2.4525
 9008SOL     OW38656   4.160   1.195   5.312 -0.2827  0.1135  0.2836
 9008SOL    HW138657   4.079   1.176   5.264 -0.3930 -1.2932  1.0114
 9008SOL    HW238658   4.211   1.126   5.268 -0.4791 -0.8359  1.5436
 9009SOL     OW38659   2.175   1.023  10.783 -0.2025  0.1528 -0.1474
 9009SOL    HW138660   2.191   0.945  10.836  1.5666  1.2279  0.9256
 9009SOL    HW238661   2.163   1.090  10.850  1.8357  1.2673 -0.8931
 9010SOL     OW38662   0.429   1.503   1.521 -0.7314  0.1753  0.0614
 9010SOL    HW138663   0.466   1.454   1.595  0.5180 -0.8049 -1.1939
 9010SOL    HW238664   0.363   1.440   1.490  2.8536 -3.9681  0.7131
 9011SOL     OW38665   4.550   0.874   2.484 -0.4906  0.1098 -0.0430
 9011SOL    HW138666   4.491   0.938   2.444 -1.3464 -0.3138  0.5443
 9011SOL    HW238667   4.566   0.913   2.570  0.8399 -1.0413  0.2238
 9012SOL     OW38668   2.353   1.918  16.232  0.2175 -0.4854  0.5386
 9012SOL    HW138669   2.391   1.859  16.297  2.1882 -0.3616 -0.4850
 9012SOL    HW238670   2.374   1.874  16.149 -0.9919 -0.3951  0.1880
 9013SOL     OW38671   2.023   3.985  15.273 -0.5279  0.4174 -0.2975
 9013SOL    HW138672   2.049   4.043  15.344 -0.3693 -1.4890  1.1793
 9013SOL    HW238673   2.034   3.900  15.316  0.9435  0.1310 -1.2548
 9014SOL     OW38674   1.987   2.237   7.624 -0.1827  0.3986 -0.1830
 9014SOL    HW138675   1.992   2.202   7.713 -0.0990  0.0629 -0.3211
 9014SOL    HW238676   1.911   2.294   7.636  0.2718  0.7572  1.0033
 9015SOL     OW38677   1.161   2.112   9.604  0.3019  0.0211  0.1731
 9015SOL    HW138678   1.237   2.106   9.546 -0.7002 -0.6325 -1.0703
 9015SOL    HW238679   1.187   2.041   9.663  1.6095 -0.5400 -1.0828
 9016SOL     OW38680   1.994   2.453   4.803  0.7197  0.3494 -0.3820
 9016SOL    HW138681   2.016   2.499   4.722  2.0581 -0.0294 -0.2210
 9016SOL    HW238682   2.025   2.364   4.784 -0.2752  0.2663 -1.6547
 9017SOL     OW38683   2.117   1.089   5.942  0.4009  0.2672 -0.5196
 9017SOL    HW138684   2.183   1.048   5.886  0.6570 -1.7991  1.3006
 9017SOL    HW238685   2.049   1.122   5.884 -0.2794  2.0108  1.2464
 9018SOL     OW38686   3.618   0.706   9.972 -0.0905 -0.1774 -0.2086
 9018SOL    HW138687   3.535   0.702  10.020 -0.1914  2.3157 -0.1942
 9018SOL    HW238688   3.584   0.712   9.883 -2.0973  0.9829  0.6256
 9019SOL     OW38689   0.474   4.403  15.196  0.1696 -0.4871 -0.2975
 9019SOL    HW138690   0.473   4.370  15.286 -0.9459 -0.2701 -0.2351
 9019SOL    HW238691   0.384   4.408  15.167  0.1107  1.8865  0.2686
 9020SOL     OW38692   4.698   3.452   6.825 -0.6430 -0.2233  0.0738
 9020SOL    HW138693   0.012   3.515   6.774 -0.9026 -0.0960 -0.0256
 9020SOL    HW238694   0.015   3.456   6.904 -0.7736 -0.3227  0.1666
 9021SOL     OW38695   1.320   4.621   2.099  0.0906  0.2170 -0.3272
 9021SOL    HW138696   1.397   4.658   2.055  0.7740 -0.1049  0.5990
 9021SOL    HW238697   1.247   4.642   2.042  2.1591  5.0765 -1.2236
 9022SOL     OW38698   3.691   3.316   4.981  0.3201  0.1023 -0.1003
 9022SOL    HW138699   3.704   3.290   4.890 -0.1207  0.1503 -0.1774
 9022SOL    HW238700   3.773   3.296   5.026 -1.5906 -1.8144  2.5665
 9023SOL     OW38701   3.168   3.267   4.214  0.3216 -0.5321 -0.5179
 9023SOL    HW138702   3.149   3.350   4.170 -1.3399 -0.4500  0.3314
 9023SOL    HW238703   3.222   3.293   4.288 -1.5159  1.0740  0.2763
 9024SOL     OW38704   4.580   2.079   5.724 -0.4074 -0.8493  0.0299
 9024SOL    HW138705   4.594   1.998   5.773  2.5009  0.8211  1.9743
 9024SOL    HW238706   4.650   2.095   5.661  0.0259 -2.1127  0.1898
 9025SOL     OW38707   2.561   4.596   6.910 -0.1916  0.6258  0.6620
 9025SOL    HW138708   2.655   4.615   6.900 -0.2783  0.3717 -0.7653
 9025SOL    HW238709   2.529   4.682   6.936 -0.2672  1.2638 -1.5014
 9026SOL     OW38710   0.710   2.601   4.548 -0.3477 -0.4892 -0.2271
 9026SOL    HW138711   0.691   2.523   4.601 -1.2668 -0.9206 -1.1675
 9026SOL    HW238712   0.685   2.573   4.459 -1.9757 -1.0504  0.3937
 9027SOL     OW38713   4.653   2.219  14.078 -0.0685  0.4620  0.3800
 9027SOL    HW138714   4.584   2.230  14.014 -0.8940  0.4347  1.2732
 9027SOL    HW238715   4.682   2.309  14.090 -2.0958  1.1265  0.1982
 9028SOL     OW38716   1.962   0.620   1.023  0.0120 -0.1515  0.1813
 9028SOL    HW138717   1.938   0.620   0.931 -1.6907 -0.2735  0.6126
 9028SOL    HW238718   2.034   0.558   1.021  0.3465  0.2194  0.6691
 9029SOL     OW38719   4.636   4.671   8.891  0.5530  0.3794  0.3184
 9029SOL    HW138720   4.690   4.632   8.822  1.9514  0.4482  1.3647
 9029SOL    HW238721   4.554   4.627   8.871  1.7415 -2.2101  1.1532
 9030SOL     OW38722   1.722   2.077   1.324 -0.0978 -0.1066 -0.3861
 9030SOL    HW138723   1.673   2.008   1.371  0.0043 -0.2226 -0.4504
 9030SOL    HW238724   1.814   2.057   1.339 -0.2248 -0.5473 -0.1847
 9031SOL     OW38725   4.132   1.199   8.903  0.4654 -0.3140 -0.2659
 9031SOL    HW138726   4.182   1.118   8.908  0.9089 -0.1417 -1.8662
 9031SOL    HW238727   4.050   1.174   8.945  1.3776 -0.9961  1.1006
 9032SOL     OW38728   2.992   2.656   3.036 -0.3011 -0.1155  0.6638
 9032SOL    HW138729   3.050   2.656   3.112 -0.6613 -0.1116  0.9376
 9032SOL    HW238730   3.024   2.739   3.000  2.2142 -1.1099  0.5642
 9033SOL     OW38731   0.840   0.788   3.431  0.0919 -0.2239  0.1877
 9033SOL    HW138732   0.920   0.775   3.380 -1.3391  0.1578 -2.1371
 9033SOL    HW238733   0.840   0.883   3.422 -0.0510 -0.1842  0.6194
 9034SOL     OW38734   4.140   2.862   2.766 -0.7192 -0.7703 -0.7866
 9034SOL    HW138735   4.168   2.949   2.793  0.7287 -1.4865  0.0585
 9034SOL    HW238736   4.120   2.887   2.676  0.2477 -0.6075 -0.9630
 9035SOL     OW38737   3.682   4.350   7.602  0.0152 -0.3593 -0.4667
 9035SOL    HW138738   3.587   4.347   7.612  0.0441 -1.9606 -0.7180
 9035SOL    HW238739   3.695   4.437   7.642  0.4583 -0.1461 -1.0685
 9036SOL     OW38740   4.342   4.699   6.112 -0.6141  0.0557 -0.0262
 9036SOL    HW138741   4.372   4.610   6.131 -0.5847  0.4027  1.6014
 9036SOL    HW238742   4.393   0.015   6.175  0.4228 -1.5895  0.5036
 9037SOL     OW38743   0.053   1.166  10.621  0.3525  0.0473  0.5533
 9037SOL    HW138744   0.101   1.144  10.541 -0.5127  2.8545 -0.7327
 9037SOL    HW238745   4.698   1.143  10.602  0.6777 -2.6191  2.1805
 9038SOL     OW38746   4.208   0.357  11.537  0.4344  0.1581  0.5770
 9038SOL    HW138747   4.154   0.419  11.585  1.6079  0.6734  1.2392
 9038SOL    HW238748   4.243   0.312  11.614  1.6183  1.0611  0.5773
 9039SOL     OW38749   0.808   2.100   8.893  0.0305 -0.1825  0.3530
 9039SOL    HW138750   0.774   2.010   8.892 -1.7563  0.4894  0.4948
 9039SOL    HW238751   0.836   2.108   8.802  0.1234 -0.7648  0.3254
 9040SOL     OW38752   4.555   3.450  16.852 -0.3652  0.3352 -0.3282
 9040SOL    HW138753   4.627   3.497  16.895 -0.3795  0.4212 -0.3968
 9040SOL    HW238754   4.495   3.524  16.856  1.3793  1.7703 -0.7610
 9041SOL     OW38755   1.955   4.557   8.247 -0.1541 -0.3982 -0.1297
 9041SOL    HW138756   1.992   4.473   8.223 -1.9715 -0.9877 -0.8478
 9041SOL    HW238757   1.863   4.539   8.227 -0.5743  0.1269  1.3301
 9042SOL     OW38758   3.519   4.087   2.585 -0.4460 -0.2896 -0.2070
 9042SOL    HW138759   3.438   4.136   2.567  0.7337  0.6550 -2.9151
 9042SOL    HW238760   3.476   4.013   2.628  1.9281 -2.0407 -0.8626
 9043SOL     OW38761   0.723   1.619   2.944  0.6056  0.2024  0.5385
 9043SOL    HW138762   0.759   1.704   2.917  2.6142 -1.8074 -3.0193
 9043SOL    HW238763   0.781   1.562   2.894 -1.0404 -2.3131  1.5302
 9044SOL     OW38764   2.356   4.553   0.126  0.4222 -0.3969 -0.3213
 9044SOL    HW138765   2.352   4.497   0.204  0.4907 -0.8549 -0.6471
 9044SOL    HW238766   2.405   4.631   0.151 -0.5708  0.5456 -1.3203
 9045SOL     OW38767   4.706   1.443   6.454 -0.5026 -0.4296 -0.0066
 9045SOL    HW138768   0.022   1.378   6.407 -2.1350 -1.4038 -0.4750
 9045SOL    HW238769   0.014   1.461   6.537  0.2877 -0.7803 -0.3469
 9046SOL     OW38770   0.365   1.112  10.032 -0.4307  0.3692  0.3734
 9046SOL    HW138771   0.338   1.098   9.941  0.5113 -0.7408  0.2655
 9046SOL    HW238772   0.353   1.021  10.060 -0.1247  0.6120  1.2757
 9047SOL     OW38773   2.047   2.601   8.462 -0.2912  0.8681 -0.8082
 9047SOL    HW138774   2.075   2.637   8.378  0.4813 -1.0755 -1.3637
 9047SOL    HW238775   2.058   2.507   8.447 -1.7530  0.7196 -0.9511
 9048SOL     OW38776   1.648   2.296   6.774 -0.0290 -0.7732 -0.4054
 9048SOL    HW138777   1.604   2.265   6.854  1.0088  0.7301  0.7479
 9048SOL    HW238778   1.599   2.377   6.760 -0.5351 -0.6789  1.9476
 9049SOL     OW38779   0.771   3.302  12.184 -0.0040  0.4759  0.0545
 9049SOL    HW138780   0.820   3.376  12.219 -1.2896  0.3839  2.0330
 9049SOL    HW238781   0.683   3.324  12.214  0.0226 -1.3462  1.4803
 9050SOL     OW38782   0.044   4.520   1.842 -0.1227  0.7982  0.2842
 9050SOL    HW138783   0.011   4.604   1.876 -1.6249 -0.9359  3.2114
 9050SOL    HW238784   0.066   4.480   1.927  1.5358  1.8129  0.3238
 9051SOL     OW38785   2.267   0.171   3.059 -0.2413  0.3769  0.1213
 9051SOL    HW138786   2.180   0.182   3.098 -0.0489  0.9965  0.3807
 9051SOL    HW238787   2.315   0.150   3.139  1.8184  1.0504 -0.9566
 9052SOL     OW38788   1.555   0.887   0.511  0.0909 -0.7279  0.4065
 9052SOL    HW138789   1.514   0.948   0.573 -0.7236 -0.3207 -0.5379
 9052SOL    HW238790   1.481   0.863   0.456  0.6490 -1.1588 -0.1548
 9053SOL     OW38791   3.416   0.596   9.178  0.2066 -0.4085  0.4868
 9053SOL    HW138792   3.412   0.613   9.084 -0.1293 -1.6824  0.2614
 9053SOL    HW238793   3.505   0.618   9.204 -0.0625 -1.0890  2.0186
 9054SOL     OW38794   0.989   1.447   2.282  0.0862 -0.0124 -0.4357
 9054SOL    HW138795   0.910   1.404   2.314 -1.2261  2.3625 -0.5003
 9054SOL    HW238796   1.049   1.373   2.271  1.2709  1.0381 -0.9805
 9055SOL     OW38797   3.796   1.623   8.446 -0.6338 -0.1982  0.0180
 9055SOL    HW138798   3.876   1.654   8.404  0.7603 -3.4071  0.3068
 9055SOL    HW238799   3.755   1.708   8.460 -0.6334 -0.1938 -0.0067
 9056SOL     OW38800   2.678   3.332   0.911 -0.4482 -0.2004  0.0687
 9056SOL    HW138801   2.597   3.370   0.944 -1.0206 -2.4379  1.2403
 9056SOL    HW238802   2.676   3.244   0.948  2.8245 -0.5052 -0.4347
 9057SOL     OW38803   0.858   3.547   2.745 -0.2018 -0.3167 -0.0010
 9057SOL    HW138804   0.889   3.502   2.823  2.4149  0.3100 -0.6548
 9057SOL    HW238805   0.781   3.596   2.774  1.1285 -0.1449  3.2331
 9058SOL     OW38806   0.414   0.987   7.734  0.3070 -0.6867  0.2751
 9058SOL    HW138807   0.386   0.927   7.804  1.3952  1.5538  2.6470
 9058SOL    HW238808   0.488   1.035   7.773 -1.4267  0.8144  1.7462
 9059SOL     OW38809   2.173   4.264   6.021  0.2665 -0.0551  0.3093
 9059SOL    HW138810   2.084   4.259   6.054  0.1649 -2.3383 -0.2878
 9059SOL    HW238811   2.176   4.346   5.972 -0.1594  0.0791  0.5099
 9060SOL     OW38812   4.680   4.585   4.882  0.4309  0.3361  0.2365
 9060SOL    HW138813   4.677   4.527   4.958  0.1476  0.3226  0.2165
 9060SOL    HW238814   0.032   4.576   4.846 -0.3763 -2.3933 -1.0842
 9061SOL     OW38815   3.136   2.726  13.025  0.2657 -0.4610 -0.0686
 9061SOL    HW138816   3.112   2.815  13.052  0.5536 -0.8850  1.5769
 9061SOL    HW238817   3.160   2.687  13.109  0.7558 -1.5391 -0.7190
 9062SOL     OW38818   1.660   0.199   4.505 -0.0528 -0.2899 -0.4769
 9062SOL    HW138819   1.663   0.115   4.460  0.9542 -0.8297  0.5934
 9062SOL    HW238820   1.565   0.202   4.519  0.5684  2.3819  3.2714
 9063SOL     OW38821   4.554   2.264   4.422 -0.0084 -0.0231 -0.3299
 9063SOL    HW138822   4.507   2.291   4.344 -0.0813  0.4631 -0.1180
 9063SOL    HW238823   4.488   2.258   4.491 -0.2433 -1.9660 -0.7538
 9064SOL     OW38824   1.753   3.414   8.819 -0.2895 -0.1592 -0.0363
 9064SOL    HW138825   1.792   3.387   8.736  1.8156  0.0873  0.8946
 9064SOL    HW238826   1.665   3.442   8.793 -0.1069  0.4513  0.0213
 9065SOL     OW38827   0.809   3.710  12.544  0.1898 -0.1568 -0.1855
 9065SOL    HW138828   0.763   3.627  12.545  1.6008 -0.9439 -0.3703
 9065SOL    HW238829   0.896   3.681  12.573  0.0214 -0.2095  0.2772
 9066SOL     OW38830   2.104   0.193   8.566  0.1486  0.4463 -0.2265
 9066SOL    HW138831   2.095   0.181   8.471 -0.7184  0.7660 -0.1921
 9066SOL    HW238832   2.199   0.187   8.572  0.1588  0.7335 -0.1108
 9067SOL     OW38833   0.049   3.872   7.348 -0.1983 -0.3778 -0.2512
 9067SOL    HW138834   4.735   3.880   7.267 -0.6864  2.2987  0.3069
 9067SOL    HW238835   4.719   3.875   7.417  0.7402 -0.9028  0.6641
 9068SOL     OW38836   4.322   4.660   6.650  0.0506  0.0007 -0.0464
 9068SOL    HW138837   4.359   4.581   6.610 -2.6557 -0.2258 -2.1732
 9068SOL    HW238838   4.232   4.641   6.621 -0.0143 -1.7610  1.3072
 9069SOL     OW38839   2.516   0.622   7.591  0.2588  0.0042  0.1242
 9069SOL    HW138840   2.424   0.630   7.566  0.0676  0.6197  1.0269
 9069SOL    HW238841   2.511   0.550   7.653 -2.2246 -0.2704 -0.4009
 9070SOL     OW38842   0.947   3.857   5.793 -0.2226  0.2423  0.1956
 9070SOL    HW138843   0.873   3.805   5.823 -0.1261 -0.3520 -0.5726
 9070SOL    HW238844   1.012   3.791   5.765  1.2611  2.5634 -1.8677
 9071SOL     OW38845   2.233   3.181   2.942  0.1767 -0.3632 -0.2389
 9071SOL    HW138846   2.284   3.209   2.865  1.7835 -2.3620  0.0802
 9071SOL    HW238847   2.156   3.235   2.928  0.6836  0.4801  0.2097
 9072SOL     OW38848   1.024   0.601   4.765 -0.4697  0.2101 -0.0575
 9072SOL    HW138849   1.092   0.665   4.744 -0.4667  0.6323  1.2303
 9072SOL    HW238850   1.078   0.531   4.800 -0.4282  0.4808  0.4133
 9073SOL     OW38851   0.601   1.733  17.138  0.0368 -0.1003  1.1793
 9073SOL    HW138852   0.602   1.828  17.122 -2.6718 -0.2216  0.2834
 9073SOL    HW238853   0.680   1.703  17.093  0.7432  1.7899  1.1644
 9074SOL     OW38854   2.109   0.032  15.739  0.0230  0.4459 -0.1792
 9074SOL    HW138855   2.037   0.070  15.790  0.4975 -0.4915  1.1924
 9074SOL    HW238856   2.164   0.108  15.760  0.3976  0.8222 -2.4995
 9075SOL     OW38857   0.607   3.557   2.475 -0.0732 -0.5662 -0.2526
 9075SOL    HW138858   0.652   3.639   2.454  0.7508 -0.8389  0.4660
 9075SOL    HW238859   0.648   3.491   2.420  0.3650  0.9535 -1.7371
 9076SOL     OW38860   1.377   3.612   7.982 -0.2313  0.7645  0.1020
 9076SOL    HW138861   1.383   3.675   7.911 -0.6281  0.2901 -0.3508
 9076SOL    HW238862   1.318   3.648   8.048  1.9156  1.2707  1.7532
 9077SOL     OW38863   1.302   0.524   6.851 -1.1378 -0.2109 -0.9743
 9077SOL    HW138864   1.338   0.504   6.764  2.3352  2.1723 -0.0924
 9077SOL    HW238865   1.208   0.508   6.856 -1.1617  0.8086  1.5786
 9078SOL     OW38866   1.944   2.173   7.873 -0.3594 -0.1276  0.1750
 9078SOL    HW138867   1.969   2.091   7.916 -0.0220 -0.9049 -1.5232
 9078SOL    HW238868   1.859   2.155   7.834 -0.0006 -0.1763 -0.5793
 9079SOL     OW38869   1.605   1.460   7.380 -0.1405  0.7106 -0.2552
 9079SOL    HW138870   1.637   1.393   7.440  0.7904  1.0743 -0.3448
 9079SOL    HW238871   1.549   1.404   7.326 -0.4584 -0.2285  1.0430
 9080SOL     OW38872   3.635   1.747   5.547  0.4073 -0.5563 -0.1173
 9080SOL    HW138873   3.696   1.818   5.568 -0.5336  0.3720 -0.5550
 9080SOL    HW238874   3.672   1.673   5.595 -0.0992  0.2283  1.4777
 9081SOL     OW38875   4.095   3.133   6.312 -0.2133  0.6069 -0.7468
 9081SOL    HW138876   4.097   3.129   6.407  1.3837  1.1986 -0.7522
 9081SOL    HW238877   4.112   3.039   6.301 -1.4756  0.2094  0.7472
 9082SOL     OW38878   2.958   3.780  14.648 -0.5970 -0.4120  0.0206
 9082SOL    HW138879   2.966   3.866  14.690 -0.9977 -0.5173  0.3240
 9082SOL    HW238880   3.036   3.771  14.594 -0.6287  0.9827 -0.2447
 9083SOL     OW38881   2.941   3.456   6.338 -0.0640  0.2384  0.0651
 9083SOL    HW138882   2.960   3.377   6.390 -0.8222 -0.1128 -0.1790
 9083SOL    HW238883   3.030   3.481   6.316 -0.0586  0.2615  0.1119
 9084SOL     OW38884   0.431   3.158   4.671 -1.2079  0.2072 -0.2562
 9084SOL    HW138885   0.474   3.090   4.723  0.7781  2.0334  0.5200
 9084SOL    HW238886   0.483   3.146   4.591  0.4050 -1.2607  1.0059
 9085SOL     OW38887   2.622   4.230   1.813  0.3641 -0.6338  0.1735
 9085SOL    HW138888   2.674   4.194   1.741 -1.0293  0.3597 -1.3569
 9085SOL    HW238889   2.531   4.208   1.792  0.4010 -1.0944  0.4970
 9086SOL     OW38890   2.320   1.615   8.832  0.0418  0.3198  0.2400
 9086SOL    HW138891   2.346   1.526   8.851  1.4412  0.3063 -1.7138
 9086SOL    HW238892   2.227   1.609   8.810 -0.0110 -1.5872  1.0379
 9087SOL     OW38893   1.537   0.320   4.987 -0.2583 -0.5445  0.6368
 9087SOL    HW138894   1.563   0.234   4.954  0.8246  0.2698 -0.6561
 9087SOL    HW238895   1.522   0.313   5.081  0.8181  1.0895  0.9299
 9088SOL     OW38896   1.551   4.261   0.510 -0.9631  0.2419 -0.0542
 9088SOL    HW138897   1.576   4.255   0.602  1.6376  0.9452 -0.7148
 9088SOL    HW238898   1.600   4.185   0.477  0.3008  1.1142 -0.1936
 9089SOL     OW38899   0.757   0.606   9.142 -0.4032  0.4802  0.2910
 9089SOL    HW138900   0.814   0.562   9.079 -1.7362 -0.7674 -0.0196
 9089SOL    HW238901   0.824   0.628   9.208 -1.0391  1.4233  0.6241
 9090SOL     OW38902   3.515   4.662  11.596  0.3478  0.0048 -0.3644
 9090SOL    HW138903   3.481   0.014  11.616 -0.2562 -0.8559  2.2979
 9090SOL    HW238904   3.459   4.604  11.647 -0.4939  0.9581 -0.1934
 9091SOL     OW38905   0.798   2.770  12.646  0.0609 -0.3665  0.2313
 9091SOL    HW138906   0.761   2.832  12.709  0.0780  0.5093 -0.6256
 9091SOL    HW238907   0.736   2.758  12.574  1.2646  0.6739 -0.9580
 9092SOL     OW38908   3.886   3.564   1.763  0.1926  0.2604  0.3167
 9092SOL    HW138909   3.856   3.589   1.676  0.8193 -0.3323 -0.0690
 9092SOL    HW238910   3.937   3.484   1.749  0.4366  0.1344  1.9447
 9093SOL     OW38911   0.956   0.276  11.592  0.6699 -0.0860  0.3421
 9093SOL    HW138912   1.001   0.198  11.622 -0.4550 -0.5325  0.8667
 9093SOL    HW238913   1.018   0.339  11.555  1.8560  0.1718  2.7274
 9094SOL     OW38914   0.289   2.391  12.847  0.2297 -0.3068  0.2052
 9094SOL    HW138915   0.261   2.477  12.879  0.5044  0.6995 -2.2544
 9094SOL    HW238916   0.307   2.346  12.930  1.4505 -1.7910 -0.8721
 9095SOL     OW38917   0.787   4.098   2.266 -0.0933  0.3163 -0.2655
 9095SOL    HW138918   0.837   4.081   2.346  0.6802  0.7777 -0.6579
 9095SOL    HW238919   0.702   4.109   2.308 -0.6430  1.2301 -1.6106
 9096SOL     OW38920   1.073   1.551  16.327  0.3438 -0.8447  0.3723
 9096SOL    HW138921   1.142   1.556  16.392 -2.0727 -0.5600  2.9338
 9096SOL    HW238922   0.999   1.575  16.383 -2.0739 -0.9764 -2.7780
 9097SOL     OW38923   4.436   0.526  15.981 -0.2038 -0.2098  0.0247
 9097SOL    HW138924   4.502   0.532  16.051 -0.0097  4.0373 -0.5775
 9097SOL    HW238925   4.357   0.558  16.023  0.4059  1.9670 -0.5047
 9098SOL     OW38926   1.603   2.208  11.488 -0.3291 -0.1019  0.5686
 9098SOL    HW138927   1.684   2.249  11.457 -0.6953  0.7201  0.6905
 9098SOL    HW238928   1.552   2.285  11.513  0.9130  1.0487 -0.4001
 9099SOL     OW38929   0.064   4.434   8.437 -0.4297  0.2084  0.5327
 9099SOL    HW138930   0.099   4.345   8.431 -1.3812 -0.1839  0.8414
 9099SOL    HW238931   0.037   4.440   8.346  1.5083  1.6671  0.0468
 9100SOL     OW38932   3.200   2.695   4.157  0.0743  0.1538 -0.9083
 9100SOL    HW138933   3.220   2.632   4.087 -1.2564 -1.3307  0.0436
 9100SOL    HW238934   3.235   2.771   4.111  0.2698  0.3084 -0.5028
 9101SOL     OW38935   0.864   3.789   7.605 -0.2198 -0.0630  0.1225
 9101SOL    HW138936   0.846   3.881   7.586  2.5883  0.6396  0.8026
 9101SOL    HW238937   0.929   3.798   7.675 -1.1462  0.4904  0.9017
 9102SOL     OW38938   1.923   3.506   2.950 -0.1290 -0.3102 -0.1113
 9102SOL    HW138939   1.956   3.454   2.877  0.1320 -1.1022  0.5666
 9102SOL    HW238940   1.952   3.463   3.031  0.7901  0.7674  0.1230
 9103SOL     OW38941   2.006   1.028   4.409 -0.0360 -0.1706  0.3296
 9103SOL    HW138942   2.046   1.089   4.346 -1.2518  1.0017  0.6873
 9103SOL    HW238943   1.932   1.081   4.438 -1.2847 -1.6957 -0.0812
 9104SOL     OW38944   3.798   1.146   0.374  0.4267 -0.1985 -0.5309
 9104SOL    HW138945   3.729   1.152   0.307  2.3424  0.7611 -2.3988
 9104SOL    HW238946   3.795   1.052   0.395  4.3612  0.0559  1.0766
 9105SOL     OW38947   3.758   3.762   7.884  0.3969 -0.1485  0.4791
 9105SOL    HW138948   3.819   3.836   7.888  1.6431 -1.1002 -0.6843
 9105SOL    HW238949   3.742   3.765   7.790  2.7334  1.4360  0.1349
 9106SOL     OW38950   2.279   2.610   9.333 -0.5553 -0.0410  0.3124
 9106SOL    HW138951   2.314   2.690   9.294 -0.0647 -0.7332 -0.6387
 9106SOL    HW238952   2.332   2.542   9.292 -1.5027 -0.6731  0.1317
 9107SOL     OW38953   0.494   3.536   3.705  0.5853 -0.0476  0.6457
 9107SOL    HW138954   0.454   3.452   3.682  2.3133 -1.2278  1.9405
 9107SOL    HW238955   0.504   3.536   3.800 -1.3870  0.9601  0.8531
 9108SOL     OW38956   0.186   3.478   4.517  0.4978 -0.0994  0.1202
 9108SOL    HW138957   0.191   3.384   4.536 -0.4182 -0.3810 -1.0890
 9108SOL    HW238958   0.112   3.471   4.458  1.1315  0.4408 -0.7323
 9109SOL     OW38959   1.231   4.148  11.519 -0.1322 -0.4574 -0.0485
 9109SOL    HW138960   1.172   4.073  11.527 -0.6324 -0.0669 -0.1134
 9109SOL    HW238961   1.289   4.124  11.591  0.0517  0.8626  0.2382
 9110SOL     OW38962   2.641   0.898  15.222 -0.0584  0.2894 -0.2189
 9110SOL    HW138963   2.564   0.844  15.202 -0.2821  0.2176  0.8665
 9110SOL    HW238964   2.630   0.935  15.309  2.2388  2.1062 -0.6899
 9111SOL     OW38965   3.537   1.508   2.133  0.1542 -0.1874 -0.3070
 9111SOL    HW138966   3.496   1.447   2.072 -1.6919  3.5725 -2.8220
 9111SOL    HW238967   3.544   1.453   2.211  0.1143  1.0233  0.5463
 9112SOL     OW38968   4.594   1.705   5.391 -0.6221 -0.1232 -0.3088
 9112SOL    HW138969   4.595   1.645   5.465  0.9759 -0.1300 -0.3268
 9112SOL    HW238970   4.546   1.652   5.327 -0.7486 -0.1671 -0.1753
 9113SOL     OW38971   4.085   2.680   3.717 -0.2996  1.1010 -0.2177
 9113SOL    HW138972   4.124   2.703   3.633 -1.6243  0.7114 -0.9407
 9113SOL    HW238973   4.058   2.767   3.748  2.7398  1.3821  1.6790
 9114SOL     OW38974   0.648   2.558  10.407  0.6030 -0.1361 -0.1900
 9114SOL    HW138975   0.603   2.475  10.423  0.0939  0.0314 -0.7649
 9114SOL    HW238976   0.625   2.571  10.315 -2.5453 -1.5679  0.4013
 9115SOL     OW38977   3.396   0.882  11.892  0.1076 -0.4258  0.6270
 9115SOL    HW138978   3.329   0.903  11.827  1.3830 -2.4172 -1.3282
 9115SOL    HW238979   3.456   0.829  11.839 -1.3269  0.7977 -2.2183
 9116SOL     OW38980   3.908   3.044   2.327  0.1452  0.3938  0.1045
 9116SOL    HW138981   3.896   3.110   2.259  1.6341 -0.0264 -0.5589
 9116SOL    HW238982   3.820   3.035   2.365  0.0981 -1.0007 -0.3521
 9117SOL     OW38983   2.925   4.432   4.992  0.3160 -0.4489 -0.1319
 9117SOL    HW138984   2.849   4.373   4.992  0.2679 -0.3954  1.7351
 9117SOL    HW238985   2.889   4.512   5.031  0.7049 -0.4185  0.1650
 9118SOL     OW38986   3.826   3.844   2.373  0.4831 -0.3336 -0.0012
 9118SOL    HW138987   3.745   3.893   2.356 -0.0107 -0.5660  1.7651
 9118SOL    HW238988   3.879   3.919   2.401  1.5919 -0.6642 -1.1911
 9119SOL     OW38989   1.158   2.040   8.358  0.0939 -0.0343 -0.7783
 9119SOL    HW138990   1.133   2.084   8.276  0.3540 -3.6393 -2.8216
 9119SOL    HW238991   1.203   2.109   8.406 -1.7090 -1.3208  2.7834
 9120SOL     OW38992   3.548   0.781   7.666 -0.7219  0.5127  0.1608
 9120SOL    HW138993   3.580   0.741   7.585  0.0372  3.2652 -0.9043
 9120SOL    HW238994   3.586   0.869   7.673  0.9428 -0.2561  0.5653
 9121SOL     OW38995   4.027   1.958   5.745 -0.3051 -0.1264  0.0700
 9121SOL    HW138996   4.067   1.872   5.758 -0.2097 -0.2179 -0.8944
 9121SOL    HW238997   4.096   2.013   5.708  0.5156 -0.3025  1.2982
 9122SOL     OW38998   3.195   0.232  13.761  0.3458 -0.1089 -0.4904
 9122SOL    HW138999   3.150   0.207  13.841  1.4344  2.4396  0.9162
 9122SOL    HW239000   3.227   0.148  13.729  2.0424 -0.0032  0.9390
 9123SOL     OW39001   3.477   0.970   6.864 -0.2825 -0.5488 -0.2477
 9123SOL    HW139002   3.538   0.941   6.932 -0.9237 -0.8056  0.2182
 9123SOL    HW239003   3.538   1.003   6.798 -1.4480  1.7956 -0.1368
 9124SOL     OW39004   1.596   1.672   2.709  0.3223  0.0070 -0.0505
 9124SOL    HW139005   1.521   1.615   2.723  0.3787 -0.6266 -2.2862
 9124SOL    HW239006   1.559   1.758   2.729  0.3599 -0.7212  3.0025
 9125SOL     OW39007   1.009   3.260   9.552  0.4583 -0.4571 -0.8135
 9125SOL    HW139008   0.959   3.195   9.503 -1.9374  1.6254 -1.1168
 9125SOL    HW239009   0.989   3.339   9.502 -1.1128  1.0996  2.2453
 9126SOL     OW39010   3.009   1.620   1.341 -0.3372  0.0311 -0.3249
 9126SOL    HW139011   3.001   1.529   1.314  1.8243 -0.6564  1.2971
 9126SOL    HW239012   3.103   1.634   1.350 -0.3320  0.6328 -1.3387
 9127SOL     OW39013   4.470   2.603   5.501  0.1305  0.1744 -0.2427
 9127SOL    HW139014   4.414   2.615   5.424 -0.7676  1.5753  0.6327
 9127SOL    HW239015   4.407   2.556   5.556  1.0133  0.8108  1.2957
 9128SOL     OW39016   0.602   4.066  12.285  0.0268  0.1533  0.4723
 9128SOL    HW139017   0.611   4.099  12.196 -0.1430 -0.5517  0.1954
 9128SOL    HW239018   0.691   4.040  12.309  0.5895  0.4852 -1.2690
 9129SOL     OW39019   4.464   4.202   1.427  0.1932  0.2075  0.2659
 9129SOL    HW139020   4.442   4.129   1.485 -0.9626  0.4716  0.1787
 9129SOL    HW239021   4.554   4.186   1.400  0.1236 -2.1120  1.4565
 9130SOL     OW39022   2.596   3.649   5.684  0.5938  0.9063  0.2700
 9130SOL    HW139023   2.588   3.577   5.747 -1.5550  1.7112  0.8817
 9130SOL    HW239024   2.574   3.719   5.745 -2.0596  0.9810 -0.7766
 9131SOL     OW39025   0.092   4.537   5.254  0.6301 -0.0894  0.0878
 9131SOL    HW139026   0.150   4.611   5.234  4.2584 -2.6669  1.1106
 9131SOL    HW239027   0.144   4.475   5.305 -1.8644 -0.8980  1.6355
 9132SOL     OW39028   4.167   2.577  13.197  0.4398 -0.1391  0.3876
 9132SOL    HW139029   4.216   2.620  13.127 -2.1045  1.7318 -0.2592
 9132SOL    HW239030   4.113   2.650  13.228 -0.2143 -0.4784  0.0448
 9133SOL     OW39031   3.489   3.042   9.141 -0.3646 -0.3047 -0.3870
 9133SOL    HW139032   3.580   3.058   9.116 -0.5633 -1.3995 -1.8440
 9133SOL    HW239033   3.484   2.947   9.142  0.8092 -0.3484  0.6323
 9134SOL     OW39034   1.670   3.729   4.429  0.3378  0.3102  0.3464
 9134SOL    HW139035   1.677   3.634   4.443  0.8545 -0.1095 -2.7538
 9134SOL    HW239036   1.666   3.753   4.521 -2.8400 -0.1691  0.3437
 9135SOL     OW39037   4.532   3.874   2.922  0.2621 -0.1290  0.6436
 9135SOL    HW139038   4.556   3.793   2.876 -0.7206 -0.0450 -0.0190
 9135SOL    HW239039   4.608   3.932   2.925  1.4572 -1.5454 -1.9615
 9136SOL     OW39040   3.126   0.831   6.470  0.1899 -0.1479  0.1878
 9136SOL    HW139041   3.142   0.847   6.377  0.7175 -0.2341  0.2647
 9136SOL    HW239042   3.204   0.862   6.516 -1.0214  3.0832  0.0979
 9137SOL     OW39043   4.637   0.675   2.004 -0.2192 -0.4105  0.3686
 9137SOL    HW139044   4.546   0.647   2.010 -0.8092  1.5001  0.4315
 9137SOL    HW239045   4.674   0.692   2.091 -2.0664  0.6953  0.9426
 9138SOL     OW39046   3.824   0.859   6.561  0.1223  0.2102  0.6027
 9138SOL    HW139047   3.909   0.904   6.566  1.0579 -1.7583  1.9838
 9138SOL    HW239048   3.760   0.930   6.554  0.3095  0.3279  0.0590
 9139SOL     OW39049   3.196   3.958   2.897  0.4071 -0.3728 -0.4420
 9139SOL    HW139050   3.181   4.034   2.952 -0.5442 -0.0803 -1.1008
 9139SOL    HW239051   3.260   3.912   2.951  1.3225 -2.5856 -3.3850
 9140SOL     OW39052   0.200   2.834   9.678 -0.0918  0.3166  0.4413
 9140SOL    HW139053   0.228   2.875   9.760  1.5281 -1.6753  0.8773
 9140SOL    HW239054   0.276   2.798   9.632  1.6449  3.0589  1.1330
 9141SOL     OW39055   4.645   3.610  14.153  0.4223  0.0522 -0.0868
 9141SOL    HW139056   4.712   3.543  14.137 -0.0630 -1.2135  3.2762
 9141SOL    HW239057   4.656   3.675  14.083 -2.1441 -0.7661 -1.2596
 9142SOL     OW39058   0.835   2.187   4.594  0.0762  0.5209 -0.3976
 9142SOL    HW139059   0.897   2.214   4.527 -0.9032  0.6679 -1.2474
 9142SOL    HW239060   0.820   2.264   4.649  0.7444 -0.0281  0.5449
 9143SOL     OW39061   0.386   1.915  10.981 -0.0571  0.1728  0.3790
 9143SOL    HW139062   0.421   2.003  10.966  1.9587 -0.3581  1.9372
 9143SOL    HW239063   0.387   1.879  10.892  1.8095  0.0408  0.4622
 9144SOL     OW39064   3.389   0.678  10.942  0.1658 -0.0146 -0.1160
 9144SOL    HW139065   3.396   0.640  10.855 -0.0686  1.0814 -0.6072
 9144SOL    HW239066   3.348   0.760  10.913  0.3395  0.2941  0.4996
 9145SOL     OW39067   2.183   0.736   0.203  0.3487  0.3641 -0.0656
 9145SOL    HW139068   2.158   0.812   0.151  3.9524  1.2215 -0.5759
 9145SOL    HW239069   2.277   0.748   0.217 -0.3284  2.8111  2.2908
 9146SOL     OW39070   4.223   3.040   6.048  0.3136  0.5050 -0.1428
 9146SOL    HW139071   4.219   2.946   6.064 -2.3832  0.6792  0.1764
 9146SOL    HW239072   4.196   3.072   6.134 -0.1610  0.5996 -0.3276
 9147SOL     OW39073   4.243   4.357   6.697 -0.1082  0.8744  0.1345
 9147SOL    HW139074   4.178   4.426   6.683 -0.5120  0.5011  0.1492
 9147SOL    HW239075   4.214   4.326   6.783 -0.2366 -2.8473 -1.2766
 9148SOL     OW39076   3.839   0.348   8.153 -0.0832 -0.0054  0.1178
 9148SOL    HW139077   3.787   0.350   8.073  0.3519 -1.6849 -0.2045
 9148SOL    HW239078   3.785   0.378   8.226  0.4376 -1.4009  1.0899
 9149SOL     OW39079   3.172   0.951   6.223 -0.2217 -0.0037 -0.0487
 9149SOL    HW139080   3.125   0.957   6.140 -0.9103  0.5167  0.3819
 9149SOL    HW239081   3.155   1.032   6.270  0.1240 -0.4960  0.9303
 9150SOL     OW39082   3.375   2.018   6.663 -0.9571  0.2791  0.2973
 9150SOL    HW139083   3.340   1.950   6.606  0.2356  0.7143 -0.9731
 9150SOL    HW239084   3.456   2.025   6.611 -0.3602  0.5222  1.2548
 9151SOL     OW39085   3.672   2.254   5.618 -0.1958 -0.1948  0.1158
 9151SOL    HW139086   3.587   2.240   5.577 -0.2479  1.5624 -0.4012
 9151SOL    HW239087   3.733   2.235   5.547  2.2030 -0.7264  2.3414
 9152SOL     OW39088   0.723   0.859   8.829  0.0149 -0.3121 -0.4279
 9152SOL    HW139089   0.749   0.822   8.745 -0.5451  0.2907 -0.8701
 9152SOL    HW239090   0.779   0.813   8.891  0.6999  0.5608 -0.3985
 9153SOL     OW39091   2.992   3.280  17.568 -0.2495 -0.2271  0.3197
 9153SOL    HW139092   3.014   3.233  17.488 -0.3028 -0.9064  0.7037
 9153SOL    HW239093   3.066   3.338  17.585 -0.2878 -0.6194  1.8458
 9154SOL     OW39094   3.268   3.435   8.297  0.1105  0.2649  0.2487
 9154SOL    HW139095   3.229   3.357   8.337  0.2235  0.3309  0.4920
 9154SOL    HW239096   3.352   3.427   8.343  0.6893  2.2658 -0.4842
 9155SOL     OW39097   2.457   2.151   7.003 -0.3538  0.5697 -0.2943
 9155SOL    HW139098   2.376   2.150   7.054  0.6418 -2.9258  1.2036
 9155SOL    HW239099   2.463   2.057   6.988 -2.4942  0.3056  0.5154
 9156SOL     OW39100   2.001   0.148   5.625  0.2953 -0.0496  0.0077
 9156SOL    HW139101   2.010   0.055   5.606 -3.6980 -0.5508  0.5306
 9156SOL    HW239102   2.001   0.184   5.536  1.4926  0.3092  0.1524
 9157SOL     OW39103   4.253   3.388   2.636 -0.1509 -0.4750 -0.8453
 9157SOL    HW139104   4.280   3.479   2.649 -1.6116 -0.2774  0.8667
 9157SOL    HW239105   4.158   3.399   2.641 -0.0944 -1.1931  1.9558
 9158SOL     OW39106   2.477   0.779  14.304  0.1651 -0.6724 -0.1409
 9158SOL    HW139107   2.463   0.730  14.385 -1.4233 -0.4008 -0.2629
 9158SOL    HW239108   2.390   0.768  14.266 -0.8913 -0.1382  2.1285
 9159SOL     OW39109   1.942   1.241   9.064  0.3851 -0.2605  0.5882
 9159SOL    HW139110   1.968   1.150   9.073 -0.0735 -0.7538 -3.0160
 9159SOL    HW239111   2.004   1.262   8.994 -1.7724  1.3916 -0.8615
 9160SOL     OW39112   1.174   3.928   9.404  0.3153  0.5911  0.2458
 9160SOL    HW139113   1.160   4.008   9.353 -1.6009  0.1609  0.1049
 9160SOL    HW239114   1.245   3.877   9.365 -0.6424 -0.8912  0.4509
 9161SOL     OW39115   1.052   3.575   9.833  0.3667  0.5719  0.6330
 9161SOL    HW139116   1.137   3.532   9.830 -1.0011 -2.1685  0.9220
 9161SOL    HW239117   1.061   3.647   9.771 -0.8065 -0.9779 -1.3510
 9162SOL     OW39118   2.757   3.431   2.726  0.1997 -0.7936 -0.1493
 9162SOL    HW139119   2.845   3.427   2.763 -0.7139 -0.3128  2.0442
 9162SOL    HW239120   2.755   3.525   2.708  2.9828 -1.0398 -1.7972
 9163SOL     OW39121   4.484   0.386   2.201  0.2746  0.1251  0.3444
 9163SOL    HW139122   4.572   0.349   2.193  0.2687  0.0651  0.5700
 9163SOL    HW239123   4.441   0.317   2.150  0.7402 -0.0963  0.2531
 9164SOL     OW39124   0.820   4.721   9.030  0.8045 -0.1862 -0.0841
 9164SOL    HW139125   0.800   4.629   9.013  0.6834 -0.0220 -0.8375
 9164SOL    HW239126   0.912   4.717   9.002  0.5972 -1.7211 -0.5255
 9165SOL     OW39127   0.918   2.422   2.432  0.1038  0.5241  0.1316
 9165SOL    HW139128   0.915   2.464   2.518 -2.5348  3.0110 -1.1654
 9165SOL    HW239129   0.861   2.346   2.445 -0.4037  1.0292  0.8770
 9166SOL     OW39130   4.106   1.262   0.477  0.2289  0.5868  0.5409
 9166SOL    HW139131   4.059   1.315   0.412  0.5339  0.1484 -0.0358
 9166SOL    HW239132   4.057   1.180   0.489 -0.2358  0.6651 -0.8369
 9167SOL     OW39133   4.290   2.851   0.639  0.2760  0.6763 -0.2672
 9167SOL    HW139134   4.198   2.877   0.629 -0.0435  0.3218  1.6391
 9167SOL    HW239135   4.331   2.893   0.564 -0.5640  1.0558 -0.5215
 9168SOL     OW39136   1.679   1.361  14.561  0.1289 -0.2453 -0.9149
 9168SOL    HW139137   1.631   1.329  14.638 -0.9833 -0.0485 -1.5343
 9168SOL    HW239138   1.607   1.345  14.499  1.2900 -0.6664 -2.1454
 9169SOL     OW39139   2.870   4.024   7.383  0.8376  0.0748 -0.0793
 9169SOL    HW139140   2.906   3.972   7.311 -2.0102 -1.2592 -0.5314
 9169SOL    HW239141   2.785   4.053   7.351  0.7130  0.3333  0.4946
 9170SOL     OW39142   2.352   4.200   8.257  0.2878 -0.8005 -0.1835
 9170SOL    HW139143   2.436   4.224   8.217  0.5647 -1.4414  0.0146
 9170SOL    HW239144   2.349   4.263   8.329 -1.7915 -0.1227 -0.8568
 9171SOL     OW39145   3.074   2.944   4.671 -0.5259  0.2960 -0.0503
 9171SOL    HW139146   3.046   2.964   4.582  2.3699  2.8771 -0.3850
 9171SOL    HW239147   3.072   3.029   4.714  2.4118  0.5686 -0.4349
 9172SOL     OW39148   1.425   2.113  15.520  0.0425  0.7061  0.7299
 9172SOL    HW139149   1.475   2.175  15.467  0.9288 -0.4533  0.2197
 9172SOL    HW239150   1.475   2.104  15.601 -0.5729  1.7703  1.2341
 9173SOL     OW39151   3.325   4.473  17.644 -0.3004 -0.7759  0.1270
 9173SOL    HW139152   3.357   4.397  17.596 -0.9679 -1.9907  1.6125
 9173SOL    HW239153   3.310   4.539  17.577  0.4553 -1.3897 -0.6342
 9174SOL     OW39154   2.900   0.528   3.836 -0.5459  0.1680  0.6946
 9174SOL    HW139155   2.831   0.594   3.823  0.6666  0.9345 -1.6570
 9174SOL    HW239156   2.846   0.454   3.808  0.2960 -0.3900  0.5697
 9175SOL     OW39157   3.573   1.409   4.170 -0.0382 -0.1947  0.8959
 9175SOL    HW139158   3.666   1.405   4.193  0.2039 -1.1102 -0.2614
 9175SOL    HW239159   3.540   1.418   4.259  1.0418 -0.3255  1.3109
 9176SOL     OW39160   3.910   2.325   4.211  0.0372 -0.5808 -0.2668
 9176SOL    HW139161   3.848   2.320   4.283  1.5934  1.9204  1.2247
 9176SOL    HW239162   3.975   2.259   4.235 -0.2478 -0.4338  0.8891
 9177SOL     OW39163   0.207   0.308  15.247 -0.3876 -0.1397 -0.0643
 9177SOL    HW139164   0.211   0.319  15.153 -0.1912 -0.5987 -0.1076
 9177SOL    HW239165   0.293   0.267  15.260 -0.5249 -0.2131  0.6296
 9178SOL     OW39166   1.034   0.709  11.891  0.7667 -0.5791 -0.2395
 9178SOL    HW139167   1.120   0.671  11.910 -0.5755 -2.7099  1.5340
 9178SOL    HW239168   1.001   0.649  11.824  0.6799  2.0546 -2.5755
 9179SOL     OW39169   1.941   0.290  16.987 -0.1350 -0.3975 -0.5318
 9179SOL    HW139170   1.896   0.221  16.939 -0.3301 -0.0065 -0.9116
 9179SOL    HW239171   1.898   0.368  16.953  1.5872  0.2547 -1.2410
 9180SOL     OW39172   0.619   0.089   6.670  0.6351 -0.2431  0.0859
 9180SOL    HW139173   0.574   0.173   6.654 -0.6821 -1.0930 -0.6426
 9180SOL    HW239174   0.578   0.062   6.752  0.3319  1.7740  0.6038
 9181SOL     OW39175   2.794   2.786   2.875 -0.3453 -0.2364  0.0966
 9181SOL    HW139176   2.714   2.744   2.909 -2.1230  2.2222 -1.0866
 9181SOL    HW239177   2.832   2.721   2.816 -0.7453 -0.1838 -0.2190
 9182SOL     OW39178   1.794   4.665   3.278 -0.0247 -0.4097 -0.1146
 9182SOL    HW139179   1.763   4.632   3.362 -0.2929 -1.0069 -0.4440
 9182SOL    HW239180   1.881   4.697   3.298 -1.0635  2.9199 -0.9330
 9183SOL     OW39181   0.086   2.832   6.751 -0.4218  0.2901 -0.4824
 9183SOL    HW139182   0.171   2.793   6.728 -1.0924 -0.8635 -0.9688
 9183SOL    HW239183   0.064   2.792   6.835 -2.4774 -2.1652 -2.1883
 9184SOL     OW39184   4.157   0.586   2.323  0.2341 -0.3915 -0.2295
 9184SOL    HW139185   4.138   0.511   2.379  1.0587 -0.8904 -0.6135
 9184SOL    HW239186   4.212   0.637   2.382 -1.9791  0.7298  0.8754
 9185SOL     OW39187   2.966   3.321   4.970  0.4203  0.2235 -0.7020
 9185SOL    HW139188   3.004   3.328   5.058  2.0621 -1.8367 -1.2226
 9185SOL    HW239189   2.906   3.393   4.984 -1.9751 -1.8620 -0.2255
 9186SOL     OW39190   2.875   1.044   5.032  0.0989 -0.0168 -0.0503
 9186SOL    HW139191   2.789   1.033   4.992  0.4678  0.0823 -0.8673
 9186SOL    HW239192   2.862   1.116   5.093 -2.3956  1.3163 -2.1547
 9187SOL     OW39193   0.421   4.541   4.502  0.8869  0.2958 -0.1792
 9187SOL    HW139194   0.364   4.618   4.504 -0.0348 -0.4033  0.3776
 9187SOL    HW239195   0.461   4.554   4.588 -0.5221 -0.7788  0.6246
 9188SOL     OW39196   1.153   4.692   9.321  0.2463  0.1815  0.0740
 9188SOL    HW139197   1.185   4.697   9.231  0.9465  1.1299  0.3765
 9188SOL    HW239198   1.229   4.724   9.370 -0.7317  1.0965  0.9884
 9189SOL     OW39199   3.490   0.301   6.580  0.3908 -0.3635 -0.5716
 9189SOL    HW139200   3.586   0.302   6.582  0.3370  3.5008  0.1053
 9189SOL    HW239201   3.476   0.226   6.522  1.7307 -1.8140  0.9652
 9190SOL     OW39202   2.257   1.450   1.861  0.3215 -0.7409  0.1459
 9190SOL    HW139203   2.181   1.393   1.851  1.0833 -1.9054  0.9824
 9190SOL    HW239204   2.231   1.526   1.809  1.1887  0.6728  1.7679
 9191SOL     OW39205   1.383   1.558   2.440 -0.2127 -0.4357 -0.0517
 9191SOL    HW139206   1.453   1.610   2.400  0.7297 -1.4388  0.2825
 9191SOL    HW239207   1.300   1.600   2.421 -0.0014 -0.4940 -1.1277
 9192SOL     OW39208   1.054   0.922  14.035  0.1204  0.2347  0.2265
 9192SOL    HW139209   1.123   0.966  13.986 -1.1469 -0.7928 -2.4389
 9192SOL    HW239210   1.105   0.876  14.102 -1.8648 -0.1529  1.4967
 9193SOL     OW39211   0.174   0.982   7.637 -0.4385  0.2607 -0.4797
 9193SOL    HW139212   0.253   1.006   7.686 -0.0548  0.7724 -1.3387
 9193SOL    HW239213   0.100   1.004   7.694  1.5746 -1.0195  2.5815
 9194SOL     OW39214   1.541   2.534   6.709 -0.4835 -0.8620 -0.5448
 9194SOL    HW139215   1.454   2.531   6.748 -0.1411 -1.1381  0.2000
 9194SOL    HW239216   1.547   2.627   6.689  2.7177 -1.3121 -1.6020
 9195SOL     OW39217   4.381   3.291   3.229  0.3547 -0.3231  0.2345
 9195SOL    HW139218   4.396   3.197   3.242  1.0185 -0.4078 -1.1494
 9195SOL    HW239219   4.348   3.328   3.311  0.8584  2.6083 -0.8863
 9196SOL     OW39220   0.612   1.953  16.911 -0.0486  0.9029  0.3468
 9196SOL    HW139221   0.534   2.003  16.886  1.2283  1.9903 -1.4726
 9196SOL    HW239222   0.676   2.010  16.867 -2.6611  1.8738 -2.1807
 9197SOL     OW39223   0.613   0.990   3.143  0.3428 -0.3646  0.0248
 9197SOL    HW139224   0.678   1.006   3.211 -2.0683  0.1506  2.2075
 9197SOL    HW239225   0.574   0.908   3.174 -1.3604  0.5544  0.3226
 9198SOL     OW39226   1.449   4.640   9.276  0.2821  0.2088  0.1585
 9198SOL    HW139227   1.443   4.544   9.281 -0.1277  0.0600 -3.2343
 9198SOL    HW239228   1.479   4.635   9.185  2.2786  0.5358  0.7976
 9199SOL     OW39229   0.528   0.736   5.907 -0.1223  0.1389 -0.3857
 9199SOL    HW139230   0.572   0.775   5.983  2.6107 -2.5837 -0.5421
 9199SOL    HW239231   0.603   0.696   5.863 -1.3538 -0.3897 -1.9969
 9200SOL     OW39232   2.649   2.970  17.416  0.0056  0.3184  0.3932
 9200SOL    HW139233   2.626   3.062  17.399  0.8886  0.2462 -1.1773
 9200SOL    HW239234   2.647   2.935  17.326  2.0478 -1.0734  0.9064
 9201SOL     OW39235   1.677   4.661   7.304 -0.0755 -0.0101  0.6558
 9201SOL    HW139236   1.688   4.733   7.367  0.5540  1.8620 -1.6080
 9201SOL    HW239237   1.613   4.703   7.247 -0.4412  0.3529  1.3266
 9202SOL     OW39238   1.116   2.923   3.726 -0.2346 -0.3384 -0.4666
 9202SOL    HW139239   1.167   2.855   3.681 -0.2767  0.0126 -1.0427
 9202SOL    HW239240   1.042   2.933   3.666  0.1410  0.1570 -0.8354
 9203SOL     OW39241   4.732   0.927   2.996 -0.4486 -0.0119 -0.0985
 9203SOL    HW139242   0.051   0.952   3.070  0.1145  0.3015 -0.6157
 9203SOL    HW239243   4.653   0.975   3.018  0.2897  0.8137  0.7331
 9204SOL     OW39244   0.167   2.186   9.097  0.1881 -0.2246  0.0601
 9204SOL    HW139245   0.117   2.123   9.148 -1.7625 -0.4806 -2.1498
 9204SOL    HW239246   0.253   2.145   9.092  0.5313  0.5272 -0.2209
 9205SOL     OW39247   2.125   3.801  10.316  0.3030 -0.7417  0.1995
 9205SOL    HW139248   2.054   3.751  10.275 -0.3495 -1.0377  1.6811
 9205SOL    HW239249   2.189   3.736  10.287 -0.1324 -0.1292 -2.1150
 9206SOL     OW39250   4.511   0.589   8.363  0.0315 -0.1945  0.2426
 9206SOL    HW139251   4.525   0.646   8.288 -0.5245  0.7369  0.8402
 9206SOL    HW239252   4.601   0.575   8.395 -0.7768 -3.0306  1.3312
 9207SOL     OW39253   2.875   2.500   5.892  0.0004  0.9507 -0.2376
 9207SOL    HW139254   2.875   2.587   5.851 -1.3399  1.3728  0.6438
 9207SOL    HW239255   2.935   2.454   5.834 -0.3606  0.0383  0.1208
 9208SOL     OW39256   0.527   0.091   2.082 -0.2712 -0.4806  0.4547
 9208SOL    HW139257   0.491   0.103   1.993  0.2462 -0.3254  0.2682
 9208SOL    HW239258   0.600   0.032   2.068  0.4725  0.4806  0.2802
 9209SOL     OW39259   1.437   3.182  15.794 -0.0035 -0.4094 -0.2211
 9209SOL    HW139260   1.386   3.175  15.874  1.4567 -2.8788  0.4830
 9209SOL    HW239261   1.391   3.124  15.734 -1.7276  0.9350 -0.2100
 9210SOL     OW39262   3.455   3.547   6.075  0.1321 -0.1176  0.2531
 9210SOL    HW139263   3.508   3.496   6.014  1.5099 -0.4892  1.7677
 9210SOL    HW239264   3.499   3.521   6.156  0.0080  1.5606  0.8660
 9211SOL     OW39265   0.993   2.580   4.321  0.2245  0.1013 -0.2179
 9211SOL    HW139266   0.912   2.592   4.272  1.1930  0.5657 -1.6856
 9211SOL    HW239267   1.062   2.580   4.255  0.1156  3.5698 -0.3237
 9212SOL     OW39268   3.458   0.321   8.809 -0.5455  0.5762 -0.1047
 9212SOL    HW139269   3.486   0.375   8.736 -0.2892 -0.8434 -1.0477
 9212SOL    HW239270   3.381   0.368   8.842 -1.6054 -1.6450  0.6385
 9213SOL     OW39271   3.177   1.571   6.094  0.3601 -0.4159  0.3579
 9213SOL    HW139272   3.193   1.485   6.053 -0.8311 -0.2551 -0.4743
 9213SOL    HW239273   3.125   1.615   6.026  0.4725  2.1114  1.9506
 9214SOL     OW39274   1.660   0.569   7.255 -0.2070 -0.2794  0.0888
 9214SOL    HW139275   1.624   0.629   7.320  0.9288 -0.1588  0.6021
 9214SOL    HW239276   1.587   0.577   7.193 -0.1208 -1.3233 -0.1475
 9215SOL     OW39277   0.759   0.058   4.889  0.8969  0.2537 -0.3270
 9215SOL    HW139278   0.832   0.110   4.923  0.7745  0.0065  0.3263
 9215SOL    HW239279   0.756   0.079   4.796  0.8464 -0.4407 -0.4837
 9216SOL     OW39280   4.692   1.876   7.025 -0.1967 -0.0027 -0.3134
 9216SOL    HW139281   0.052   1.870   7.029 -0.1993  1.3176  1.6556
 9216SOL    HW239282   4.668   1.928   7.102  2.5893 -0.1293  0.6470
 9217SOL     OW39283   2.306   1.154   9.853 -0.2306 -0.6146  0.0571
 9217SOL    HW139284   2.250   1.129   9.926  1.2922 -0.8585  1.1500
 9217SOL    HW239285   2.355   1.073   9.841  0.4449  0.0813 -1.9960
 9218SOL     OW39286   3.565   2.494   8.982 -0.1385 -0.2556  0.7495
 9218SOL    HW139287   3.642   2.474   8.929  0.7020  2.3460  0.9848
 9218SOL    HW239288   3.608   2.551   9.046 -2.3189  0.6467  1.4107
 9219SOL     OW39289   0.910   3.991  15.682 -0.5834 -0.6173  0.0055
 9219SOL    HW139290   0.946   3.934  15.750  1.1083  1.8818  1.2033
 9219SOL    HW239291   0.863   4.053  15.738 -0.0113 -1.5891  1.5770
 9220SOL     OW39292   2.487   2.805   4.286 -0.2385 -0.0500  0.3198
 9220SOL    HW139293   2.438   2.793   4.205 -0.7390 -1.6602  0.8552
 9220SOL    HW239294   2.473   2.897   4.308 -0.1835  0.3738 -1.4138
 9221SOL     OW39295   1.735   2.247  15.910  0.7158 -0.2838  0.2472
 9221SOL    HW139296   1.807   2.202  15.954 -1.0245 -2.0465  1.2738
 9221SOL    HW239297   1.710   2.320  15.967  0.3058 -1.2312  1.2711
 9222SOL     OW39298   0.944   1.675   1.104 -0.2261 -0.5642  0.4236
 9222SOL    HW139299   0.914   1.609   1.042 -1.5649  0.8867 -0.4982
 9222SOL    HW239300   0.969   1.739   1.038  1.2172 -2.7966 -1.1828
 9223SOL     OW39301   3.049   0.788   8.075  0.3121  0.2799  0.0968
 9223SOL    HW139302   3.126   0.732   8.061 -0.7578 -0.9873 -0.6796
 9223SOL    HW239303   3.017   0.749   8.156  0.9192 -2.0097 -0.7583
 9224SOL     OW39304   0.022   2.626   3.819 -0.1826 -0.0600  0.4446
 9224SOL    HW139305   0.033   2.629   3.914  2.6590 -0.5458  0.1323
 9224SOL    HW239306   0.098   2.574   3.795 -1.3428 -1.6094  0.1286
 9225SOL     OW39307   2.043   4.600   5.587 -0.2268 -0.0262 -0.1233
 9225SOL    HW139308   1.988   4.592   5.509 -0.7962  0.0339  0.2796
 9225SOL    HW239309   2.061   4.507   5.599  0.2245  0.2312  1.1662
 9226SOL     OW39310   1.911   2.355   2.309  0.0604  0.1586  0.4291
 9226SOL    HW139311   1.970   2.428   2.327  1.3918 -1.0838  1.0527
 9226SOL    HW239312   1.922   2.341   2.215  0.7401 -0.2500  0.5716
 9227SOL     OW39313   1.136   2.939   9.558  0.0433 -0.0321  0.4695
 9227SOL    HW139314   1.163   2.990   9.481 -0.1224  0.8912  1.0232
 9227SOL    HW239315   1.178   2.855   9.539  2.1601  1.6344 -2.2642
 9228SOL     OW39316   1.505   1.928  17.230  0.2057  0.0099  0.0847
 9228SOL    HW139317   1.445   1.855  17.249 -0.9461  1.0094  0.3215
 9228SOL    HW239318   1.531   1.968  17.313  3.1285 -0.4808 -0.6003
 9229SOL     OW39319   1.925   2.158   8.182 -0.1632  0.3064 -0.1250
 9229SOL    HW139320   2.016   2.185   8.186 -0.2611  0.4554  1.2262
 9229SOL    HW239321   1.932   2.079   8.128 -0.7861  2.4875 -3.3418
 9230SOL     OW39322   2.592   4.524   2.844  0.2231 -0.4791  0.0486
 9230SOL    HW139323   2.511   4.500   2.799  0.6543 -2.3516  0.2862
 9230SOL    HW239324   2.640   4.561   2.771  0.8060 -1.4020 -0.0335
 9231SOL     OW39325   1.841   4.585   0.382  0.1516 -0.4891 -0.8080
 9231SOL    HW139326   1.920   4.579   0.330  0.2524 -0.6776 -0.6337
 9231SOL    HW239327   1.808   4.496   0.371 -0.7267 -0.1420 -0.9693
 9232SOL     OW39328   0.488   1.482   1.132 -0.7367  0.0148 -0.7885
 9232SOL    HW139329   0.498   1.522   1.218  1.3985 -1.7718 -0.2045
 9232SOL    HW239330   0.394   1.495   1.120 -0.7477  0.7490  0.0436
 9233SOL     OW39331   3.158   0.001   3.595  0.1327 -0.0031  0.6204
 9233SOL    HW139332   3.241   4.702   3.628  0.4149  0.0105 -0.0678
 9233SOL    HW239333   3.092   4.681   3.636  1.7766 -1.8241  0.7640
 9234SOL     OW39334   1.592   4.344   0.793  0.2258  0.4280  0.0949
 9234SOL    HW139335   1.503   4.311   0.783  0.6406 -0.2623 -1.2815
 9234SOL    HW239336   1.581   4.439   0.793 -2.0238  0.1612 -1.0338
 9235SOL     OW39337   3.738   1.542   4.397 -0.0282 -0.1477  0.0713
 9235SOL    HW139338   3.765   1.451   4.384  0.7220  0.1881 -0.6858
 9235SOL    HW239339   3.711   1.538   4.489  0.8355 -1.4147  0.2745
 9236SOL     OW39340   0.811   1.065  14.066  0.3454 -0.4733 -0.2636
 9236SOL    HW139341   0.895   1.019  14.064  0.4447 -0.3136  0.1941
 9236SOL    HW239342   0.841   1.156  14.060 -1.5106  0.1561  0.1335
 9237SOL     OW39343   2.763   1.743  17.127 -0.2417 -0.0479 -0.1716
 9237SOL    HW139344   2.800   1.797  17.197  1.5734 -0.3415 -0.8934
 9237SOL    HW239345   2.690   1.804  17.115  0.7050  1.0966 -0.1659
 9238SOL     OW39346   2.279   1.751   7.387 -0.1947  0.4754  0.2623
 9238SOL    HW139347   2.213   1.682   7.382  1.9383 -1.7363  2.5954
 9238SOL    HW239348   2.345   1.707   7.332  0.1091  0.0715  0.9457
 9239SOL     OW39349   2.918   0.223   1.613 -0.2831  0.1009  0.6165
 9239SOL    HW139350   2.917   0.296   1.675 -0.4827 -0.3879  1.1751
 9239SOL    HW239351   3.010   0.239   1.590  0.1150  1.3573  3.1550
 9240SOL     OW39352   3.115   4.326  17.692  0.4177 -0.0542 -0.7470
 9240SOL    HW139353   3.163   4.408  17.682  2.1571 -1.2896 -2.5360
 9240SOL    HW239354   3.027   4.364  17.690  0.4421  0.1020  1.0047
 9241SOL     OW39355   0.150   1.291   6.651  0.5314 -0.0723 -0.2751
 9241SOL    HW139356   0.230   1.241   6.665  0.6347  0.7151  2.0317
 9241SOL    HW239357   0.085   1.223   6.635  0.7610 -0.0846 -1.1274
 9242SOL     OW39358   0.179   4.687   3.748  0.1499  0.7703 -0.4288
 9242SOL    HW139359   0.183   0.042   3.718  0.8864  1.0223  0.4092
 9242SOL    HW239360   0.150   4.654   3.663  0.9479  2.1934 -1.2553
 9243SOL     OW39361   0.847   0.841  11.636 -0.1202  0.1063 -0.3588
 9243SOL    HW139362   0.863   0.915  11.578  0.5476  0.8273  0.7500
 9243SOL    HW239363   0.898   0.772  11.594  0.7590 -0.6739  1.9904
 9244SOL     OW39364   1.764   1.886  13.447  0.3868  0.7724 -0.2674
 9244SOL    HW139365   1.841   1.919  13.401 -0.1634  3.2021  0.5114
 9244SOL    HW239366   1.721   1.815  13.400  0.1062  1.0310 -0.4025
 9245SOL     OW39367   0.333   4.141   7.109 -0.3865 -0.3486  0.1940
 9245SOL    HW139368   0.422   4.172   7.094  0.0078 -2.0674 -1.0343
 9245SOL    HW239369   0.286   4.195   7.045 -0.1496  0.9743  1.1298
 9246SOL     OW39370   4.040   1.091   7.483 -0.3123  0.2532  0.5198
 9246SOL    HW139371   4.106   1.098   7.414 -1.0897 -0.5486 -0.3093
 9246SOL    HW239372   4.036   0.996   7.489  0.7794  0.3391  2.8624
 9247SOL     OW39373   0.999   0.895   6.397 -0.3280  0.3844  0.0291
 9247SOL    HW139374   1.079   0.938   6.429  0.5844 -1.0802 -0.2767
 9247SOL    HW239375   0.988   0.835   6.471 -0.5555  0.6490  0.2101
 9248SOL     OW39376   0.376   1.810   3.949  0.2088  0.1735 -0.0292
 9248SOL    HW139377   0.381   1.715   3.962  0.1081 -0.1316 -2.1237
 9248SOL    HW239378   0.405   1.816   3.858  0.3006 -1.3916 -0.1093
 9249SOL     OW39379   0.260   0.854  10.048  0.0260 -0.3546 -0.1129
 9249SOL    HW139380   0.190   0.881   9.989  1.5032  2.2038 -0.7165
 9249SOL    HW239381   0.221   0.767  10.057  1.2461 -1.0493 -1.6289
 9250SOL     OW39382   4.019   0.817   7.494 -0.2095 -0.1534 -0.0739
 9250SOL    HW139383   4.074   0.753   7.448 -1.7469  0.2821 -2.5025
 9250SOL    HW239384   3.974   0.764   7.560  0.0019  2.3859  2.1217
 9251SOL     OW39385   1.448   1.719  13.175 -0.0367 -0.1826  0.3871
 9251SOL    HW139386   1.407   1.646  13.128 -2.3761  0.7444  0.9752
 9251SOL    HW239387   1.400   1.707  13.257  1.0534 -3.9931  0.4798
 9252SOL     OW39388   2.970   1.154  17.199  0.1622 -0.3553  0.5440
 9252SOL    HW139389   2.883   1.190  17.181  0.2444 -1.4056 -1.9764
 9252SOL    HW239390   3.001   1.208  17.272 -0.0718 -1.7723  1.6873
 9253SOL     OW39391   4.306   3.509   5.806  0.3719 -0.1307 -0.0951
 9253SOL    HW139392   4.306   3.414   5.795 -1.4841 -0.1040 -0.2398
 9253SOL    HW239393   4.400   3.528   5.803  0.0675  1.4239  0.0841
 9254SOL     OW39394   3.033   1.605   5.186 -0.3755  0.2749  0.1882
 9254SOL    HW139395   3.053   1.512   5.201  2.2043  0.8180  0.1921
 9254SOL    HW239396   3.044   1.640   5.275 -0.2100  0.0003  0.2761
 9255SOL     OW39397   4.121   0.979   5.856 -0.0133  0.5928 -0.1654
 9255SOL    HW139398   4.091   0.922   5.927  2.3110 -0.4868 -0.0477
 9255SOL    HW239399   4.205   0.938   5.833 -0.9036 -0.1395 -2.1595
 9256SOL     OW39400   2.256   4.692   4.945 -0.1179  0.6119 -0.4210
 9256SOL    HW139401   2.160   4.689   4.942 -0.1266  0.2273  0.2591
 9256SOL    HW239402   2.264   0.048   4.968 -1.2663  0.5551  0.2236
 9257SOL     OW39403   0.161   0.485   2.649  0.0882  0.5346 -0.2189
 9257SOL    HW139404   0.134   0.567   2.607  1.6458  1.0185 -0.2654
 9257SOL    HW239405   0.226   0.457   2.585 -0.9947 -1.0645 -0.6244
 9258SOL     OW39406   0.425   3.992   9.578 -0.6116 -0.2527 -0.3073
 9258SOL    HW139407   0.342   3.969   9.619 -0.6192 -1.2295 -0.8819
 9258SOL    HW239408   0.449   4.070   9.628 -2.4871  1.5354 -2.1699
 9259SOL     OW39409   4.408   2.845  15.095  0.3967  0.3021 -0.0479
 9259SOL    HW139410   4.411   2.923  15.040 -0.0348  0.8359  0.6759
 9259SOL    HW239411   4.474   2.870  15.160  1.0883 -1.3825 -0.1077
 9260SOL     OW39412   1.172   2.672   9.952 -0.9757 -0.1076  0.2990
 9260SOL    HW139413   1.130   2.604   9.899 -1.5927  0.5448 -0.0558
 9260SOL    HW239414   1.162   2.640  10.042 -1.6585 -0.3090  0.1559
 9261SOL     OW39415   4.411   4.047   5.076  0.0272 -1.2171  0.1070
 9261SOL    HW139416   4.499   4.071   5.048 -0.4627  0.6306  0.1307
 9261SOL    HW239417   4.402   3.958   5.041  1.4319 -1.0516 -0.6403
 9262SOL     OW39418   0.211   2.690   6.341  0.6575  0.7416 -0.0836
 9262SOL    HW139419   0.294   2.696   6.388 -0.6805  2.0798  2.0624
 9262SOL    HW239420   0.179   2.776   6.365  0.3609  0.2623  1.2039
 9263SOL     OW39421   2.441   1.939   8.094 -0.2631  0.6316 -0.6922
 9263SOL    HW139422   2.355   1.906   8.120 -0.1073 -1.5760 -2.9310
 9263SOL    HW239423   2.440   2.034   8.102  1.5499  0.5046  0.9159
 9264SOL     OW39424   0.096   1.714  15.201 -0.0887  0.1176 -0.0435
 9264SOL    HW139425   0.145   1.642  15.242 -0.0967  0.0729 -0.1128
 9264SOL    HW239426   0.160   1.783  15.217 -1.5887  1.6760 -0.6909
 9265SOL     OW39427   1.455   3.137   7.445  0.1899  0.2865  0.2571
 9265SOL    HW139428   1.535   3.096   7.413  1.1613  2.2411  0.1355
 9265SOL    HW239429   1.472   3.149   7.538  0.7113  1.9545 -0.0406
 9266SOL     OW39430   1.267   1.444   6.551 -0.2351 -0.6353  0.4243
 9266SOL    HW139431   1.294   1.526   6.511  0.8811 -1.1652  0.0952
 9266SOL    HW239432   1.172   1.456   6.554  0.2221  3.3607 -1.3618
 9267SOL     OW39433   1.026   2.157  10.269 -0.4536 -0.0284  0.0440
 9267SOL    HW139434   0.961   2.226  10.285  0.6560  1.1367 -0.4729
 9267SOL    HW239435   1.063   2.186  10.186 -1.1665  0.0322 -0.2592
 9268SOL     OW39436   2.234   1.883   1.933 -0.5078 -0.5488  0.0199
 9268SOL    HW139437   2.278   1.834   1.864  0.5410  0.4620 -0.0350
 9268SOL    HW239438   2.143   1.864   1.909 -0.7430  2.4921 -1.5386
 9269SOL     OW39439   4.364   3.848  10.784 -0.8325  0.5393 -0.0509
 9269SOL    HW139440   4.277   3.888  10.783 -1.4139 -0.7234  1.1354
 9269SOL    HW239441   4.396   3.876  10.870 -0.4044 -0.8691  0.2482
 9270SOL     OW39442   3.872   4.136   4.165  0.0903 -0.3100  0.0862
 9270SOL    HW139443   3.897   4.052   4.126 -1.5604 -0.9208  0.3253
 9270SOL    HW239444   3.851   4.116   4.256 -3.5326 -0.6947 -0.8257
 9271SOL     OW39445   1.849   0.495   6.483 -0.0588  0.0375 -0.0826
 9271SOL    HW139446   1.817   0.405   6.492 -2.0398  0.7285 -0.4050
 9271SOL    HW239447   1.847   0.492   6.387 -1.4425  0.4898 -0.0556
 9272SOL     OW39448   3.570   0.565   2.721 -0.2192  0.0387 -0.2178
 9272SOL    HW139449   3.626   0.500   2.764 -1.7100 -0.1251  1.5172
 9272SOL    HW239450   3.549   0.520   2.639  0.6781  0.7531 -0.8358
 9273SOL     OW39451   2.871   2.420   8.113  0.0667 -1.2996 -0.7310
 9273SOL    HW139452   2.854   2.451   8.024  1.8156  0.1681 -0.5256
 9273SOL    HW239453   2.799   2.356   8.111 -1.2402  0.1689 -0.4685
 9274SOL     OW39454   2.438   0.998  11.530  0.3029 -0.4650  0.4393
 9274SOL    HW139455   2.517   1.032  11.488 -0.9968 -0.2122 -1.8234
 9274SOL    HW239456   2.456   1.008  11.623  2.9970  0.7633 -0.1992
 9275SOL     OW39457   0.589   1.698   4.695 -0.2611 -0.2285 -0.0366
 9275SOL    HW139458   0.617   1.784   4.664  0.1450  0.2694  1.7229
 9275SOL    HW239459   0.646   1.646   4.639 -0.9222 -1.3352  0.3157
 9276SOL     OW39460   0.674   1.345   9.299 -0.4602  0.3560 -0.1133
 9276SOL    HW139461   0.591   1.306   9.270 -0.1178 -0.9044  0.6138
 9276SOL    HW239462   0.714   1.286   9.362  3.1138  2.0730 -0.7744
 9277SOL     OW39463   0.134   0.634   4.181 -0.7223 -0.2846  0.2572
 9277SOL    HW139464   0.089   0.685   4.248 -0.1944  0.3439  0.1315
 9277SOL    HW239465   0.170   0.697   4.120  0.4552 -1.1992  0.0081
 9278SOL     OW39466   4.679   1.765  12.585 -0.0130 -0.1544  0.0512
 9278SOL    HW139467   4.694   1.671  12.569  0.2548 -0.5481  2.6241
 9278SOL    HW239468   4.622   1.755  12.661 -0.3160 -0.1305 -0.1731
 9279SOL     OW39469   4.150   1.708   7.415 -0.2954  0.2494  0.8018
 9279SOL    HW139470   4.144   1.666   7.500 -3.6830  0.9468  0.9412
 9279SOL    HW239471   4.211   1.778   7.437 -1.1488  1.2029  0.1794
 9280SOL     OW39472   1.591   0.030   2.042 -0.4201  0.0653 -0.2795
 9280SOL    HW139473   1.628   4.677   2.045  2.3461  1.1355 -2.6658
 9280SOL    HW239474   1.650   0.077   2.101 -0.1815 -0.3515 -0.1820
 9281SOL     OW39475   3.985   2.192   8.304 -0.3065 -0.0363  0.1075
 9281SOL    HW139476   4.022   2.166   8.219  0.9023  2.4213 -0.1479
 9281SOL    HW239477   3.925   2.118   8.307  0.9115 -1.0526 -0.5107
 9282SOL     OW39478   1.869   1.931   2.263  0.0584 -0.9284  0.9118
 9282SOL    HW139479   1.885   1.846   2.305  1.0272 -1.4759 -0.5634
 9282SOL    HW239480   1.825   1.897   2.185 -0.5610  1.6264  0.1432
 9283SOL     OW39481   4.525   1.000   8.857 -0.4072 -0.5251 -0.7426
 9283SOL    HW139482   4.552   0.946   8.930 -1.0718  1.3544  0.8822
 9283SOL    HW239483   4.440   0.963   8.835  0.1937 -2.3923  0.1481
 9284SOL     OW39484   1.731   4.201   6.653  0.1406  0.0530 -0.0090
 9284SOL    HW139485   1.734   4.132   6.587  1.4304 -0.2316  0.3416
 9284SOL    HW239486   1.817   4.183   6.691  0.1356 -2.0363 -1.0214
 9285SOL     OW39487   3.420   3.565   3.562  0.0767 -0.1970 -0.0220
 9285SOL    HW139488   3.461   3.568   3.475  0.9748  3.4986  0.4969
 9285SOL    HW239489   3.343   3.618   3.539 -0.6518 -0.4732  1.8281
 9286SOL     OW39490   2.334   2.533   6.200 -0.1484 -0.4754 -0.0967
 9286SOL    HW139491   2.372   2.593   6.136 -0.5111 -0.3938 -0.2354
 9286SOL    HW239492   2.241   2.556   6.194  0.2161  1.2254  1.1327
 9287SOL     OW39493   2.845   2.807   9.232  0.1926  0.4191 -0.7743
 9287SOL    HW139494   2.909   2.831   9.299  0.6263 -1.3214 -0.5664
 9287SOL    HW239495   2.766   2.783   9.279  1.8291 -0.2132  1.6877
 9288SOL     OW39496   0.932   3.573   7.456  0.3490  0.7656  0.0809
 9288SOL    HW139497   0.978   3.516   7.518 -2.0088 -0.7177  0.4799
 9288SOL    HW239498   0.908   3.651   7.506  0.8958  0.3488  0.9963
 9289SOL     OW39499   2.427   1.198   0.761 -0.0853 -0.0938  0.8442
 9289SOL    HW139500   2.460   1.145   0.833  0.0448  0.3183  1.0810
 9289SOL    HW239501   2.487   1.272   0.763 -2.5676  2.0055 -2.1583
 9290SOL     OW39502   3.068   3.447   3.390 -0.0613  0.0629 -0.6753
 9290SOL    HW139503   3.013   3.523   3.376  0.9845  0.9538 -0.0106
 9290SOL    HW239504   3.157   3.481   3.374 -0.9699  1.9935 -1.5966
 9291SOL     OW39505   0.442   3.586   2.050  0.2726  0.4008  0.0236
 9291SOL    HW139506   0.366   3.609   2.103 -0.0231  0.5875 -0.4765
 9291SOL    HW239507   0.492   3.668   2.048 -1.4952  1.4125 -2.8072
 9292SOL     OW39508   2.279   0.080   3.599 -0.8464  0.3581  0.3465
 9292SOL    HW139509   2.297   0.112   3.687  0.7439  0.1522  0.1085
 9292SOL    HW239510   2.310   4.725   3.603 -0.9370  0.2889 -0.4257
 9293SOL     OW39511   3.107   3.437   1.641 -0.7707 -0.5713  0.0602
 9293SOL    HW139512   3.148   3.513   1.599 -3.8946  0.8026 -0.4461
 9293SOL    HW239513   3.186   3.383   1.647  0.3502  0.7102 -3.0415
 9294SOL     OW39514   1.239   2.958   4.828 -0.4754 -0.7503  0.4245
 9294SOL    HW139515   1.158   2.955   4.879 -1.5913 -1.2924 -1.3686
 9294SOL    HW239516   1.201   2.994   4.747 -0.2644  0.4814  0.8693
 9295SOL     OW39517   0.855   4.183   9.384  0.0268  0.1443 -0.1361
 9295SOL    HW139518   0.813   4.268   9.373 -1.2471 -0.1591  2.3787
 9295SOL    HW239519   0.788   4.131   9.428  1.6044 -1.1628  0.7003
 9296SOL     OW39520   0.335   2.100   2.973  0.1658  0.0259  0.2053
 9296SOL    HW139521   0.341   2.137   3.061  1.9696  2.2867 -0.8811
 9296SOL    HW239522   0.411   2.041   2.976  0.7536  0.7713  0.0061
 9297SOL     OW39523   1.371   1.482  10.989  0.1947  0.7817 -0.2621
 9297SOL    HW139524   1.405   1.537  10.918  2.0065 -0.7656 -0.5645
 9297SOL    HW239525   1.278   1.485  10.963 -0.3070 -0.7244  1.3344
 9298SOL     OW39526   2.394   4.213  17.542 -0.2810 -0.4825 -0.6404
 9298SOL    HW139527   2.428   4.202  17.631 -0.7735 -1.9669 -0.6382
 9298SOL    HW239528   2.361   4.125  17.526 -2.2361 -0.1408  1.3882
 9299SOL     OW39529   0.449   1.866   9.636  0.3725 -0.2293  0.4677
 9299SOL    HW139530   0.484   1.870   9.547  1.3014  0.6650  0.8791
 9299SOL    HW239531   0.519   1.910   9.686 -0.5252  2.1411 -0.3794
 9300SOL     OW39532   2.348   4.377   0.372  0.3494 -0.4147  0.5162
 9300SOL    HW139533   2.342   4.282   0.384  0.3609 -0.1463  2.5910
 9300SOL    HW239534   2.441   4.391   0.354  0.0891 -0.8178 -1.1575
 9301SOL     OW39535   4.313   3.427   3.463 -0.1835 -0.5887  0.0349
 9301SOL    HW139536   4.252   3.459   3.529 -0.2592 -3.0552  1.1150
 9301SOL    HW239537   4.395   3.426   3.513 -0.5403 -0.8467  0.6084
 9302SOL     OW39538   4.242   0.121  12.611 -0.0293  0.0063 -0.4385
 9302SOL    HW139539   4.270   0.074  12.533  0.6093 -1.0761  0.4523
 9302SOL    HW239540   4.317   0.178  12.627  0.1042  0.9279 -4.3259
 9303SOL     OW39541   0.493   3.273  12.341 -0.0090 -0.1503  0.1750
 9303SOL    HW139542   0.466   3.364  12.350  0.6914  0.1846 -1.1631
 9303SOL    HW239543   0.452   3.230  12.416 -1.6908 -0.3532 -0.8720
 9304SOL     OW39544   4.430   4.000   4.627  0.7369  0.2220  0.1152
 9304SOL    HW139545   4.446   3.975   4.536  4.0424  0.4244  0.6351
 9304SOL    HW239546   4.497   3.949   4.672 -0.5121 -2.7410 -1.4260
 9305SOL     OW39547   2.498   4.351   6.126  0.0785 -0.7324 -0.1384
 9305SOL    HW139548   2.420   4.402   6.146 -0.3440 -1.0821 -0.9088
 9305SOL    HW239549   2.462   4.279   6.074 -3.3084 -0.9478  2.4953
 9306SOL     OW39550   1.588   2.338   9.357  0.0066 -0.2382  0.4456
 9306SOL    HW139551   1.606   2.272   9.290  1.2691  0.3171  0.2492
 9306SOL    HW239552   1.669   2.387   9.361  1.4176 -2.3135 -2.6516
 9307SOL     OW39553   0.878   1.033   1.941 -0.1221  0.2305  0.1921
 9307SOL    HW139554   0.840   0.945   1.940 -1.1900  0.7009 -0.4502
 9307SOL    HW239555   0.899   1.039   2.034 -1.1034  1.9127  0.2979
 9308SOL     OW39556   1.854   0.592   2.432  0.0487  0.0663  0.3104
 9308SOL    HW139557   1.814   0.511   2.463 -0.3656 -0.0257 -0.4823
 9308SOL    HW239558   1.837   0.648   2.508  1.7617 -0.8555  1.3759
 9309SOL     OW39559   3.935   2.048   4.709 -0.2630 -0.1619 -0.4955
 9309SOL    HW139560   3.891   2.107   4.770 -0.7508  0.7778 -1.7527
 9309SOL    HW239561   3.901   2.096   4.633  0.6640  1.3224  0.0293
 9310SOL     OW39562   1.292   2.789   5.767 -0.1548  0.1831  0.2881
 9310SOL    HW139563   1.313   2.801   5.859  2.1339  4.1430 -0.7507
 9310SOL    HW239564   1.315   2.697   5.751 -1.8040 -0.2295  0.2409
 9311SOL     OW39565   4.658   0.477   3.870  0.0081  0.4847 -0.2959
 9311SOL    HW139566   4.643   0.391   3.830  0.1816 -1.0322  2.9212
 9311SOL    HW239567   4.735   0.504   3.820  1.3596 -1.6073  0.6462
 9312SOL     OW39568   1.854   2.163   3.914 -0.4394 -0.0776 -0.6027
 9312SOL    HW139569   1.820   2.208   3.837 -2.4298 -2.0013 -0.8822
 9312SOL    HW239570   1.773   2.127   3.952  0.0874 -0.2420  0.3609
 9313SOL     OW39571   0.534   3.989   3.986  0.9175  0.2565  0.2706
 9313SOL    HW139572   0.466   3.968   4.050  2.7208 -0.1196  2.0684
 9313SOL    HW239573   0.602   3.925   4.008  1.1191  0.3143 -0.2020
 9314SOL     OW39574   0.826   1.616   9.756  0.4294 -0.1088 -0.1226
 9314SOL    HW139575   0.896   1.650   9.700 -0.7014  0.4003 -1.2193
 9314SOL    HW239576   0.750   1.612   9.698  0.0340 -2.5997  0.5713
 9315SOL     OW39577   1.026   0.456   2.018  0.3077 -0.2967 -0.1499
 9315SOL    HW139578   0.945   0.422   1.981 -0.0585  0.0761  0.3139
 9315SOL    HW239579   1.022   0.543   1.978  1.1478 -0.2646 -0.1687
 9316SOL     OW39580   0.465   2.673   9.624 -0.0597  0.0618  0.1221
 9316SOL    HW139581   0.529   2.646   9.558 -0.6387 -2.0042  0.3987
 9316SOL    HW239582   0.411   2.594   9.620 -0.8386  0.5955  0.0429
 9317SOL     OW39583   4.148   3.596  13.496 -0.1343 -0.0483 -0.0113
 9317SOL    HW139584   4.233   3.559  13.521  1.0049  2.9269  0.6174
 9317SOL    HW239585   4.143   3.566  13.406 -0.6733  0.7020 -0.2285
 9318SOL     OW39586   0.217   1.144   0.530  0.2439  0.2185 -0.4005
 9318SOL    HW139587   0.196   1.134   0.623 -2.1199 -2.7396 -1.2588
 9318SOL    HW239588   0.255   1.232   0.532 -2.7448  1.5172 -0.8177
 9319SOL     OW39589   1.291   4.407   8.578 -0.1233  0.4063  0.0842
 9319SOL    HW139590   1.237   4.446   8.509  0.7965 -0.9189 -1.3603
 9319SOL    HW239591   1.293   4.317   8.546  2.1823  0.1501  0.9675
 9320SOL     OW39592   1.814   4.265   1.755  0.1621  0.1890  0.2876
 9320SOL    HW139593   1.835   4.173   1.776  3.4618  0.6639 -0.8534
 9320SOL    HW239594   1.725   4.266   1.720  0.1338 -3.0912  0.2628
 9321SOL     OW39595   1.914   1.238   3.705 -0.2897  0.1680  0.1694
 9321SOL    HW139596   1.836   1.289   3.683  1.0954  1.8777 -0.8387
 9321SOL    HW239597   1.908   1.177   3.631  1.3692  0.9079 -0.5739
 9322SOL     OW39598   0.587   1.954   4.066  0.3413 -0.0264  0.1084
 9322SOL    HW139599   0.644   1.970   3.991  0.3241  1.5093  0.4223
 9322SOL    HW239600   0.514   1.905   4.028  0.3628  2.0504 -2.5916
 9323SOL     OW39601   1.197   0.139  11.618  0.2634  0.0374  0.0091
 9323SOL    HW139602   1.197   0.069  11.554 -1.7665  0.0673 -0.0373
 9323SOL    HW239603   1.273   0.188  11.586  0.7289  0.1775  1.3338
 9324SOL     OW39604   2.904   1.577   2.777  0.0150 -0.6970 -0.6715
 9324SOL    HW139605   2.891   1.664   2.814  1.2260 -1.8186  2.4598
 9324SOL    HW239606   2.819   1.568   2.736 -0.0589  1.1779 -0.9226
 9325SOL     OW39607   3.784   2.752   7.067  0.5242 -0.1678 -0.2543
 9325SOL    HW139608   3.738   2.768   6.985  1.4402  0.1799 -0.7043
 9325SOL    HW239609   3.748   2.829   7.111  1.2001  0.1101 -0.1792
 9326SOL     OW39610   1.032   1.007   4.935  0.0600 -0.0362 -0.7806
 9326SOL    HW139611   1.035   0.936   4.999  4.1648  0.7828 -0.0664
 9326SOL    HW239612   1.048   1.074   5.002 -1.0072 -0.6948  0.1382
 9327SOL     OW39613   2.311   4.259   2.593 -0.0272 -0.1930  0.7466
 9327SOL    HW139614   2.283   4.219   2.511  1.1523  2.4391 -0.9663
 9327SOL    HW239615   2.391   4.292   2.550 -0.0980 -1.5427 -0.4206
 9328SOL     OW39616   0.687   3.702   4.699 -0.2851 -0.0383  0.4341
 9328SOL    HW139617   0.672   3.796   4.688  0.3664 -0.0559 -0.6539
 9328SOL    HW239618   0.597   3.674   4.681  0.0071  0.2764 -1.4849
 9329SOL     OW39619   0.788   3.997   8.865  0.4049 -0.0201  1.0765
 9329SOL    HW139620   0.865   3.977   8.813 -1.6564  1.4402 -2.5696
 9329SOL    HW239621   0.835   4.022   8.944  1.1695  1.0114  0.3032
 9330SOL     OW39622   2.708   3.342   6.694  0.1284  0.3308 -0.6513
 9330SOL    HW139623   2.799   3.353   6.722 -0.0758  1.4142 -0.4236
 9330SOL    HW239624   2.708   3.246   6.702  2.6031  0.3051 -1.0762
 9331SOL     OW39625   2.413   4.127   2.809 -0.4625  0.2601 -0.1679
 9331SOL    HW139626   2.431   4.038   2.776  0.4022  0.7848 -1.1355
 9331SOL    HW239627   2.384   4.170   2.729 -1.0857  2.3528  1.2022
 9332SOL     OW39628   1.395   3.218   4.178  0.1212  0.3947  0.1642
 9332SOL    HW139629   1.340   3.292   4.204  1.4922  1.7729 -0.8559
 9332SOL    HW239630   1.477   3.235   4.223  0.4009 -1.6538  0.4520
 9333SOL     OW39631   4.350   2.609   2.059  0.0069  0.2938  0.1803
 9333SOL    HW139632   4.313   2.691   2.027 -0.6012  0.4639  1.3323
 9333SOL    HW239633   4.445   2.618   2.073 -0.1974  2.5904  0.1668
 9334SOL     OW39634   0.082   4.222   3.151  0.0852  0.3022 -0.3047
 9334SOL    HW139635   0.177   4.225   3.134  0.2408 -0.7898  0.3880
 9334SOL    HW239636   0.052   4.308   3.121  1.2351  0.8136  0.0129
 9335SOL     OW39637   4.090   0.761   5.214 -0.0718  0.0011  0.1933
 9335SOL    HW139638   4.137   0.820   5.274  0.6553  0.1308 -0.5028
 9335SOL    HW239639   4.084   0.682   5.268 -2.1648  1.2412  1.7459
 9336SOL     OW39640   3.647   0.884   6.174 -0.1578  0.2287  0.1733
 9336SOL    HW139641   3.630   0.973   6.204  0.8777  0.0779  1.2176
 9336SOL    HW239642   3.563   0.848   6.145 -0.1132  0.6561 -0.4966
 9337SOL     OW39643   2.923   3.986   0.192 -0.2898 -0.0036 -0.1718
 9337SOL    HW139644   2.885   4.025   0.113 -2.5492  0.3333  1.0820
 9337SOL    HW239645   3.018   3.980   0.177 -0.2454 -2.1793  1.0232
 9338SOL     OW39646   1.279   3.892   5.340 -0.0250 -0.0136  0.1342
 9338SOL    HW139647   1.278   3.843   5.258  0.8490 -1.2870  0.8916
 9338SOL    HW239648   1.291   3.825   5.407 -0.2433  0.7932  0.9739
 9339SOL     OW39649   4.568   0.456   8.015 -0.2323 -0.4005  0.1671
 9339SOL    HW139650   4.537   0.531   8.066 -0.9289  0.6969 -1.8702
 9339SOL    HW239651   4.511   0.382   8.036 -0.5663 -0.7825 -2.1266
 9340SOL     OW39652   2.324   2.204   7.954 -0.2084  0.0995  0.3374
 9340SOL    HW139653   2.341   2.284   7.905  1.9827 -0.5070  0.0950
 9340SOL    HW239654   2.289   2.149   7.884 -1.7314  1.9908 -0.3624
 9341SOL     OW39655   1.215   2.279   3.443 -0.2094 -0.0870 -0.1931
 9341SOL    HW139656   1.206   2.210   3.509  0.4857 -0.8760 -0.9213
 9341SOL    HW239657   1.154   2.251   3.375 -0.0985  2.1116 -1.1841
 9342SOL     OW39658   4.092   1.453   3.145  0.0248  0.4876  0.7651
 9342SOL    HW139659   4.014   1.420   3.101  0.4541 -2.2788  2.1049
 9342SOL    HW239660   4.164   1.412   3.098  0.4095  1.4357  0.5164
 9343SOL     OW39661   2.165   3.488   4.151 -0.1110  0.3801 -0.0285
 9343SOL    HW139662   2.125   3.511   4.068  0.2080  0.9619 -0.0223
 9343SOL    HW239663   2.171   3.575   4.190  0.2205  0.2498  0.2171
 9344SOL     OW39664   2.734   4.512  13.819  0.3032 -0.5920  0.0212
 9344SOL    HW139665   2.735   4.587  13.759  2.5299 -0.9694 -0.3997
 9344SOL    HW239666   2.737   4.542  13.909 -0.2727 -1.3717  0.3000
 9345SOL     OW39667   2.261   4.195   1.004  0.2572 -0.0960  0.6039
 9345SOL    HW139668   2.208   4.118   0.987  1.5790 -0.7838 -0.3723
 9345SOL    HW239669   2.211   4.232   1.077 -0.1613  2.1644 -0.8260
 9346SOL     OW39670   2.757   1.772   3.965  0.2549 -0.6359  0.5037
 9346SOL    HW139671   2.770   1.709   4.036  0.6217  0.1583  1.1400
 9346SOL    HW239672   2.756   1.706   3.896  0.5566  0.2380 -0.3375
 9347SOL     OW39673   0.099   3.938   4.593 -0.1512  0.6431  0.0331
 9347SOL    HW139674   0.184   3.965   4.627  0.2637 -0.2609 -0.2683
 9347SOL    HW239675   0.090   3.982   4.508  2.4920  0.0972 -0.5252
 9348SOL     OW39676   1.315   2.291   4.503  0.1969  0.2200  0.4996
 9348SOL    HW139677   1.364   2.318   4.582  1.8231 -1.2730  0.0032
 9348SOL    HW239678   1.375   2.312   4.432 -1.2388  0.4340 -0.6467
 9349SOL     OW39679   4.145   3.686   2.962  0.1479  0.3342  0.8272
 9349SOL    HW139680   4.122   3.642   3.044  1.3057  0.5867  1.2861
 9349SOL    HW239681   4.213   3.628   2.928  1.3028  1.9827  0.3343
 9350SOL     OW39682   1.895   3.255  12.717  0.4238 -0.0018 -0.3292
 9350SOL    HW139683   1.840   3.282  12.644  1.5101  1.6472 -0.5431
 9350SOL    HW239684   1.841   3.198  12.772  2.1545 -0.8915  0.4771
 9351SOL     OW39685   2.155   4.147  12.334 -0.4492  0.1594  0.2136
 9351SOL    HW139686   2.164   4.213  12.266 -0.2623  0.6534  0.7215
 9351SOL    HW239687   2.213   4.186  12.400 -0.6379  1.4609 -0.4041
 9352SOL     OW39688   4.489   1.674   1.956  0.2183 -0.5919 -0.2292
 9352SOL    HW139689   4.406   1.711   1.928 -0.5555 -0.2606  2.5846
 9352SOL    HW239690   4.523   1.740   2.016  0.4711 -0.4899 -0.4850
 9353SOL     OW39691   0.661   1.651  10.033 -0.0002  0.3904 -0.4427
 9353SOL    HW139692   0.690   1.576   9.982 -0.3198 -1.3247  1.8766
 9353SOL    HW239693   0.651   1.599  10.113 -2.3840  1.0313 -0.3212
 9354SOL     OW39694   4.631   1.375  13.592 -0.2378 -0.2474 -0.5801
 9354SOL    HW139695   4.666   1.454  13.551 -0.5496  0.6557  0.8596
 9354SOL    HW239696   4.711   1.335  13.627 -1.2252 -1.4996  0.2480
 9355SOL     OW39697   2.264   1.141   4.844  0.4237 -0.3702  0.4916
 9355SOL    HW139698   2.287   1.225   4.803  0.6371 -1.3601 -1.4005
 9355SOL    HW239699   2.221   1.099   4.769  1.1093 -0.6968  0.2875
 9356SOL     OW39700   1.479   4.395   3.901  0.2551  0.6327 -0.9836
 9356SOL    HW139701   1.451   4.376   3.812  2.1268  0.4553 -1.5394
 9356SOL    HW239702   1.391   4.405   3.936  0.4771  1.8793 -0.7853
 9357SOL     OW39703   1.602   1.936  17.475  0.5973 -0.0308  0.2820
 9357SOL    HW139704   1.540   1.983  17.531 -0.2800  1.2404 -1.7747
 9357SOL    HW239705   1.684   1.985  17.483  0.2650  1.0992 -3.5936
 9358SOL     OW39706   3.797   2.772   3.523 -0.3643 -0.3290  0.8444
 9358SOL    HW139707   3.741   2.695   3.535  0.6924 -0.6867  3.5856
 9358SOL    HW239708   3.753   2.836   3.579  2.5981  1.4991  1.0373
 9359SOL     OW39709   3.620   4.035   8.322 -0.9349 -0.2524  0.1841
 9359SOL    HW139710   3.672   4.048   8.401 -0.3622  0.2989 -0.2900
 9359SOL    HW239711   3.549   3.988   8.367  0.4488 -1.9863  0.5873
 9360SOL     OW39712   0.037   3.523   5.214  0.1729  0.2543 -0.4824
 9360SOL    HW139713   4.727   3.518   5.130  0.0525 -0.1078 -0.3947
 9360SOL    HW239714   0.095   3.600   5.209 -0.1332  0.5664  0.6415
 9361SOL     OW39715   1.511   3.128   8.378  0.0543  0.9296 -0.2804
 9361SOL    HW139716   1.554   3.060   8.429 -0.5534  0.4861 -0.3629
 9361SOL    HW239717   1.436   3.081   8.342 -0.4863  0.4615  1.4529
 9362SOL     OW39718   4.030   4.537  16.590 -0.4076  0.1178  0.4017
 9362SOL    HW139719   3.952   4.545  16.645 -0.8843  0.1102 -0.2751
 9362SOL    HW239720   4.100   4.529  16.655  0.6345  0.3221 -0.6941
 9363SOL     OW39721   0.178   3.320   2.769  0.1688  0.0391 -0.2958
 9363SOL    HW139722   0.191   3.415   2.776  0.8600 -0.2119  1.9252
 9363SOL    HW239723   0.187   3.295   2.677 -0.5811 -0.0891 -0.3365
 9364SOL     OW39724   4.007   1.213   4.229 -0.3743  0.5757  0.0889
 9364SOL    HW139725   3.999   1.273   4.154 -0.0648 -1.0264 -1.2208
 9364SOL    HW239726   4.071   1.256   4.286 -1.2761  2.6487 -0.4398
 9365SOL     OW39727   4.007   2.614   0.904  0.2292 -0.2784 -0.6231
 9365SOL    HW139728   3.983   2.703   0.877  0.0647  0.1253  0.8636
 9365SOL    HW239729   4.067   2.596   0.831  0.3935  1.4200 -0.9085
 9366SOL     OW39730   0.694   1.643   3.890  0.4996 -0.5843  0.0250
 9366SOL    HW139731   0.729   1.632   3.801 -0.7469 -1.3601 -0.3696
 9366SOL    HW239732   0.678   1.555   3.925  1.2224  0.1900  2.2685
 9367SOL     OW39733   1.493   3.642   2.145  0.6925 -0.3598  0.0077
 9367SOL    HW139734   1.431   3.685   2.087 -0.1478 -0.5114  0.8075
 9367SOL    HW239735   1.578   3.673   2.113  0.4143 -0.7174 -1.0594
 9368SOL     OW39736   2.339   1.686   3.877 -0.0085 -0.7848  0.2115
 9368SOL    HW139737   2.393   1.608   3.870  1.1672  0.0081  0.4776
 9368SOL    HW239738   2.254   1.653   3.848 -0.3410  2.4816 -2.5081
 9369SOL     OW39739   1.571   1.253  16.525 -0.1421  0.5548 -0.0252
 9369SOL    HW139740   1.609   1.262  16.438  2.9479  1.2889  1.3988
 9369SOL    HW239741   1.616   1.174  16.555 -1.5121 -0.2278 -0.0500
 9370SOL     OW39742   4.647   3.312   2.765 -0.3571 -0.0752  0.3145
 9370SOL    HW139743   0.000   3.280   2.752  0.1004  1.7253 -1.0756
 9370SOL    HW239744   4.643   3.310   2.860 -1.0497 -1.3953  0.2561
 9371SOL     OW39745   1.616   4.655   4.441 -0.2691  0.2673 -0.4142
 9371SOL    HW139746   1.640   4.563   4.454 -2.6012 -0.2328  0.2829
 9371SOL    HW239747   1.541   4.661   4.500 -0.6880 -1.1679 -0.8131
 9372SOL     OW39748   2.313   1.354   4.680  0.4870 -0.0959  0.6692
 9372SOL    HW139749   2.317   1.436   4.728 -1.9001  0.0145  0.6713
 9372SOL    HW239750   2.288   1.379   4.591  2.4961 -1.4013 -0.2817
 9373SOL     OW39751   2.564   3.563  17.356  0.2604  0.3928 -0.6556
 9373SOL    HW139752   2.657   3.539  17.366 -0.0184 -0.7363 -0.7215
 9373SOL    HW239753   2.553   3.583  17.263  1.4350 -0.1025 -0.9089
 9374SOL     OW39754   0.932   0.674   4.206  0.3525  0.3190  0.2284
 9374SOL    HW139755   0.998   0.716   4.151 -0.2922  0.1015 -0.6958
 9374SOL    HW239756   0.961   0.583   4.201 -0.2941  0.1480 -0.2884
 9375SOL     OW39757   4.598   2.572   8.659  0.1178  0.1428  0.5372
 9375SOL    HW139758   4.669   2.518   8.694  1.3996  0.6678 -1.2199
 9375SOL    HW239759   4.537   2.499   8.646 -2.3222  2.1537  0.6874
 9376SOL     OW39760   3.540   1.084   2.223 -0.3695 -0.3645 -0.4940
 9376SOL    HW139761   3.503   1.109   2.139  0.1077  1.5522 -0.1317
 9376SOL    HW239762   3.515   1.159   2.278  1.5416  0.5842 -0.9146
 9377SOL     OW39763   0.454   1.785   1.017 -0.3406  0.5561  0.4001
 9377SOL    HW139764   0.450   1.706   1.071  1.1268  0.5172  0.4444
 9377SOL    HW239765   0.363   1.790   0.986 -0.3017  2.2441  0.5693
 9378SOL     OW39766   1.511   4.501   3.357  0.2601 -0.2557  0.0977
 9378SOL    HW139767   1.532   4.435   3.422 -2.9454  0.9745  2.3529
 9378SOL    HW239768   1.428   4.531   3.393  0.3703  0.5078 -0.2807
 9379SOL     OW39769   2.927   0.413   1.782  0.8498  0.1766 -0.7027
 9379SOL    HW139770   2.937   0.371   1.868  1.3105  0.5651 -0.5673
 9379SOL    HW239771   2.938   0.504   1.808 -3.0219  0.4372  0.0373
 9380SOL     OW39772   3.185   3.192   7.409  0.6027  0.0319 -0.1435
 9380SOL    HW139773   3.276   3.162   7.420  0.4068 -1.0039 -1.3057
 9380SOL    HW239774   3.136   3.110   7.420 -0.9198  1.0206  0.3589
 9381SOL     OW39775   3.669   0.156   8.666 -0.4369  0.5938  0.9647
 9381SOL    HW139776   3.654   0.071   8.706 -2.0129 -0.2232 -1.3532
 9381SOL    HW239777   3.630   0.214   8.732 -1.1957  1.1478  0.0309
 9382SOL     OW39778   4.305   1.207   1.194  0.0884  0.1055  0.2731
 9382SOL    HW139779   4.214   1.234   1.208  0.5050  1.3566  0.5353
 9382SOL    HW239780   4.283   1.113   1.196  1.4468 -0.2600 -2.3015
 9383SOL     OW39781   3.967   3.402   2.673  0.3433  0.3274  0.0602
 9383SOL    HW139782   3.949   3.494   2.688 -2.2602 -0.2705  0.6286
 9383SOL    HW239783   3.888   3.368   2.630  1.4641 -2.6048  0.2831
 9384SOL     OW39784   3.006   4.662  11.895  0.0431  0.0064 -0.1600
 9384SOL    HW139785   2.931   4.721  11.880  0.9039  0.7859 -1.3816
 9384SOL    HW239786   3.049   4.707  11.969  1.2138 -1.6181  0.1396
 9385SOL     OW39787   3.680   3.116  14.424  0.1832 -0.3928  0.0034
 9385SOL    HW139788   3.625   3.039  14.439  2.1587 -1.9053 -0.3663
 9385SOL    HW239789   3.617   3.171  14.379  0.7256 -0.6941 -1.1393
 9386SOL     OW39790   2.354   2.331   1.546  0.0340 -0.1216  0.5125
 9386SOL    HW139791   2.440   2.312   1.584  1.6375  0.0475 -2.9806
 9386SOL    HW239792   2.306   2.248   1.550 -1.0483  0.5320  1.1112
 9387SOL     OW39793   0.246   4.292   7.323 -0.1321 -0.3775  0.0583
 9387SOL    HW139794   0.215   4.235   7.394 -0.9773 -2.7524 -2.1892
 9387SOL    HW239795   0.288   4.232   7.261 -0.7991  0.0316 -0.7863
 9388SOL     OW39796   0.694   4.709   1.287  0.1798 -0.7690 -0.3456
 9388SOL    HW139797   0.641   0.011   1.216  1.3653  1.5116 -0.0272
 9388SOL    HW239798   0.681   4.616   1.271  0.1751 -0.4585 -2.2241
 9389SOL     OW39799   4.608   0.369   7.753  0.1970  0.3859 -0.1534
 9389SOL    HW139800   4.677   0.307   7.775  1.1331  1.3955 -0.1961
 9389SOL    HW239801   4.595   0.408   7.840  2.0035  1.3313 -0.3008
 9390SOL     OW39802   4.641   4.278   2.149 -0.6593 -0.4004  0.5986
 9390SOL    HW139803   4.555   4.238   2.143 -0.4585 -0.7045 -0.3039
 9390SOL    HW239804   4.704   4.210   2.174  0.1532 -0.5365 -1.8267
 9391SOL     OW39805   3.553   1.445   7.344 -0.0240  0.4750  0.0857
 9391SOL    HW139806   3.515   1.533   7.351  1.4101  0.9367  2.0868
 9391SOL    HW239807   3.637   1.462   7.302 -0.2475  1.6515  0.0916
 9392SOL     OW39808   3.911   3.528   7.877 -0.1008  0.7930  0.3377
 9392SOL    HW139809   3.967   3.561   7.948 -0.1894 -1.7226  1.5670
 9392SOL    HW239810   3.852   3.602   7.868 -0.5858  0.7453  2.9251
 9393SOL     OW39811   0.888   2.462  12.083 -0.4497 -0.0593 -0.4248
 9393SOL    HW139812   0.964   2.463  12.141 -0.4834 -0.5991 -0.3742
 9393SOL    HW239813   0.821   2.471  12.152 -2.5849  5.2157 -3.2172
 9394SOL     OW39814   3.542   4.392   8.578  0.2211 -0.0701 -0.1287
 9394SOL    HW139815   3.585   4.469   8.615 -1.1980  0.4026  0.5110
 9394SOL    HW239816   3.612   4.381   8.514  3.2714  0.5408  3.1209
 9395SOL     OW39817   1.025   4.526   9.920  0.1403 -0.3287 -0.3981
 9395SOL    HW139818   0.972   4.447   9.924  0.1327 -0.2147  2.2626
 9395SOL    HW239819   1.116   4.507   9.897  0.4481  2.0142 -1.1111
 9396SOL     OW39820   1.751   1.344   4.756  0.6176  0.1176  0.1315
 9396SOL    HW139821   1.780   1.261   4.719 -0.2579  1.6050 -3.9259
 9396SOL    HW239822   1.827   1.399   4.773  1.3010 -0.3174 -1.4806
 9397SOL     OW39823   4.102   3.516   9.786 -0.2294 -0.6921 -0.3635
 9397SOL    HW139824   4.159   3.545   9.715 -1.2409 -0.3925 -1.0416
 9397SOL    HW239825   4.064   3.436   9.750 -0.5658 -0.3771 -0.6989
 9398SOL     OW39826   0.760   1.978   4.877 -0.2131  0.1195 -0.6444
 9398SOL    HW139827   0.671   2.011   4.878 -0.7691 -1.3109 -1.5298
 9398SOL    HW239828   0.762   1.917   4.803  1.0843  0.0361 -0.5545
 9399SOL     OW39829   3.091   3.916   7.011  0.2483 -0.1271  0.4541
 9399SOL    HW139830   3.129   3.985   6.957  1.4534 -2.0547 -1.1238
 9399SOL    HW239831   3.049   3.854   6.952 -3.9006  2.0826  1.0283
 9400SOL     OW39832   3.818   2.443  14.122 -0.4268  0.4767 -0.5430
 9400SOL    HW139833   3.904   2.479  14.145  0.0811  0.5149 -2.5023
 9400SOL    HW239834   3.771   2.525  14.106 -1.3030  0.2400  0.8087
 9401SOL     OW39835   0.140   3.737  13.473 -0.3886 -0.3104 -0.0815
 9401SOL    HW139836   0.164   3.820  13.432 -0.8742  0.3315  0.9363
 9401SOL    HW239837   0.160   3.669  13.409 -0.5810  0.6972 -1.2074
 9402SOL     OW39838   1.136   2.438  11.356  1.0018  0.2272  0.0508
 9402SOL    HW139839   1.081   2.416  11.431  2.4635  0.5416  1.2031
 9402SOL    HW239840   1.136   2.533  11.346 -1.6501  0.1810 -0.2596
 9403SOL     OW39841   2.366   0.618   7.305 -0.1514  0.0362  0.6326
 9403SOL    HW139842   2.291   0.600   7.248  0.8267  0.0151 -0.6673
 9403SOL    HW239843   2.375   0.711   7.282 -0.5704 -0.7518 -2.6880
 9404SOL     OW39844   2.921   2.269   3.469  0.1052  0.0463  0.6411
 9404SOL    HW139845   2.886   2.324   3.539  1.5094 -0.2163  1.5623
 9404SOL    HW239846   3.014   2.263   3.494  0.2892  2.7215  0.5742
 9405SOL     OW39847   3.638   3.339   3.689  0.6750  0.0068  0.0428
 9405SOL    HW139848   3.694   3.340   3.766  2.2051  0.7310 -1.0903
 9405SOL    HW239849   3.571   3.405   3.707  1.1475  0.2723  0.8136
 9406SOL     OW39850   0.700   3.378   2.305  0.4325 -0.1441  0.2090
 9406SOL    HW139851   0.684   3.356   2.213  0.8160 -1.2703  0.4003
 9406SOL    HW239852   0.784   3.333   2.321  1.6130  0.9888 -2.8400
 9407SOL     OW39853   2.158   4.395   0.001  0.2861 -0.1582  0.3187
 9407SOL    HW139854   2.161   4.408  17.648 -1.7371 -1.4975  0.0661
 9407SOL    HW239855   2.212   4.466   0.036 -0.9239  1.1407 -0.4567
 9408SOL     OW39856   0.885   2.312   3.556 -0.4062  0.0355  0.3087
 9408SOL    HW139857   0.900   2.265   3.638 -0.2042 -0.0153  0.2415
 9408SOL    HW239858   0.965   2.302   3.504 -0.6151 -2.5565  0.5110
 9409SOL     OW39859   4.598   2.986   0.570 -0.5253  0.3223 -0.2043
 9409SOL    HW139860   4.513   2.987   0.526  0.6647  3.5587 -2.3453
 9409SOL    HW239861   4.587   2.995   0.665  0.1156  1.4938 -0.2462
 9410SOL     OW39862   4.496   4.463   1.935  0.1407 -0.2260 -0.1678
 9410SOL    HW139863   4.583   4.443   1.970 -0.3911 -0.9751  0.7191
 9410SOL    HW239864   4.487   4.392   1.872 -1.0557  0.0974 -0.3630
 9411SOL     OW39865   4.708   0.439   4.122 -0.1683  0.9249  0.4026
 9411SOL    HW139866   0.022   0.519   4.142 -0.6117  1.5628 -1.0333
 9411SOL    HW239867   4.696   0.443   4.027 -1.4132 -0.2300  0.5131
 9412SOL     OW39868   1.312   0.208   5.459 -0.1532  0.0705  0.6073
 9412SOL    HW139869   1.336   0.159   5.538  1.7797 -0.0117 -0.0230
 9412SOL    HW239870   1.221   0.181   5.453 -0.0246 -0.2083 -0.0490
 9413SOL     OW39871   3.273   4.191   8.008  0.4407 -0.0808  0.4111
 9413SOL    HW139872   3.276   4.109   8.058 -0.0712 -1.2075 -1.4259
 9413SOL    HW239873   3.181   4.196   7.984  1.0477 -0.3694 -1.8983
 9414SOL     OW39874   0.153   2.645   8.906  0.1658  0.1530 -0.9855
 9414SOL    HW139875   0.247   2.650   8.921 -0.0327 -0.0623  0.3897
 9414SOL    HW239876   0.119   2.713   8.964 -1.0954 -0.2152 -1.2903
 9415SOL     OW39877   1.747   4.411   4.171 -0.2772 -0.4498 -0.3412
 9415SOL    HW139878   1.802   4.414   4.249 -0.0605 -0.9494 -0.4749
 9415SOL    HW239879   1.757   4.498   4.131  0.2707  0.5707  2.0184
 9416SOL     OW39880   1.832   2.998   7.758  0.3251  0.0742  0.2698
 9416SOL    HW139881   1.773   2.974   7.830 -1.5103 -2.4534 -2.0822
 9416SOL    HW239882   1.778   3.060   7.709 -1.1623 -0.5938  1.0506
 9417SOL     OW39883   1.467   4.145   5.442  0.3220 -0.2149 -0.0630
 9417SOL    HW139884   1.433   4.084   5.507  0.9341 -1.7577 -1.1960
 9417SOL    HW239885   1.542   4.092   5.414  0.5679  0.5408 -0.8339
 9418SOL     OW39886   3.336   3.861   3.091 -0.4451 -0.4113  0.4104
 9418SOL    HW139887   3.338   3.842   3.185  0.3782 -0.5932  0.3566
 9418SOL    HW239888   3.398   3.933   3.086 -2.1870  1.1850  1.5913
 9419SOL     OW39889   0.148   1.476   6.850 -0.3194 -0.2991 -0.4383
 9419SOL    HW139890   0.217   1.447   6.910  0.8553  0.9127 -1.1980
 9419SOL    HW239891   0.171   1.425   6.772 -0.0351  0.1347 -0.6416
 9420SOL     OW39892   2.442   1.150  16.938  0.1229  0.4661  0.8675
 9420SOL    HW139893   2.452   1.063  16.900 -2.7489  0.6549 -0.2689
 9420SOL    HW239894   2.479   1.197  16.863  0.5398 -2.1784 -0.5818
 9421SOL     OW39895   1.724   2.653   9.346 -0.0742  0.0971  0.2014
 9421SOL    HW139896   1.708   2.590   9.275 -0.4152 -0.0413  0.4023
 9421SOL    HW239897   1.818   2.643   9.360  0.0842  1.2298 -0.1158
 9422SOL     OW39898   3.942   2.961   5.189 -0.5970 -0.7271  0.5057
 9422SOL    HW139899   3.899   2.990   5.109 -0.4216 -2.4866 -0.2304
 9422SOL    HW239900   4.029   2.938   5.157  0.0264  1.3528  0.7424
 9423SOL     OW39901   3.151   0.243   4.631  0.3498 -0.1541 -0.3747
 9423SOL    HW139902   3.080   0.307   4.620  2.0156  1.9436  0.9830
 9423SOL    HW239903   3.118   0.194   4.707 -1.0823 -1.8138 -2.0586
 9424SOL     OW39904   1.434   2.066   2.114 -0.4795  0.5798  0.0420
 9424SOL    HW139905   1.446   2.131   2.045 -0.7288  2.0198  1.3405
 9424SOL    HW239906   1.473   2.115   2.187 -1.7333  1.6033  0.0050
 9425SOL     OW39907   3.906   0.868   3.358 -0.0619  0.0793  0.5865
 9425SOL    HW139908   3.906   0.775   3.335  0.0220 -0.1913  1.7062
 9425SOL    HW239909   3.816   0.896   3.373  0.6949  2.4749  0.7732
 9426SOL     OW39910   1.214   1.317  16.202 -0.3371  0.2325 -0.8116
 9426SOL    HW139911   1.159   1.258  16.151 -0.3286  0.0198 -0.5728
 9426SOL    HW239912   1.152   1.390  16.210  1.1574  1.6299 -1.8072
 9427SOL     OW39913   1.428   1.117   6.983  0.0864  0.0184  0.6860
 9427SOL    HW139914   1.516   1.147   6.963 -0.6699  1.4565 -0.5014
 9427SOL    HW239915   1.439   1.024   6.964 -2.3979 -0.2959  0.7878
 9428SOL     OW39916   2.209   3.804   2.606 -0.0095 -0.4575  0.0295
 9428SOL    HW139917   2.163   3.768   2.682  0.0269  0.0702  0.3011
 9428SOL    HW239918   2.153   3.872   2.571  1.1282 -0.6773 -2.2129
 9429SOL     OW39919   0.829   3.742   6.081  0.0008  0.0110  0.7753
 9429SOL    HW139920   0.826   3.693   6.163  0.5961 -0.7115  0.3672
 9429SOL    HW239921   0.903   3.696   6.041  1.2792  3.1665 -0.4126
 9430SOL     OW39922   0.746   1.303   6.606  0.2233  0.3664 -0.3080
 9430SOL    HW139923   0.710   1.372   6.661  0.7803 -0.9693  1.7189
 9430SOL    HW239924   0.709   1.328   6.521 -1.7888 -1.0027  0.1705
 9431SOL     OW39925   0.660   1.788  12.561 -0.1759  0.5852 -0.0919
 9431SOL    HW139926   0.568   1.816  12.555  0.7563  4.2653  2.9088
 9431SOL    HW239927   0.714   1.866  12.550 -0.5207  0.4880 -2.4558
 9432SOL     OW39928   3.498   0.439   8.570  0.4728 -0.0413 -0.0225
 9432SOL    HW139929   3.463   0.362   8.527  0.0021 -0.5879  1.3447
 9432SOL    HW239930   3.564   0.470   8.508 -1.7327 -2.0031 -3.3629
 9433SOL     OW39931   1.928   4.250  13.091  0.3358  0.0150 -0.2048
 9433SOL    HW139932   1.881   4.166  13.095 -0.0061  0.2607  0.9027
 9433SOL    HW239933   2.014   4.229  13.053 -0.2022 -0.6275 -1.0672
 9434SOL     OW39934   0.569   3.791   5.564  0.5270 -0.0998  0.4945
 9434SOL    HW139935   0.536   3.795   5.654  1.1305 -0.3862  0.7274
 9434SOL    HW239936   0.497   3.836   5.520  0.1174  1.8813  3.1796
 9435SOL     OW39937   1.640   1.184   1.682  0.9894 -0.4171  0.1407
 9435SOL    HW139938   1.557   1.143   1.706  0.6399  0.4912  0.4778
 9435SOL    HW239939   1.694   1.104   1.681  0.2202 -0.8741 -2.3418
 9436SOL     OW39940   2.362   1.090  15.263  0.1982  0.0753  0.4114
 9436SOL    HW139941   2.429   1.075  15.330 -0.0139 -0.7924  0.4305
 9436SOL    HW239942   2.359   1.010  15.211  0.1487  0.3129  0.0528
 9437SOL     OW39943   3.270   1.584   4.770  0.1348  0.1797 -0.1247
 9437SOL    HW139944   3.224   1.653   4.818  2.5033  2.1656 -0.6405
 9437SOL    HW239945   3.281   1.530   4.847 -0.5835 -2.6317 -2.0032
 9438SOL     OW39946   0.712   4.279   5.236  0.1934 -0.0570 -0.1575
 9438SOL    HW139947   0.805   4.278   5.214 -0.4276  1.3847 -2.8554
 9438SOL    HW239948   0.712   4.206   5.298  0.8211  1.3812  1.5287
 9439SOL     OW39949   0.325   1.603  15.025  0.0425 -0.4325 -0.2433
 9439SOL    HW139950   0.333   1.539  15.096  0.8215 -2.0356 -1.7727
 9439SOL    HW239951   0.258   1.556  14.976 -0.8932  0.8634 -0.2210
 9440SOL     OW39952   4.240   1.828   9.511 -0.1230 -0.7849  0.2125
 9440SOL    HW139953   4.229   1.733   9.513  0.3395 -0.8571 -0.9566
 9440SOL    HW239954   4.181   1.856   9.581 -0.0295 -3.2648  1.2891
 9441SOL     OW39955   0.875   1.013  15.874  0.0659 -0.1455  0.6421
 9441SOL    HW139956   0.816   1.065  15.819  2.3790  2.8240  0.9748
 9441SOL    HW239957   0.946   1.002  15.811 -1.4752 -0.4078 -1.0569
 9442SOL     OW39958   3.537   4.173   7.873 -0.4312 -0.5874  0.1105
 9442SOL    HW139959   3.570   4.247   7.923 -1.2879 -0.1636  0.0508
 9442SOL    HW239960   3.496   4.119   7.940 -1.6400 -0.2953 -0.3845
 9443SOL     OW39961   3.112   0.474  15.733  0.2156 -0.1916  0.2472
 9443SOL    HW139962   3.021   0.453  15.711  0.2357 -1.1631  1.1026
 9443SOL    HW239963   3.131   0.544  15.671 -1.3160  0.4679  0.5249
 9444SOL     OW39964   1.922   3.489   8.294 -0.0313 -0.2920  0.4007
 9444SOL    HW139965   1.974   3.551   8.345  0.1812 -1.9093  2.1480
 9444SOL    HW239966   1.870   3.545   8.237 -0.9761 -1.3629  0.2147
 9445SOL     OW39967   1.624   3.897   9.067 -0.3078 -0.1280 -0.3802
 9445SOL    HW139968   1.586   3.827   9.014 -0.7414 -0.1592 -0.0340
 9445SOL    HW239969   1.716   3.874   9.077 -0.2774  0.2342  0.1779
 9446SOL     OW39970   0.671   1.913   0.480  0.1931  0.0902 -0.4582
 9446SOL    HW139971   0.732   1.951   0.418  0.5114 -0.1954 -0.3204
 9446SOL    HW239972   0.727   1.915   0.558  2.6439  1.4136 -2.2507
 9447SOL     OW39973   1.764   1.844   8.117  0.1390  0.2784  0.1570
 9447SOL    HW139974   1.693   1.881   8.066  1.2090 -0.8248 -2.1440
 9447SOL    HW239975   1.725   1.842   8.204  1.4423 -0.2968  0.7358
 9448SOL     OW39976   1.901   3.675   1.918  0.7482 -0.5795 -0.0373
 9448SOL    HW139977   1.972   3.630   1.964  2.1460  2.6109  0.9204
 9448SOL    HW239978   1.954   3.712   1.847 -1.4030 -0.7447 -1.7275
 9449SOL     OW39979   0.543   3.260   3.883  0.2925 -0.3300 -0.0685
 9449SOL    HW139980   0.524   3.194   3.949  2.1362 -1.5325 -0.7298
 9449SOL    HW239981   0.493   3.222   3.811  1.4541  1.4237 -1.8034
 9450SOL     OW39982   0.814   2.313   2.844  0.6959  0.1210  0.1613
 9450SOL    HW139983   0.719   2.305   2.846  0.6342  0.9424  0.5422
 9450SOL    HW239984   0.831   2.270   2.760  1.2449 -1.9986  1.3533
 9451SOL     OW39985   3.482   2.126   5.983 -0.1493  0.6995 -0.5939
 9451SOL    HW139986   3.473   2.215   6.017  0.9295  0.2659  0.8478
 9451SOL    HW239987   3.461   2.073   6.060  1.7003  1.3348  0.3595
 9452SOL     OW39988   0.768   2.273  10.607  0.4533  0.0255  0.5659
 9452SOL    HW139989   0.842   2.212  10.618 -0.1896 -0.7466  0.5738
 9452SOL    HW239990   0.812   2.358  10.612 -1.1015  0.8157  0.6411
 9453SOL     OW39991   4.032   2.338   7.102 -0.1304  0.8284 -0.2973
 9453SOL    HW139992   3.958   2.374   7.152 -0.9864 -1.5075  0.1183
 9453SOL    HW239993   3.987   2.317   7.020  0.6600  2.3308 -1.1237
 9454SOL     OW39994   1.668   2.384   3.560  0.5652 -0.1569  0.1046
 9454SOL    HW139995   1.712   2.449   3.504  2.3934 -0.1140  1.5963
 9454SOL    HW239996   1.580   2.420   3.573  1.3400  1.1848  1.6675
 9455SOL     OW39997   0.642   1.831   9.142 -0.0185 -1.0901  0.8906
 9455SOL    HW139998   0.690   1.834   9.059 -1.1751  0.0943  0.2749
 9455SOL    HW239999   0.589   1.753   9.129  1.2952 -1.9137  0.4924
 9456SOL     OW40000   1.662   1.835  12.204  0.6037 -0.2686 -0.2337
 9456SOL    HW140001   1.601   1.905  12.225 -1.2351 -1.7978 -0.4221
 9456SOL    HW240002   1.721   1.842  12.278 -0.9448  0.3897  0.9455
 9457SOL     OW40003   2.526   0.241   3.645 -0.2975  0.6425 -0.1905
 9457SOL    HW140004   2.537   0.149   3.621 -0.2038  1.0895 -1.8430
 9457SOL    HW240005   2.477   0.224   3.726  0.4395  0.0949  0.1456
 9458SOL     OW40006   0.264   4.411   7.649  0.0883  0.0945 -0.2698
 9458SOL    HW140007   0.233   4.499   7.672 -1.0023 -0.7738  1.5657
 9458SOL    HW240008   0.185   4.363   7.625 -0.5488  0.8766  0.2696
 9459SOL     OW40009   3.633   2.996  15.881 -0.4417 -0.3786 -0.1229
 9459SOL    HW140010   3.695   2.963  15.816  0.7347 -0.3732  0.9951
 9459SOL    HW240011   3.562   2.932  15.875 -0.7834 -0.0098 -0.0093
 9460SOL     OW40012   1.116   4.090   5.427  0.0058 -0.0339  0.6932
 9460SOL    HW140013   1.121   4.103   5.522 -1.5564  1.9656  0.5020
 9460SOL    HW240014   1.182   4.022   5.415 -1.9664 -1.6138 -1.1678
 9461SOL     OW40015   4.223   4.325  11.421  0.1510  0.8073  0.5389
 9461SOL    HW140016   4.294   4.325  11.484  0.6475 -1.3627 -0.0052
 9461SOL    HW240017   4.145   4.333  11.477  0.3735  2.0015  0.6705
 9462SOL     OW40018   3.393   0.117  14.223  0.0768 -0.1254 -0.0747
 9462SOL    HW140019   3.362   0.027  14.212  0.4919 -0.2873  0.0856
 9462SOL    HW240020   3.413   0.121  14.316 -0.1268 -1.4787  0.0263
 9463SOL     OW40021   0.579   1.246   4.876  0.5465 -0.0039  0.6231
 9463SOL    HW140022   0.619   1.195   4.947  0.7084  1.6035  1.6994
 9463SOL    HW240023   0.617   1.332   4.893  0.8842  0.1780 -1.1306
 9464SOL     OW40024   1.842   1.058   8.210  0.5369  0.6036  0.1346
 9464SOL    HW140025   1.904   1.065   8.137  0.6483  1.1540  0.2835
 9464SOL    HW240026   1.782   0.993   8.172 -2.1327  1.5446  2.7221
 9465SOL     OW40027   3.635   3.049   2.399 -0.3320  0.5638  0.2806
 9465SOL    HW140028   3.554   3.100   2.413 -0.1924  0.8918 -0.1110
 9465SOL    HW240029   3.602   2.975   2.348  0.0562 -0.3072  1.2962
 9466SOL     OW40030   3.971   0.693   4.112 -0.0180  0.1856 -0.6776
 9466SOL    HW140031   3.973   0.658   4.201 -0.5564  1.4484 -0.1738
 9466SOL    HW240032   4.048   0.659   4.067  1.9409 -0.3468  3.0477
 9467SOL     OW40033   1.739   3.112   2.218  0.2006 -0.0989  0.2535
 9467SOL    HW140034   1.726   3.203   2.191 -2.6299 -0.4231  0.5211
 9467SOL    HW240035   1.773   3.074   2.137 -1.0649 -0.5853 -0.0472
 9468SOL     OW40036   4.272   2.641   6.471  0.4246  0.1163  0.1058
 9468SOL    HW140037   4.245   2.708   6.534  0.4956  1.6786 -1.5144
 9468SOL    HW240038   4.325   2.584   6.526  1.5668  1.2126  0.1454
 9469SOL     OW40039   0.529   1.061   4.040  0.1012  0.2061  0.0710
 9469SOL    HW140040   0.592   1.097   3.978  1.1476 -1.7162  0.0322
 9469SOL    HW240041   0.445   1.093   4.009  0.9329  1.2602 -1.0700
 9470SOL     OW40042   0.067   2.504  13.255  0.2598 -0.0349  0.4069
 9470SOL    HW140043   0.085   2.558  13.332 -1.5429  4.0164 -1.9801
 9470SOL    HW240044   0.127   2.430  13.260 -1.7460 -1.5836  1.7725
 9471SOL     OW40045   2.316   4.476   6.860  0.0778  0.2144 -0.4109
 9471SOL    HW140046   2.339   4.460   6.768 -1.4166 -0.9718 -0.5767
 9471SOL    HW240047   2.392   4.530   6.883  0.9320 -0.7344 -0.9771
 9472SOL     OW40048   1.445   1.571  13.614 -0.2347 -0.1664 -0.0682
 9472SOL    HW140049   1.397   1.654  13.625  0.6803  0.2164  1.0585
 9472SOL    HW240050   1.425   1.556  13.522  2.6176  1.6818 -0.9731
 9473SOL     OW40051   4.012   3.647   6.589  0.2224 -0.0476  0.0097
 9473SOL    HW140052   4.045   3.714   6.529  3.3364 -1.1870  0.4263
 9473SOL    HW240053   3.961   3.696   6.653 -0.5028  1.4555 -1.7377
 9474SOL     OW40054   1.378   3.614   4.372  0.4347  0.5273  0.1057
 9474SOL    HW140055   1.389   3.568   4.289 -1.6124  1.4325 -0.6675
 9474SOL    HW240056   1.414   3.699   4.349  1.7269  0.0812  0.5001
 9475SOL     OW40057   1.084   2.025   5.791  0.5061 -0.3750 -0.2892
 9475SOL    HW140058   1.155   2.085   5.767 -0.0233  0.1403 -0.5573
 9475SOL    HW240059   1.133   1.946   5.815  3.1268  1.8070  1.4118
 9476SOL     OW40060   0.816   3.069   3.925 -0.1425 -0.2208  0.0847
 9476SOL    HW140061   0.890   3.129   3.910 -0.0358 -0.6646 -1.1491
 9476SOL    HW240062   0.799   3.028   3.841  0.4878  1.3574 -0.8160
 9477SOL     OW40063   2.791   4.600   1.871  0.7717  0.0862 -0.3735
 9477SOL    HW140064   2.705   4.632   1.901  1.1203  1.8838 -1.2916
 9477SOL    HW240065   2.834   4.679   1.839  1.0788  0.7721  1.7642
 9478SOL     OW40066   0.420   1.369   3.747  0.0099  0.7143  0.5534
 9478SOL    HW140067   0.371   1.300   3.791  1.2932  0.2326  1.2384
 9478SOL    HW240068   0.502   1.321   3.732 -2.2192 -2.0575 -2.8173
 9479SOL     OW40069   0.737   1.105  17.148 -0.0130  0.6153 -0.5043
 9479SOL    HW140070   0.814   1.048  17.141 -0.8860 -0.6504  0.3213
 9479SOL    HW240071   0.788   1.185  17.163  1.0497 -0.0504 -0.5235
 9480SOL     OW40072   1.983   4.362  12.590 -0.1287 -0.1545  0.4172
 9480SOL    HW140073   2.013   4.360  12.681  0.9164  5.1806  0.2255
 9480SOL    HW240074   2.053   4.329  12.533 -1.0395 -0.1809 -0.6890
 9481SOL     OW40075   0.947   1.731  14.450  0.3398 -0.5327  0.7059
 9481SOL    HW140076   0.934   1.706  14.542 -0.5511  0.3248  0.8080
 9481SOL    HW240077   0.905   1.817  14.448  0.8997 -0.3052 -1.1829
 9482SOL     OW40078   0.837   1.181  10.481  0.5019  0.0564 -0.1682
 9482SOL    HW140079   0.824   1.255  10.422 -2.7913  1.1549  1.8844
 9482SOL    HW240080   0.915   1.145  10.440 -0.3995 -0.2756 -1.5717
 9483SOL     OW40081   4.270   1.111   2.997  0.4565 -0.5044  0.1962
 9483SOL    HW140082   4.229   1.107   2.911  0.1822  1.3665  0.2340
 9483SOL    HW240083   4.298   1.202   2.988 -3.0385  0.7009  1.2913
 9484SOL     OW40084   2.965   0.531   7.296  0.0142  0.4974  0.1911
 9484SOL    HW140085   2.938   0.508   7.208  3.0301 -0.8130 -0.3811
 9484SOL    HW240086   3.018   0.460   7.331  0.6485  0.8102 -0.1324
 9485SOL     OW40087   2.748   2.267   4.825  0.0530  0.6871  0.0749
 9485SOL    HW140088   2.737   2.329   4.897  1.2595 -0.9305  1.6475
 9485SOL    HW240089   2.843   2.270   4.823  0.0386  1.7068  0.7262
 9486SOL     OW40090   1.069   2.417  12.280  0.2666  0.1469 -0.2904
 9486SOL    HW140091   1.161   2.416  12.253  0.2052  0.1613 -0.5058
 9486SOL    HW240092   1.083   2.409  12.374  0.8183 -0.2832 -0.4060
 9487SOL     OW40093   2.730   0.279  12.147 -0.5536  0.0067 -0.2877
 9487SOL    HW140094   2.692   0.362  12.119  0.1859 -0.5922 -3.1613
 9487SOL    HW240095   2.772   0.309  12.227 -1.0430  0.0854 -0.0610
 9488SOL     OW40096   0.250   0.537  10.729 -0.3297 -0.3134 -0.3215
 9488SOL    HW140097   0.217   0.452  10.699 -1.5952  0.2723 -0.5958
 9488SOL    HW240098   0.271   0.513  10.819  1.7690  1.8316 -0.2508
 9489SOL     OW40099   1.363   3.524   7.373 -0.2498 -0.2978 -0.0259
 9489SOL    HW140100   1.439   3.557   7.325 -1.1366  0.2649 -1.0397
 9489SOL    HW240101   1.323   3.608   7.395  0.7240  0.3701 -0.7814
 9490SOL     OW40102   3.842   0.531   9.093  0.8729 -0.1104  0.3437
 9490SOL    HW140103   3.820   0.469   9.024 -1.3830  0.6032  0.4263
 9490SOL    HW240104   3.883   0.604   9.046 -0.8263  1.1048  0.7299
 9491SOL     OW40105   2.199   1.092  16.741  0.3280  0.1357  0.1443
 9491SOL    HW140106   2.220   1.185  16.754  0.4275  0.1843 -0.3768
 9491SOL    HW240107   2.246   1.059  16.665  0.7084  0.4431  0.2448
 9492SOL     OW40108   3.455   0.624   9.749 -0.2429  0.1244 -0.1792
 9492SOL    HW140109   3.467   0.575   9.668 -0.6459  0.8988 -0.7044
 9492SOL    HW240110   3.360   0.634   9.744 -0.1030  1.5743  0.0049
 9493SOL     OW40111   3.132   1.384   4.006  0.0395 -0.2487  0.4480
 9493SOL    HW140112   3.139   1.296   4.043 -1.1754 -0.1164  0.9856
 9493SOL    HW240113   3.165   1.436   4.079 -0.1447  0.4669  0.0141
 9494SOL     OW40114   1.296   2.733  12.258 -0.2361 -0.3659 -0.4575
 9494SOL    HW140115   1.245   2.670  12.207 -0.5552 -1.4408  1.1665
 9494SOL    HW240116   1.264   2.709  12.345 -0.7928 -0.0429 -0.5707
 9495SOL     OW40117   3.739   2.887   5.342 -0.0613  0.0467 -0.1438
 9495SOL    HW140118   3.666   2.914   5.287 -0.2143  1.5270  0.7797
 9495SOL    HW240119   3.810   2.902   5.279  0.0300  0.5648  0.0772
 9496SOL     OW40120   4.692   1.332   4.739  0.0558 -0.4826 -0.4260
 9496SOL    HW140121   4.669   1.369   4.825 -0.2681  1.9123 -1.5341
 9496SOL    HW240122   0.029   1.272   4.757  0.2500  0.4715  2.0301
 9497SOL     OW40123   2.348   2.234   6.415 -0.5715  0.2379  0.5169
 9497SOL    HW140124   2.294   2.155   6.415 -1.0685  0.5992 -2.4770
 9497SOL    HW240125   2.415   2.237   6.348 -1.1112 -0.8955 -0.0768
 9498SOL     OW40126   4.121   3.421   5.344  0.2079 -0.2348 -0.1206
 9498SOL    HW140127   4.106   3.363   5.419 -1.9747  0.0403 -0.3539
 9498SOL    HW240128   4.190   3.364   5.309 -1.8989 -1.6715 -1.9306
 9499SOL     OW40129   0.554   1.373  11.045  0.6788  0.1946  0.3256
 9499SOL    HW140130   0.555   1.317  11.122 -1.2684 -0.0277  0.1878
 9499SOL    HW240131   0.646   1.378  11.018  0.4093 -0.5338 -0.7039
 9500SOL     OW40132   3.431   2.261   5.518  0.5213 -0.3522  0.1219
 9500SOL    HW140133   3.367   2.201   5.482 -0.0649  0.7030 -0.5870
 9500SOL    HW240134   3.379   2.314   5.579 -2.6180  1.4217 -4.1322
 9501SOL     OW40135   0.075   0.542   5.555  0.2373 -0.6612 -0.1718
 9501SOL    HW140136   4.736   0.576   5.507  0.9693 -1.1816 -1.6858
 9501SOL    HW240137   0.141   0.530   5.487 -1.9196 -0.4923 -2.2878
 9502SOL     OW40138   2.951   0.882   3.646  0.5504  0.4906  0.2069
 9502SOL    HW140139   3.022   0.833   3.688  1.1247  1.0478 -0.1216
 9502SOL    HW240140   2.878   0.868   3.707  0.2792  0.2264 -0.1776
 9503SOL     OW40141   1.037   4.433   9.280  0.3970  0.5921  0.0972
 9503SOL    HW140142   0.991   4.461   9.201 -1.4192  2.7832  1.9415
 9503SOL    HW240143   1.084   4.515   9.293  0.7835  0.2908  0.6542
 9504SOL     OW40144   3.880   4.631   5.082  0.4735  0.5001  0.8843
 9504SOL    HW140145   3.893   4.712   5.032  1.0411 -1.1915 -1.7519
 9504SOL    HW240146   3.824   4.669   5.149  0.2751  0.0469  0.9721
 9505SOL     OW40147   2.667   4.264   8.692  0.5254  0.3640  0.0216
 9505SOL    HW140148   2.654   4.188   8.749  0.2823 -0.2685 -0.8590
 9505SOL    HW240149   2.593   4.318   8.718  1.7946  1.5446  1.1593
 9506SOL     OW40150   1.725   2.812   7.934  0.2199 -0.5339 -0.0920
 9506SOL    HW140151   1.676   2.739   7.973 -0.8915 -0.3250 -1.0792
 9506SOL    HW240152   1.804   2.808   7.987  0.4001  1.9335 -0.1449
 9507SOL     OW40153   2.953   2.685   9.535  0.2874  0.1955 -0.3660
 9507SOL    HW140154   2.928   2.632   9.459  0.8937  1.1620 -1.2352
 9507SOL    HW240155   2.944   2.772   9.496 -1.1171 -0.4702 -1.5235
 9508SOL     OW40156   3.548   4.528   9.056 -0.0098  0.3822  0.1046
 9508SOL    HW140157   3.627   4.480   9.031  0.1830 -0.8404  3.0527
 9508SOL    HW240158   3.483   4.458   9.058  0.3023  0.0790 -0.2427
 9509SOL     OW40159   0.727   0.823   5.284  0.2421 -0.6644  0.0836
 9509SOL    HW140160   0.667   0.776   5.226 -0.4681 -0.2397  0.4719
 9509SOL    HW240161   0.678   0.905   5.277  0.6666 -0.6182 -2.2741
 9510SOL     OW40162   4.714   1.551   4.983  0.9118  0.0089 -0.2824
 9510SOL    HW140163   4.670   1.636   4.983 -2.5109 -1.7593  2.5388
 9510SOL    HW240164   0.069   1.575   4.969  0.1153  2.7365 -0.7573
 9511SOL     OW40165   3.868   2.266   6.862 -0.1904  0.0036  0.3555
 9511SOL    HW140166   3.928   2.257   6.788 -0.8519 -0.1009 -0.1699
 9511SOL    HW240167   3.791   2.295   6.813  1.4671  2.3797 -0.8618
 9512SOL     OW40168   4.354   0.281   6.205  0.3979  0.1087  0.5079
 9512SOL    HW140169   4.389   0.257   6.119 -1.1296  1.0901 -0.3717
 9512SOL    HW240170   4.384   0.205   6.255 -1.3299 -0.1023  1.2056
 9513SOL     OW40171   2.220   1.850   8.479  0.2105  0.6128 -0.2432
 9513SOL    HW140172   2.169   1.846   8.560  1.0403 -1.0845  0.2036
 9513SOL    HW240173   2.283   1.916   8.509 -0.7121  0.4014  2.2266
 9514SOL     OW40174   3.970   3.125  14.521  0.2926  0.0532 -0.3541
 9514SOL    HW140175   3.931   3.047  14.560  2.0176 -0.4137  0.4625
 9514SOL    HW240176   3.917   3.134  14.442  1.5865  1.4702 -1.0597
 9515SOL     OW40177   2.134   2.365   3.761  0.4002  0.3222  0.3547
 9515SOL    HW140178   2.043   2.386   3.740  0.3137  1.6755  2.1137
 9515SOL    HW240179   2.155   2.301   3.693 -4.2082 -0.6485 -0.1514
 9516SOL     OW40180   1.608   1.169   8.471  0.0249 -0.3777  0.2405
 9516SOL    HW140181   1.535   1.148   8.412  1.0591 -0.1899 -1.1094
 9516SOL    HW240182   1.652   1.084   8.476 -0.2055 -0.7333 -3.5929
 9517SOL     OW40183   0.601   4.003  13.759  0.1018 -0.5813 -0.2831
 9517SOL    HW140184   0.637   4.046  13.836  1.6868  0.4179 -1.5816
 9517SOL    HW240185   0.594   4.081  13.704  3.8356 -0.3863 -0.4210
 9518SOL     OW40186   2.827   4.529   9.108  0.3890  0.0194 -0.4027
 9518SOL    HW140187   2.810   4.575   9.026 -0.6861  1.8090  0.8028
 9518SOL    HW240188   2.745   4.552   9.152  0.0612 -1.9376 -0.0002
 9519SOL     OW40189   1.348   3.766   9.862  0.2044  0.1990  0.6978
 9519SOL    HW140190   1.370   3.778   9.955  0.9032  4.3142  0.0204
 9519SOL    HW240191   1.341   3.671   9.858  0.7350  0.3500 -3.1626
 9520SOL     OW40192   0.980   0.521  10.019 -0.4461  0.1767 -0.1728
 9520SOL    HW140193   0.952   0.485   9.935 -2.0089  1.3074 -0.1308
 9520SOL    HW240194   0.952   0.457  10.084  2.5834 -1.5744 -0.6151
 9521SOL     OW40195   0.066   4.330   9.069  0.2871  0.0283  0.3171
 9521SOL    HW140196   0.131   4.265   9.094  1.2310  0.3708 -1.2413
 9521SOL    HW240197   0.073   4.328   8.973 -1.4253  0.6782  0.1779
 9522SOL     OW40198   3.748   3.675   8.133 -0.7505  0.0862  0.2463
 9522SOL    HW140199   3.760   3.703   8.042 -1.7391 -0.4065 -0.0301
 9522SOL    HW240200   3.661   3.708   8.155 -0.7568  1.2915 -1.5784
 9523SOL     OW40201   2.402   0.832   3.965 -0.2764  0.6310 -0.2027
 9523SOL    HW140202   2.351   0.788   3.897 -0.2438 -1.4471  1.1163
 9523SOL    HW240203   2.448   0.756   4.002  2.3060  1.4050 -1.8284
 9524SOL     OW40204   2.513   4.567  15.881  0.5548 -0.3444 -0.1244
 9524SOL    HW140205   2.498   4.652  15.923  0.4025  0.1390 -1.1500
 9524SOL    HW240206   2.467   4.581  15.798 -0.9424  1.7057  1.0399
 9525SOL     OW40207   0.714   4.579   8.277  0.0203 -0.0518 -0.0001
 9525SOL    HW140208   0.764   4.650   8.236 -0.5940  0.0845 -0.5223
 9525SOL    HW240209   0.640   4.634   8.303  0.9432  0.5608  1.3366
 9526SOL     OW40210   2.005   1.055   3.868  0.6582 -0.3071  0.0310
 9526SOL    HW140211   1.981   1.116   3.798  2.8630  0.6684  0.1113
 9526SOL    HW240212   1.955   1.105   3.933  2.6618  0.2714  1.1514
 9527SOL     OW40213   2.655   1.117   2.885 -0.6080 -0.0745  0.5716
 9527SOL    HW140214   2.651   1.212   2.899 -2.4546 -0.3123  1.7960
 9527SOL    HW240215   2.583   1.102   2.824 -0.6682  3.8088 -0.2903
 9528SOL     OW40216   1.750   0.773   7.057  0.1638  0.3822  0.0118
 9528SOL    HW140217   1.823   0.773   6.995  0.4381  0.0766  0.3410
 9528SOL    HW240218   1.762   0.694   7.110 -1.8830  0.8251  1.1276
 9529SOL     OW40219   0.878   4.068   6.229 -0.3298 -0.7134 -0.2555
 9529SOL    HW140220   0.808   4.062   6.164  0.1315 -2.0172 -0.6297
 9529SOL    HW240221   0.829   4.039   6.306 -1.1598  1.6820  0.1088
 9530SOL     OW40222   0.568   3.563   5.358  0.0686  0.4147  0.4337
 9530SOL    HW140223   0.649   3.615   5.357 -0.1760  0.7683 -0.7577
 9530SOL    HW240224   0.522   3.581   5.439  1.7158 -0.8079  1.6551
 9531SOL     OW40225   3.129   4.349   9.895  0.2604  0.0631 -1.0043
 9531SOL    HW140226   3.174   4.361   9.811 -0.3706  0.9084 -1.2281
 9531SOL    HW240227   3.045   4.313   9.864  0.8896 -0.6328 -1.9109
 9532SOL     OW40228   0.858   4.310   7.124 -0.6793  0.4124  0.5319
 9532SOL    HW140229   0.839   4.311   7.218 -0.8486 -1.9025  0.5197
 9532SOL    HW240230   0.938   4.361   7.118  0.2022 -0.9437  0.8707
 9533SOL     OW40231   3.431   4.569   4.925  0.2071 -0.2359  0.1441
 9533SOL    HW140232   3.473   4.549   5.009  3.1706  0.4822 -1.1645
 9533SOL    HW240233   3.348   4.522   4.928  0.3809 -0.5251  0.3646
 9534SOL     OW40234   1.575   4.632   1.004  0.0106 -0.7814 -0.4188
 9534SOL    HW140235   1.507   4.624   0.938  1.3301  3.7979 -2.3346
 9534SOL    HW240236   1.625   4.700   0.960  0.0365 -1.5993 -1.6295
 9535SOL     OW40237   2.952   4.600   9.906  0.4733 -0.1525  0.1951
 9535SOL    HW140238   3.026   4.610   9.966 -2.6930  0.3619  4.0376
 9535SOL    HW240239   2.915   4.518   9.938  2.1754 -0.9344  0.1628
 9536SOL     OW40240   0.508   2.833   4.705 -0.5427  0.0202  1.2771
 9536SOL    HW140241   0.569   2.890   4.752  1.6290 -1.1651 -0.0922
 9536SOL    HW240242   0.427   2.828   4.755 -0.1912  1.3921  1.9903
 9537SOL     OW40243   2.209   1.027   4.055  0.3304  0.2412 -0.2639
 9537SOL    HW140244   2.271   0.958   4.034 -0.5803 -0.0928 -1.8491
 9537SOL    HW240245   2.149   1.015   3.981 -1.0837  0.1360  0.9079
 9538SOL     OW40246   3.298   4.521   2.261 -0.4353  0.2043  0.6332
 9538SOL    HW140247   3.214   4.566   2.270 -0.9996 -0.9791  1.2544
 9538SOL    HW240248   3.356   4.594   2.281  0.3340 -0.1025 -0.5221
 9539SOL     OW40249   1.719   3.696   8.534 -0.8322  0.1587  0.0068
 9539SOL    HW140250   1.714   3.721   8.626 -1.9548 -3.3031  0.8778
 9539SOL    HW240251   1.776   3.761   8.493 -0.7910 -0.0735 -0.2991
 9540SOL     OW40252   2.843   1.811   2.877 -0.0304  0.0094 -0.0870
 9540SOL    HW140253   2.881   1.884   2.926  0.6249  0.1533 -0.8157
 9540SOL    HW240254   2.864   1.845   2.790  0.6561 -0.4884 -0.1110
 9541SOL     OW40255   4.492   3.047   6.035 -0.0050 -0.2268 -0.4294
 9541SOL    HW140256   4.529   3.087   6.115 -0.4861 -0.9288  0.1448
 9541SOL    HW240257   4.405   3.086   6.034  0.5708  1.1385  1.3062
 9542SOL     OW40258   0.891   1.424   2.789  0.2058  0.3549  0.5475
 9542SOL    HW140259   0.941   1.489   2.738  1.1622 -1.6909 -1.1172
 9542SOL    HW240260   0.892   1.363   2.715 -3.6653 -0.3957  1.1296
 9543SOL     OW40261   2.470   1.034   8.757  0.2537 -0.1517  0.4233
 9543SOL    HW140262   2.493   1.029   8.664 -0.4671  3.2416  0.0681
 9543SOL    HW240263   2.407   1.105   8.762  0.6465  0.3504 -1.4681
 9544SOL     OW40264   3.225   0.403   4.079 -0.3150 -0.1430  0.5137
 9544SOL    HW140265   3.185   0.331   4.128  2.3638 -1.6925  0.4503
 9544SOL    HW240266   3.157   0.470   4.081 -0.8976 -0.6610 -1.8490
 9545SOL     OW40267   0.536   0.042   8.412  0.1040  0.5489 -0.5967
 9545SOL    HW140268   0.612   0.099   8.400  1.1331 -0.5295  0.8751
 9545SOL    HW240269   0.466   0.103   8.436 -0.9970  0.3124 -3.2250
 9546SOL     OW40270   2.959   4.038  15.037 -0.5081 -0.5855  0.1633
 9546SOL    HW140271   2.880   4.020  14.986 -0.4971  0.1579 -0.1023
 9546SOL    HW240272   2.963   3.952  15.079 -1.9389 -0.7456 -0.0087
 9547SOL     OW40273   0.999   4.589   4.105  0.0047 -0.1270 -0.1218
 9547SOL    HW140274   0.906   4.600   4.088  0.3559 -0.6017 -2.3044
 9547SOL    HW240275   0.997   4.494   4.119  1.5557 -0.1645 -0.1235
 9548SOL     OW40276   2.598   3.907   5.027  0.3219  0.6875  0.3527
 9548SOL    HW140277   2.557   3.823   5.004 -1.0781  0.8835  2.1569
 9548SOL    HW240278   2.652   3.926   4.950 -1.4765  1.3456 -0.7568
 9549SOL     OW40279   2.426   1.520   2.833 -0.0327 -0.3212 -0.2266
 9549SOL    HW140280   2.459   1.513   2.744  0.1089 -3.5666  0.0893
 9549SOL    HW240281   2.343   1.473   2.836  0.9034 -1.8803  1.1018
 9550SOL     OW40282   0.255   0.953   0.325 -0.3164 -0.0822 -0.0026
 9550SOL    HW140283   0.272   1.013   0.397  1.2734  0.5488 -0.9140
 9550SOL    HW240284   0.267   0.864   0.359  0.0074  0.2235  0.6862
 9551SOL     OW40285   3.605   3.095   9.537 -0.0503  0.2415 -0.6246
 9551SOL    HW140286   3.572   3.123   9.623  0.3635 -2.5668  0.4374
 9551SOL    HW240287   3.551   3.147   9.477  0.2549 -0.4292 -1.4843
 9552SOL     OW40288   4.078   4.556   6.578 -0.1734 -0.2924 -0.4568
 9552SOL    HW140289   4.083   4.502   6.499  0.3540 -2.1251  0.8248
 9552SOL    HW240290   3.985   4.572   6.591 -0.4297 -3.3928  1.6630
 9553SOL     OW40291   4.075   1.559   8.847 -0.8574 -0.2703 -0.1649
 9553SOL    HW140292   4.115   1.479   8.882 -0.5842 -0.5797 -1.1836
 9553SOL    HW240293   4.081   1.618   8.922  0.9670 -0.1550 -0.4013
 9554SOL     OW40294   2.444   2.601   5.423 -0.2767  0.7660 -0.3481
 9554SOL    HW140295   2.367   2.547   5.404 -0.3917 -0.2342  2.9017
 9554SOL    HW240296   2.427   2.688   5.388  1.5008  1.1799 -0.1637
 9555SOL     OW40297   0.105   2.128   5.063 -0.1580 -0.6489 -0.2214
 9555SOL    HW140298   0.029   2.186   5.072  1.8053  1.8779 -0.0190
 9555SOL    HW240299   0.066   2.041   5.052  0.2514 -0.9322  0.5341
 9556SOL     OW40300   2.084   4.199  12.880  0.4907 -0.2653 -0.1737
 9556SOL    HW140301   2.142   4.123  12.886  0.5798 -0.0121  2.1165
 9556SOL    HW240302   2.039   4.170  12.800  0.8832  0.9289 -0.8220
 9557SOL     OW40303   3.614   3.503   6.298 -0.1686  0.6026  0.1283
 9557SOL    HW140304   3.670   3.511   6.376 -1.6792 -2.1660  1.4662
 9557SOL    HW240305   3.566   3.424   6.321  1.3876 -0.5901 -0.7090
 9558SOL     OW40306   1.698   1.945   7.218 -0.1078  0.4377 -0.2067
 9558SOL    HW140307   1.699   1.850   7.232  2.1981  0.4870  0.0319
 9558SOL    HW240308   1.789   1.973   7.227  0.0304  0.4062 -1.4759
 9559SOL     OW40309   4.572   3.857   7.134  0.5352 -0.1468  0.1696
 9559SOL    HW140310   4.563   3.952   7.140 -0.2282 -0.1122 -1.4700
 9559SOL    HW240311   4.493   3.838   7.083 -0.4637 -0.2219  1.7397
 9560SOL     OW40312   1.921   0.042   7.163 -0.2411 -0.0074  0.0659
 9560SOL    HW140313   1.840   0.004   7.198 -0.4958 -0.0296 -0.5496
 9560SOL    HW240314   1.888   0.129   7.145 -0.9248 -0.5564 -1.3264
 9561SOL     OW40315   0.280   3.901  14.757 -0.1792 -0.0689  0.8215
 9561SOL    HW140316   0.299   3.924  14.848  1.4715  1.0061  0.2152
 9561SOL    HW240317   0.225   3.823  14.763  0.6978 -0.6862  0.8054
 9562SOL     OW40318   0.844   2.621   5.927 -0.0247 -0.7448 -0.2627
 9562SOL    HW140319   0.832   2.643   6.019  0.2991 -1.9777  0.0815
 9562SOL    HW240320   0.933   2.585   5.921  0.7611  1.2469 -0.5450
 9563SOL     OW40321   0.928   1.833  17.130 -0.4912  0.2125  0.1306
 9563SOL    HW140322   0.886   1.908  17.171 -1.6076 -0.5484  0.3576
 9563SOL    HW240323   0.859   1.823  17.064 -1.6714 -1.7681  1.6769
 9564SOL     OW40324   0.478   2.411   0.423  0.0343 -0.1559 -0.0595
 9564SOL    HW140325   0.383   2.412   0.409  0.0591 -1.5684 -0.3776
 9564SOL    HW240326   0.486   2.441   0.513  3.5899 -1.5228  0.0892
 9565SOL     OW40327   4.519   0.126   9.452 -0.2093  0.1628 -0.4287
 9565SOL    HW140328   4.604   0.121   9.496 -0.5394 -1.1886  0.0429
 9565SOL    HW240329   4.543   0.129   9.360  0.9808  0.4282 -0.1019
 9566SOL     OW40330   4.088   4.533  12.272  0.5717  0.1366 -0.1862
 9566SOL    HW140331   4.046   4.452  12.241 -1.4895  1.5435 -1.1010
 9566SOL    HW240332   4.015   4.594  12.279  0.6632  0.2454 -0.1729
 9567SOL     OW40333   1.417   0.856   8.103 -0.1779  0.3942 -0.1618
 9567SOL    HW140334   1.329   0.818   8.110  0.3526 -0.7939  0.1690
 9567SOL    HW240335   1.396   0.922   8.169  0.2445 -0.7548  1.1215
 9568SOL     OW40336   3.009   4.124  15.518  0.1619  0.2690  0.4377
 9568SOL    HW140337   3.035   4.041  15.478 -1.3088 -0.6636  1.4031
 9568SOL    HW240338   2.913   4.121  15.513  0.1916 -0.2635  0.1162
 9569SOL     OW40339   0.717   0.174  14.232  0.1285  0.8658  0.0649
 9569SOL    HW140340   0.652   0.238  14.204  0.5936  1.7857  1.0916
 9569SOL    HW240341   0.673   0.122  14.298 -1.5762 -0.6521 -2.2486
 9570SOL     OW40342   1.131   4.333   1.060  0.4238  0.2857  0.4939
 9570SOL    HW140343   1.060   4.285   1.018  0.0861  1.0876  0.1556
 9570SOL    HW240344   1.141   4.413   1.007  1.7096  0.4649  0.9972
 9571SOL     OW40345   1.948   1.672   1.345 -0.1838 -0.6602  0.0142
 9571SOL    HW140346   1.864   1.676   1.300  0.9924  0.5519 -2.0485
 9571SOL    HW240347   1.963   1.578   1.334  0.3663 -0.9615  3.2078
   4.73585   4.73585  17.74203
