Membrane in water
40347
    1TMC1    C1    1   2.513   2.087  11.469  0.1137 -0.1075  0.7171
    1TMC1    C2    2   2.605   1.993  11.435  0.3888  0.1152 -0.4751
    1TMC1    C3    3   2.677   2.023  11.328  0.1333 -0.0054 -0.6722
    1TMC1    C4    4   2.480   2.194  11.394 -0.3029  0.4136  0.0103
    1TMC1    C5    5   2.557   2.210  11.277 -0.4080 -0.0360 -0.3364
    1TMC1    C6    6   2.656   2.124  11.236 -0.1659 -0.0426 -0.2931
    1TMC1     C    7   2.442   2.072  11.595  0.5693  0.4963  0.1504
    1TMC1     O    8   2.370   2.163  11.636 -0.1153  0.0444  0.2918
    1TMC1     H    9   2.640   1.910  11.497  0.9459  0.2305 -0.6315
    1TMC1    H1   10   2.406   2.267  11.425 -0.5106  1.6390 -3.3956
    1TMC1    H2   11   2.725   2.141  11.154 -0.8964  0.0177 -0.8912
    1TMC1    C7   12   2.574   2.349  11.232 -1.3197 -0.6980 -0.6418
    1TMC1    C8   13   2.758   1.914  11.280 -0.4144 -0.6725  0.3130
    1TMC1    O1   14   2.561   2.446  11.300  0.1416  0.6154  0.0684
    1TMC1    O2   15   2.866   1.934  11.227 -0.2147 -0.2553  0.1427
    1TMC1    O3   16   2.550   2.339  11.096  0.7037  0.1469  0.2909
    1TMC1    H3   17   2.545   2.244  11.072  2.9530 -0.0128  0.4000
    1TMC1    O5   18   2.667   1.833  11.226 -0.2040  0.6015  0.3307
    1TMC1    H5   19   2.587   1.817  11.280  0.0314 -1.5477  0.0454
    2MPD2     C   20   2.420   1.885  12.069 -0.3123 -0.6763 -0.0631
    2MPD2    C1   21   2.350   1.978  12.015  0.5449 -0.0795 -0.1086
    2MPD2    C2   22   2.341   1.988  11.872  0.0719  0.0495 -0.2270
    2MPD2    C3   23   2.418   1.911  11.785  0.1692 -0.3081  0.4202
    2MPD2    C4   24   2.487   1.812  11.847  0.4646  0.7326 -0.4637
    2MPD2    C5   25   2.494   1.804  11.984 -0.3012  0.2718  0.4448
    2MPD2     H   26   2.284   2.072  11.833  1.5892  1.2751  0.1759
    2MPD2    H1   27   2.559   1.754  11.790 -1.0054  0.0871 -1.6662
    2MPD2    H2   28   2.429   1.877  12.176  0.5301 -1.0576 -0.1640
    2MPD2    H3   29   2.563   1.732  12.027 -0.6613  0.7121  1.7597
    2MPD2     N   30   2.461   1.948  11.653 -0.1551  0.2418  0.1728
    2MPD2    H5   31   2.539   1.893  11.618 -1.7979 -1.2636 -1.1294
    2MPD2    N1   32   2.279   2.067  12.099 -0.2870 -0.0589  0.0514
    2MPD2    H7   33   2.247   2.151  12.052 -1.7238 -0.5210  0.2047
    3TMC1    C1   34   1.801   3.783  11.020  0.1836 -0.3412  0.5590
    3TMC1    C2   35   1.835   3.889  10.939  0.6937 -0.3173 -0.0212
    3TMC1    C3   36   1.826   3.881  10.803 -0.8437 -0.6686  0.4843
    3TMC1    C4   37   1.765   3.664  10.970 -0.7998  0.0347 -0.1069
    3TMC1    C5   38   1.754   3.657  10.833 -0.6430  0.7408 -0.3012
    3TMC1    C6   39   1.790   3.757  10.753  0.5789  0.3534  0.5739
    3TMC1     C   40   1.767   3.806  11.162  0.1048  0.1804  0.1592
    3TMC1     O   41   1.751   3.707  11.224  0.0163  0.0715 -0.2177
    3TMC1     H   42   1.848   3.991  10.975 -4.2643 -0.1945  1.4224
    3TMC1    H1   43   1.740   3.581  11.035 -1.4696 -0.4344 -0.9526
    3TMC1    H2   44   1.798   3.740  10.646  0.8650 -0.4527  0.7222
    3TMC1    C7   45   1.664   3.548  10.793  0.5123 -0.0102 -0.1460
    3TMC1    C8   46   1.859   3.993  10.717  0.3584  0.3739 -0.2015
    3TMC1    O1   47   1.653   3.444  10.852 -0.6337  0.0067  0.0017
    3TMC1    O2   48   1.838   3.991  10.595  0.6653 -0.5549 -0.0106
    3TMC1    O3   49   1.613   3.568  10.670  0.1458 -0.1070 -0.0052
    3TMC1    H3   50   1.625   3.663  10.651  1.6297  0.3686  3.3698
    3TMC1    O5   51   1.954   4.071  10.775 -0.2285  0.2297  0.3677
    3TMC1    H5   52   1.964   4.052  10.871 -2.4550  2.1020  0.9741
    4MPD2     C   53   1.582   4.137  11.516 -0.1723  0.0844  0.3133
    4MPD2    C1   54   1.575   4.191  11.389  0.7059 -0.2811  0.7696
    4MPD2    C2   55   1.626   4.121  11.284  0.1168  0.0749  0.3997
    4MPD2    C3   56   1.671   3.991  11.295  0.5010  0.6398  0.4929
    4MPD2    C4   57   1.681   3.940  11.420  0.1582  0.0075  0.6103
    4MPD2    C5   58   1.629   4.008  11.523 -0.6074 -0.2399 -0.5196
    4MPD2     H   59   1.611   4.161  11.184 -0.5986  0.5662  0.7055
    4MPD2    H1   60   1.734   3.847  11.435  1.6471  0.9219  0.9937
    4MPD2    H2   61   1.557   4.190  11.608  1.6388  3.1056 -0.9602
    4MPD2    H3   62   1.640   3.974  11.625 -0.9962  1.3422  0.0488
    4MPD2     N   63   1.732   3.935  11.186 -0.2814  0.3869 -0.0384
    4MPD2    H5   64   1.736   3.995  11.104  1.4111 -0.4567 -0.5623
    4MPD2    N1   65   1.535   4.325  11.355  0.0217  0.3229  0.3468
    4MPD2    H7   66   1.536   4.363  11.261 -0.1934  0.9686  0.6052
    5TCq1    O1   67   2.816   0.996  12.001  0.7534  0.2635 -0.4757
    5TCq1    C1   68   2.700   0.999  12.070  0.2102  0.1468 -0.7298
    5TCq1    O2   69   2.687   1.015  12.194  0.0024  0.2974  0.7413
    5TCq1    C2   70   2.597   1.014  11.969  0.1027 -0.3323 -0.2116
    5TCq1    C3   71   2.475   1.066  12.007  0.4056 -0.6510 -0.4458
    5TCq1    C4   72   2.382   1.081  11.916  0.6982 -0.2577 -0.9755
    5TCq1    C5   73   2.407   1.058  11.787  0.0960  0.0416 -0.9323
    5TCq1    C6   74   2.530   1.016  11.749 -0.2674 -0.1623 -0.3737
    5TCq1    C7   75   2.628   0.985  11.839  0.0276 -0.2234  0.7301
    5TCq1    C8   76   2.545   0.967  11.616  0.3518 -0.2887 -0.0519
    5TCq1    O4   77   2.602   0.860  11.599 -0.4774 -0.1317 -0.0124
    5TCq1    C9   78   2.245   1.116  11.959  0.3239  0.5647 -0.4371
    5TCq1    O5   79   2.157   1.082  11.877 -0.6297  0.1891  0.5404
    5TCq1    O6   80   2.215   1.130  12.080 -0.1504  0.7045  0.2702
    5TCq1    H1   81   2.892   0.955  12.047  1.7480 -0.3809 -2.6562
    5TCq1    H2   82   2.450   1.090  12.109 -1.0329  0.5223 -1.0592
    5TCq1    H3   83   2.325   1.068  11.717  2.1393 -0.6003 -3.4375
    5TCq1    H4   84   2.726   0.957  11.802 -1.1381 -2.0539 -0.9360
    6MPD2     C   85   2.369   1.106  11.317 -0.4413  0.5745 -0.5085
    6MPD2    C1   86   2.459   1.024  11.389  0.0573  0.2550 -0.6392
    6MPD2    C2   87   2.504   0.909  11.325  0.0452 -0.6686  0.0453
    6MPD2    C3   88   2.456   0.877  11.203 -0.0668 -0.3307 -0.3551
    6MPD2    C4   89   2.370   0.954  11.138  0.4080 -0.3033 -0.2487
    6MPD2    C5   90   2.333   1.077  11.185  0.5131 -0.4187  0.2421
    6MPD2     H   91   2.574   0.838  11.368 -0.4100 -0.9397  0.3453
    6MPD2    H1   92   2.337   0.939  11.036  0.2437 -0.7595 -0.1273
    6MPD2    H2   93   2.338   1.202  11.356 -1.1850  0.4794 -0.8653
    6MPD2    H3   94   2.274   1.142  11.121  0.9250 -0.0525  0.2336
    6MPD2     N   95   2.486   0.751  11.150  0.1210 -0.4097  0.2864
    6MPD2    H5   96   2.546   0.688  11.202 -0.3350  0.1293  1.4733
    6MPD2    N1   97   2.476   1.049  11.531 -0.1919  0.0873 -0.4371
    6MPD2    H7   98   2.429   1.129  11.573 -0.9906 -1.3274  1.3313
    7TCq1    O1   99   4.254   0.473  13.559 -0.3373 -0.1396  0.2158
    7TCq1    C1  100   4.333   0.478  13.450 -0.0408  0.1446  0.8293
    7TCq1    O2  101   4.406   0.570  13.417 -0.0936 -0.3543 -0.1084
    7TCq1    C2  102   4.304   0.358  13.379 -0.4022  0.3536  0.5600
    7TCq1    C3  103   4.174   0.322  13.357  0.6782 -0.7303 -0.2752
    7TCq1    C4  104   4.151   0.201  13.301  0.3559  0.6213  0.4829
    7TCq1    C5  105   4.264   0.133  13.243 -0.0458 -0.0842  0.5888
    7TCq1    C6  106   4.391   0.181  13.268  0.1585 -0.2899  0.3664
    7TCq1    C7  107   4.413   0.296  13.336 -0.0097 -0.3995 -0.1256
    7TCq1    C8  108   4.497   0.083  13.264 -0.6524  0.2583 -0.6291
    7TCq1    O4  109   4.478   4.717  13.202  0.5030 -0.1691 -0.0204
    7TCq1    C9  110   4.015   0.159  13.283  0.0724  0.5791  0.2059
    7TCq1    O5  111   3.929   0.206  13.366 -0.4821  0.1835  0.1991
    7TCq1    O6  112   3.989   0.061  13.215 -0.4224  0.3945  0.1427
    7TCq1    H1  113   4.211   0.385  13.569  0.4610 -0.3938  1.4422
    7TCq1    H2  114   4.096   0.393  13.380 -0.1743 -1.7178 -0.1303
    7TCq1    H3  115   4.243   0.037  13.197  1.8405  0.3714 -1.1824
    7TCq1    H4  116   4.504   0.352  13.352 -0.4270 -0.3705  2.1714
    8MPD2     C  117   0.138   4.618  13.551  0.3956 -0.5308 -0.9800
    8MPD2    C1  118   0.072   4.569  13.441  0.0220 -0.3750  0.0426
    8MPD2    C2  119   4.722   4.649  13.375  0.7922 -0.3148  0.1368
    8MPD2    C3  120   4.695   0.038  13.418  0.5696  0.1962 -0.7044
    8MPD2    C4  121   0.031   0.097  13.521 -0.0888 -0.6261 -0.2257
    8MPD2    C5  122   0.118   0.013  13.591 -0.7431 -0.2659  0.4654
    8MPD2     H  123   4.671   4.603  13.292 -1.4935 -0.1661  1.4602
    8MPD2    H1  124   0.006   0.196  13.558  1.2530  1.0569 -3.8677
    8MPD2    H2  125   0.211   4.562  13.608 -2.1738 -1.4840  1.3990
    8MPD2    H3  126   0.167   0.050  13.681 -0.5726 -1.0828  0.7105
    8MPD2     N  127   4.593   0.121  13.359 -0.1185 -0.1031 -0.2287
    8MPD2    H5  128   4.573   0.200  13.420 -0.3726 -0.3421 -0.0053
    8MPD2    N1  129   0.094   4.430  13.420  0.3670 -0.2082  0.2073
    8MPD2    H7  130   0.146   4.379  13.490 -0.3160 -0.0027  0.8616
    9TMC1    C1  131   2.207   3.228  10.595 -0.2315  0.4300  0.2764
    9TMC1    C2  132   2.206   3.223  10.463  0.6315 -0.1043 -0.3186
    9TMC1    C3  133   2.179   3.336  10.387  0.4348  0.4375 -0.5228
    9TMC1    C4  134   2.184   3.346  10.656 -0.1439 -0.4791 -0.0608
    9TMC1    C5  135   2.144   3.449  10.579 -0.1140 -0.1178  0.5179
    9TMC1    C6  136   2.143   3.454  10.442  1.0422  0.2498  0.3869
    9TMC1     C  137   2.194   3.103  10.670  0.2243 -0.0968 -0.2264
    9TMC1     O  138   2.201   3.003  10.607  0.0606  0.2636 -0.0777
    9TMC1     H  139   2.224   3.123  10.425 -0.2069  0.4281 -2.1305
    9TMC1    H1  140   2.185   3.363  10.763 -0.0089 -0.0047 -0.1367
    9TMC1    H2  141   2.097   3.531  10.381 -0.0168  1.6066  2.8863
    9TMC1    C7  142   2.094   3.562  10.657  0.0207  0.6095 -0.2668
    9TMC1    C8  143   2.122   3.311  10.247  0.0742  0.2835  0.2688
    9TMC1    O1  144   2.032   3.543  10.762 -0.0956 -0.3438 -0.4326
    9TMC1    O2  145   2.051   3.218  10.217 -0.1353 -0.2096  0.3599
    9TMC1    O3  146   2.041   3.637  10.563  0.0102  0.3912  0.4789
    9TMC1    H3  147   2.113   3.670  10.505  0.7378 -0.8430  0.6932
    9TMC1    O5  148   2.144   3.421  10.171  0.0902 -0.2982  0.3806
    9TMC1    H5  149   2.216   3.482  10.198 -0.1852 -0.4733  1.4929
   10MPD2     C  150   2.081   2.905  10.874 -0.0420  0.1705  0.3595
   10MPD2    C1  151   2.152   3.022  10.901 -0.4775 -0.4616 -0.0230
   10MPD2    C2  152   2.187   3.038  11.038 -0.4662  0.6046 -0.4039
   10MPD2    C3  153   2.166   2.945  11.134 -0.1257  0.1736  0.4749
   10MPD2    C4  154   2.084   2.834  11.105 -0.7379  0.6540  0.4372
   10MPD2    C5  155   2.050   2.815  10.970  0.5933  0.0291 -0.2035
   10MPD2     H  156   2.253   3.124  11.047  0.5633 -0.0837 -1.4258
   10MPD2    H1  157   2.064   2.752  11.173  0.9660  0.2736  0.4986
   10MPD2    H2  158   2.049   2.886  10.772 -2.2467  2.6975  0.5928
   10MPD2    H3  159   1.992   2.725  10.953  2.7705 -1.0737 -1.7860
   10MPD2     N  160   2.226   2.951  11.264 -0.0608 -0.0791  0.1454
   10MPD2    H5  161   2.214   2.873  11.327  0.6494 -1.1753 -1.0799
   10MPD2    N1  162   2.200   3.116  10.803 -0.9242 -0.3779  0.3055
   10MPD2    H7  163   2.237   3.203  10.841  0.1613 -0.9756  0.6029
   11TCq1    O1  164   2.940   3.922  14.925  0.2990 -0.2496  0.2434
   11TCq1    C1  165   2.816   3.974  14.916  0.3229  0.8262  0.3628
   11TCq1    O2  166   2.739   3.969  15.010  0.3280 -0.0212  0.0532
   11TCq1    C2  167   2.780   3.959  14.774  0.6830 -0.0827  0.2574
   11TCq1    C3  168   2.879   3.961  14.675 -0.5127 -0.5567  0.4301
   11TCq1    C4  169   2.836   3.942  14.543 -0.1730 -0.4610  0.2067
   11TCq1    C5  170   2.707   3.919  14.514  0.5101  0.6718  0.3401
   11TCq1    C6  171   2.611   3.910  14.613 -0.9535  0.1937  0.0268
   11TCq1    C7  172   2.646   3.934  14.744 -0.1753  0.3447  0.3169
   11TCq1    C8  173   2.477   3.855  14.590  0.8460  0.1507 -0.2969
   11TCq1    O4  174   2.389   3.883  14.670  0.1438 -0.3709  0.0441
   11TCq1    C9  175   2.926   3.910  14.441 -0.5102  0.4042  0.7672
   11TCq1    O5  176   3.031   3.979  14.439 -0.0569 -0.2070  0.1728
   11TCq1    O6  177   2.888   3.838  14.350  0.7369  0.0450 -0.5551
   11TCq1    H1  178   2.995   3.917  14.844  0.2693 -0.6761  0.2461
   11TCq1    H2  179   2.984   3.967  14.699 -0.4791  1.5358 -0.2309
   11TCq1    H3  180   2.685   3.905  14.409 -1.1978  0.2034  0.7525
   11TCq1    H4  181   2.563   3.932  14.814 -2.1195 -0.2979 -2.0003
   12MPD2     C  182   2.229   3.752  14.475  0.1545  0.1740  0.4364
   12MPD2    C1  183   2.348   3.715  14.429 -0.0885 -0.8081 -0.2361
   12MPD2    C2  184   2.356   3.610  14.334  0.3277  0.0260 -0.2035
   12MPD2    C3  185   2.249   3.544  14.279 -0.4229  0.6128  0.2060
   12MPD2    C4  186   2.123   3.595  14.321 -0.4185  0.3962  0.2220
   12MPD2    C5  187   2.124   3.678  14.430  0.5705  0.3475  0.3960
   12MPD2     H  188   2.459   3.590  14.307  0.2146 -1.3187  0.3547
   12MPD2    H1  189   2.030   3.551  14.287 -0.0755 -0.3026  0.1822
   12MPD2    H2  190   2.203   3.822  14.554  0.8632  0.2537  0.6015
   12MPD2    H3  191   2.023   3.698  14.465 -1.1885 -3.7397 -2.2935
   12MPD2     N  192   2.241   3.442  14.178  0.4343 -0.0727  0.7206
   12MPD2    H5  193   2.154   3.390  14.179 -0.2188  1.0188 -0.4471
   12MPD2    N1  194   2.469   3.779  14.474 -0.0571  0.2203  0.1999
   12MPD2    H7  195   2.554   3.748  14.428 -0.9468 -1.8306 -0.0860
   13TCq1    O1  196   2.092   3.928  10.069 -0.1405  0.5663 -0.7753
   13TCq1    C1  197   1.969   3.970  10.114  0.6261  0.2531 -0.5264
   13TCq1    O2  198   1.951   4.054  10.206 -0.0852  0.7494 -0.8709
   13TCq1    C2  199   1.879   3.858  10.091 -0.0557  0.1090  0.3843
   13TCq1    C3  200   1.885   3.809   9.969 -0.3640 -0.0397 -0.1125
   13TCq1    C4  201   1.872   3.674   9.962 -0.2933 -0.3941  0.0527
   13TCq1    C5  202   1.859   3.594  10.072 -0.2444  0.7387  0.0524
   13TCq1    C6  203   1.824   3.655  10.188 -0.1042  0.1706 -0.3200
   13TCq1    C7  204   1.837   3.791  10.204 -0.5883 -0.5353 -0.1111
   13TCq1    C8  205   1.790   3.577  10.311 -0.0057  0.2679  0.9630
   13TCq1    O4  206   1.779   3.642  10.413 -0.2136  0.4934 -0.4046
   13TCq1    C9  207   1.881   3.612   9.835 -0.1118 -0.0589 -0.4353
   13TCq1    O5  208   1.903   3.694   9.742  0.4317 -0.0633  0.1026
   13TCq1    O6  209   1.872   3.484   9.826  0.0730 -0.0257 -0.7789
   13TCq1    H1  210   2.086   3.849  10.011 -1.2562 -0.8785  1.3237
   13TCq1    H2  211   1.899   3.872   9.882 -0.1149 -0.3900 -0.3214
   13TCq1    H3  212   1.872   3.488  10.052  2.1324  1.0563 -0.0599
   13TCq1    H4  213   1.834   3.845  10.298  0.2075 -0.0404 -0.3740
   14MPD2     C  214   1.753   3.221  10.342  0.1038  0.0262  0.6856
   14MPD2    C1  215   1.781   3.344  10.391 -0.2895  0.1908 -0.2337
   14MPD2    C2  216   1.817   3.363  10.525 -0.5865  0.4162 -0.2350
   14MPD2    C3  217   1.830   3.256  10.609  1.2385 -0.0819 -0.3772
   14MPD2    C4  218   1.803   3.128  10.556  0.6567 -0.5481 -0.7232
   14MPD2    C5  219   1.761   3.115  10.431 -0.3889 -0.3363 -0.4551
   14MPD2     H  220   1.841   3.460  10.566  0.8248 -1.1401  2.6509
   14MPD2    H1  221   1.811   3.034  10.610 -0.3403  0.0407  0.4529
   14MPD2    H2  222   1.734   3.203  10.236 -1.0594 -1.3023  1.1159
   14MPD2    H3  223   1.735   3.015  10.398 -2.4059 -0.0181  0.1622
   14MPD2     N  224   1.866   3.273  10.748 -0.1136 -0.0570 -0.4405
   14MPD2    H5  225   1.889   3.367  10.780  0.6387 -0.4604  0.1784
   14MPD2    N1  226   1.781   3.443  10.293 -0.2594  0.0708  0.2660
   14MPD2    H7  227   1.783   3.415  10.195 -4.0249  0.1496  0.1800
   15TCq1    O1  228   3.409   0.733   1.751  0.1518  0.2609 -0.2596
   15TCq1    C1  229   3.390   0.858   1.800  0.3742  1.2114 -0.3380
   15TCq1    O2  230   3.310   0.890   1.885  0.8244  0.0062  0.3674
   15TCq1    C2  231   3.407   0.938   1.677  0.0804  0.0670 -0.0722
   15TCq1    C3  232   3.328   1.048   1.666  0.3636  0.7273  0.8658
   15TCq1    C4  233   3.370   1.145   1.575 -0.5550  0.5287 -0.1786
   15TCq1    C5  234   3.477   1.137   1.499  0.0657  0.6626  0.3833
   15TCq1    C6  235   3.556   1.026   1.512 -0.3364  0.2206 -0.6043
   15TCq1    C7  236   3.523   0.932   1.608 -0.7521 -0.2769  0.1036
   15TCq1    C8  237   3.677   0.998   1.428 -0.6374 -0.2423  0.2843
   15TCq1    O4  238   3.761   0.918   1.470  0.5224  0.5362 -0.0719
   15TCq1    C9  239   3.279   1.256   1.546  0.0174  0.9540  0.8811
   15TCq1    O5  240   3.193   1.267   1.629  0.6299 -0.1221  0.0792
   15TCq1    O6  241   3.304   1.324   1.445 -0.3283 -0.5220 -0.1243
   15TCq1    H1  242   3.421   0.731   1.653  2.7101  0.7468  0.0435
   15TCq1    H2  243   3.243   1.061   1.731 -0.1542  0.8742  0.1564
   15TCq1    H3  244   3.513   1.216   1.434  0.5569 -0.3197 -0.5396
   15TCq1    H4  245   3.586   0.845   1.622 -0.7909 -0.3754 -0.3235
   16MPD2     C  246   3.723   1.173   1.113  0.0334 -0.3794  0.4083
   16MPD2    C1  247   3.750   1.077   1.209 -0.2304  0.4105  0.3702
   16MPD2    C2  248   3.858   0.993   1.194 -0.2002  0.6677 -0.1376
   16MPD2    C3  249   3.951   1.004   1.087  0.5612  1.2368 -0.1678
   16MPD2    C4  250   3.919   1.103   0.993  0.5460 -0.4538  0.7225
   16MPD2    C5  251   3.814   1.187   1.014 -0.0610 -0.1977 -0.0785
   16MPD2     H  252   3.874   0.923   1.275 -3.2781  0.5666  0.4083
   16MPD2    H1  253   3.973   1.132   0.903  1.3953 -0.9949  1.0615
   16MPD2    H2  254   3.640   1.241   1.128  0.5155  0.1644  0.5930
   16MPD2    H3  255   3.792   1.259   0.936 -1.2922  0.6012  1.0178
   16MPD2     N  256   4.060   0.910   1.082 -0.2043 -0.6627  0.1944
   16MPD2    H5  257   4.071   0.842   1.156 -1.6070  0.0699  1.0786
   16MPD2    N1  258   3.666   1.072   1.315  0.1186 -0.4093 -0.0348
   16MPD2    H7  259   3.582   1.123   1.292 -0.0183 -0.1008  1.1471
   17TMC1    C1  260   1.855   2.245  10.638  0.1210 -0.2104  0.6112
   17TMC1    C2  261   1.951   2.141  10.634 -0.0572  0.2617 -0.2013
   17TMC1    C3  262   1.903   2.015  10.636 -0.1823  0.8504  0.5748
   17TMC1    C4  263   1.720   2.227  10.623  0.1963  0.0393  0.2870
   17TMC1    C5  264   1.678   2.102  10.624 -0.0680  0.8092  0.2177
   17TMC1    C6  265   1.766   1.994  10.628  0.1551 -0.3193  0.3606
   17TMC1     C  266   1.913   2.373  10.615  0.0660  0.3721 -0.0830
   17TMC1     O  267   1.858   2.455  10.544  0.1390  0.3933  0.3129
   17TMC1     H  268   2.055   2.166  10.620 -0.5834  2.9978  0.7695
   17TMC1    H1  269   1.662   2.317  10.606  1.1225  0.4675 -0.6108
   17TMC1    H2  270   1.730   1.893  10.649 -1.9169  0.5222  0.8266
   17TMC1    C7  271   1.536   2.069  10.588  0.6410 -0.1290  0.1561
   17TMC1    C8  272   1.966   1.909  10.704  0.5021 -0.2855  0.4942
   17TMC1    O1  273   1.502   1.960  10.545 -0.4864  0.1514  0.3340
   17TMC1    O2  274   1.952   1.798  10.659  0.1283  0.4426 -0.1815
   17TMC1    O3  275   1.482   2.141  10.689  0.2868  0.5232  0.1985
   17TMC1    H3  276   1.541   2.193  10.747  2.5481 -1.2630 -0.4602
   17TMC1    O5  277   2.080   1.961  10.759  0.2843  0.1836 -0.7733
   17TMC1    H5  278   2.062   2.049  10.799 -1.5312 -0.1199 -0.9131
   18MPD2     C  279   2.130   2.561  10.526  0.2899 -0.3435  0.5984
   18MPD2    C1  280   2.125   2.498  10.652  0.3818  0.2150  1.1425
   18MPD2    C2  281   2.219   2.534  10.744  0.7793  0.2692  0.6610
   18MPD2    C3  282   2.325   2.617  10.715 -0.8467 -0.7394 -0.2449
   18MPD2    C4  283   2.333   2.658  10.588  0.1316  0.7517  0.9934
   18MPD2    C5  284   2.235   2.637  10.495  0.5868 -0.4414  0.4006
   18MPD2     H  285   2.212   2.489  10.843 -2.9503  1.2355  0.8233
   18MPD2    H1  286   2.409   2.728  10.555  0.1384  0.7458  0.9965
   18MPD2    H2  287   2.057   2.541  10.448  0.4105 -0.4520  0.5139
   18MPD2    H3  288   2.233   2.685  10.397  2.2526 -2.1075 -0.4474
   18MPD2     N  289   2.425   2.661  10.801  0.2479  0.1183 -0.9554
   18MPD2    H5  290   2.488   2.730  10.761  0.9093  0.8649  1.4306
   18MPD2    N1  291   2.035   2.392  10.678  0.2861 -0.0839  0.5997
   18MPD2    H7  292   2.046   2.327  10.755 -1.9728  1.3902  2.1699
   19TMC2    C1  293   3.904   3.403  13.527  0.1618 -0.1081  0.0124
   19TMC2    C2  294   3.866   3.479  13.424 -0.2027 -0.1130  0.0795
   19TMC2    C3  295   3.728   3.489  13.404  0.3290 -0.0222  0.0745
   19TMC2    C4  296   3.824   3.348  13.619 -0.2516 -0.1661 -0.2455
   19TMC2    C5  297   3.687   3.361  13.598 -0.1965  0.5544  0.2246
   19TMC2    C6  298   3.636   3.423  13.485  0.2829 -0.0342  0.8353
   19TMC2     C  299   4.036   3.357  13.505  0.2060 -0.0885 -0.0951
   19TMC2     O  300   4.070   3.342  13.390  0.0116 -0.6428  0.2676
   19TMC2     H  301   3.944   3.538  13.376  0.6224 -0.9841  0.3538
   19TMC2    H1  302   3.866   3.290  13.701  3.6954  0.8624 -1.5320
   19TMC2    H2  303   3.535   3.414  13.446  0.2431  0.2743  0.8683
   19TMC2    C7  304   3.605   3.293  13.696 -0.4006 -0.4149 -0.2120
   19TMC2    C8  305   3.686   3.567  13.291 -0.0816  0.0668 -0.2060
   19TMC2    O1  306   3.657   3.205  13.764  0.3578  0.3098  0.0964
   19TMC2    O2  307   3.761   3.593  13.195 -0.4888 -0.0569  0.2800
   19TMC2    O5  308   3.570   3.632  13.324 -0.5520  0.7090 -0.1102
   19TMC2    H5  309   3.533   3.644  13.414 -0.3871 -0.4695  0.1282
   20MPD2     C  310   4.305   3.238  13.512  0.1209  0.2776  0.5047
   20MPD2    C1  311   4.230   3.258  13.628 -0.0599  0.8021 -0.6749
   20MPD2    C2  312   4.284   3.217  13.752 -0.3361 -0.1293  0.0473
   20MPD2    C3  313   4.404   3.150  13.753  0.7220  0.6022 -0.4253
   20MPD2    C4  314   4.476   3.134  13.645 -0.9930  0.8451 -0.0595
   20MPD2    C5  315   4.431   3.182  13.527 -0.1649  0.7296 -0.2516
   20MPD2     H  316   4.223   3.231  13.841  0.7764  1.5203  0.5468
   20MPD2    H1  317   4.578   3.099  13.652 -1.3115  0.5415  3.1392
   20MPD2    H2  318   4.275   3.269  13.413 -1.0610 -0.5669  0.6009
   20MPD2    H3  319   4.496   3.185  13.440 -1.6657 -0.0513 -1.4121
   20MPD2     N  320   4.456   3.103  13.877  0.5649 -0.0299 -0.0896
   20MPD2    H5  321   4.547   3.059  13.868  0.5517 -0.0564 -0.0913
   20MPD2    N1  322   4.100   3.320  13.620  0.2684 -0.2231 -0.1254
   20MPD2    H7  323   4.058   3.337  13.710  0.7506 -0.9572  0.2412
   21TMC2    C1  324   1.764   2.853  14.035 -0.6435  0.0795  0.5453
   21TMC2    C2  325   1.900   2.832  14.027 -0.0756 -0.3284  0.3524
   21TMC2    C3  326   1.961   2.829  14.147  1.0071  0.3921 -0.1060
   21TMC2    C4  327   1.695   2.864  14.155  0.5590 -0.0704 -0.1627
   21TMC2    C5  328   1.763   2.849  14.276  0.1070  0.3677 -0.1358
   21TMC2    C6  329   1.900   2.840  14.266 -0.1299 -0.3149  0.0497
   21TMC2     C  330   1.696   2.843  13.903  0.6029  0.1075 -0.4326
   21TMC2     O  331   1.743   2.756  13.834  0.0008 -0.1435  0.5571
   21TMC2     H  332   1.946   2.817  13.930 -0.7685 -2.7444  0.3814
   21TMC2    H1  333   1.588   2.878  14.162  0.6152 -1.3354  2.9776
   21TMC2    H2  334   1.962   2.821  14.353 -1.5600 -2.0309  0.7091
   21TMC2    C7  335   1.713   2.900  14.403  0.0124 -0.5024 -0.2300
   21TMC2    C8  336   2.096   2.781  14.156  0.0334  0.2707 -0.0248
   21TMC2    O1  337   1.774   2.875  14.503 -0.0755 -0.5112  0.2102
   21TMC2    O2  338   2.185   2.817  14.078 -0.1863  0.4314 -0.4683
   21TMC2    O5  339   2.097   2.667  14.232  0.0822 -0.7505  0.2846
   21TMC2    H5  340   2.017   2.618  14.262  0.7452 -1.6693  0.5517
   22MPD2     C  341   1.402   3.220  14.093 -0.3350  1.1324 -1.0717
   22MPD2    C1  342   1.538   3.206  14.087  0.6772  0.2099  0.9817
   22MPD2    C2  343   1.595   3.109  14.004 -0.8375  0.2531  0.3641
   22MPD2    C3  344   1.523   3.013  13.939 -0.2009  1.0176  0.8841
   22MPD2    C4  345   1.387   3.036  13.929 -0.1323  0.4569  0.3434
   22MPD2    C5  346   1.329   3.145  14.000 -0.3783 -0.2183  0.1771
   22MPD2     H  347   1.703   3.108  13.993 -0.8309  2.0287  0.2497
   22MPD2    H1  348   1.321   2.971  13.873 -0.9039  1.1156  0.4876
   22MPD2    H2  349   1.349   3.294  14.151 -0.4592  0.1909  0.0263
   22MPD2    H3  350   1.221   3.152  14.008 -0.6809 -3.5325 -0.9360
   22MPD2     N  351   1.580   2.906  13.877 -0.7986  0.0516 -0.2117
   22MPD2    H5  352   1.519   2.862  13.808 -0.8733  1.4429 -1.0352
   22MPD2    N1  353   1.623   3.277  14.170  0.1301  0.1923  0.1218
   22MPD2    H7  354   1.720   3.248  14.171  0.4171  1.3111  3.0935
   23TMC2    C1  355   3.152   4.446  14.728 -0.1600 -0.0163  0.3393
   23TMC2    C2  356   3.142   4.558  14.650 -0.1561  0.5817  0.0674
   23TMC2    C3  357   3.027   4.595  14.592  0.6877 -0.5000  0.3411
   23TMC2    C4  358   3.040   4.373  14.755  0.1640 -0.3681 -0.8808
   23TMC2    C5  359   2.922   4.398  14.687  0.0773  0.4474  0.6799
   23TMC2    C6  360   2.914   4.514  14.612 -1.2062 -0.5481 -0.0879
   23TMC2     C  361   3.271   4.418  14.803 -0.5521 -0.7218  0.2085
   23TMC2     O  362   3.245   4.350  14.906 -0.1394 -0.1759 -0.2072
   23TMC2     H  363   3.229   4.623  14.643 -1.0412  1.7250 -0.2942
   23TMC2    H1  364   3.061   4.283  14.813  0.8889 -0.0663 -0.6806
   23TMC2    H2  365   2.822   4.543  14.563 -0.3474 -0.9705 -1.9632
   23TMC2    C7  366   2.808   4.328  14.748 -0.2901 -0.7225 -0.2939
   23TMC2    C8  367   3.025   4.672  14.466  0.0561  0.1357 -0.1434
   23TMC2    O1  368   2.830   4.256  14.847  0.5563 -0.1444  0.5583
   23TMC2    O2  369   2.950   4.627  14.379  0.3190 -0.2516 -0.2591
   23TMC2    O5  370   3.122   0.021  14.455 -0.2527 -0.1323 -0.1168
   23TMC2    H5  371   3.150   0.046  14.545 -2.0770 -1.4971  0.8287
   24MPD2     C  372   3.762   4.454  14.950 -0.4868 -0.1026 -0.1390
   24MPD2    C1  373   3.659   4.378  14.995 -0.5425  0.4432  0.0637
   24MPD2    C2  374   3.537   4.377  14.935 -0.2976 -0.6703 -0.4505
   24MPD2    C3  375   3.513   4.459  14.823  0.4296  0.3607  0.1422
   24MPD2    C4  376   3.617   4.543  14.779  0.0360 -0.8338 -0.0184
   24MPD2    C5  377   3.739   4.533  14.841 -0.4994 -0.2250  0.0279
   24MPD2     H  378   3.455   4.318  14.974 -0.1604  0.4245  1.4851
   24MPD2    H1  379   3.601   4.625  14.709 -0.2774  0.4828  1.6009
   24MPD2    H2  380   3.863   4.451  14.991 -0.6817  2.3156  0.5371
   24MPD2    H3  381   3.816   4.605  14.818 -0.5332 -0.3045 -0.3268
   24MPD2     N  382   3.387   4.471  14.757  0.1795 -0.1549  0.2130
   24MPD2    H5  383   3.385   4.521  14.669 -3.8824  0.0613  0.4154
   24MPD2    N1  384   3.693   4.294  15.103  0.1399 -0.5876  0.4438
   24MPD2    H7  385   3.787   4.306  15.139  0.3846  0.1163 -0.4122
   25TMC2    C1  386   2.071   1.934  11.579  0.4119 -0.0675  0.5243
   25TMC2    C2  387   2.113   2.046  11.506  0.0879 -0.5518 -0.1843
   25TMC2    C3  388   2.074   2.166  11.536  0.1795 -0.6677  0.3767
   25TMC2    C4  389   1.995   1.954  11.694  0.6810 -0.0033  0.0296
   25TMC2    C5  390   1.951   2.083  11.714 -0.2094  0.4391 -0.7128
   25TMC2    C6  391   1.981   2.187  11.633  0.6512 -0.4136 -0.4322
   25TMC2     C  392   2.096   1.807  11.513  0.0810  0.4601  0.4193
   25TMC2     O  393   2.194   1.809  11.439 -0.5476  0.4043 -0.2922
   25TMC2     H  394   2.196   2.043  11.436  2.4048  1.5782  2.4913
   25TMC2    H1  395   1.954   1.875  11.755  0.2775 -0.1061 -0.3749
   25TMC2    H2  396   1.944   2.289  11.644  3.2541  0.6521 -1.5025
   25TMC2    C7  397   1.864   2.101  11.826 -0.4324 -0.1165 -0.3414
   25TMC2    C8  398   2.112   2.284  11.465  0.3245 -0.0648  0.3338
   25TMC2    O1  399   1.900   2.053  11.931  0.3797 -0.7759 -0.8006
   25TMC2    O2  400   2.098   2.398  11.514 -0.2802  0.4979 -0.1857
   25TMC2    O5  401   2.103   2.257  11.334 -0.0153 -0.0768 -0.1302
   25TMC2    H5  402   2.083   2.163  11.313  0.4752 -0.4794  1.1900
   26MPD2     C  403   1.934   1.351  11.331  0.3669  0.7161 -0.0661
   26MPD2    C1  404   1.848   1.393  11.431 -0.8937  0.0734 -0.9230
   26MPD2    C2  405   1.872   1.515  11.498  1.0605  0.6631 -0.3409
   26MPD2    C3  406   1.979   1.593  11.468 -0.6233  0.9534 -0.7229
   26MPD2    C4  407   2.069   1.546  11.374 -0.4368  0.4143 -0.3198
   26MPD2    C5  408   2.047   1.419  11.317  0.6227 -0.2291  0.2548
   26MPD2     H  409   1.800   1.554  11.569 -0.1074 -1.0933 -0.5591
   26MPD2    H1  410   2.151   1.607  11.340  0.5112 -0.0324  1.2094
   26MPD2    H2  411   1.913   1.269  11.263 -2.7243  0.8668  0.7312
   26MPD2    H3  412   2.115   1.390  11.238 -1.3837 -0.5309 -1.3773
   26MPD2     N  413   1.998   1.714  11.537  0.1355  0.3416  0.3811
   26MPD2    H5  414   1.927   1.742  11.605 -0.0446  1.6737 -0.3538
   26MPD2    N1  415   1.724   1.326  11.447 -0.2009  0.1317  0.0364
   26MPD2    H7  416   1.708   1.247  11.386  2.7414  0.2237 -0.8661
   27TMC2    C1  417   1.257   4.174  12.287 -0.3393 -0.0312 -0.0611
   27TMC2    C2  418   1.213   4.268  12.201 -0.4530 -0.0644 -0.4088
   27TMC2    C3  419   1.265   4.394  12.211 -0.0342  0.8419 -0.2676
   27TMC2    C4  420   1.346   4.197  12.386 -0.7073  0.5423  0.3867
   27TMC2    C5  421   1.392   4.325  12.402  0.6873  0.5791 -0.1593
   27TMC2    C6  422   1.365   4.428  12.308 -0.0757 -0.0069  0.0207
   27TMC2     C  423   1.166   4.057  12.305 -0.1528 -0.2686 -0.2445
   27TMC2     O  424   1.214   3.954  12.349 -0.3510 -0.4088  0.1650
   27TMC2     H  425   1.149   4.241  12.118 -3.8599  0.4381  2.0406
   27TMC2    H1  426   1.389   4.114  12.442  0.9306  0.9436 -0.2855
   27TMC2    H2  427   1.406   4.527  12.322 -2.8629  1.3207 -1.0944
   27TMC2    C7  428   1.411   4.379  12.531  0.1489 -0.4487  0.3519
   27TMC2    C8  429   1.212   4.497  12.123  0.4691  0.1656 -0.5341
   27TMC2    O1  430   1.439   4.497  12.553  0.7875 -0.6669 -0.1382
   27TMC2    O2  431   1.112   4.473  12.055  0.2273  0.2637  0.4802
   27TMC2    O5  432   1.309   4.587  12.097  0.0445  0.6053  0.0137
   27TMC2    H5  433   1.393   4.567  12.144 -0.1583  0.6235  0.3794
   28MPD2     C  434   0.705   3.845  12.276  0.0978 -0.5489 -0.0740
   28MPD2    C1  435   0.697   3.982  12.243 -0.3011 -0.6246 -0.3982
   28MPD2    C2  436   0.812   4.058  12.253  0.0652 -0.5483  0.1732
   28MPD2    C3  437   0.932   3.999  12.275  0.8112 -0.2899 -1.0991
   28MPD2    C4  438   0.941   3.861  12.296 -0.6261 -0.8908  0.2473
   28MPD2    C5  439   0.830   3.781  12.282  0.5508 -0.9519 -0.2522
   28MPD2     H  440   0.805   4.165  12.242 -0.3743 -0.3630  2.2027
   28MPD2    H1  441   1.038   3.813  12.295 -0.5465 -0.7335  0.3833
   28MPD2    H2  442   0.621   3.777  12.277  0.0063 -0.4361 -0.0733
   28MPD2    H3  443   0.840   3.674  12.295  2.5679 -0.8327 -0.7551
   28MPD2     N  444   1.037   4.092  12.274  0.1456 -0.0411 -0.3797
   28MPD2    H5  445   1.016   4.189  12.252 -0.3095  0.5053  2.4438
   28MPD2    N1  446   0.561   4.038  12.225 -0.3914 -0.3430 -0.1957
   28MPD2    H7  447   0.486   3.970  12.225 -1.8826  1.3135  0.8677
   29TMC2    C1  448   0.426   1.627  14.339 -0.5955 -0.3176 -0.6311
   29TMC2    C2  449   0.463   1.600  14.469 -0.1319 -0.0502 -0.4134
   29TMC2    C3  450   0.526   1.696  14.539  0.3491  0.8982  0.6597
   29TMC2    C4  451   0.469   1.740  14.274 -0.1149 -0.4782 -0.0833
   29TMC2    C5  452   0.539   1.827  14.352  0.2097  0.0289 -0.1843
   29TMC2    C6  453   0.567   1.813  14.485  0.4557  0.0839  0.4586
   29TMC2     C  454   0.397   1.511  14.260 -0.7778  0.3826  0.1625
   29TMC2     O  455   0.440   1.404  14.297 -0.2976  0.6101  0.3189
   29TMC2     H  456   0.438   1.512  14.528 -0.3412 -0.2865 -0.8531
   29TMC2    H1  457   0.445   1.760  14.170 -1.1593 -3.2292 -0.3808
   29TMC2    H2  458   0.602   1.897  14.544  0.2262  0.6087 -0.1548
   29TMC2    C7  459   0.640   1.896  14.267 -0.0932  0.4013 -0.6003
   29TMC2    C8  460   0.530   1.680  14.679 -0.1001 -0.3653 -0.0482
   29TMC2    O1  461   0.614   1.903  14.146 -0.0928 -0.7312  0.0719
   29TMC2    O2  462   0.477   1.587  14.739  0.3688 -0.0532 -0.6473
   29TMC2    O5  463   0.606   1.777  14.736  0.1465 -0.0820 -0.7427
   29TMC2    H5  464   0.677   1.810  14.677 -0.4657  1.0048 -0.8665
   30MPD2     C  465   0.322   1.328  13.786  0.0355 -0.5299 -0.0859
   30MPD2    C1  466   0.377   1.262  13.895 -0.5143 -0.1421  0.4519
   30MPD2    C2  467   0.383   1.340  14.013  0.6583  0.7683  0.0024
   30MPD2    C3  468   0.328   1.469  14.022  0.1855 -0.0620 -0.2788
   30MPD2    C4  469   0.270   1.520  13.913 -0.0227  0.3907 -0.2564
   30MPD2    C5  470   0.272   1.453  13.792  0.0269 -0.1782  0.7219
   30MPD2     H  471   0.434   1.297  14.098 -0.8401  1.7229  1.3787
   30MPD2    H1  472   0.218   1.616  13.913  1.1364  1.0182  0.2533
   30MPD2    H2  473   0.310   1.277  13.691  2.2201  0.1000 -0.6828
   30MPD2    H3  474   0.230   1.503  13.705  1.2962 -0.8870 -0.3080
   30MPD2     N  475   0.330   1.548  14.145 -1.0618 -0.1214 -0.1182
   30MPD2    H5  476   0.282   1.637  14.136 -0.4206  0.2972  0.6552
   30MPD2    N1  477   0.423   1.133  13.896 -0.2445  0.2279 -0.1313
   30MPD2    H7  478   0.450   1.081  13.979  0.8228  0.1165 -0.5469
   31TMC2    C1  479   3.313   4.690  15.043 -0.1393 -0.7875  0.1660
   31TMC2    C2  480   3.175   4.685  15.030 -0.0478  0.0775  1.0247
   31TMC2    C3  481   3.118   4.588  15.107  0.9901  0.3830  0.6323
   31TMC2    C4  482   3.390   4.619  15.139 -0.1218  0.3615  0.2962
   31TMC2    C5  483   3.325   4.518  15.200  0.6660  1.0007  0.1884
   31TMC2    C6  484   3.193   4.507  15.185  0.0829  0.5166  0.3184
   31TMC2     C  485   3.377   0.063  14.963 -0.0193 -0.0202 -0.3033
   31TMC2     O  486   3.296   0.143  14.925 -0.0663  1.0032 -0.2523
   31TMC2     H  487   3.108   0.001  14.964  1.0948 -2.5766 -2.3478
   31TMC2    H1  488   3.496   4.640  15.150 -0.2452  0.8976  0.4951
   31TMC2    H2  489   3.138   4.426  15.232 -2.1634  0.7137 -1.9883
   31TMC2    C7  490   3.373   4.472  15.329 -0.1922  1.0201  0.3402
   31TMC2    C8  491   2.975   4.548  15.084 -0.5880 -0.1932 -0.0865
   31TMC2    O1  492   3.374   4.349  15.347  0.6978  0.5663 -0.1806
   31TMC2    O2  493   2.932   4.448  15.132 -0.0311  0.1540  0.2006
   31TMC2    O5  494   2.911   4.665  15.064 -0.3212 -0.1585 -0.4629
   31TMC2    H5  495   2.967   0.006  15.054  0.6985 -0.8498 -0.2560
   32MPD2     C  496   3.722   0.302  14.661 -0.9040 -0.8404  0.1554
   32MPD2    C1  497   3.588   0.315  14.671 -0.4112  0.0521  0.2330
   32MPD2    C2  498   3.520   0.237  14.764 -0.4760 -0.3069 -0.2798
   32MPD2    C3  499   3.575   0.141  14.846 -0.3897 -0.5495  0.3947
   32MPD2    C4  500   3.715   0.130  14.836  0.1940 -0.4707 -0.2696
   32MPD2    C5  501   3.784   0.213  14.743  0.2974  0.1264 -0.0810
   32MPD2     H  502   3.412   0.243  14.767 -0.3767  0.3080  1.7461
   32MPD2    H1  503   3.774   0.063  14.897  0.1149 -0.1122  0.2060
   32MPD2    H2  504   3.774   0.358  14.585 -0.8343 -1.9966 -0.6497
   32MPD2    H3  505   3.892   0.202  14.749  0.4241  0.5145 -1.6775
   32MPD2     N  506   3.509   0.054  14.935  0.3132  0.3968 -0.0280
   32MPD2    H5  507   3.559   4.709  14.962 -0.7322  0.7046  2.8642
   32MPD2    N1  508   3.524   0.401  14.566 -0.3486  0.2826 -0.6207
   32MPD2    H7  509   3.586   0.455  14.507  1.0026 -1.4320 -0.7822
   33TMC2    C1  510   3.011   3.300  10.428 -0.6665  0.0975  0.3204
   33TMC2    C2  511   2.975   3.204  10.330 -0.2503 -0.9257 -0.2136
   33TMC2    C3  512   2.996   3.242  10.202  0.9835  0.0342  0.6313
   33TMC2    C4  513   3.074   3.419  10.395  0.3962 -0.4241  0.6936
   33TMC2    C5  514   3.105   3.441  10.260  0.8815 -0.5444 -0.5542
   33TMC2    C6  515   3.067   3.351  10.161  0.5675  0.3165 -0.0115
   33TMC2     C  516   2.953   3.287  10.558 -0.2491  0.6684  0.2428
   33TMC2     O  517   2.910   3.175  10.581 -0.0522  0.0858  0.0615
   33TMC2     H  518   2.922   3.114  10.359 -0.2328 -0.7966  0.2295
   33TMC2    H1  519   3.108   3.492  10.468  1.0416 -1.0595  1.0242
   33TMC2    H2  520   3.098   3.368  10.058  0.6056  1.2024  0.1411
   33TMC2    C7  521   3.167   3.567  10.216 -0.6961  0.1134 -0.3341
   33TMC2    C8  522   2.934   3.159  10.106  0.1993 -0.9664  0.2324
   33TMC2    O1  523   3.220   3.641  10.303  0.1299 -0.3374  0.2056
   33TMC2    O2  524   2.916   3.042  10.134  0.0635  0.0726  0.0443
   33TMC2    O5  525   2.835   3.229  10.060 -0.2632 -0.1719  0.4093
   33TMC2    H5  526   2.848   3.325  10.072 -0.9788  0.1597 -1.3772
   34MPD2     C  527   2.746   3.410  11.020 -0.0691  0.0780 -0.1741
   34MPD2    C1  528   2.716   3.306  10.935 -0.2326  0.6815 -0.3241
   34MPD2    C2  529   2.790   3.296  10.818  0.7174  0.3977 -0.6799
   34MPD2    C3  530   2.871   3.400  10.765  0.0003 -0.0197 -0.4215
   34MPD2    C4  531   2.882   3.512  10.847 -0.3390  0.1337 -1.0523
   34MPD2    C5  532   2.820   3.511  10.970  0.4944 -0.4430  0.2540
   34MPD2     H  533   2.780   3.207  10.756 -0.5404  1.4584 -1.9941
   34MPD2    H1  534   2.944   3.595  10.816 -0.0803  0.6337  0.7889
   34MPD2    H2  535   2.701   3.403  11.118 -0.8531  0.4936 -0.4977
   34MPD2    H3  536   2.829   3.599  11.033 -0.8389 -1.4516  1.8482
   34MPD2     N  537   2.943   3.397  10.643  0.0914  0.2365 -0.5928
   34MPD2    H5  538   3.008   3.471  10.621  2.9694 -1.9158  0.5627
   34MPD2    N1  539   2.638   3.199  10.981  0.4573  0.1059  0.1760
   34MPD2    H7  540   2.600   3.224  11.071 -1.1302 -2.4510  0.2229
   35TMC2    C1  541   3.966   3.959  11.341  0.1508  0.0026 -0.2980
   35TMC2    C2  542   3.871   3.946  11.244 -0.0522 -0.4395  0.2945
   35TMC2    C3  543   3.762   3.866  11.282 -0.0927 -0.2300 -0.0493
   35TMC2    C4  544   3.959   3.903  11.464  0.5663 -0.2654 -0.4499
   35TMC2    C5  545   3.845   3.831  11.495  0.2310  0.4412  0.2685
   35TMC2    C6  546   3.746   3.823  11.404 -0.8337  0.1390 -0.8625
   35TMC2     C  547   4.074   4.045  11.293  0.9914 -0.7674 -0.1329
   35TMC2     O  548   4.082   4.075  11.175 -0.4036 -0.1080 -0.8695
   35TMC2     H  549   3.877   4.009  11.156  0.0025 -0.6976  0.1148
   35TMC2    H1  550   4.034   3.926  11.539  1.9044 -0.7895 -1.6134
   35TMC2    H2  551   3.655   3.769  11.429 -0.5781  0.4365  0.6957
   35TMC2    C7  552   3.819   3.773  11.627 -0.1422  0.3729 -0.0976
   35TMC2    C8  553   3.635   3.872  11.210  0.9933  0.4764  0.1164
   35TMC2    O1  554   3.702   3.735  11.649 -0.3035  0.9042 -0.0982
   35TMC2    O2  555   3.542   3.799  11.246  0.5107 -0.0293 -0.6357
   35TMC2    O5  556   3.614   3.989  11.152 -0.4640 -0.1859 -0.0052
   35TMC2    H5  557   3.690   4.019  11.097 -0.9301 -0.6576 -0.9144
   36MPD2     C  558   4.510   4.318  11.335  0.2065  0.3128 -0.2619
   36MPD2    C1  559   4.512   4.213  11.429  0.1674 -0.0985 -0.3780
   36MPD2    C2  560   4.402   4.132  11.454 -0.6211  0.0691  0.1474
   36MPD2    C3  561   4.293   4.136  11.366 -0.1124  0.9072 -0.0972
   36MPD2    C4  562   4.292   4.244  11.279  0.4715 -0.3163 -0.2570
   36MPD2    C5  563   4.398   4.327  11.260 -0.0862 -0.0946  0.1154
   36MPD2     H  564   4.410   4.064  11.538 -0.1453 -0.6988 -0.5177
   36MPD2    H1  565   4.207   4.258  11.213 -0.2029  2.7226  1.2533
   36MPD2    H2  566   4.585   4.394  11.320 -0.1318  0.8221  0.6704
   36MPD2    H3  567   4.393   4.402  11.182 -1.4677  0.1182  0.4032
   36MPD2     N  568   4.177   4.053  11.383 -0.1639 -0.2265 -0.6980
   36MPD2    H5  569   4.172   3.994  11.465  0.3814 -0.7270 -1.0212
   36MPD2    N1  570   4.625   4.190  11.515 -0.0629 -1.1100 -0.2492
   36MPD2    H7  571   4.607   4.123  11.589 -0.4903  0.0246  0.6727
   37TMC2    C1  572   1.924   4.480  11.307  0.1918 -0.9980  0.2199
   37TMC2    C2  573   1.943   4.372  11.221  0.5937  0.0467 -0.0520
   37TMC2    C3  574   2.012   4.388  11.102 -0.7131 -0.5875  0.1586
   37TMC2    C4  575   1.967   4.607  11.274  0.3548  0.1250 -0.7234
   37TMC2    C5  576   2.024   4.619  11.144 -0.6751  0.5297 -0.2437
   37TMC2    C6  577   2.049   4.513  11.057 -0.4342  0.4849  0.1948
   37TMC2     C  578   1.860   4.445  11.438  0.3507 -0.6544 -0.3054
   37TMC2     O  579   1.862   4.323  11.468  0.0062  0.7039 -0.0025
   37TMC2     H  580   1.893   4.276  11.235  1.3769 -0.1497  1.3432
   37TMC2    H1  581   1.943   4.690  11.341  2.6448  2.0846 -2.3354
   37TMC2    H2  582   2.095   4.529  10.960  1.0590 -4.5957  0.0560
   37TMC2    C7  583   2.109   4.730  11.140  0.3607 -0.1083  0.1888
   37TMC2    C8  584   2.015   4.273  11.012 -0.5980  0.6828  0.2462
   37TMC2    O1  585   2.066   0.100  11.174 -0.3924  0.5879  0.4769
   37TMC2    O2  586   1.945   4.173  11.040 -0.2650 -0.5735  0.3134
   37TMC2    O5  587   2.143   4.269  10.952 -0.4983 -0.1927  0.1971
   37TMC2    H5  588   2.187   4.355  10.968  0.2681 -0.3909 -0.8242
   38MPD2     C  589   1.626   4.560  11.878 -0.9539 -0.8255  0.4951
   38MPD2    C1  590   1.720   4.461  11.845  0.1602 -0.0454 -0.6425
   38MPD2    C2  591   1.766   4.456  11.716 -0.0700  0.0174  0.3076
   38MPD2    C3  592   1.739   4.552  11.625  0.2387  0.1361 -0.3324
   38MPD2    C4  593   1.662   4.661  11.658 -1.5494  0.2186  0.5082
   38MPD2    C5  594   1.608   4.662  11.785  0.3613  0.7894 -0.3771
   38MPD2     H  595   1.834   4.375  11.692  0.9229  0.2260  2.4277
   38MPD2    H1  596   1.639   4.734  11.582  4.0485 -0.1906 -1.5519
   38MPD2    H2  597   1.569   4.567  11.970 -1.0614 -0.1344  0.3704
   38MPD2    H3  598   1.527   4.733  11.804 -1.6166 -1.8899  1.2334
   38MPD2     N  599   1.797   4.552  11.496  0.1457 -0.7697  0.7186
   38MPD2    H5  600   1.789   4.636  11.439 -2.0095 -0.7972  0.9743
   38MPD2    N1  601   1.756   4.365  11.937  0.4764 -0.0474  0.0683
   38MPD2    H7  602   1.831   4.309  11.897 -0.2592 -0.2549 -1.0081
   39TMC2    C1  603   4.589   0.263   1.477 -0.3609 -0.0250  0.5422
   39TMC2    C2  604   4.597   0.386   1.535  0.8972  0.4576 -0.1569
   39TMC2    C3  605   4.699   0.399   1.632 -0.6691  0.3180 -0.2330
   39TMC2    C4  606   4.684   0.163   1.506  0.8328  0.1199 -0.1632
   39TMC2    C5  607   0.052   0.197   1.590 -0.0193 -0.1632  0.4725
   39TMC2    C6  608   0.060   0.315   1.662  0.2385 -0.0007  1.0858
   39TMC2     C  609   4.500   0.243   1.365  0.5723 -0.2667  0.2686
   39TMC2     O  610   4.444   0.341   1.317  0.0233 -0.0364  0.1801
   39TMC2     H  611   4.522   0.464   1.521  0.2477 -0.0808  0.3433
   39TMC2    H1  612   4.686   0.067   1.456  2.5891 -0.6538  1.4317
   39TMC2    H2  613   0.132   0.331   1.741  0.8054  0.0560  0.5537
   39TMC2    C7  614   0.166   0.109   1.580 -0.3643 -0.1764  0.7651
   39TMC2    C8  615   4.692   0.526   1.702 -0.2851  0.3259 -0.8419
   39TMC2    O1  616   0.147   0.001   1.531 -0.0775  0.3305  0.0533
   39TMC2    O2  617   4.590   0.595   1.699  0.5839  0.9588  0.4212
   39TMC2    O5  618   0.077   0.572   1.730 -0.0318  0.2040 -0.0522
   39TMC2    H5  619   0.155   0.513   1.731  0.7913  1.3412  1.6950
   40MPD2     C  620   4.386   4.651   1.242  0.3879  0.4144  0.1044
   40MPD2    C1  621   4.395   0.048   1.245  0.7121 -0.5515 -0.2708
   40MPD2    C2  622   4.352   0.121   1.136 -0.3904  0.2274  0.2427
   40MPD2    C3  623   4.281   0.054   1.035  0.2099 -0.1500 -0.0288
   40MPD2    C4  624   4.279   4.654   1.032  0.3882 -0.2037 -0.3718
   40MPD2    C5  625   4.321   4.585   1.140  0.2852 -0.7021 -0.2377
   40MPD2     H  626   4.391   0.221   1.124  0.4466 -0.4082 -2.3516
   40MPD2    H1  627   4.227   4.599   0.955  2.1453 -1.3232 -0.7548
   40MPD2    H2  628   4.420   4.593   1.327 -0.1139 -1.2793 -0.8458
   40MPD2    H3  629   4.297   4.480   1.157  0.1631 -0.5203  0.7335
   40MPD2     N  630   4.227   0.122   0.927 -0.6837  0.6597  0.5181
   40MPD2    H5  631   4.185   0.068   0.852 -1.1818  0.8980  0.6219
   40MPD2    N1  632   4.467   0.108   1.345  0.2378 -0.2273 -0.1581
   40MPD2    H7  633   4.508   0.040   1.409  0.9193  0.6437  0.3283
   41TMC2    C1  634   4.164   3.852  13.709  0.8863 -0.3884  0.0592
   41TMC2    C2  635   4.259   3.799  13.797  0.5414  0.6970 -0.2237
   41TMC2    C3  636   4.358   3.883  13.839  0.1813  0.8929  0.0343
   41TMC2    C4  637   4.144   3.988  13.702  0.2418  0.1405 -0.9471
   41TMC2    C5  638   4.241   4.066  13.757 -0.2641  0.3667  0.0715
   41TMC2    C6  639   4.345   4.018  13.824  0.3119 -0.1949 -0.5002
   41TMC2     C  640   4.046   3.776  13.717 -0.0599 -0.4079  0.1226
   41TMC2     O  641   3.995   3.733  13.611 -0.1633 -0.3766 -0.0298
   41TMC2     H  642   4.264   3.692  13.814 -1.3392  0.4221 -1.4759
   41TMC2    H1  643   4.060   4.034  13.651  0.4168 -0.0647 -1.4202
   41TMC2    H2  644   4.421   4.081  13.868 -2.5869  3.2774 -0.5324
   41TMC2    C7  645   4.221   4.207  13.748  1.1060 -0.2462 -0.3382
   41TMC2    C8  646   4.476   3.834  13.902 -0.6226 -0.5023 -0.4616
   41TMC2    O1  647   4.277   4.276  13.828 -0.0532  0.4588 -0.2194
   41TMC2    O2  648   4.547   3.910  13.969 -0.1249  0.2796  0.2545
   41TMC2    O5  649   4.503   3.707  13.878 -0.0153 -0.3040 -0.1630
   41TMC2    H5  650   4.438   3.671  13.814  0.9479 -1.3002 -0.5954
   42MPD2     C  651   3.788   3.658  13.828  0.1456 -0.1456 -0.6459
   42MPD2    C1  652   3.889   3.719  13.905  0.4720 -0.1810  0.2106
   42MPD2    C2  653   3.874   3.732  14.043 -0.2724  0.6339  0.2393
   42MPD2    C3  654   3.763   3.679  14.105 -0.4424  0.1235  0.6646
   42MPD2    C4  655   3.668   3.619  14.026 -0.0781 -0.3773 -0.2590
   42MPD2    C5  656   3.675   3.610  13.896  1.1555  0.3244 -0.5188
   42MPD2     H  657   3.944   3.787  14.105  0.3945  1.3068 -1.0828
   42MPD2    H1  658   3.577   3.578  14.068  0.3689  1.3140  2.3461
   42MPD2    H2  659   3.805   3.646  13.722 -1.5346  2.2873 -1.1923
   42MPD2    H3  660   3.599   3.556  13.841  0.1261  0.2756  0.9419
   42MPD2     N  661   3.734   3.699  14.240 -0.7565 -0.1860 -0.1354
   42MPD2    H5  662   3.644   3.659  14.266 -0.3384 -0.1755  1.3372
   42MPD2    N1  663   4.009   3.775  13.849 -0.0022  0.4334 -0.4332
   42MPD2    H7  664   4.072   3.825  13.911  1.3941 -0.8610 -0.7917
   43TMC2    C1  665   0.514   1.537   0.477  0.0982  0.0578 -0.7075
   43TMC2    C2  666   0.410   1.604   0.528  0.5911  0.1028 -0.2855
   43TMC2    C3  667   0.420   1.736   0.558  0.6864 -0.7056 -0.6920
   43TMC2    C4  668   0.636   1.606   0.450  0.1999 -0.2229 -0.2115
   43TMC2    C5  669   0.640   1.740   0.480  0.5762  0.2566  0.7049
   43TMC2    C6  670   0.536   1.806   0.539  0.1492 -0.1254  0.1881
   43TMC2     C  671   0.517   1.396   0.449 -0.1000  0.4889  0.1128
   43TMC2     O  672   0.623   1.340   0.449  0.2447 -0.5234  0.3197
   43TMC2     H  673   0.324   1.542   0.548  1.5491 -0.7310  1.2884
   43TMC2    H1  674   0.726   1.563   0.408 -1.1959 -4.8159  1.5373
   43TMC2    H2  675   0.543   1.912   0.559 -0.5998 -0.1290  0.4655
   43TMC2    C7  676   0.768   1.805   0.480  0.3510 -0.0680 -0.3132
   43TMC2    C8  677   0.299   1.805   0.590 -0.1469  0.4406  1.2584
   43TMC2    O1  678   0.861   1.756   0.415  0.0291 -0.1280  0.1778
   43TMC2    O2  679   0.194   1.764   0.538 -0.1399  0.2892 -0.2655
   43TMC2    O5  680   0.323   1.882   0.697 -0.2285 -0.0952 -0.6250
   43TMC2    H5  681   0.415   1.871   0.730 -0.2220  0.8537 -0.3104
   44MPD2     C  682   0.258   0.939   0.416 -0.1734  0.1449 -0.0786
   44MPD2    C1  683   0.392   0.970   0.427  0.0059 -0.3664 -0.4009
   44MPD2    C2  684   0.441   1.097   0.419 -0.2645 -1.0230  0.7118
   44MPD2    C3  685   0.354   1.205   0.415  0.1416 -0.1821 -0.2687
   44MPD2    C4  686   0.218   1.174   0.419  0.3079  0.3119 -0.4277
   44MPD2    C5  687   0.170   1.039   0.412  0.1362  0.7390 -0.1319
   44MPD2     H  688   0.548   1.112   0.426 -0.1768  0.2669 -3.5732
   44MPD2    H1  689   0.143   1.252   0.426  0.0995 -0.0089  0.9507
   44MPD2    H2  690   0.222   0.837   0.425 -1.1257  0.4524 -0.3304
   44MPD2    H3  691   0.065   1.011   0.418  0.0175  1.0613 -0.7073
   44MPD2     N  692   0.391   1.342   0.431  0.2757 -0.6400  0.1232
   44MPD2    H5  693   0.318   1.412   0.440  0.8334  0.2501 -2.2823
   44MPD2    N1  694   0.495   0.867   0.445  0.0824  0.4179  0.2709
   44MPD2    H7  695   0.589   0.902   0.458  1.1292 -2.6851  0.9626
   45TMC2    C1  696   1.016   0.009   9.856 -0.3432  0.6471 -0.6368
   45TMC2    C2  697   0.979   0.005   9.721  0.2241  0.0915  0.1423
   45TMC2    C3  698   1.001   0.119   9.649 -0.2611 -0.3721 -0.3700
   45TMC2    C4  699   1.054   0.125   9.921  0.5115 -0.5664  0.3427
   45TMC2    C5  700   1.050   0.244   9.847 -0.0275  0.2780  0.0472
   45TMC2    C6  701   1.038   0.238   9.713 -0.3262 -0.0820  0.2481
   45TMC2     C  702   0.987   4.632   9.934  0.0442  0.4421 -0.8070
   45TMC2     O  703   1.018   4.632  10.054  0.4810  0.3763  0.6159
   45TMC2     H  704   0.955   4.649   9.675  3.0483 -0.8104  0.5414
   45TMC2    H1  705   1.083   0.127  10.025  0.6049 -0.5924  0.3174
   45TMC2    H2  706   1.045   0.322   9.644  0.1824  0.4014  0.8891
   45TMC2    C7  707   1.083   0.367   9.923 -1.0626 -0.0984  0.1920
   45TMC2    C8  708   0.922   0.146   9.531 -0.4343 -0.5470 -0.7358
   45TMC2    O1  709   1.151   0.356  10.023 -0.4167  0.0084  0.1476
   45TMC2    O2  710   0.929   0.243   9.461  0.2643 -0.1927  0.7278
   45TMC2    O5  711   0.855   0.034   9.499  0.0585 -0.5145  0.3368
   45TMC2    H5  712   0.831   4.719   9.577 -1.9878  0.1462  0.1492
   46MPD2     C  713   0.992   4.344  10.027 -0.2320 -0.3492  0.7039
   46MPD2    C1  714   0.910   4.397   9.925  0.3510 -0.4105  0.0442
   46MPD2    C2  715   0.821   4.311   9.870 -0.1121 -0.4749  0.5309
   46MPD2    C3  716   0.791   4.178   9.911  0.7412 -0.0837 -0.3005
   46MPD2    C4  717   0.868   4.141  10.018 -0.0588 -0.4835  0.8826
   46MPD2    C5  718   0.968   4.221  10.075 -0.2721  0.6150  0.5018
   46MPD2     H  719   0.760   4.343   9.786 -0.6558 -1.4098  0.5669
   46MPD2    H1  720   0.843   4.051  10.073  0.6207 -0.4895  1.1846
   46MPD2    H2  721   1.073   4.396  10.076 -1.7445 -0.7042  3.5595
   46MPD2    H3  722   1.019   4.194  10.167 -0.5546  0.4033  0.5945
   46MPD2     N  723   0.683   4.107   9.857 -0.0072 -0.1692 -0.1262
   46MPD2    H5  724   0.630   4.151   9.783 -0.5853 -2.4314 -1.0497
   46MPD2    N1  725   0.921   4.532   9.869 -0.4410 -0.6117  0.3264
   46MPD2    H7  726   0.864   4.548   9.787  1.3637  0.3981 -0.7387
   47TMC2    C1  727   2.664   0.828   9.600  0.0587  0.2535 -0.0060
   47TMC2    C2  728   2.725   0.887   9.488 -0.1255  0.5714  0.2137
   47TMC2    C3  729   2.661   0.984   9.420 -0.2797 -0.4650  0.5047
   47TMC2    C4  730   2.541   0.864   9.632 -0.2022 -0.5801 -0.8387
   47TMC2    C5  731   2.482   0.957   9.555  0.3959 -0.0554  0.2561
   47TMC2    C6  732   2.536   1.027   9.451 -0.2786 -0.4833 -0.8579
   47TMC2     C  733   2.718   0.712   9.672  0.5585 -0.3521 -0.9774
   47TMC2     O  734   2.639   0.638   9.726  0.3364 -0.0728  0.1744
   47TMC2     H  735   2.827   0.871   9.452  0.9642 -1.3726  4.1968
   47TMC2    H1  736   2.492   0.814   9.715 -0.6802 -1.0856 -1.4255
   47TMC2    H2  737   2.483   1.105   9.398  2.9315  2.8597  0.8300
   47TMC2    C7  738   2.350   1.008   9.595 -0.1840 -0.5573 -0.3289
   47TMC2    C8  739   2.716   1.019   9.297  0.2855  0.2456 -0.0463
   47TMC2    O1  740   2.317   1.117   9.548  0.0879 -0.1939 -0.5069
   47TMC2    O2  741   2.776   0.933   9.237 -0.2541  0.2212  0.3573
   47TMC2    O5  742   2.659   1.132   9.251 -0.1102 -0.4429  0.1840
   47TMC2    H5  743   2.641   1.184   9.332 -2.3875  0.1634 -0.7294
   48MPD2     C  744   2.864   0.463   9.760  0.1542  0.2475 -0.0573
   48MPD2    C1  745   2.920   0.572   9.695  0.7426 -0.2321  0.3935
   48MPD2    C2  746   3.050   0.569   9.661 -0.7461 -0.0089  0.2817
   48MPD2    C3  747   3.134   0.462   9.694  0.3503  0.1106  0.1792
   48MPD2    C4  748   3.072   0.356   9.759 -0.7829  0.0808 -0.3578
   48MPD2    C5  749   2.942   0.348   9.789 -0.2720 -0.2326 -0.1418
   48MPD2     H  750   3.096   0.652   9.609  0.9592 -0.2855  1.3819
   48MPD2    H1  751   3.125   0.263   9.776 -1.4738 -0.2557 -0.0604
   48MPD2    H2  752   2.765   0.464   9.806  1.2103  1.2399  2.2197
   48MPD2    H3  753   2.899   0.256   9.826  1.0461 -1.2692 -1.1583
   48MPD2     N  754   3.267   0.458   9.648 -0.2420 -0.5022 -0.5000
   48MPD2    H5  755   3.301   0.543   9.605  1.7063 -1.3171 -0.5957
   48MPD2    N1  756   2.850   0.693   9.656 -0.1272  0.7388  0.4133
   48MPD2    H7  757   2.902   0.768   9.612 -0.6044  1.2271  0.6861
   49TMC2    C1  758   1.212   2.149  10.261  0.0427  0.0001 -0.4814
   49TMC2    C2  759   1.186   2.050  10.350  0.1779  0.6126  0.5956
   49TMC2    C3  760   1.117   1.944  10.297  0.4879 -0.4412  0.0172
   49TMC2    C4  761   1.164   2.157  10.129 -0.2441  0.4463  0.7699
   49TMC2    C5  762   1.082   2.055  10.086 -0.8298  0.0377  0.2603
   49TMC2    C6  763   1.066   1.944  10.171 -0.4563 -0.1759 -0.3693
   49TMC2     C  764   1.297   2.261  10.302  0.2068 -0.3559 -0.1193
   49TMC2     O  765   1.371   2.296  10.217 -0.2173  0.3916 -0.5353
   49TMC2     H  766   1.234   2.041  10.446 -1.2361 -1.4231  1.1193
   49TMC2    H1  767   1.189   2.241  10.066  0.8785 -0.4001  0.0838
   49TMC2    H2  768   1.046   1.845  10.131 -0.8992 -0.3194  0.2055
   49TMC2    C7  769   1.025   2.065   9.954  0.8988 -0.1004 -0.0065
   49TMC2    C8  770   1.078   1.846  10.394  1.1106  0.1699 -0.7780
   49TMC2    O1  771   1.069   2.156   9.886 -0.4311 -0.0738  0.2091
   49TMC2    O2  772   1.125   1.835  10.504  0.0892 -0.5149  0.5520
   49TMC2    O5  773   0.968   1.782  10.351  0.4078 -0.5635  0.2489
   49TMC2    H5  774   0.932   1.822  10.269  1.6160  3.4333  1.6742
   50MPD2     C  775   1.450   2.448  10.463 -0.2301  0.0853  0.0598
   50MPD2    C1  776   1.333   2.399  10.503  0.2992 -0.2082 -0.2047
   50MPD2    C2  777   1.283   2.434  10.626 -0.5605 -0.8293  0.8893
   50MPD2    C3  778   1.348   2.522  10.710 -0.1062  0.4818 -0.0092
   50MPD2    C4  779   1.467   2.566  10.674 -0.4319  0.2664  0.8895
   50MPD2    C5  780   1.520   2.522  10.552  0.3143 -0.0210 -0.1169
   50MPD2     H  781   1.182   2.399  10.645 -0.4544 -1.0714  1.0072
   50MPD2    H1  782   1.525   2.627  10.742  0.2882  1.3066 -0.6505
   50MPD2    H2  783   1.513   2.415  10.381 -1.0004 -2.8089  0.6272
   50MPD2    H3  784   1.615   2.559  10.516  0.6355  0.6819  1.4211
   50MPD2     N  785   1.297   2.551  10.843 -0.0404 -0.3703  0.7634
   50MPD2    H5  786   1.361   2.604  10.902  0.5493 -0.9839  0.6762
   50MPD2    N1  787   1.265   2.307  10.428  0.6360  0.6863 -0.0219
   50MPD2    H7  788   1.178   2.272  10.467  1.2577  0.7496  1.4215
   51TMC2    C1  789   2.144   0.680   0.893 -0.2546  0.4747 -0.0790
   51TMC2    C2  790   2.062   0.647   0.998  0.2867  0.2996 -0.4521
   51TMC2    C3  791   1.951   0.728   1.017 -0.3269 -0.0155 -0.0125
   51TMC2    C4  792   2.105   0.773   0.796 -0.0178 -0.2383 -0.3389
   51TMC2    C5  793   1.988   0.835   0.808 -0.1135 -0.0756 -0.3812
   51TMC2    C6  794   1.915   0.822   0.925  0.4849  0.3168  0.8654
   51TMC2     C  795   2.275   0.638   0.905 -0.6450  0.3277  0.8437
   51TMC2     O  796   2.309   0.543   0.974 -0.0947  0.4653 -0.1669
   51TMC2     H  797   2.089   0.566   1.065  0.9346  1.9647  1.3046
   51TMC2    H1  798   2.156   0.786   0.701 -1.1398  1.0179 -0.7537
   51TMC2    H2  799   1.825   0.881   0.932  0.6796  0.7276 -0.0726
   51TMC2    C7  800   1.991   0.963   0.753  0.8224 -0.3472  0.0572
   51TMC2    C8  801   1.852   0.687   1.115 -0.4806  0.4897  0.3027
   51TMC2    O1  802   2.104   1.013   0.736  0.0406  0.4122 -0.3883
   51TMC2    O2  803   1.733   0.708   1.103  0.0207 -0.5246 -0.0075
   51TMC2    O5  804   1.917   0.637   1.226  0.4854  0.6051  0.0104
   51TMC2    H5  805   2.015   0.638   1.219  0.3453  0.5276 -2.0631
   52MPD2     C  806   2.755   0.751   0.769 -0.4507 -0.1339 -0.5561
   52MPD2    C1  807   2.712   0.632   0.840  0.3078 -0.4557  0.4146
   52MPD2    C2  808   2.573   0.615   0.851  0.4772 -0.6814  0.7034
   52MPD2    C3  809   2.489   0.722   0.822  0.0287 -0.9280 -0.6720
   52MPD2    C4  810   2.534   0.836   0.762  0.0598  0.1303 -0.3370
   52MPD2    C5  811   2.667   0.847   0.731  0.0949 -0.1277 -0.6088
   52MPD2     H  812   2.534   0.524   0.896  1.0506 -0.2313  2.0887
   52MPD2    H1  813   2.467   0.919   0.744 -1.1618 -0.9756 -0.9576
   52MPD2    H2  814   2.855   0.744   0.729 -1.1603  1.5089 -2.6498
   52MPD2    H3  815   2.697   0.937   0.679 -0.2786  0.0716 -0.4793
   52MPD2     N  816   2.355   0.728   0.843 -0.3407 -0.2949  0.0405
   52MPD2    H5  817   2.308   0.810   0.806  0.5712  0.4803  0.6134
   52MPD2    N1  818   2.789   0.522   0.881 -0.5653  0.2505 -0.5243
   52MPD2    H7  819   2.742   0.447   0.931  0.0549  0.2910  0.1127
   53TMC2    C1  820   2.479   0.513  11.510  0.8241  0.2347 -0.5175
   53TMC2    C2  821   2.397   0.622  11.493  0.3210 -0.2446  0.3399
   53TMC2    C3  822   2.315   0.662  11.600 -0.2874 -0.0315 -0.1850
   53TMC2    C4  823   2.474   0.438  11.626  0.6043  0.7987 -0.7996
   53TMC2    C5  824   2.393   0.480  11.730  0.5223  0.5372  0.9992
   53TMC2    C6  825   2.321   0.595  11.719 -0.3147  0.9781 -0.0574
   53TMC2     C  826   2.515   0.441  11.394  0.2290  0.2976 -1.5191
   53TMC2     O  827   2.578   0.508  11.309  0.2833  0.8399 -0.5255
   53TMC2     H  828   2.386   0.667  11.394  0.6886 -0.8811  0.0078
   53TMC2    H1  829   2.521   0.341  11.626  1.1993  1.1004  1.9048
   53TMC2    H2  830   2.257   0.632  11.798 -1.7103  1.5503 -1.4531
   53TMC2    C7  831   2.338   0.380  11.824  0.6611  0.2716  0.3042
   53TMC2    C8  832   2.219   0.773  11.586 -0.1131  0.6403  0.2353
   53TMC2    O1  833   2.220   0.383  11.854 -0.6881  0.1792  0.4855
   53TMC2    O2  834   2.167   0.839  11.673 -0.0223 -0.3622 -0.2899
   53TMC2    O5  835   2.162   0.757  11.462 -0.1237  0.4435 -0.4636
   53TMC2    H5  836   2.191   0.688  11.398  2.6473  0.0697  1.2037
   54MPD2     C  837   2.569   0.205  11.231 -0.7185  0.0819 -0.2293
   54MPD2    C1  838   2.444   0.239  11.278  0.5835 -0.1773 -0.1538
   54MPD2    C2  839   2.338   0.164  11.240  0.2338 -0.1076 -0.8223
   54MPD2    C3  840   2.352   0.059  11.155  0.0630  0.7063 -0.5165
   54MPD2    C4  841   2.471   0.033  11.102 -0.1745 -0.4533 -0.3416
   54MPD2    C5  842   2.580   0.109  11.137 -0.5014  0.5380 -0.1158
   54MPD2     H  843   2.247   0.202  11.285  0.4373 -1.5078  0.7514
   54MPD2    H1  844   2.476   4.690  11.032 -0.2977  1.1515 -2.2192
   54MPD2    H2  845   2.658   0.259  11.261 -0.0435 -0.9540 -0.3870
   54MPD2    H3  846   2.670   0.079  11.084 -0.5880 -0.5475  0.3413
   54MPD2     N  847   2.244   4.705  11.115  0.6145 -0.0624 -0.0031
   54MPD2    H5  848   2.268   4.623  11.059  3.5168 -0.8100  2.2987
   54MPD2    N1  849   2.423   0.339  11.372 -0.0799 -0.1208  0.0249
   54MPD2    H7  850   2.334   0.337  11.422  0.1135 -0.5911  0.3480
   55TMC2    C1  851   3.970   1.657   0.135  0.5436  0.2682  0.5738
   55TMC2    C2  852   4.032   1.607   0.026 -0.3102  0.4056 -0.2224
   55TMC2    C3  853   4.042   1.476   0.001 -0.3569  0.4929  0.0926
   55TMC2    C4  854   3.921   1.558   0.224  0.4277 -0.1422 -0.2455
   55TMC2    C5  855   3.921   1.424   0.195 -0.2925 -0.1593  0.6526
   55TMC2    C6  856   3.982   1.381   0.080 -0.3853 -0.6456  0.3271
   55TMC2     C  857   3.934   1.796   0.154  0.4174 -0.2996 -0.3017
   55TMC2     O  858   3.843   1.818   0.233  0.2443  0.1511  0.6086
   55TMC2     H  859   4.079   1.677  17.711 -2.6873 -0.4603 -2.7151
   55TMC2    H1  860   3.880   1.589   0.319 -1.3318 -2.8705 -0.0911
   55TMC2    H2  861   3.962   1.281   0.041  2.8405 -1.5513  0.9775
   55TMC2    C7  862   3.808   1.343   0.235 -0.1770 -0.3047 -0.5061
   55TMC2    C8  863   4.100   1.440  17.628  0.8698  0.1691  0.1374
   55TMC2    O1  864   3.807   1.223   0.218 -0.5340  0.4243 -0.8175
   55TMC2    O2  865   4.122   1.531  17.550 -0.1092  0.0102  0.0106
   55TMC2    O5  866   4.159   1.319  17.629  0.3986 -0.4538 -0.0031
   55TMC2    H5  867   4.136   1.258  17.703 -0.7531  1.2805  1.0756
   56MPD2     C  868   4.130   2.095   0.160 -0.4954  0.2875  0.5894
   56MPD2    C1  869   4.019   2.024   0.143  0.0445 -1.0388 -0.1162
   56MPD2    C2  870   3.894   2.087   0.153 -0.0485 -0.4136 -0.0031
   56MPD2    C3  871   3.875   2.210   0.214  0.2276 -0.2976  0.1129
   56MPD2    C4  872   3.993   2.271   0.253  0.8072 -0.4293  0.1117
   56MPD2    C5  873   4.113   2.215   0.219  0.1960  0.1774 -0.4006
   56MPD2     H  874   3.804   2.028   0.141 -1.8010  2.5721 -1.3446
   56MPD2    H1  875   3.995   2.365   0.308  0.2883 -1.2199  1.4633
   56MPD2    H2  876   4.227   2.051   0.140 -0.3036  1.5194 -1.1587
   56MPD2    H3  877   4.203   2.268   0.249  0.7539 -1.0357  0.0994
   56MPD2     N  878   3.754   2.277   0.247 -0.0058  0.4003 -0.6124
   56MPD2    H5  879   3.749   2.356   0.310  0.3954  0.8018 -1.0813
   56MPD2    N1  880   4.022   1.890   0.109 -0.2608  0.3318 -0.1236
   56MPD2    H7  881   4.104   1.852   0.063 -1.4022  0.0898 -1.9636
   57TMC2    C1  882   2.160   3.123  13.055  0.1374  0.3967  0.0267
   57TMC2    C2  883   2.186   2.997  13.099  0.3783  0.2388 -0.0944
   57TMC2    C3  884   2.288   2.989  13.187 -0.1068 -0.0709  0.5746
   57TMC2    C4  885   2.249   3.225  13.068  0.3491  0.1338 -0.2532
   57TMC2    C5  886   2.358   3.213  13.147  0.2268 -0.0200 -0.1184
   57TMC2    C6  887   2.379   3.094  13.216  0.2827 -0.6656  0.0762
   57TMC2     C  888   2.028   3.163  13.091 -0.9079 -0.9167 -0.0586
   57TMC2     O  889   2.018   3.276  13.136 -0.0930 -0.0087 -0.0524
   57TMC2     H  890   2.113   2.917  13.094  0.6560 -0.0179 -0.0972
   57TMC2    H1  891   2.233   3.328  13.035  0.0287  0.3534  0.5872
   57TMC2    H2  892   2.454   3.077  13.291  0.9016  0.7135 -0.2408
   57TMC2    C7  893   2.485   3.273  13.115  0.4080  0.3070 -0.8381
   57TMC2    C8  894   2.295   2.874  13.274  0.4695  0.5043  0.0166
   57TMC2    O1  895   2.498   3.395  13.105  0.6316  0.2290  0.3113
   57TMC2    O2  896   2.353   2.883  13.383 -0.4604 -0.0193 -0.0514
   57TMC2    O5  897   2.296   2.765  13.193  0.4084  0.1744  0.3854
   57TMC2    H5  898   2.254   2.777  13.105 -1.2940 -1.0383  1.0413
   58MPD2     C  899   1.575   3.014  13.271  0.2150  0.0501 -0.5689
   58MPD2    C1  900   1.671   3.095  13.325  0.6541  0.3322  0.1500
   58MPD2    C2  901   1.789   3.120  13.255  0.2524 -0.0677  0.1401
   58MPD2    C3  902   1.808   3.060  13.132  0.7936 -0.3260 -0.8976
   58MPD2    C4  903   1.715   2.977  13.081  0.5649  0.3143 -0.7291
   58MPD2    C5  904   1.600   2.954  13.147 -0.1546 -0.4774 -0.1148
   58MPD2     H  905   1.864   3.187  13.296 -1.0553 -0.0885  2.6084
   58MPD2    H1  906   1.738   2.930  12.986  2.0834  1.4197 -0.9132
   58MPD2    H2  907   1.479   2.991  13.316  0.2007 -0.2020 -0.7312
   58MPD2    H3  908   1.522   2.891  13.105  1.1790 -2.0937 -0.1941
   58MPD2     N  909   1.931   3.068  13.067  0.3589 -0.4137 -0.2913
   58MPD2    H5  910   1.952   3.000  12.995 -1.1317 -1.1081 -0.0719
   58MPD2    N1  911   1.646   3.160  13.454  0.1549  0.8384  0.3189
   58MPD2    H7  912   1.711   3.232  13.486  1.0403 -0.6852  1.9396
   59TMC2    C1  913   0.009   3.310  12.526  0.1886 -0.0025  0.5192
   59TMC2    C2  914   4.658   3.247  12.447 -1.1510  0.2329  0.4221
   59TMC2    C3  915   4.684   3.256  12.313 -0.3002  0.3764 -0.6151
   59TMC2    C4  916   0.108   3.396  12.479 -0.0392  0.0469 -0.2612
   59TMC2    C5  917   0.122   3.404  12.346 -0.1695 -0.4802  0.5623
   59TMC2    C6  918   0.048   3.325  12.262  0.3303 -0.2298  0.2171
   59TMC2     C  919   4.714   3.319  12.665  0.1801 -0.0471  0.4477
   59TMC2     O  920   4.593   3.307  12.680 -0.6982  0.3861 -0.6735
   59TMC2     H  921   4.577   3.188  12.487 -1.8591  0.9575  0.0399
   59TMC2    H1  922   0.171   3.458  12.541 -0.7362  1.8400 -1.3470
   59TMC2    H2  923   0.060   3.332  12.155  0.1370  1.1579  0.2945
   59TMC2    C7  924   0.238   3.487  12.291  0.4166 -0.4113 -0.3094
   59TMC2    C8  925   4.586   3.199  12.225  0.4059  0.2784  0.0513
   59TMC2    O1  926   0.347   3.492  12.352  0.5016  0.2561  0.0276
   59TMC2    O2  927   4.472   3.177  12.255 -0.2261 -0.0760  0.6744
   59TMC2    O5  928   4.659   3.159  12.120 -0.0208 -0.2439 -0.0120
   59TMC2    H5  929   0.018   3.154  12.126 -0.0603 -3.5223 -2.0178
   60MPD2     C  930   4.695   3.412  12.950  0.3985  0.1604  0.1903
   60MPD2    C1  931   0.077   3.402  12.879 -0.1645  0.0587 -0.3743
   60MPD2    C2  932   0.192   3.436  12.944  0.0087  0.2781  0.2076
   60MPD2    C3  933   0.189   3.496  13.069  0.2749  0.0166 -0.4646
   60MPD2    C4  934   0.071   3.513  13.131 -0.4748  0.2611  0.5866
   60MPD2    C5  935   4.694   3.479  13.069  0.0461 -0.1162 -0.6352
   60MPD2     H  936   0.287   3.407  12.901 -0.2426 -1.4967  0.8531
   60MPD2    H1  937   0.058   3.534  13.236 -1.6407  0.6167  0.3690
   60MPD2    H2  938   4.604   3.372  12.906  1.0417 -0.7497 -0.3192
   60MPD2    H3  939   4.597   3.488  13.117  0.5197 -0.9367  0.4467
   60MPD2     N  940   0.315   3.528  13.124  0.2423 -0.2076  0.3847
   60MPD2    H5  941   0.396   3.513  13.066 -1.3746  0.7420 -2.1381
   60MPD2    N1  942   0.085   3.358  12.742  0.0916 -0.5793  0.3364
   60MPD2    H7  943   0.178   3.366  12.704 -0.0408 -1.3195 -0.1405
   61TMC2    C1  944   3.421   0.435  15.162  0.2957  0.2054  0.6465
   61TMC2    C2  945   3.296   0.417  15.113  0.1879  0.8224  0.1522
   61TMC2    C3  946   3.279   0.469  14.986  0.2779  0.8560  0.7269
   61TMC2    C4  947   3.528   0.485  15.099 -0.1910 -0.3562  0.4825
   61TMC2    C5  948   3.509   0.530  14.973 -0.5186 -0.2152  0.6265
   61TMC2    C6  949   3.380   0.524  14.915 -0.3225  0.0117 -0.0656
   61TMC2     C  950   3.449   0.331  15.256  0.1493 -0.4292  0.3425
   61TMC2     O  951   3.364   0.293  15.337 -0.3949  0.3668  0.5994
   61TMC2     H  952   3.215   0.373  15.169  2.0457 -0.0893  2.1291
   61TMC2    H1  953   3.621   0.513  15.146 -0.1359 -1.2622  0.9260
   61TMC2    H2  954   3.371   0.534  14.807  1.7742 -1.0935 -0.3463
   61TMC2    C7  955   3.619   0.613  14.920  0.3645 -0.1473  0.8602
   61TMC2    C8  956   3.172   0.418  14.909 -0.2875  0.1188  0.7438
   61TMC2    O1  957   3.729   0.590  14.968 -0.0313 -0.3175  0.0620
   61TMC2    O2  958   3.102   0.340  14.973  0.0527  0.2651  0.2612
   61TMC2    O5  959   3.126   0.516  14.834 -0.5949  0.1648  0.4366
   61TMC2    H5  960   3.187   0.579  14.789 -1.2546 -0.2764 -1.0455
   62MPD2     C  961   3.569   0.076  15.370 -0.6307 -0.2995 -0.2209
   62MPD2    C1  962   3.611   0.141  15.260  0.2473 -0.5860 -0.3772
   62MPD2    C2  963   3.722   0.118  15.190  0.2458 -0.4680 -0.4409
   62MPD2    C3  964   3.797   0.005  15.218 -0.6360  0.6271 -0.2979
   62MPD2    C4  965   3.757   4.666  15.322  0.2912 -0.2797 -0.3081
   62MPD2    C5  966   3.651   4.702  15.399 -0.1458  0.7427  0.1288
   62MPD2     H  967   3.759   0.183  15.111 -0.4335 -0.6745 -0.9314
   62MPD2    H1  968   3.810   4.578  15.358 -0.1994 -0.7054 -0.6152
   62MPD2    H2  969   3.483   0.096  15.432  0.0774  1.5646  0.1932
   62MPD2    H3  970   3.623   4.641  15.483 -0.5857  0.1370 -0.4522
   62MPD2     N  971   3.925   4.711  15.154  0.0649  0.6083 -0.0640
   62MPD2    H5  972   3.974   4.640  15.208 -2.3184 -0.5049  0.6835
   62MPD2    N1  973   3.556   0.261  15.211  0.0893 -0.0743 -0.0229
   62MPD2    H7  974   3.605   0.301  15.132  1.1952 -0.3799  0.5132
   63TMC2    C1  975   3.930   0.213  10.439  0.2760  0.4283  1.0651
   63TMC2    C2  976   4.056   0.221  10.385  0.7597 -0.8108 -0.4731
   63TMC2    C3  977   4.057   0.232  10.249  0.0436 -0.4364  0.0025
   63TMC2    C4  978   3.814   0.236  10.365  0.0673 -0.0637 -0.3836
   63TMC2    C5  979   3.829   0.237  10.224  0.4749 -0.0493 -0.1205
   63TMC2    C6  980   3.949   0.229  10.170 -0.5415  0.3802  1.0629
   63TMC2     C  981   3.919   0.191  10.581 -0.1164  0.4797  0.2121
   63TMC2     O  982   4.008   0.223  10.657  0.7198 -0.8192  0.2271
   63TMC2     H  983   4.145   0.231  10.447  0.1794 -1.2571  0.4183
   63TMC2    H1  984   3.715   0.225  10.407  0.9165 -0.3831  1.5288
   63TMC2    H2  985   3.953   0.228  10.061 -0.9369  0.7931  1.0474
   63TMC2    C7  986   3.727   0.324  10.161 -0.0401  0.1733  0.1298
   63TMC2    C8  987   4.166   0.298  10.185 -0.0788  0.5669 -0.7399
   63TMC2    O1  988   3.608   0.315  10.193 -0.0543 -0.2670  0.1021
   63TMC2    O2  989   4.151   0.382  10.096 -0.5298  1.0490  0.1169
   63TMC2    O5  990   4.276   0.289  10.262  0.0406  0.3409  0.0941
   63TMC2    H5  991   4.285   0.192  10.273 -0.2957  0.3255  0.2119
   64MPD2     C  992   3.746   4.611  10.946  0.4439  0.0609  0.2138
   64MPD2    C1  993   3.659   4.616  10.838  0.3040 -0.1354  0.3436
   64MPD2    C2  994   3.682   4.708  10.736 -0.1004  0.3025  0.0464
   64MPD2    C3  995   3.806   0.035  10.720  0.9457  0.0387  0.0715
   64MPD2    C4  996   3.893   0.016  10.824 -0.4093  0.6784 -0.6110
   64MPD2    C5  997   3.861   4.677  10.931  0.1187 -0.0838 -0.7279
   64MPD2     H  998   3.603   4.716  10.663  0.3185  1.7308 -0.2489
   64MPD2    H1  999   3.993   0.059  10.824 -0.1000 -0.0445 -0.2824
   64MPD2    H2 1000   3.733   4.541  11.027 -0.9463  0.7452  0.5810
   64MPD2    H3 1001   3.934   4.664  11.010  0.6000  0.2488 -1.1223
   64MPD2     N 1002   3.819   0.115  10.606 -0.0770 -0.3397 -0.3171
   64MPD2    H5 1003   3.741   0.104  10.543 -1.9594  1.5879  1.6711
   64MPD2    N1 1004   3.545   4.534  10.826 -0.2134  0.5475 -0.1608
   64MPD2    H7 1005   3.494   4.543  10.739 -2.2940  2.5776  1.2369
   65TMC2    C1 1006   0.133   4.031  15.271  0.0060 -0.5128  0.2196
   65TMC2    C2 1007   0.118   3.983  15.144 -0.4793  0.0824 -0.4108
   65TMC2    C3 1008   0.082   4.080  15.050 -0.5551  0.0209 -0.5632
   65TMC2    C4 1009   0.127   4.166  15.305  0.3396 -0.0153 -0.3660
   65TMC2    C5 1010   0.102   4.253  15.206  0.1791  0.7748 -0.2379
   65TMC2    C6 1011   0.079   4.207  15.079  1.1084  0.1572  0.0405
   65TMC2     C 1012   0.161   3.940  15.381 -0.9465 -0.5905 -0.0046
   65TMC2     O 1013   0.180   3.993  15.488  0.6655  0.1282  0.2100
   65TMC2     H 1014   0.131   3.878  15.121  1.5531  0.4991 -1.1985
   65TMC2    H1 1015   0.151   4.193  15.407 -0.5729 -0.9866  0.0991
   65TMC2    H2 1016   0.048   4.278  15.003  0.7742 -1.2883 -1.1570
   65TMC2    C7 1017   0.089   4.395  15.230  0.6914  0.2890  0.1026
   65TMC2    C8 1018   0.090   4.051  14.909 -0.0411  0.3974 -0.2988
   65TMC2    O1 1019   0.144   4.465  15.145  0.2052  0.0847  0.3182
   65TMC2    O2 1020   0.125   4.131  14.823  0.2426 -0.1999 -0.5062
   65TMC2    O5 1021   0.014   3.934  14.889 -0.5915 -0.0091 -0.0230
   65TMC2    H5 1022   4.719   3.901  14.975 -0.5920 -0.9058 -0.3620
   66MPD2     C 1023   0.300   3.737  15.544  0.1759 -0.3478 -0.8186
   66MPD2    C1 1024   0.214   3.704  15.442  0.0687 -0.1329  0.6132
   66MPD2    C2 1025   0.159   3.579  15.433 -0.2150 -0.0149  0.3158
   66MPD2    C3 1026   0.180   3.483  15.528 -0.2457 -0.4736 -0.1670
   66MPD2    C4 1027   0.268   3.511  15.633  0.7278 -0.1032 -0.4920
   66MPD2    C5 1028   0.335   3.635  15.636  0.6575  0.3933 -0.0756
   66MPD2     H 1029   0.093   3.566  15.348  2.1628  2.5166 -1.9319
   66MPD2    H1 1030   0.298   3.437  15.706  0.8706  0.3459 -0.0943
   66MPD2    H2 1031   0.336   3.836  15.567 -0.9335  0.0202 -0.6650
   66MPD2    H3 1032   0.391   3.654  15.726 -0.5935 -1.8880  1.1963
   66MPD2     N 1033   0.121   3.345  15.532  0.2327 -0.6876 -0.2484
   66MPD2    H5 1034   0.140   3.287  15.613 -1.0208 -1.2331 -0.3441
   66MPD2    N1 1035   0.165   3.804  15.349 -0.0269 -0.4770 -0.0409
   66MPD2    H7 1036   0.128   3.764  15.264 -1.4339  1.4261 -0.3213
   67TMC2    C1 1037   0.292   3.797  14.037  0.5593  0.5522 -0.9943
   67TMC2    C2 1038   0.303   3.926  14.075 -0.2763  0.5615 -0.1905
   67TMC2    C3 1039   0.364   3.953  14.195  0.1615  0.0004  0.5294
   67TMC2    C4 1040   0.368   3.703  14.101  0.1984  0.0470 -0.9810
   67TMC2    C5 1041   0.426   3.739  14.220  0.3923 -0.3870  0.3974
   67TMC2    C6 1042   0.427   3.867  14.269 -0.4318 -0.5518  0.2954
   67TMC2     C 1043   0.239   3.754  13.910  0.3699 -0.0325  0.2187
   67TMC2     O 1044   0.249   3.638  13.878  0.0231 -0.1711 -0.1750
   67TMC2     H 1045   0.264   4.007  14.014  1.1683  0.5676 -1.1098
   67TMC2    H1 1046   0.374   3.601  14.065  0.1780  0.5127 -2.3151
   67TMC2    H2 1047   0.455   3.891  14.371  0.8661  0.3827 -0.2788
   67TMC2    C7 1048   0.520   3.651  14.274 -0.5133  0.1481  0.0803
   67TMC2    C8 1049   0.349   4.091  14.241 -0.8196 -0.2837 -0.1392
   67TMC2    O1 1050   0.563   3.560  14.202 -0.1725  0.0463  0.0703
   67TMC2    O2 1051   0.412   4.149  14.327  0.8891 -0.2367  0.0889
   67TMC2    O5 1052   0.235   4.149  14.194 -0.0983 -0.6775 -0.4276
   67TMC2    H5 1053   0.187   4.083  14.139 -0.9260 -0.7867  0.4377
   68MPD2     C 1054   0.091   3.751  13.651 -0.6602 -0.8404 -0.5256
   68MPD2    C1 1055   0.090   3.852  13.739 -0.0206  0.1601 -0.5659
   68MPD2    C2 1056   0.008   3.967  13.719 -0.0873  0.0305 -0.1974
   68MPD2    C3 1057   4.681   3.975  13.604  0.2996  0.0476  0.4788
   68MPD2    C4 1058   4.677   3.872  13.515  1.0622  0.3001  0.0507
   68MPD2    C5 1059   0.006   3.759  13.544 -0.2375  0.2844  0.7391
   68MPD2     H 1060   0.008   4.047  13.793  0.8686 -2.3829  2.4402
   68MPD2    H1 1061   4.617   3.878  13.425 -0.0043  0.3086  0.7610
   68MPD2    H2 1062   0.154   3.662  13.657 -0.9946 -1.1799 -1.8796
   68MPD2    H3 1063   0.020   3.675  13.478 -1.7088  0.2931  0.4200
   68MPD2     N 1064   4.603   4.087  13.569  0.1907 -0.0286 -0.0077
   68MPD2    H5 1065   4.553   4.084  13.482 -0.2757  0.2858  0.2509
   68MPD2    N1 1066   0.160   3.852  13.864 -0.1215  0.7036 -0.2506
   68MPD2    H7 1067   0.144   3.936  13.918  1.4640  0.0239  1.2621
   69TMC2    C1 1068   2.220   0.062  12.440  0.8134  0.0405 -0.9751
   69TMC2    C2 1069   2.083   0.089  12.425 -0.5679 -0.3640 -0.3687
   69TMC2    C3 1070   2.053   0.219  12.406  0.1702 -0.2681 -0.2399
   69TMC2    C4 1071   2.315   0.157  12.431 -0.2887 -0.0005 -0.4599
   69TMC2    C5 1072   2.281   0.286  12.405 -0.5297 -0.3664  1.1283
   69TMC2    C6 1073   2.144   0.316  12.398 -0.0291  0.3606 -0.0928
   69TMC2     C 1074   2.259   4.658  12.431 -0.1554 -0.9177  0.1997
   69TMC2     O 1075   2.182   4.576  12.478 -0.0387 -0.0245 -0.2636
   69TMC2     H 1076   2.004   0.018  12.444 -1.2236  0.5278  0.2440
   69TMC2    H1 1077   2.418   0.137  12.454  0.1803 -0.7794 -3.1553
   69TMC2    H2 1078   2.110   0.419  12.403 -0.0361  0.3271  0.6211
   69TMC2    C7 1079   2.384   0.373  12.349 -0.1123 -0.8873 -0.3322
   69TMC2    C8 1080   1.915   0.243  12.375  0.6605 -0.6086 -0.5404
   69TMC2    O1 1081   2.494   0.323  12.352  0.3406  0.5727  0.3658
   69TMC2    O2 1082   1.819   0.179  12.423  0.0417 -0.2568 -0.6923
   69TMC2    O5 1083   1.909   0.352  12.296  0.5535 -0.5419 -0.2802
   69TMC2    H5 1084   1.993   0.369  12.249 -0.4002 -2.4599 -2.6560
   70MPD2     C 1085   2.561   4.495  12.270  0.2449 -0.1906  0.3714
   70MPD2    C1 1086   2.439   4.510  12.338 -0.0123  0.8691  0.1517
   70MPD2    C2 1087   2.378   4.395  12.358 -0.4229  0.4594  0.6486
   70MPD2    C3 1088   2.424   4.267  12.327 -0.1864 -0.1270  0.0135
   70MPD2    C4 1089   2.542   4.256  12.257  0.0080 -0.8843 -0.2554
   70MPD2    C5 1090   2.614   4.374  12.236  0.3567 -0.8351 -0.1332
   70MPD2     H 1091   2.286   4.392  12.416  0.3281  0.2588  1.8151
   70MPD2    H1 1092   2.584   4.163  12.220 -2.2608 -2.4138  1.0061
   70MPD2    H2 1093   2.620   4.584  12.256  2.1413 -1.2353  1.7006
   70MPD2    H3 1094   2.711   4.364  12.190  0.7535  0.8532  0.3048
   70MPD2     N 1095   2.367   4.142  12.373 -0.6607 -0.0918 -0.1740
   70MPD2    H5 1096   2.413   4.054  12.355  1.7349  0.7000  2.1653
   70MPD2    N1 1097   2.380   4.634  12.375  0.3478  0.1723  0.0689
   70MPD2    H7 1098   2.429   4.713  12.334 -1.1206 -0.0036 -2.0370
   71TMC2    C1 1099   4.032   3.809   1.340 -0.9451  0.3167  0.0987
   71TMC2    C2 1100   4.052   3.695   1.416 -0.3903 -0.7319  0.0655
   71TMC2    C3 1101   3.974   3.587   1.398 -0.4678  0.6011  0.3022
   71TMC2    C4 1102   3.925   3.813   1.253  0.2468  0.1526  0.2317
   71TMC2    C5 1103   3.848   3.699   1.235  0.0571  0.3318 -0.0723
   71TMC2    C6 1104   3.873   3.586   1.308 -0.3375  0.0920 -1.2399
   71TMC2     C 1105   4.129   3.913   1.333  0.2456  0.2383  0.7877
   71TMC2     O 1106   4.099   3.996   1.248  0.3512 -0.4394  0.3534
   71TMC2     H 1107   4.136   3.677   1.481 -0.4736  0.0082  0.3792
   71TMC2    H1 1108   3.908   3.895   1.184 -2.5064 -1.6628 -1.2010
   71TMC2    H2 1109   3.816   3.498   1.281 -2.2396  1.1633 -0.7247
   71TMC2    C7 1110   3.770   3.676   1.111 -0.3924  0.2950  0.1292
   71TMC2    C8 1111   4.000   3.478   1.487 -0.1260 -0.0839 -0.0251
   71TMC2    O1 1112   3.721   3.568   1.084 -0.2787 -0.0292  0.0157
   71TMC2    O2 1113   4.114   3.442   1.508  0.8818  0.0025 -0.4426
   71TMC2    O5 1114   3.900   3.388   1.451 -0.1042  0.0644  0.5965
   71TMC2    H5 1115   3.811   3.429   1.447 -0.1621 -0.0083  1.0948
   72MPD2     C 1116   4.565   4.171   1.424 -0.6212  0.4389 -0.8768
   72MPD2    C1 1117   4.478   4.176   1.323  0.3492 -0.9167  0.4639
   72MPD2    C2 1118   4.358   4.105   1.329 -0.1185 -0.3444 -0.1510
   72MPD2    C3 1119   4.333   4.010   1.426 -0.5281 -0.0628 -0.2727
   72MPD2    C4 1120   4.424   4.009   1.535 -0.1353 -0.1798 -0.5986
   72MPD2    C5 1121   4.531   4.085   1.532 -0.0456  0.0136  0.4156
   72MPD2     H 1122   4.286   4.124   1.250  0.0008 -0.8106 -0.3718
   72MPD2    H1 1123   4.393   3.939   1.611 -1.4458  1.4640  0.3517
   72MPD2    H2 1124   4.664   4.213   1.438 -0.8266  0.3505  0.8941
   72MPD2    H3 1125   4.605   4.075   1.611  0.8334 -0.9986 -0.5346
   72MPD2     N 1126   4.226   3.921   1.428 -0.1135  0.6226  1.0724
   72MPD2    H5 1127   4.227   3.853   1.503 -1.1850  0.6637  1.1254
   72MPD2    N1 1128   4.493   4.254   1.209  0.2808 -0.0238  0.3181
   72MPD2    H7 1129   4.429   4.232   1.134  1.6197 -0.4756 -0.6972
   73TMC2    C1 1130   3.917   2.761  13.976 -0.0466  0.8943  0.4123
   73TMC2    C2 1131   3.809   2.679  13.952  0.0084 -0.1847 -0.8213
   73TMC2    C3 1132   3.794   2.560  14.019  0.4715  0.3094 -0.3580
   73TMC2    C4 1133   4.007   2.730  14.073  0.2996 -0.0890  0.2278
   73TMC2    C5 1134   3.992   2.613  14.136 -0.0528 -0.1467  0.5401
   73TMC2    C6 1135   3.884   2.524  14.117  0.4169  0.1442  0.3395
   73TMC2     C 1136   3.999   2.794  13.866 -0.1998  0.2277  0.2796
   73TMC2     O 1137   4.116   2.753  13.869 -0.2783 -0.1637 -0.6153
   73TMC2     H 1138   3.734   2.692  13.875  0.0757  0.2488 -0.8175
   73TMC2    H1 1139   4.095   2.785  14.104  1.0686 -0.4425 -1.3321
   73TMC2    H2 1140   3.879   2.431  14.174  1.3881  0.9450  1.7272
   73TMC2    C7 1141   4.114   2.534  14.137  0.5235 -0.5655  0.1520
   73TMC2    C8 1142   3.689   2.474  13.979  0.3399  0.2327 -0.1230
   73TMC2    O1 1143   4.117   2.434  14.208 -0.5272 -0.2536 -0.0650
   73TMC2    O2 1144   3.607   2.508  13.892  0.4652 -0.0594  0.2500
   73TMC2    O5 1145   3.714   2.345  14.000  0.1494  0.3978 -0.1004
   73TMC2    H5 1146   3.799   2.335  14.048 -0.1220 -1.2412  0.0556
   74MPD2     C 1147   4.075   3.000  13.409  0.4482  0.2872  0.5409
   74MPD2    C1 1148   4.160   2.921  13.485 -0.0718 -0.1912 -0.5175
   74MPD2    C2 1149   4.106   2.876  13.607 -0.2723  0.3618  0.1400
   74MPD2    C3 1150   3.983   2.918  13.653 -0.8009 -0.4385 -0.0864
   74MPD2    C4 1151   3.913   3.015  13.581  1.1344  0.5905  0.7457
   74MPD2    C5 1152   3.953   3.048  13.458 -0.9629 -0.6349  0.1431
   74MPD2     H 1153   4.171   2.811  13.665 -1.7167 -3.7005 -2.8108
   74MPD2    H1 1154   3.811   3.037  13.610  0.8842 -1.8587  1.7230
   74MPD2    H2 1155   4.110   3.043  13.316  1.6798  0.4421  1.0621
   74MPD2    H3 1156   3.888   3.110  13.397 -1.5254 -0.6839  0.6932
   74MPD2     N 1157   3.931   2.878  13.780 -0.4154  0.7260  0.2558
   74MPD2    H5 1158   3.841   2.910  13.814 -1.6828 -1.9510 -0.5784
   74MPD2    N1 1159   4.279   2.878  13.427 -0.8453  0.3484  0.0332
   74MPD2    H7 1160   4.292   2.908  13.330 -0.4997  0.8136  0.2206
   75TMC2    C1 1161   4.501   4.299  13.574  0.6242 -0.0788  0.4862
   75TMC2    C2 1162   4.503   4.428  13.624 -0.1215  0.5404  0.0536
   75TMC2    C3 1163   4.435   4.523  13.554 -0.0996  0.5324  0.3507
   75TMC2    C4 1164   4.451   4.279  13.451 -0.4473  0.7137  0.0395
   75TMC2    C5 1165   4.398   4.378  13.378  0.6316  0.0875 -0.2530
   75TMC2    C6 1166   4.388   4.504  13.426 -0.4630  0.2590 -0.2499
   75TMC2     C 1167   4.590   4.206  13.643 -0.2745 -0.2548  0.5271
   75TMC2     O 1168   4.651   4.249  13.739 -0.5236  0.2174  0.2908
   75TMC2     H 1169   4.545   4.449  13.721 -0.2480 -1.5709  0.5571
   75TMC2    H1 1170   4.448   4.178  13.413 -1.6492  1.1176 -0.9155
   75TMC2    H2 1171   4.342   4.587  13.375  0.6836  1.2992  0.4066
   75TMC2    C7 1172   4.364   4.348  13.243 -0.2165  0.0166  0.3580
   75TMC2    C8 1173   4.427   4.660  13.604 -0.5328  0.2933  0.9841
   75TMC2    O1 1174   4.332   4.234  13.221 -0.5036  0.5142 -0.4271
   75TMC2    O2 1175   4.344   4.733  13.556 -0.1819 -0.1876  0.8156
   75TMC2    O5 1176   4.506   4.681  13.708 -0.0415 -0.1153  0.3363
   75TMC2    H5 1177   4.581   4.619  13.721 -0.9723 -1.2677  0.2965
   76TMC2    C1 1178   3.043   4.243  12.291 -1.0574 -0.5781  0.3179
   76TMC2    C2 1179   2.933   4.179  12.253 -0.1860 -0.8419 -0.5588
   76TMC2    C3 1180   2.888   4.072  12.318 -0.4892 -0.2637 -0.0170
   76TMC2    C4 1181   3.121   4.197  12.391  0.2097 -0.7734 -0.1535
   76TMC2    C5 1182   3.071   4.088  12.458  0.6498 -0.8282 -0.1668
   76TMC2    C6 1183   2.960   4.014  12.418  0.5345  0.2050  1.4313
   76TMC2     C 1184   3.061   4.377  12.241 -0.1270 -0.0965  0.1985
   76TMC2     O 1185   2.959   4.438  12.203  0.3039  0.1740  0.1402
   76TMC2     H 1186   2.882   4.213  12.163  0.9439  2.1215 -0.0750
   76TMC2    H1 1187   3.198   4.260  12.432 -0.5565 -0.6518  1.1125
   76TMC2    H2 1188   2.915   3.937  12.480 -0.7335 -0.1175  0.1106
   76TMC2    C7 1189   3.140   4.036  12.577  0.7995 -0.9285  0.1041
   76TMC2    C8 1190   2.835   3.981  12.226  0.0463 -0.0977  0.6520
   76TMC2    O1 1191   3.078   3.960  12.655  0.2787  0.0877 -0.1580
   76TMC2    O2 1192   2.769   4.009  12.125 -0.1034 -0.2282  0.0956
   76TMC2    O5 1193   2.916   3.877  12.231  0.1940  0.1689 -0.3630
   76TMC2    H5 1194   2.967   3.868  12.314 -0.7100  0.2247  0.2080
   77MPD2     C 1195   3.367   4.733  12.041  0.5381  0.6365 -1.2171
   77MPD2    C1 1196   3.236   0.001  12.061 -0.3936 -0.2322 -0.0005
   77MPD2    C2 1197   3.172   4.632  12.125 -0.3385 -0.1982 -0.1226
   77MPD2    C3 1198   3.241   4.524  12.175  0.5556  1.0781  0.4324
   77MPD2    C4 1199   3.376   4.523  12.157 -0.1572 -0.4334  0.6629
   77MPD2    C5 1200   3.439   4.620  12.082  0.0561 -0.9471  0.3551
   77MPD2     H 1201   3.065   4.650  12.130 -0.1086  2.0095 -2.7534
   77MPD2    H1 1202   3.433   4.443  12.201  0.1099 -0.1030  0.9217
   77MPD2    H2 1203   3.422   0.075  11.994  0.1587 -1.0024 -4.5151
   77MPD2    H3 1204   3.546   4.613  12.066  0.2277  0.3223  1.0053
   77MPD2     N 1205   3.195   4.406  12.228 -0.0087  0.7100  0.0391
   77MPD2    H5 1206   3.265   4.334  12.244 -1.4953 -0.4928  1.0327
   77MPD2    N1 1207   3.147   0.099  12.004  0.1158 -0.2627  0.6086
   77MPD2    H7 1208   3.050   0.082  12.027 -0.3553 -0.4185 -1.5183
   78TMC2    C1 1209   0.454   3.929   0.108  0.0181  0.3672  0.5382
   78TMC2    C2 1210   0.548   3.830   0.085  0.1640 -0.4718  0.3394
   78TMC2    C3 1211   0.650   3.827   0.174 -0.5451  0.5754  0.3790
   78TMC2    C4 1212   0.470   4.032   0.199 -0.1337  0.2341 -0.3942
   78TMC2    C5 1213   0.574   4.022   0.281  0.4258  0.5493  0.4669
   78TMC2    C6 1214   0.665   3.919   0.274 -0.0160 -0.1456 -0.0426
   78TMC2     C 1215   0.331   3.918   0.031  0.0006  0.0741 -0.3713
   78TMC2     O 1216   0.333   3.840  17.697 -0.0534  0.2332 -0.2277
   78TMC2     H 1217   0.536   3.750   0.013 -0.5470 -0.1486  0.1051
   78TMC2    H1 1218   0.395   4.111   0.206 -0.3433 -0.0113  0.1131
   78TMC2    H2 1219   0.764   3.929   0.319  0.4865  0.2985 -1.2431
   78TMC2    C7 1220   0.594   4.133   0.379  0.7688  0.3338 -0.4944
   78TMC2    C8 1221   0.706   3.698   0.183  0.6827  0.1849 -0.2067
   78TMC2    O1 1222   0.671   4.104   0.470  0.3813 -0.4224  0.4300
   78TMC2    O2 1223   0.689   3.609   0.098  1.2090 -0.0668 -0.1833
   78TMC2    O5 1224   0.749   3.678   0.311 -0.2481 -0.4625  0.6196
   78TMC2    H5 1225   0.741   3.758   0.368  0.4001 -1.0570  1.5513
   79MPD1     C 1226   4.662   4.135  17.544  0.0999  0.9027 -0.4362
   79MPD1    C1 1227   4.712   4.015  17.518 -0.6262 -0.0064 -0.0122
   79MPD1    C2 1228   0.088   3.979  17.595  0.3584  0.4561 -0.9384
   79MPD1    C3 1229   0.127   4.040  17.711  0.0401  0.0002  0.3780
   79MPD1    C4 1230   0.057   4.160  17.741  0.1545  0.7656 -0.8835
   79MPD1    C5 1231   4.694   4.205  17.653  0.4900  0.6352 -0.2844
   79MPD1     H 1232   0.126   3.879  17.574  2.2530  0.5612  1.9278
   79MPD1    H1 1233   0.079   4.225   0.071  0.2901  1.3503 -1.3697
   79MPD1    H2 1234   4.592   4.177  17.473  1.8747  0.5011 -2.4317
   79MPD1    H3 1235   4.646   4.301  17.667  2.1140  1.5008 -0.6391
   79MPD1     N 1236   0.223   4.000   0.051 -0.4339  0.2447  0.1055
   79MPD1    H5 1237   0.212   4.046   0.141 -1.3283  0.4403 -0.1088
   79MPD1    N1 1238   4.676   3.943  17.403  0.5664 -0.5365  0.7018
   79MPD1    H6 1239   4.579   3.964  17.381  1.1802  0.0851 -1.3745
   79MPD1    H7 1240   4.683   3.842  17.401  0.8656 -0.4445 -2.2099
   80TMC2    C1 1241   2.565   3.708  11.680 -0.0963 -0.0645 -0.7204
   80TMC2    C2 1242   2.687   3.660  11.628  0.3322 -0.7949  0.5088
   80TMC2    C3 1243   2.681   3.581  11.517  0.2192 -0.1690 -0.9708
   80TMC2    C4 1244   2.443   3.674  11.630  0.2416 -0.3039  0.2598
   80TMC2    C5 1245   2.442   3.583  11.525  0.6190 -0.6299 -0.5815
   80TMC2    C6 1246   2.559   3.536  11.463  0.3515 -0.7996  0.1930
   80TMC2     C 1247   2.586   3.835  11.736 -0.4269  0.0109  0.4362
   80TMC2     O 1248   2.688   3.902  11.713  0.1292  0.3757  0.1691
   80TMC2     H 1249   2.783   3.703  11.653  0.8102 -1.1234 -0.7885
   80TMC2    H1 1250   2.348   3.713  11.661 -0.1962 -1.1629  0.0151
   80TMC2    H2 1251   2.549   3.469  11.379  1.6242 -0.2996 -0.3586
   80TMC2    C7 1252   2.318   3.512  11.496  0.4137  0.1026  0.2598
   80TMC2    C8 1253   2.804   3.532  11.460 -0.7633 -0.0691 -0.1295
   80TMC2    O1 1254   2.316   3.462  11.384  0.2021  0.0447  0.3796
   80TMC2    O2 1255   2.892   3.597  11.413 -0.3709  0.0749  0.4341
   80TMC2    O5 1256   2.770   3.404  11.437 -0.7182 -0.8612  0.5356
   80TMC2    H5 1257   2.710   3.368  11.506 -0.7055 -3.2923 -0.7137
   81MPD2     C 1258   2.514   4.106  11.823 -0.2794  0.4433 -0.1363
   81MPD2    C1 1259   2.441   3.990  11.858  0.0715 -0.1618  0.0062
   81MPD2    C2 1260   2.334   4.000  11.945  0.2957 -0.7105 -0.3484
   81MPD2    C3 1261   2.294   4.125  12.003 -0.2343  0.7161  0.1418
   81MPD2    C4 1262   2.370   4.232  11.968  0.6658 -0.4875  0.3076
   81MPD2    C5 1263   2.479   4.223  11.883  0.6261 -0.1063  0.1949
   81MPD2     H 1264   2.281   3.914  11.986 -0.0783 -0.4467 -0.2793
   81MPD2    H1 1265   2.354   4.325  12.021  1.4225 -1.1291  1.6492
   81MPD2    H2 1266   2.606   4.104  11.765  0.1941 -0.8063  0.6558
   81MPD2    H3 1267   2.544   4.309  11.869  0.6287 -0.6331 -2.8475
   81MPD2     N 1268   2.176   4.147  12.079  0.7975  0.3605 -0.3559
   81MPD2    H5 1269   2.163   4.238  12.122 -0.5698  0.2383 -0.5077
   81MPD2    N1 1270   2.475   3.862  11.816  0.2094 -0.9428 -0.4610
   81MPD2    H7 1271   2.412   3.785  11.836 -1.3300  0.5994  0.5835
   82TMC2    C1 1272   0.846   3.034  11.576 -0.0745  0.4502 -0.1676
   82TMC2    C2 1273   0.953   2.998  11.646 -0.2662  0.0778 -0.0934
   82TMC2    C3 1274   0.973   2.865  11.660  0.4025  0.1854 -0.2981
   82TMC2    C4 1275   0.768   2.943  11.504 -0.5264  0.6154  0.6267
   82TMC2    C5 1276   0.796   2.809  11.510  0.3317  0.0298 -0.1784
   82TMC2    C6 1277   0.897   2.768  11.602  0.5798  0.2413 -0.8025
   82TMC2     C 1278   0.812   3.171  11.546  0.2316 -0.7436  0.5205
   82TMC2     O 1279   0.763   3.193  11.433 -0.1239 -0.2224  0.1685
   82TMC2     H 1280   1.019   3.071  11.691  0.9660  0.2089 -2.1148
   82TMC2    H1 1281   0.686   2.984  11.446  0.2266 -0.1149 -0.9696
   82TMC2    H2 1282   0.906   2.666  11.637  1.0825 -0.0950 -1.9024
   82TMC2    C7 1283   0.677   2.732  11.521  0.5162 -0.1948 -0.0683
   82TMC2    C8 1284   1.092   2.823  11.732  0.1062 -0.4328 -0.2249
   82TMC2    O1 1285   0.661   2.670  11.628  0.3316 -0.4349  0.0375
   82TMC2    O2 1286   1.208   2.851  11.700 -0.1264  0.7907  0.1782
   82TMC2    O5 1287   1.051   2.736  11.819 -0.2234  0.1893 -0.2811
   82TMC2    H5 1288   0.957   2.756  11.839  0.9903  3.9489  1.7164
   83MPD2     C 1289   0.625   3.616  11.682  0.2628 -0.3532  0.3440
   83MPD2    C1 1290   0.589   3.524  11.587 -0.1570  0.1060 -0.5685
   83MPD2    C2 1291   0.661   3.410  11.574  0.7990  0.0117  0.0423
   83MPD2    C3 1292   0.778   3.385  11.658 -0.1381  0.4683  0.4922
   83MPD2    C4 1293   0.802   3.475  11.759  0.8416  0.8254  0.1651
   83MPD2    C5 1294   0.727   3.586  11.773 -0.2041 -0.5421 -0.1321
   83MPD2     H 1295   0.614   3.338  11.509  2.4500  0.3582 -1.5449
   83MPD2    H1 1296   0.877   3.459  11.836  1.9479  4.0773 -0.2053
   83MPD2    H2 1297   0.572   3.710  11.695  0.1792 -0.4710  0.8412
   83MPD2    H3 1298   0.752   3.658  11.850 -0.9193  1.2106 -1.5333
   83MPD2     N 1299   0.839   3.262  11.647 -0.6317 -0.7579 -0.0195
   83MPD2    H5 1300   0.870   3.219  11.734 -2.2339 -1.6447  0.1222
   83MPD2    N1 1301   0.463   3.542  11.512 -0.2153  0.3327 -0.4168
   83MPD2    H7 1302   0.417   3.633  11.509 -0.5019  0.3237  4.1333
   84TMC2    C1 1303   1.239   2.709  11.206 -0.3782  0.2493 -0.2830
   84TMC2    C2 1304   1.135   2.681  11.285 -0.2931 -0.4895  0.2399
   84TMC2    C3 1305   1.049   2.585  11.243 -0.4568 -0.7736  0.0805
   84TMC2    C4 1306   1.262   2.654  11.087 -0.7005  0.8027  0.7231
   84TMC2    C5 1307   1.165   2.570  11.036  0.1665 -0.1422 -0.0332
   84TMC2    C6 1308   1.059   2.528  11.117 -0.7927  0.5413  1.1535
   84TMC2     C 1309   1.315   2.819  11.252  0.1074  0.5149  0.2316
   84TMC2     O 1310   1.303   2.847  11.373  0.3345 -0.3768 -0.7889
   84TMC2     H 1311   1.122   2.723  11.384  0.9547 -2.3190  1.1803
   84TMC2    H1 1312   1.353   2.679  11.035 -0.5829  0.2555  0.6667
   84TMC2    H2 1313   0.990   2.450  11.089  0.7774 -0.1688 -0.7409
   84TMC2    C7 1314   1.168   2.521  10.896  0.6621 -0.2017  0.1607
   84TMC2    C8 1315   0.968   2.523  11.346 -1.1541 -0.6971  0.3090
   84TMC2    O1 1316   1.075   2.462  10.844  0.9085 -0.4206 -0.4461
   84TMC2    O2 1317   0.989   2.523  11.464 -0.6706  0.4182 -0.6501
   84TMC2    O5 1318   0.853   2.492  11.280  0.0393 -0.9573  0.2475
   84TMC2    H5 1319   0.852   2.533  11.191 -2.1165  0.0492  0.7284
   85TMC2    C1 1320   2.516   0.866  15.758  0.0914  0.4586  1.1398
   85TMC2    C2 1321   2.521   0.997  15.762 -0.5228 -0.1802  0.6184
   85TMC2    C3 1322   2.501   1.062  15.644  0.3036  0.4593  0.0690
   85TMC2    C4 1323   2.486   0.785  15.645  0.2977  0.3080  0.5461
   85TMC2    C5 1324   2.461   0.857  15.530 -0.5415 -0.7945  0.2645
   85TMC2    C6 1325   2.464   0.991  15.529 -0.0268  0.4046 -0.3591
   85TMC2     C 1326   2.583   0.809  15.873 -0.5782  0.4312 -0.9953
   85TMC2     O 1327   2.647   0.887  15.945 -0.4431  0.9921 -0.6181
   85TMC2     H 1328   2.526   1.053  15.855  0.2556  2.6764 -1.1329
   85TMC2    H1 1329   2.525   0.684  15.639  2.3524  1.1210  0.4406
   85TMC2    H2 1330   2.420   1.040  15.443 -0.1635 -0.6308 -0.8686
   85TMC2    C7 1331   2.501   0.777  15.415  0.2326  0.6428 -0.2034
   85TMC2    C8 1332   2.477   1.196  15.651  0.4267 -0.0417  0.5055
   85TMC2    O1 1333   2.460   0.660  15.408 -0.0244 -0.3805  0.6356
   85TMC2    O2 1334   2.449   1.263  15.753  0.1886 -0.0170  0.1766
   85TMC2    O5 1335   2.504   1.240  15.523  0.1876  0.1438  0.5910
   85TMC2    H5 1336   2.548   1.172  15.468  1.9161 -0.0428  2.1956
   86MPD2     C 1337   2.581   0.464  16.251 -0.5196 -0.2847  0.7273
   86MPD2    C1 1338   2.522   0.407  16.140 -0.3957 -0.7313  0.1714
   86MPD2    C2 1339   2.527   0.475  16.022 -0.5445  0.3849  0.1735
   86MPD2    C3 1340   2.581   0.601  16.016 -0.0293 -0.4449  0.2112
   86MPD2    C4 1341   2.650   0.651  16.118 -0.0681  0.6820 -0.0050
   86MPD2    C5 1342   2.643   0.586  16.242  0.0095  0.4084  0.8105
   86MPD2     H 1343   2.488   0.425  15.934 -2.4093  0.8639  0.7177
   86MPD2    H1 1344   2.689   0.752  16.124  1.8990 -0.1945  1.7464
   86MPD2    H2 1345   2.598   0.405  16.341 -1.8228 -1.6396  0.0915
   86MPD2    H3 1346   2.696   0.630  16.327  2.1686  0.1799 -0.4096
   86MPD2     N 1347   2.557   0.671  15.896 -0.3885  0.2568 -0.2908
   86MPD2    H5 1348   2.509   0.622  15.821 -0.0391 -0.1295 -0.2608
   86MPD2    N1 1349   2.452   0.283  16.143  0.2366  0.2556 -0.0347
   86MPD2    H7 1350   2.401   0.259  16.059  0.6797  0.4333 -0.3532
   87TMC2    C1 1351   0.330   2.914   1.485 -0.1166 -0.8456  0.8254
   87TMC2    C2 1352   0.400   2.831   1.567 -1.2212 -0.5174 -0.1885
   87TMC2    C3 1353   0.325   2.751   1.645  0.7065 -0.1886  0.3665
   87TMC2    C4 1354   0.195   2.922   1.490  0.2175  0.0722 -0.2243
   87TMC2    C5 1355   0.127   2.847   1.577 -0.3156 -0.0057  0.0010
   87TMC2    C6 1356   0.190   2.755   1.657  0.8079  0.2704 -0.0005
   87TMC2     C 1357   0.398   2.998   1.387 -0.1137  0.9251  0.8047
   87TMC2     O 1358   0.504   2.957   1.344  0.3324 -0.0746 -0.3525
   87TMC2     H 1359   0.506   2.839   1.546 -0.9505 -2.1544  0.5775
   87TMC2    H1 1360   0.140   2.974   1.412 -2.8193 -2.7901 -0.0147
   87TMC2    H2 1361   0.144   2.710   1.745 -1.3223  0.5558 -0.9673
   87TMC2    C7 1362   4.724   2.856   1.596  0.2144  0.3476 -0.1320
   87TMC2    C8 1363   0.389   2.695   1.757 -0.0224  0.1336  0.3467
   87TMC2    O1 1364   4.665   2.750   1.628  0.1297 -0.1349 -0.0437
   87TMC2    O2 1365   0.356   2.601   1.825  0.0260 -0.2141 -0.7246
   87TMC2    O5 1366   0.483   2.787   1.796  0.4236  0.3827 -0.0636
   87TMC2    H5 1367   0.481   2.873   1.749  1.7723 -0.4188 -1.6339
   88MPD2     C 1368   4.431   2.955   1.607  0.3476 -0.3892 -0.0606
   88MPD2    C1 1369   4.541   3.023   1.560  0.4312 -0.8220 -0.4769
   88MPD2    C2 1370   4.523   3.146   1.504  1.1489 -0.1754 -0.4550
   88MPD2    C3 1371   4.396   3.202   1.492 -0.3452 -0.1793 -0.5910
   88MPD2    C4 1372   4.289   3.131   1.544  0.2423 -0.5840 -0.0600
   88MPD2    C5 1373   4.307   3.011   1.607  0.2572  0.4852  0.0981
   88MPD2     H 1374   4.615   3.195   1.473  3.2477 -3.8140  0.0723
   88MPD2    H1 1375   4.189   3.173   1.538  0.7674  0.5515 -0.7939
   88MPD2    H2 1376   4.443   2.851   1.637 -1.8045  0.3280  3.2885
   88MPD2    H3 1377   4.222   2.962   1.653 -0.5094  0.0349 -1.7758
   88MPD2     N 1378   4.375   3.326   1.432  0.2247  0.6596 -0.0602
   88MPD2    H5 1379   4.278   3.355   1.420 -1.2718 -3.2581  2.7059
   88MPD2    N1 1380   4.678   2.983   1.563 -0.0982 -0.4021  0.1135
   88MPD2    H7 1381   0.004   3.053   1.528  0.1200 -1.3951 -1.4688
   89TMC2    C1 1382   0.993   0.229   1.698 -0.3135  0.3946 -0.0743
   89TMC2    C2 1383   1.116   0.180   1.692 -0.0839 -0.5572 -0.1695
   89TMC2    C3 1384   1.217   0.272   1.675 -0.5489  0.0369 -0.1693
   89TMC2    C4 1385   0.962   0.367   1.679  0.0756  0.2453 -0.8816
   89TMC2    C5 1386   1.067   0.447   1.657  0.4748 -0.2247 -0.3195
   89TMC2    C6 1387   1.196   0.400   1.657  0.0322 -0.5366 -0.4043
   89TMC2     C 1388   0.899   0.128   1.653 -0.8082  0.2892  0.2010
   89TMC2     O 1389   0.937   0.021   1.616 -0.2207  0.6461 -0.7376
   89TMC2     H 1390   1.138   0.074   1.691  1.0967 -0.3087 -0.6545
   89TMC2    H1 1391   0.863   0.398   1.647 -0.2766 -0.6601 -0.6793
   89TMC2    H2 1392   1.287   0.459   1.651 -0.0441 -0.5110 -1.3583
   89TMC2    C7 1393   1.053   0.591   1.651 -0.5732  0.1695  0.1762
   89TMC2    C8 1394   1.352   0.216   1.651 -0.0075  0.3141  0.0417
   89TMC2    O1 1395   0.950   0.632   1.704 -0.7534  0.0697 -0.6331
   89TMC2    O2 1396   1.434   0.284   1.588  0.3031 -0.0514  0.6205
   89TMC2    O5 1397   1.393   0.168   1.770  1.1114 -0.4688 -0.0902
   89TMC2    H5 1398   1.317   0.135   1.823  0.0421 -2.5501 -2.8939
   90MPD2     C 1399   0.418   4.724   1.533  0.7629  0.2425 -0.2124
   90MPD2    C1 1400   0.402   0.107   1.599 -0.0978  0.4513  0.4351
   90MPD2    C2 1401   0.520   0.168   1.649 -0.2823 -0.1859  0.3327
   90MPD2    C3 1402   0.650   0.108   1.642  0.0188 -0.1730  0.7286
   90MPD2    C4 1403   0.659   4.714   1.588 -0.5478 -0.6114 -0.4843
   90MPD2    C5 1404   0.541   4.667   1.525 -0.2809  0.2105  0.6049
   90MPD2     H 1405   0.509   0.267   1.692  1.3859 -0.4981  1.4651
   90MPD2    H1 1406   0.754   4.665   1.568  0.8619  1.8718  0.2207
   90MPD2    H2 1407   0.346   4.658   1.486  2.0536  0.5305 -2.6349
   90MPD2    H3 1408   0.554   4.569   1.481  1.9093 -0.3227  2.4368
   90MPD2     N 1409   0.770   0.166   1.689 -1.1300  0.1110  0.2734
   90MPD2    H5 1410   0.750   0.251   1.740 -0.3049 -0.8073  2.1419
   90MPD2    N1 1411   0.281   0.171   1.617 -0.4148 -0.1623 -0.3311
   90MPD2    H7 1412   0.284   0.259   1.668 -1.5467 -1.0458  1.2748
   91TMC2    C1 1413   2.371   1.377  16.375 -0.5791  0.2224 -0.3659
   91TMC2    C2 1414   2.443   1.315  16.473 -0.0416 -0.3629 -0.5478
   91TMC2    C3 1415   2.395   1.203  16.540  0.2652 -0.0267  1.3123
   91TMC2    C4 1416   2.251   1.319  16.333 -0.0879 -0.4243 -0.3107
   91TMC2    C5 1417   2.206   1.204  16.401  0.1984  0.5362 -0.0772
   91TMC2    C6 1418   2.278   1.148  16.504 -0.4767  0.5789 -0.0035
   91TMC2     C 1419   2.428   1.471  16.282 -0.1971  0.7667 -0.3961
   91TMC2     O 1420   2.345   1.535  16.218  0.4128 -0.3272 -0.3607
   91TMC2     H 1421   2.531   1.369  16.508  0.5911 -2.4799  1.1525
   91TMC2    H1 1422   2.197   1.350  16.244  0.5826  0.3323 -0.4631
   91TMC2    H2 1423   2.253   1.058  16.560  1.1142 -0.2863 -0.6772
   91TMC2    C7 1424   2.091   1.128  16.359  0.2170  0.7025 -0.5954
   91TMC2    C8 1425   2.473   1.152  16.655  0.8039  0.2919 -0.4036
   91TMC2    O1 1426   2.062   1.024  16.421 -0.0890  0.3980  0.1047
   91TMC2    O2 1427   2.460   1.037  16.704  0.8452 -0.2118  0.5041
   91TMC2    O5 1428   2.507   1.260  16.735  0.2716 -0.2131 -0.3492
   91TMC2    H5 1429   2.505   1.350  16.695 -0.1829  0.1141  0.3996
   92MPD2     C 1430   2.601   1.606  16.087  0.1760  0.3110 -0.2317
   92MPD2    C1 1431   2.647   1.558  16.209  0.1963  0.9003 -0.2386
   92MPD2    C2 1432   2.788   1.559  16.245 -0.4861 -0.0072  0.5353
   92MPD2    C3 1433   2.880   1.591  16.142  0.3125 -0.4225 -0.1320
   92MPD2    C4 1434   2.836   1.630  16.016  0.3068  1.0491 -0.0402
   92MPD2    C5 1435   2.701   1.642  15.993  0.3246 -0.3230  0.6948
   92MPD2     H 1436   2.835   1.527  16.338  0.5841  2.1733  0.7369
   92MPD2    H1 1437   2.907   1.657  15.939  0.6975  0.2910  0.0595
   92MPD2    H2 1438   2.495   1.614  16.061 -0.0820 -0.5072  0.5777
   92MPD2    H3 1439   2.666   1.695  15.905 -0.9674  0.2716  1.5744
   92MPD2     N 1440   3.018   1.573  16.161  0.5673 -0.7829 -0.5177
   92MPD2    H5 1441   3.046   1.557  16.257 -1.6687 -1.0623  0.1054
   92MPD2    N1 1442   2.561   1.481  16.292 -0.7614 -0.4047 -0.8479
   92MPD2    H7 1443   2.616   1.420  16.353  1.4902  1.2977 -1.1552
   93TMC2    C1 1444   4.470   1.828  13.983 -0.2286 -0.2459  0.0144
   93TMC2    C2 1445   4.427   1.866  14.107  0.0161  0.8354  0.0664
   93TMC2    C3 1446   4.528   1.893  14.195  0.5420  0.3602 -0.2616
   93TMC2    C4 1447   4.603   1.802  13.959 -0.7269  0.2033  0.0624
   93TMC2    C5 1448   4.698   1.829  14.059  0.0370  0.2165 -0.4406
   93TMC2    C6 1449   4.660   1.880  14.177  0.1177 -0.0830 -0.0983
   93TMC2     C 1450   4.378   1.745  13.912 -0.0469  0.4741 -0.7450
   93TMC2     O 1451   4.418   1.639  13.874 -0.0919 -0.0445 -0.1326
   93TMC2     H 1452   4.325   1.891  14.134 -0.4055 -0.1542 -0.6050
   93TMC2    H1 1453   4.641   1.766  13.864  2.1222  2.2245  0.4253
   93TMC2    H2 1454   4.726   1.903  14.259  0.1090  2.6708 -0.8486
   93TMC2    C7 1455   0.105   1.848  14.035  0.9879 -0.0729 -0.3490
   93TMC2    C8 1456   4.501   2.010  14.274  0.1248  0.2535 -0.1948
   93TMC2    O1 1457   0.191   1.812  14.115  0.2262  0.3283  0.1658
   93TMC2    O2 1458   4.552   2.121  14.261  0.5069  0.5682  0.1130
   93TMC2    O5 1459   4.404   1.974  14.361  0.2103  0.2823 -0.1654
   93TMC2    H5 1460   4.380   1.880  14.346  1.3859 -0.2302  1.2215
   94MPD2     C 1461   4.133   1.592  13.822 -0.6363  0.0485 -0.3766
   94MPD2    C1 1462   4.129   1.718  13.884  0.0514  0.1141 -0.1979
   94MPD2    C2 1463   4.006   1.781  13.900 -0.0301 -0.0092 -0.4558
   94MPD2    C3 1464   3.888   1.715  13.862  0.1918  0.9472  0.2508
   94MPD2    C4 1465   3.895   1.591  13.802  0.3307 -0.0831 -0.1722
   94MPD2    C5 1466   4.018   1.535  13.771 -0.2454  1.0368  0.0706
   94MPD2     H 1467   4.003   1.881  13.941  0.0551  0.6767 -2.1388
   94MPD2    H1 1468   3.801   1.539  13.782  0.5561 -0.4593 -0.2676
   94MPD2    H2 1469   4.220   1.529  13.811 -0.3729  0.3130  0.2149
   94MPD2    H3 1470   4.015   1.437  13.724 -0.6137  0.8779  0.4228
   94MPD2     N 1471   3.759   1.769  13.885 -0.9680  0.4826 -0.1069
   94MPD2    H5 1472   3.686   1.699  13.883  1.8077 -2.4578  1.4618
   94MPD2    N1 1473   4.248   1.793  13.919  0.2853 -0.1464 -0.1111
   94MPD2    H7 1474   4.242   1.887  13.955  0.4407 -0.6758  1.3267
   95TMC2    C1 1475   4.481   2.644  16.373 -0.0063  0.0933  0.3308
   95TMC2    C2 1476   4.475   2.509  16.340 -0.3536 -0.2630  0.8840
   95TMC2    C3 1477   4.456   2.420  16.436  0.2016 -0.5662 -0.1050
   95TMC2    C4 1478   4.446   2.689  16.497 -0.0144  0.7554 -0.3506
   95TMC2    C5 1479   4.424   2.594  16.595 -0.1671 -0.4068  0.4193
   95TMC2    C6 1480   4.415   2.460  16.560  0.0556 -0.2444  0.6882
   95TMC2     C 1481   4.531   2.740  16.267 -0.4093 -0.4376  0.1633
   95TMC2     O 1482   4.572   2.688  16.163  0.1715 -0.2562 -0.0448
   95TMC2     H 1483   4.501   2.476  16.240  0.3494  2.9020  0.0119
   95TMC2    H1 1484   4.440   2.794  16.524  1.5075  0.6823  0.2258
   95TMC2    H2 1485   4.381   2.390  16.636 -1.5730 -0.6051 -0.3780
   95TMC2    C7 1486   4.382   2.634  16.723 -0.4168 -0.0405 -0.4251
   95TMC2    C8 1487   4.406   2.291  16.398  0.2528 -0.5453  0.0953
   95TMC2    O1 1488   4.332   2.547  16.795  0.0718 -0.4088 -0.0120
   95TMC2    O2 1489   4.384   2.208  16.485  0.1577  0.6816  0.3050
   95TMC2    O5 1490   4.315   2.323  16.304  0.3363  0.0587 -0.4980
   95TMC2    H5 1491   4.320   2.405  16.250  3.9439 -0.9205 -1.6441
   96MPD2     C 1492   4.552   3.221  16.091 -0.2251 -0.8033  0.0618
   96MPD2    C1 1493   4.552   3.104  16.012  0.8776 -0.4266 -0.1674
   96MPD2    C2 1494   4.555   2.985  16.095 -0.1783 -0.4141  0.0502
   96MPD2    C3 1495   4.523   2.990  16.232 -0.7195  0.0786 -0.0589
   96MPD2    C4 1496   4.509   3.111  16.293 -1.1265  0.1921  0.8828
   96MPD2    C5 1497   4.528   3.225  16.226  0.0139  0.2815 -0.2535
   96MPD2     H 1498   4.561   2.887  16.048 -0.5861 -1.0039  1.2412
   96MPD2    H1 1499   4.502   3.124  16.400 -0.1120 -1.9396  1.1975
   96MPD2    H2 1500   4.561   3.320  16.047  2.1334 -0.3181  1.6243
   96MPD2    H3 1501   4.524   3.323  16.272  1.5482  0.1516  0.1573
   96MPD2     N 1502   4.526   2.871  16.312  0.3028 -0.4371  0.0279
   96MPD2    H5 1503   4.502   2.888  16.409 -0.1826 -2.5744  0.2819
   96MPD2    N1 1504   4.554   3.116  15.871 -0.7830 -0.7861 -0.9725
   96MPD2    H7 1505   4.525   3.205  15.830 -0.4120 -0.0070  0.4752
   97TMC2    C1 1506   1.793   0.849   0.329  0.3772  0.3925  0.4504
   97TMC2    C2 1507   1.663   0.866   0.294  0.0979  0.1645 -0.5554
   97TMC2    C3 1508   1.644   0.934   0.174  0.6508 -0.0735  0.1169
   97TMC2    C4 1509   1.900   0.893   0.250  0.4252  0.2528  0.1352
   97TMC2    C5 1510   1.871   0.961   0.138  0.7355 -0.4031 -0.6354
   97TMC2    C6 1511   1.743   0.988   0.102  0.0678  0.3566  0.3732
   97TMC2     C 1512   1.820   0.770   0.451 -0.0577 -0.2099  0.0347
   97TMC2     O 1513   1.718   0.747   0.517 -0.1349 -0.0537 -0.3491
   97TMC2     H 1514   1.579   0.840   0.357  0.1124  2.6003  0.4774
   97TMC2    H1 1515   2.003   0.873   0.278  0.9983  1.3774 -1.1740
   97TMC2    H2 1516   1.718   1.040   0.010  0.2581  2.0972  1.2992
   97TMC2    C7 1517   1.988   1.034   0.083 -0.6537  0.4288  0.1156
   97TMC2    C8 1518   1.510   0.948   0.112  0.1231  0.4051 -0.5765
   97TMC2    O1 1519   2.094   1.024   0.139 -0.0183 -0.0303 -0.8948
   97TMC2    O2 1520   1.422   0.870   0.131  0.0497  0.2178  0.0286
   97TMC2    O5 1521   1.488   1.064   0.055  0.5387 -0.2014  0.5755
   97TMC2    H5 1522   1.563   1.126   0.056  0.3877 -0.0100  0.0407
   98MPD2     C 1523   2.074   0.405   0.707  0.5747  0.3271 -0.2984
   98MPD2    C1 1524   1.942   0.438   0.713 -0.2068  0.7542  0.1939
   98MPD2    C2 1525   1.881   0.526   0.623 -0.3873  0.0718  0.3925
   98MPD2    C3 1526   1.968   0.593   0.529  0.0721  0.2035  0.0686
   98MPD2    C4 1527   2.104   0.559   0.530 -0.0204 -1.0732  0.2206
   98MPD2    C5 1528   2.148   0.464   0.609  0.3993  0.4747  0.8074
   98MPD2     H 1529   1.774   0.539   0.625 -0.1644  1.9984 -0.4833
   98MPD2    H1 1530   2.169   0.607   0.458 -2.8872 -2.1259 -3.0837
   98MPD2    H2 1531   2.122   0.349   0.786  1.5591  3.2758  1.1804
   98MPD2    H3 1532   2.255   0.441   0.606  0.1090 -1.0600  2.5011
   98MPD2     N 1533   1.940   0.708   0.453 -0.9311  0.5560 -0.1887
   98MPD2    H5 1534   2.012   0.740   0.389 -0.5799  0.1382 -0.0036
   98MPD2    N1 1535   1.871   0.386   0.820  0.4527  0.2580 -0.4995
   98MPD2    H7 1536   1.915   0.311   0.873 -1.1182 -0.5001 -0.2504
   99TMC2    C1 1537   1.091   2.335   1.045  0.5713 -0.3773 -0.2026
   99TMC2    C2 1538   1.167   2.446   1.077  0.8431 -0.2662 -0.5944
   99TMC2    C3 1539   1.129   2.503   1.199 -0.3469  0.4456  0.4168
   99TMC2    C4 1540   1.010   2.266   1.132 -0.4213  0.1289  0.0559
   99TMC2    C5 1541   0.985   2.329   1.250 -0.6304  0.1698  0.6703
   99TMC2    C6 1542   1.049   2.442   1.290 -0.7300  0.3565  0.0198
   99TMC2     C 1543   1.110   2.284   0.912  0.2420  0.6013 -0.2976
   99TMC2     O 1544   1.203   2.336   0.847 -0.1701  0.2403  0.7523
   99TMC2     H 1545   1.214   2.504   0.997  1.0725 -1.7241 -1.5168
   99TMC2    H1 1546   0.965   2.168   1.118 -2.4940  1.1126 -0.1376
   99TMC2    H2 1547   1.019   2.490   1.382  2.2403  3.0070 -0.3717
   99TMC2    C7 1548   0.904   2.265   1.349 -0.2413  0.4204 -0.7057
   99TMC2    C8 1549   1.152   2.644   1.235  1.2512 -0.3654 -0.9294
   99TMC2    O1 1550   0.941   2.272   1.465 -1.0676  0.1702 -0.8891
   99TMC2    O2 1551   1.060   2.709   1.288 -0.1487  0.0284 -0.2645
   99TMC2    O5 1552   1.247   2.686   1.152 -0.0400 -0.3451 -0.2354
   99TMC2    H5 1553   1.318   2.619   1.134  2.1212  1.3335  1.9922
  100MPD2     C 1554   1.103   2.148   0.642 -0.0396 -1.2690  0.6147
  100MPD2    C1 1555   1.010   2.138   0.745  0.1284  0.2144  0.9430
  100MPD2    C2 1556   0.908   2.045   0.718  0.1321  0.0764  0.1387
  100MPD2    C3 1557   0.895   1.976   0.599 -0.1527 -0.0365 -0.3729
  100MPD2    C4 1558   0.991   1.985   0.500 -0.2819  0.1128  0.1254
  100MPD2    C5 1559   1.090   2.079   0.519 -0.0936 -0.8046  0.4243
  100MPD2     H 1560   0.837   2.036   0.799  0.0333  2.2581  0.2951
  100MPD2    H1 1561   0.984   1.937   0.403 -1.4169  1.2043 -0.3289
  100MPD2    H2 1562   1.183   2.220   0.644 -2.1891  1.1341 -0.0956
  100MPD2    H3 1563   1.177   2.084   0.454  0.6477 -1.0304  1.3932
  100MPD2     N 1564   0.784   1.892   0.582  0.2698 -0.4065  0.6549
  100MPD2    H5 1565   0.708   1.901   0.649  0.0551 -2.6255  0.7148
  100MPD2    N1 1566   1.008   2.200   0.875 -0.3945 -0.1337  0.6786
  100MPD2    H7 1567   0.932   2.188   0.941 -1.4142  2.1799 -0.0920
  101TMC2    C1 1568   1.440   4.136  13.174  0.2979  0.3726  0.4164
  101TMC2    C2 1569   1.489   4.168  13.301  0.2135  0.2929  0.1936
  101TMC2    C3 1570   1.622   4.192  13.306 -0.3938  0.3273  0.5701
  101TMC2    C4 1571   1.518   4.137  13.062  0.3870  0.7157  0.6373
  101TMC2    C5 1572   1.648   4.151  13.072  0.3474  0.1239 -0.4054
  101TMC2    C6 1573   1.705   4.174  13.197  0.0873 -0.1248 -0.4826
  101TMC2     C 1574   1.317   4.064  13.171  0.2174  0.0748  0.0160
  101TMC2     O 1575   1.242   4.070  13.268 -0.4818 -0.2564  0.2363
  101TMC2     H 1576   1.432   4.150  13.391  1.9699 -1.4534  0.9609
  101TMC2    H1 1577   1.475   4.125  12.963 -1.5152  0.0787  1.5495
  101TMC2    H2 1578   1.810   4.192  13.219 -0.0755 -0.6420  0.6837
  101TMC2    C7 1579   1.717   4.182  12.946 -1.0630  0.2155  0.2037
  101TMC2    C8 1580   1.680   4.184  13.437  1.0211  0.6008 -0.2594
  101TMC2    O1 1581   1.645   4.186  12.845 -0.7964 -0.9493  0.0094
  101TMC2    O2 1582   1.799   4.145  13.452 -0.9902 -0.1057 -0.4171
  101TMC2    O5 1583   1.608   4.265  13.522  0.1988 -0.3390 -0.4332
  101TMC2    H5 1584   1.514   4.275  13.495  0.0548 -0.3544  0.0539
  102MPD2     C 1585   1.225   3.817  12.917  0.4617 -0.1256 -0.0962
  102MPD2    C1 1586   1.211   3.882  13.037 -0.1388  0.2388 -1.0001
  102MPD2    C2 1587   1.102   3.855  13.120  0.0827 -0.3714 -0.4517
  102MPD2    C3 1588   1.009   3.763  13.070 -0.4221  0.5027  0.6868
  102MPD2    C4 1589   1.035   3.698  12.950  0.8774 -0.6878  0.2521
  102MPD2    C5 1590   1.141   3.721  12.878 -0.4005 -0.4904 -0.4422
  102MPD2     H 1591   1.090   3.902  13.216 -1.5248  2.3603 -1.9914
  102MPD2    H1 1592   0.960   3.633  12.908  0.7668  0.9930 -2.1647
  102MPD2    H2 1593   1.297   3.842  12.839  1.1562  0.9734  0.9023
  102MPD2    H3 1594   1.144   3.680  12.778 -1.7556 -1.0055 -0.2703
  102MPD2     N 1595   0.900   3.718  13.152  1.1732 -0.2277  0.4101
  102MPD2    H5 1596   0.881   3.774  13.234  0.4079 -2.4369  1.7334
  102MPD2    N1 1597   1.317   3.971  13.068 -0.3325  0.0242  0.2169
  102MPD2    H7 1598   1.400   3.973  13.009  1.1521 -0.7171  2.2718
  103TMC2    C1 1599   3.765   4.410  12.903 -0.0095  0.9952 -0.2841
  103TMC2    C2 1600   3.821   4.521  12.853  0.0126 -0.1887  0.4285
  103TMC2    C3 1601   3.899   4.606  12.931  0.3063  0.2473  0.3721
  103TMC2    C4 1602   3.809   4.367  13.023 -0.1859  0.2522  0.2654
  103TMC2    C5 1603   3.900   4.446  13.087  0.3140  0.4317 -0.0809
  103TMC2    C6 1604   3.950   4.562  13.046  0.3019  1.0658 -0.3519
  103TMC2     C 1605   3.653   4.343  12.835 -0.0186  0.3115 -0.1212
  103TMC2     O 1606   3.612   4.401  12.736 -0.0209 -0.9576  0.0687
  103TMC2     H 1607   3.784   4.554  12.757  0.6922  0.1706  0.2859
  103TMC2    H1 1608   3.785   4.272  13.068 -2.1797  0.7594  0.2771
  103TMC2    H2 1609   4.043   4.596  13.090  0.7136 -0.3884 -0.1031
  103TMC2    C7 1610   3.937   4.403  13.220 -0.3773 -0.8596 -0.2891
  103TMC2    C8 1611   3.958   4.724  12.870 -0.8597 -0.2810  0.6512
  103TMC2    O1 1612   3.927   4.287  13.253  0.4355 -0.5761 -0.2245
  103TMC2    O2 1613   3.942   0.017  12.750  0.1439  0.0597 -0.3463
  103TMC2    O5 1614   4.003   0.066  12.965 -0.1420 -0.0792  0.0031
  103TMC2    H5 1615   3.986   0.043  13.060  0.3792 -0.5156 -0.0094
  104MPD2     C 1616   3.518   4.018  12.908  0.4316  0.0006  0.2779
  104MPD2    C1 1617   3.541   4.124  12.831  1.2339  0.1632  0.1458
  104MPD2    C2 1618   3.452   4.142  12.729  0.2619  0.4830 -0.1116
  104MPD2    C3 1619   3.354   4.051  12.697 -0.3866  0.4734  1.2104
  104MPD2    C4 1620   3.343   3.937  12.771  0.3231 -0.6835  0.3455
  104MPD2    C5 1621   3.429   3.924  12.873  0.3599 -0.1787 -0.1843
  104MPD2     H 1622   3.463   4.234  12.673 -2.1587 -0.2655 -1.8206
  104MPD2    H1 1623   3.265   3.862  12.762 -0.7606  0.2273  2.1155
  104MPD2    H2 1624   3.568   4.005  13.003 -0.5797 -0.9285  0.6905
  104MPD2    H3 1625   3.420   3.840  12.940 -0.8455 -0.5753 -0.8392
  104MPD2     N 1626   3.268   4.085  12.592 -0.6063  1.4073  0.7944
  104MPD2    H5 1627   3.289   4.170  12.541 -1.3681  1.9481  1.3849
  104MPD2    N1 1628   3.618   4.223  12.893  0.6024  0.6264  0.5336
  104MPD2    H7 1629   3.669   4.201  12.977  0.4598  0.3779  0.5554
  105TMC2    C1 1630   0.856   3.137   0.633  0.2387  0.7566 -0.7781
  105TMC2    C2 1631   0.890   3.264   0.601  0.3944 -0.1317  0.0076
  105TMC2    C3 1632   0.852   3.360   0.693 -0.0295  0.2970  0.2405
  105TMC2    C4 1633   0.775   3.102   0.733  0.0879 -0.5646  0.0917
  105TMC2    C5 1634   0.728   3.207   0.814  0.0916 -0.4251  1.0932
  105TMC2    C6 1635   0.769   3.335   0.800 -0.1194  0.2135 -0.1778
  105TMC2     C 1636   0.871   3.037   0.532  0.0345 -0.5052 -0.4562
  105TMC2     O 1637   0.846   2.923   0.571 -0.1371 -0.1366  0.0612
  105TMC2     H 1638   0.955   3.289   0.518 -0.3807  0.1155 -0.5299
  105TMC2    H1 1639   0.728   3.006   0.750 -0.5924 -0.2598 -0.0461
  105TMC2    H2 1640   0.756   3.408   0.879  2.4430 -2.0278  2.2924
  105TMC2    C7 1641   0.643   3.176   0.928  0.1390  0.4539  0.0217
  105TMC2    C8 1642   0.891   3.500   0.666 -0.0893 -1.1583 -0.0154
  105TMC2    O1 1643   0.637   3.054   0.961  0.1110 -0.1595 -0.0494
  105TMC2    O2 1644   0.812   3.594   0.671 -0.2178 -0.2276 -0.3366
  105TMC2    O5 1645   1.024   3.504   0.632 -0.4822 -0.1474 -0.4396
  105TMC2    H5 1646   1.068   3.421   0.659 -1.1822  0.5246  2.6881
  106MPD2     C 1647   0.908   2.894   0.033 -1.1979 -0.5950  0.1181
  106MPD2    C1 1648   0.871   3.020   0.037  0.1122 -0.7310 -0.1066
  106MPD2    C2 1649   0.855   3.080   0.160  0.3532 -0.5292  0.2728
  106MPD2    C3 1650   0.874   3.016   0.285 -0.6435  0.3074  0.4868
  106MPD2    C4 1651   0.901   2.882   0.276  0.3012  0.1711 -0.0842
  106MPD2    C5 1652   0.894   2.821   0.148  0.3221 -0.0871 -0.2159
  106MPD2     H 1653   0.819   3.182   0.162 -0.3818 -0.8207  2.0197
  106MPD2    H1 1654   0.920   2.818   0.362  1.9677  0.5345 -0.1835
  106MPD2    H2 1655   0.909   2.836  17.695  3.6270  0.3451 -0.4252
  106MPD2    H3 1656   0.914   2.715   0.153  1.0884  0.0332 -0.6207
  106MPD2     N 1657   0.862   3.090   0.407 -0.2195  0.8292 -0.4542
  106MPD2    H5 1658   0.842   3.189   0.393 -1.6452  0.9030  2.0536
  106MPD2    N1 1659   0.854   3.102  17.677  0.0446 -0.3629 -0.4010
  106MPD2    H7 1660   0.808   3.191  17.689  0.8038  0.2900 -2.3683
  107TMC2    C1 1661   1.217   3.451  11.767 -0.1423 -0.3420  0.1343
  107TMC2    C2 1662   1.177   3.581  11.772 -0.3071 -0.0501  0.9647
  107TMC2    C3 1663   1.220   3.665  11.670 -0.4733  0.1147 -0.5453
  107TMC2    C4 1664   1.297   3.410  11.657 -0.3496 -0.4091 -0.0418
  107TMC2    C5 1665   1.333   3.499  11.556 -0.4089 -0.6111 -0.4630
  107TMC2    C6 1666   1.284   3.624  11.554  0.0989 -0.3433  0.2954
  107TMC2     C 1667   1.169   3.353  11.871  0.6138  0.2541  0.2198
  107TMC2     O 1668   1.079   3.403  11.936 -0.2584  0.5692  0.3994
  107TMC2     H 1669   1.105   3.615  11.846  0.7637  0.5056  1.7529
  107TMC2    H1 1670   1.337   3.309  11.652  0.7156  0.0405 -0.4613
  107TMC2    H2 1671   1.301   3.694  11.474  1.8946 -0.7800  0.3068
  107TMC2    C7 1672   1.390   3.445  11.426 -0.4101  0.4499  0.8269
  107TMC2    C8 1673   1.167   3.797  11.659 -0.0094  0.0155 -0.1675
  107TMC2    O1 1674   1.454   3.524  11.358  0.2673 -0.1671  0.0527
  107TMC2    O2 1675   1.051   3.837  11.674 -0.3209  0.1922 -0.9763
  107TMC2    O5 1676   1.271   3.881  11.639 -0.5832  0.6000  0.4942
  107TMC2    H5 1677   1.356   3.835  11.656 -0.1377  1.1221 -0.3215
  108MPD2     C 1678   1.294   3.009  11.938 -0.1926 -0.1046 -0.2155
  108MPD2    C1 1679   1.206   3.115  11.951 -1.3014 -0.4136  0.0153
  108MPD2    C2 1680   1.103   3.113  12.043 -0.2228  0.2290  0.2115
  108MPD2    C3 1681   1.087   3.004  12.125 -0.4423 -0.3229 -0.0107
  108MPD2    C4 1682   1.181   2.901  12.111 -0.1791 -0.2598  0.0073
  108MPD2    C5 1683   1.282   2.903  12.017 -0.0159 -0.1771 -0.0884
  108MPD2     H 1684   1.038   3.197  12.063 -1.4780 -0.8410  0.6509
  108MPD2    H1 1685   1.170   2.813  12.174 -0.5504 -0.3312 -0.1574
  108MPD2    H2 1686   1.383   3.005  11.876 -0.3781 -0.8619 -0.4286
  108MPD2    H3 1687   1.358   2.827  12.002 -0.2132 -0.7889  1.9264
  108MPD2     N 1688   0.976   2.977  12.214 -0.1371  0.1747  0.0476
  108MPD2    H5 1689   0.980   2.896  12.275  3.1641 -0.1906 -0.6422
  108MPD2    N1 1690   1.235   3.232  11.876  0.0414 -0.2672 -0.1324
  108MPD2    H7 1691   1.302   3.228  11.801 -0.8973 -1.2558 -0.9191
  109TMC2    C1 1692   1.699   3.957   1.301  0.0587  0.1302 -0.0357
  109TMC2    C2 1693   1.799   3.866   1.283 -0.1169  0.1240  0.3805
  109TMC2    C3 1694   1.924   3.918   1.300  0.3788 -0.0385 -0.1055
  109TMC2    C4 1695   1.714   4.097   1.307 -0.5607 -0.1677  0.1995
  109TMC2    C5 1696   1.842   4.143   1.307  0.0349 -0.3648  0.2722
  109TMC2    C6 1697   1.947   4.057   1.316  0.2250  0.0059  0.4200
  109TMC2     C 1698   1.567   3.906   1.285  0.4925 -0.0207 -0.2739
  109TMC2     O 1699   1.552   3.791   1.322 -0.0940  0.3592 -0.7537
  109TMC2     H 1700   1.776   3.760   1.285 -2.6809  0.7003  2.0442
  109TMC2    H1 1701   1.644   4.174   1.336 -0.8842 -0.3778 -0.0183
  109TMC2    H2 1702   2.050   4.091   1.316 -0.0895  0.9735 -0.6196
  109TMC2    C7 1703   1.864   4.291   1.295  0.2384 -0.1589  1.3452
  109TMC2    C8 1704   2.047   3.832   1.298 -0.0313 -0.1193 -0.6522
  109TMC2    O1 1705   1.766   4.339   1.232  0.3058 -0.7714  0.0767
  109TMC2    O2 1706   2.161   3.882   1.296 -0.5773  0.1597 -0.4610
  109TMC2    O5 1707   2.019   3.705   1.334 -0.0946 -0.4462 -0.2442
  109TMC2    H5 1708   1.925   3.701   1.361  0.6572 -3.1686  1.9311
  110MPD2     C 1709   1.081   4.004   1.151 -0.0815  0.0101  0.1541
  110MPD2    C1 1710   1.155   4.112   1.132 -0.1957  0.2910  0.2118
  110MPD2    C2 1711   1.288   4.105   1.150  0.1152  0.3095  0.3798
  110MPD2    C3 1712   1.347   3.995   1.202  0.0580 -0.3400 -0.0386
  110MPD2    C4 1713   1.276   3.880   1.221  0.3711 -0.0550 -0.2482
  110MPD2    C5 1714   1.140   3.884   1.197 -0.2614 -0.4316  0.2758
  110MPD2     H 1715   1.337   4.200   1.135 -0.2349  0.1813 -1.5938
  110MPD2    H1 1716   1.323   3.795   1.268  1.2349  1.5978  1.9153
  110MPD2    H2 1717   0.973   4.003   1.151 -0.0541 -1.5526 -2.3875
  110MPD2    H3 1718   1.080   3.794   1.205 -1.8026  0.5055 -0.7755
  110MPD2     N 1719   1.487   4.001   1.225  0.4952  0.1326 -0.0869
  110MPD2    H5 1720   1.536   4.089   1.212 -0.3687  0.6263 -0.0345
  110MPD2    N1 1721   1.084   4.233   1.098  0.1243  0.7114 -0.3366
  110MPD2    H7 1722   0.985   4.215   1.089  0.4407  0.5674 -3.2363
  111TMC2    C1 1723   0.838   0.344  12.040  0.6614 -0.4006 -0.4210
  111TMC2    C2 1724   0.776   0.381  12.162  0.0546 -0.1211 -0.0405
  111TMC2    C3 1725   0.817   0.320  12.274  0.0817  0.0171 -0.3366
  111TMC2    C4 1726   0.943   0.260  12.027 -0.8409 -0.3927 -0.1422
  111TMC2    C5 1727   0.976   0.204  12.148  0.4440 -1.1418  0.6709
  111TMC2    C6 1728   0.910   0.226  12.271 -0.4362  0.8029 -0.2575
  111TMC2     C 1729   0.795   0.406  11.915  0.0010 -0.2632 -0.4516
  111TMC2     O 1730   0.889   0.445  11.847 -0.0062 -0.0067 -0.4515
  111TMC2     H 1731   0.726   0.477  12.156 -0.4057 -0.3609 -0.0328
  111TMC2    H1 1732   0.989   0.241  11.930  0.9264 -3.1636  1.2593
  111TMC2    H2 1733   0.947   0.178  12.361  1.3908  2.1097 -0.2947
  111TMC2    C7 1734   1.115   0.176  12.164  0.4293  0.3796 -0.5089
  111TMC2    C8 1735   0.775   0.361  12.400 -0.1202 -0.1471 -0.0383
  111TMC2    O1 1736   1.162   0.105  12.253  0.2268  0.0448  0.3795
  111TMC2    O2 1737   0.817   0.313  12.503 -0.4822  0.2973  0.1730
  111TMC2    O5 1738   0.662   0.424  12.377  0.1337  0.0088 -0.6968
  111TMC2    H5 1739   0.645   0.429  12.281  1.6750 -0.0346 -0.9674
  112MPD2     C 1740   0.452   0.488  11.539 -0.0823 -0.0162  0.5861
  112MPD2    C1 1741   0.582   0.523  11.544 -0.6811  0.1214  0.0045
  112MPD2    C2 1742   0.655   0.501  11.660  0.9504 -0.6579  0.0963
  112MPD2    C3 1743   0.594   0.443  11.769 -0.4389  0.3512  0.4831
  112MPD2    C4 1744   0.454   0.427  11.766  0.3367 -0.8986  0.8080
  112MPD2    C5 1745   0.390   0.448  11.652  0.1936  0.1884 -0.4677
  112MPD2     H 1746   0.763   0.515  11.660  0.7727  0.6972  0.3156
  112MPD2    H1 1747   0.401   0.376  11.846 -0.5887 -1.1651  0.0245
  112MPD2    H2 1748   0.395   0.488  11.447 -0.3944 -1.6705  0.7755
  112MPD2    H3 1749   0.283   0.431  11.656  0.0572  0.8701 -1.1172
  112MPD2     N 1750   0.659   0.399  11.886  0.1050  0.3351 -0.4420
  112MPD2    H5 1751   0.613   0.346  11.960  0.6557 -0.5174 -0.7110
  112MPD2    N1 1752   0.658   0.564  11.430 -0.0884 -0.3383 -0.6400
  112MPD2    H7 1753   0.758   0.565  11.445 -0.5038 -1.6111  2.2200
  113TMC2    C1 1754   4.185   2.126   0.582  0.0790  0.5479  0.4105
  113TMC2    C2 1755   4.065   2.194   0.604  0.5009  0.8100  0.4511
  113TMC2    C3 1756   3.950   2.129   0.572 -0.3717 -0.3543  0.3521
  113TMC2    C4 1757   4.187   2.000   0.525  0.1553 -0.1036  0.4919
  113TMC2    C5 1758   4.064   1.941   0.501  0.0987 -0.3789 -0.2562
  113TMC2    C6 1759   3.946   2.005   0.511 -0.4073 -0.2535 -0.3252
  113TMC2     C 1760   4.300   2.187   0.640 -0.6329 -0.1278  0.0021
  113TMC2     O 1761   4.283   2.252   0.744 -0.3628  0.3286  0.3639
  113TMC2     H 1762   4.060   2.293   0.647  0.1115  1.5832 -1.3669
  113TMC2    H1 1763   4.281   1.958   0.493  0.8640  1.1260  0.9952
  113TMC2    H2 1764   3.850   1.975   0.472 -0.2320 -0.3201 -0.7128
  113TMC2    C7 1765   4.071   1.796   0.494 -0.0250 -0.6397  0.1667
  113TMC2    C8 1766   3.841   2.220   0.574  0.3177 -0.2938  0.9096
  113TMC2    O1 1767   4.170   1.746   0.439 -0.3550 -0.3746  0.1983
  113TMC2    O2 1768   3.850   2.344   0.557  0.0223 -0.6842  0.2998
  113TMC2    O5 1769   3.727   2.142   0.576 -0.3421 -0.1995 -0.0440
  113TMC2    H5 1770   3.746   2.053   0.613 -0.8217  0.3681  1.5700
  114MPD2     C 1771   0.061   2.096   0.767  0.1571  0.0533  0.2253
  114MPD2    C1 1772   4.692   2.155   0.835 -0.0822 -0.9855  0.1792
  114MPD2    C2 1773   4.568   2.175   0.781  0.0693 -0.6754  0.4974
  114MPD2    C3 1774   4.543   2.116   0.655  0.1098 -0.9773  0.3374
  114MPD2    C4 1775   4.643   2.050   0.589 -0.3491  0.1906  0.0508
  114MPD2    C5 1776   0.032   2.043   0.642 -0.7628 -1.1259  0.0124
  114MPD2     H 1777   4.491   2.230   0.835  1.1914 -1.0656  2.4852
  114MPD2    H1 1778   4.626   2.001   0.494 -1.8852 -1.0766  0.9874
  114MPD2    H2 1779   0.165   2.104   0.796  0.1190 -1.6559  0.8820
  114MPD2    H3 1780   0.109   2.003   0.577 -0.5917  0.3662 -0.6993
  114MPD2     N 1781   4.419   2.132   0.589  0.3235 -0.3578 -0.1860
  114MPD2    H5 1782   4.413   2.096   0.494  3.0830  1.0577 -0.8981
  114MPD2    N1 1783   4.712   2.221   0.958  0.0623  0.2815 -0.3167
  114MPD2    H7 1784   4.634   2.276   0.993 -1.4384 -0.7226 -2.0674
  115TMC2    C1 1785   0.143   0.195  17.276 -0.2775  0.0334  0.4232
  115TMC2    C2 1786   0.182   0.268  17.387 -0.5392  0.0515 -0.3248
  115TMC2    C3 1787   0.187   0.404  17.373  0.4343 -0.6576 -0.3424
  115TMC2    C4 1788   0.132   0.257  17.152 -0.2391 -0.2389  0.0818
  115TMC2    C5 1789   0.155   0.395  17.143 -0.6274  0.3276  0.4431
  115TMC2    C6 1790   0.182   0.470  17.255  0.1518 -0.0193 -0.0186
  115TMC2     C 1791   0.122   0.047  17.273  0.7708  1.0808 -0.6698
  115TMC2     O 1792   0.083   0.005  17.165 -0.6606  0.4109 -0.4463
  115TMC2     H 1793   0.195   0.229  17.487  1.3609  0.2649 -0.4973
  115TMC2    H1 1794   0.106   0.202  17.062 -1.5888 -1.8866  1.4787
  115TMC2    H2 1795   0.162   0.576  17.245 -0.8673 -0.2577 -0.4663
  115TMC2    C7 1796   0.090   0.463  17.029 -0.0586  0.4039  0.0577
  115TMC2    C8 1797   0.229   0.492  17.475 -0.5687  0.1674 -0.0673
  115TMC2    O1 1798   0.015   0.400  16.955  0.2213 -0.1405 -0.0439
  115TMC2    O2 1799   0.270   0.608  17.464 -0.4389  0.2290  0.4012
  115TMC2    O5 1800   0.193   0.451  17.602 -0.0418 -0.0567  0.0870
  115TMC2    H5 1801   0.128   0.378  17.599  0.6581 -0.7218  1.1087
  116MPD2     C 1802   0.178   4.324  17.438  0.4632 -0.3148 -0.6207
  116MPD2    C1 1803   0.095   4.375  17.336 -0.6103  0.4828 -0.1582
  116MPD2    C2 1804   0.070   4.507  17.328  0.6001 -0.4916  1.1031
  116MPD2    C3 1805   0.134   4.590  17.419  0.0610 -0.5712  0.3243
  116MPD2    C4 1806   0.197   4.531  17.529  0.2614 -0.0824  0.2448
  116MPD2    C5 1807   0.231   4.404  17.533 -0.1227  0.1722 -0.3989
  116MPD2     H 1808   4.728   4.548  17.269 -1.1773  0.2338  4.0138
  116MPD2    H1 1809   0.246   4.585  17.610  0.2884 -0.9464  0.8039
  116MPD2    H2 1810   0.192   4.217  17.446  1.8725 -0.0640  0.3044
  116MPD2    H3 1811   0.294   4.364  17.611 -1.3050 -0.4454  0.2395
  116MPD2     N 1812   0.142   4.729  17.395 -0.3348 -0.0433  0.2456
  116MPD2    H5 1813   0.171   0.054  17.468 -2.0415  0.5923  0.3630
  116MPD2    N1 1814   0.033   4.273  17.259 -0.1259 -0.3000  0.0678
  116MPD2    H7 1815   0.056   4.177  17.281  1.1064  0.1420  0.6951
  117TMC2    C1 1816   3.162   2.637  14.130  1.2328  0.1905  0.1109
  117TMC2    C2 1817   3.259   2.564  14.188  0.3581  0.8245 -0.0044
  117TMC2    C3 1818   3.380   2.626  14.199 -0.1245  0.4747 -0.6467
  117TMC2    C4 1819   3.177   2.765  14.078  0.3074 -0.1110 -0.4678
  117TMC2    C5 1820   3.303   2.824  14.096 -0.1672  0.1088  0.2910
  117TMC2    C6 1821   3.404   2.754  14.165 -0.9955 -0.7215  0.1792
  117TMC2     C 1822   3.029   2.577  14.131 -0.3971 -0.1283  0.6280
  117TMC2     O 1823   3.024   2.457  14.147  0.5399 -0.4140  0.2965
  117TMC2     H 1824   3.248   2.460  14.218  4.3573  0.1217 -0.9157
  117TMC2    H1 1825   3.101   2.808  14.014  0.9816  3.2644  1.0109
  117TMC2    H2 1826   3.503   2.797  14.176 -1.1718  0.0356 -1.1684
  117TMC2    C7 1827   3.345   2.954  14.041 -0.6097 -0.5488 -0.1347
  117TMC2    C8 1828   3.481   2.558  14.268 -0.2217  0.3170  0.2002
  117TMC2    O1 1829   3.462   2.988  14.057 -0.2094 -0.5936 -0.1743
  117TMC2    O2 1830   3.571   2.612  14.330 -0.1975 -0.7687  0.4069
  117TMC2    O5 1831   3.491   2.440  14.205 -0.8114 -0.4131 -0.2684
  117TMC2    H5 1832   3.431   2.417  14.130  1.1238 -3.8579 -0.7594
  118MPD2     C 1833   3.135   3.179  13.851  0.0837  0.0243  0.1010
  118MPD2    C1 1834   3.253   3.121  13.890 -0.2095 -0.1506  0.0685
  118MPD2    C2 1835   3.369   3.169  13.838  0.2068 -0.4332  0.0716
  118MPD2    C3 1836   3.366   3.283  13.754  0.3130 -0.3185 -0.8263
  118MPD2    C4 1837   3.248   3.342  13.726  0.5187 -0.9734  0.2781
  118MPD2    C5 1838   3.132   3.286  13.773 -0.0390  0.2398  0.1157
  118MPD2     H 1839   3.461   3.121  13.868  0.0420 -0.5277  0.4242
  118MPD2    H1 1840   3.240   3.425  13.657 -1.5751 -1.1602  0.3093
  118MPD2    H2 1841   3.042   3.136  13.884  0.0274 -0.5032 -0.7613
  118MPD2    H3 1842   3.039   3.332  13.741 -0.7034 -0.7868  0.5874
  118MPD2     N 1843   3.477   3.341  13.688 -0.3759 -0.2352 -0.1331
  118MPD2    H5 1844   3.456   3.425  13.635  0.3863  1.0531  1.6307
  118MPD2    N1 1845   3.236   3.018  13.986  0.0176  0.4420  0.2104
  118MPD2    H7 1846   3.139   2.990  13.998  0.4149 -1.0959 -0.1702
  119TMC2    C1 1847   1.602   3.453  13.168 -0.0699  0.1724 -0.4325
  119TMC2    C2 1848   1.696   3.432  13.067  0.0048  0.3057  0.2233
  119TMC2    C3 1849   1.648   3.362  12.958  0.9562 -0.1816  0.6124
  119TMC2    C4 1850   1.489   3.377  13.175 -0.2839  0.0826 -0.1111
  119TMC2    C5 1851   1.473   3.270  13.087  0.1946  0.0139 -0.2605
  119TMC2    C6 1852   1.541   3.281  12.963  0.1879  0.0679 -1.0740
  119TMC2     C 1853   1.659   3.501  13.292  0.8367 -0.1348 -0.2262
  119TMC2     O 1854   1.574   3.500  13.382  0.2950  0.2621  0.3944
  119TMC2     H 1855   1.786   3.492  13.057  0.3852 -0.3908 -0.5367
  119TMC2    H1 1856   1.427   3.373  13.264  1.1104 -0.5583  0.8460
  119TMC2    H2 1857   1.510   3.202  12.896  1.5756 -1.1130 -0.3083
  119TMC2    C7 1858   1.349   3.187  13.082 -0.4626  0.3083  0.2591
  119TMC2    C8 1859   1.718   3.371  12.830 -0.0773  0.4316 -0.6891
  119TMC2    O1 1860   1.322   3.144  12.970  0.2719  0.5297 -0.1325
  119TMC2    O2 1861   1.837   3.399  12.837  0.9853 -0.5512  0.0701
  119TMC2    O5 1862   1.630   3.440  12.753  0.3944  0.2825  0.1418
  119TMC2    H5 1863   1.536   3.434  12.780  0.3920  1.0104  0.2763
  120MPD2     C 1864   2.022   3.423  13.644  0.3473  0.6630 -0.4341
  120MPD2    C1 1865   1.892   3.458  13.658  0.0213  0.2765 -0.7001
  120MPD2    C2 1866   1.820   3.506  13.550  0.5974 -0.2413  0.0053
  120MPD2    C3 1867   1.871   3.481  13.423 -0.0808  0.6634  0.2698
  120MPD2    C4 1868   2.000   3.436  13.412  0.1897  0.5302  0.0369
  120MPD2    C5 1869   2.069   3.400  13.519  0.6107 -0.8150 -0.0360
  120MPD2     H 1870   1.722   3.550  13.561 -0.0133 -1.7929  0.8162
  120MPD2    H1 1871   2.047   3.421  13.316  2.3158  2.7292  0.7275
  120MPD2    H2 1872   2.085   3.394  13.727 -0.8187  1.9681  0.9172
  120MPD2    H3 1873   2.163   3.346  13.511  0.3541 -1.1211 -0.9960
  120MPD2     N 1874   1.799   3.494  13.301  1.2303 -0.1751 -0.1315
  120MPD2    H5 1875   1.839   3.467  13.212  0.4090 -1.1972 -0.1884
  120MPD2    N1 1876   1.828   3.456  13.786  0.2147 -0.1179 -0.1158
  120MPD2    H7 1877   1.897   3.451  13.860  0.6192  0.9640 -0.4275
  121TMC2    C1 1878   3.397   0.219  14.181  0.0790 -0.2729  0.3444
  121TMC2    C2 1879   3.464   0.156  14.288 -0.2255  0.5803  0.3921
  121TMC2    C3 1880   3.442   0.022  14.305  0.4657  0.6511  0.4161
  121TMC2    C4 1881   3.293   0.167  14.105 -0.2072  0.6774  0.1207
  121TMC2    C5 1882   3.260   0.045  14.143  0.2542 -0.2429 -0.0553
  121TMC2    C6 1883   3.332   4.713  14.235  0.0853  0.6217  0.2887
  121TMC2     C 1884   3.450   0.350  14.148  0.6386 -0.1702 -0.2293
  121TMC2     O 1885   3.516   0.412  14.230 -0.7518  0.3900 -0.0394
  121TMC2     H 1886   3.541   0.207  14.344 -0.9300 -0.3822  2.2225
  121TMC2    H1 1887   3.248   0.225  14.025  1.4441  1.8351  0.0253
  121TMC2    H2 1888   3.300   4.611  14.253  2.1702  0.0158  0.5666
  121TMC2    C7 1889   3.135   4.730  14.094 -0.0625 -0.3902 -0.0609
  121TMC2    C8 1890   3.483   4.696  14.428 -0.0292  0.6221 -0.8085
  121TMC2    O1 1891   3.132   4.606  14.086  0.2662 -0.5103  0.0892
  121TMC2    O2 1892   3.412   4.619  14.497 -0.2957  0.1973 -0.4085
  121TMC2    O5 1893   3.616   4.693  14.426 -0.4259 -0.3467 -0.3790
  121TMC2    H5 1894   3.656   4.706  14.337 -0.1382  0.7219 -0.0865
  122MPD2     C 1895   3.578   0.591  14.020 -0.0179  0.1136 -0.9636
  122MPD2    C1 1896   3.542   0.478  13.951  0.2753 -0.5657 -0.3518
  122MPD2    C2 1897   3.557   0.475  13.816  0.0645 -0.1142  0.0639
  122MPD2    C3 1898   3.611   0.587  13.750 -0.7583  0.0323  0.5699
  122MPD2    C4 1899   3.658   0.695  13.818  0.0084  0.5109  0.6692
  122MPD2    C5 1900   3.636   0.698  13.952  0.0936 -0.4152 -0.1827
  122MPD2     H 1901   3.510   0.389  13.771 -1.0037  1.0521 -1.0186
  122MPD2    H1 1902   3.680   0.788  13.768  0.0962  0.2230  0.1804
  122MPD2    H2 1903   3.552   0.595  14.125 -2.3974  1.3312 -1.6034
  122MPD2    H3 1904   3.671   0.788  14.001 -0.8464 -0.9086  1.3909
  122MPD2     N 1905   3.617   0.607  13.607 -0.7869 -0.1866  0.1058
  122MPD2    H5 1906   3.686   0.679  13.587 -1.4557 -0.1463 -2.0127
  122MPD2    N1 1907   3.474   0.367  14.012  0.0545 -0.7047  0.0336
  122MPD2    H7 1908   3.436   0.297  13.948 -0.7034  0.4332 -0.7540
  123TMC2    C1 1909   1.549   4.185  10.761 -0.3897 -0.0717 -0.4243
  123TMC2    C2 1910   1.660   4.261  10.782  0.3359  0.1228  0.5613
  123TMC2    C3 1911   1.726   4.323  10.674 -0.6255  0.9730 -0.5612
  123TMC2    C4 1912   1.499   4.163  10.633 -0.2735 -0.0902 -0.1115
  123TMC2    C5 1913   1.576   4.220  10.525  0.0286 -0.1233 -0.2469
  123TMC2    C6 1914   1.687   4.306  10.547 -0.7111 -0.3999 -0.1943
  123TMC2     C 1915   1.535   4.074  10.851  0.7568  0.4027  1.1419
  123TMC2     O 1916   1.592   4.077  10.962  0.0292  0.2654  0.4107
  123TMC2     H 1917   1.690   4.285  10.883 -0.6985  2.5118  0.2891
  123TMC2    H1 1918   1.409   4.105  10.619 -0.7940  0.9658 -1.1635
  123TMC2    H2 1919   1.756   4.352  10.477  0.5499 -0.1667  1.1929
  123TMC2    C7 1920   1.574   4.138  10.401 -0.2215  0.4903 -0.3028
  123TMC2    C8 1921   1.792   4.449  10.704  0.1499 -0.3862 -0.0467
  123TMC2    O1 1922   1.495   4.044  10.393  0.4130  0.0692 -0.0355
  123TMC2    O2 1923   1.839   4.477  10.813  0.3577 -0.2837  0.3565
  123TMC2    O5 1924   1.749   4.537  10.617 -1.1784  0.2002  0.0789
  123TMC2    H5 1925   1.671   4.514  10.562 -1.0637 -1.4812  0.5911
  124MPD2     C 1926   1.345   3.613  10.968  0.3255 -0.1436  0.1141
  124MPD2    C1 1927   1.317   3.629  10.837  0.7598  0.0931  0.6311
  124MPD2    C2 1928   1.370   3.746  10.777  0.9034  0.7705  0.4074
  124MPD2    C3 1929   1.438   3.843  10.854  0.0924  0.6639 -0.2012
  124MPD2    C4 1930   1.469   3.815  10.988  0.3188 -0.7580 -0.6687
  124MPD2    C5 1931   1.427   3.699  11.042 -0.1599 -0.0327 -0.4429
  124MPD2     H 1932   1.352   3.768  10.672 -1.3308 -0.4303  0.5274
  124MPD2    H1 1933   1.505   3.898  11.048  1.0639 -2.6827  1.5435
  124MPD2    H2 1934   1.310   3.523  11.017 -0.7362  0.9512  1.3665
  124MPD2    H3 1935   1.438   3.689  11.150  2.2891 -0.8554 -0.7683
  124MPD2     N 1936   1.472   3.966  10.794 -0.1717 -0.0461  0.1438
  124MPD2    H5 1937   1.456   3.974  10.694  0.5171  0.7238  0.0925
  124MPD2    N1 1938   1.248   3.529  10.761  0.0684 -0.5192  0.0354
  124MPD2    H7 1939   1.232   3.439  10.805  0.1620  0.1923  1.5086
  125TMC2    C1 1940   1.725   1.644   9.768 -0.1206 -0.3624  0.1485
  125TMC2    C2 1941   1.825   1.712   9.826 -0.1288 -0.7393 -0.3093
  125TMC2    C3 1942   1.926   1.642   9.884  0.5460  0.0345 -0.1248
  125TMC2    C4 1943   1.723   1.504   9.762  0.0702  0.4270  0.5162
  125TMC2    C5 1944   1.818   1.442   9.832  0.3017  0.3600 -0.4301
  125TMC2    C6 1945   1.920   1.507   9.893 -0.1480 -0.2135 -0.3800
  125TMC2     C 1946   1.590   1.697   9.767  0.0711 -0.7242 -0.0065
  125TMC2     O 1947   1.498   1.621   9.798  0.6737  0.5255 -0.4201
  125TMC2     H 1948   1.830   1.821   9.832 -2.3514 -0.5298 -2.1967
  125TMC2    H1 1949   1.639   1.454   9.716  0.8940 -1.3556  0.9568
  125TMC2    H2 1950   2.006   1.454   9.933 -0.9643  0.1497  1.8699
  125TMC2    C7 1951   1.819   1.296   9.823  0.0376 -0.6542 -0.3047
  125TMC2    C8 1952   2.026   1.722   9.953 -0.1551 -0.6087 -0.2215
  125TMC2    O1 1953   1.713   1.239   9.800 -0.1905  0.2692  0.0817
  125TMC2    O2 1954   2.056   1.836   9.922  0.0277 -0.4417 -0.6690
  125TMC2    O5 1955   2.019   1.674  10.077  0.1999  0.3221  0.1351
  125TMC2    H5 1956   1.961   1.596  10.084 -1.1547  1.2345 -0.8798
  126MPD1     C 1957   1.259   2.052   9.589  0.7029  0.2697  0.6409
  126MPD1    C1 1958   1.383   2.076   9.532 -0.3104  0.2417 -0.2051
  126MPD1    C2 1959   1.490   1.993   9.568  0.3774  0.2530 -0.4267
  126MPD1    C3 1960   1.471   1.889   9.656  0.4023  0.4503  0.2708
  126MPD1    C4 1961   1.344   1.867   9.709 -0.3450  0.0016 -0.1788
  126MPD1    C5 1962   1.239   1.948   9.672  0.6809 -0.2845  0.4928
  126MPD1     H 1963   1.586   2.011   9.521  0.3478 -1.1926 -1.0408
  126MPD1    H1 1964   1.324   1.788   9.781 -0.2820 -1.2816 -1.5707
  126MPD1    H2 1965   1.181   2.113   9.544 -0.2593  0.2788  2.3390
  126MPD1    H3 1966   1.140   1.915   9.703  0.5497 -1.8812 -1.6079
  126MPD1     N 1967   1.584   1.809   9.686 -0.3289 -0.1265 -0.0294
  126MPD1    H5 1968   1.670   1.842   9.643  0.4520  1.1170  2.4788
  126MPD1    N1 1969   1.396   2.182   9.444  0.4649  0.0812  0.2778
  126MPD1    H6 1970   1.331   2.261   9.451 -0.6522 -0.8474  0.4782
  126MPD1    H7 1971   1.493   2.206   9.424 -0.0718  0.1661 -2.2022
  127TMC2    C1 1972   3.754   4.323   9.968 -0.5767 -0.2320 -0.4679
  127TMC2    C2 1973   3.803   4.303  10.091 -0.0157 -0.4683  0.5445
  127TMC2    C3 1974   3.730   4.210  10.160  0.0770 -0.7757  0.7082
  127TMC2    C4 1975   3.644   4.259   9.919  0.5874  0.1142  0.5758
  127TMC2    C5 1976   3.571   4.184   9.999  0.2480 -0.0453  0.7119
  127TMC2    C6 1977   3.611   4.153  10.122  0.1438  0.7960  0.1689
  127TMC2     C 1978   3.797   4.435   9.877  0.6791 -0.7723  0.0091
  127TMC2     O 1979   3.727   4.468   9.784  0.1057  0.0174  0.1502
  127TMC2     H 1980   3.901   4.337  10.123  0.0984 -0.3194  0.0433
  127TMC2    H1 1981   3.625   4.267   9.813 -1.1547 -0.0060  0.8708
  127TMC2    H2 1982   3.543   4.132  10.203  0.3537 -1.1510 -0.1695
  127TMC2    C7 1983   3.447   4.114   9.950 -0.9832  0.0976  0.2194
  127TMC2    C8 1984   3.797   4.175  10.284  0.7441  0.1947 -0.6077
  127TMC2    O1 1985   3.402   4.158   9.845  0.3006 -0.2265 -0.3309
  127TMC2    O2 1986   3.899   4.226  10.328 -0.4321 -0.2157  0.0691
  127TMC2    O5 1987   3.730   4.082  10.352 -0.0606 -0.4305  0.5280
  127TMC2    H5 1988   3.662   4.036  10.298  0.6002 -0.9089  0.0983
  128MPD2     C 1989   4.057   4.685   9.943  0.4175  0.0177 -0.2888
  128MPD2    C1 1990   3.935   4.635   9.899  0.0391  0.2614 -0.0444
  128MPD2    C2 1991   3.860   4.722   9.818  0.3281 -0.4238  0.1249
  128MPD2    C3 1992   3.900   0.114   9.797 -0.1966 -0.4324 -0.2883
  128MPD2    C4 1993   4.019   0.161   9.839 -0.0386 -0.0806  0.2816
  128MPD2    C5 1994   4.096   0.074   9.918 -0.4186  0.5222  0.3307
  128MPD2     H 1995   3.774   4.688   9.762  1.6817  0.6589 -2.5888
  128MPD2    H1 1996   4.054   0.262   9.824  1.6717 -0.7417 -0.1768
  128MPD2    H2 1997   4.116   4.625  10.010  0.2601  0.5967  0.3713
  128MPD2    H3 1998   4.190   0.100   9.964  0.4200  1.1875 -1.7674
  128MPD2     N 1999   3.803   0.194   9.730 -0.1024 -0.1462  0.0498
  128MPD2    H5 2000   3.706   0.165   9.734  0.2273 -1.3909 -0.7579
  128MPD2    N1 2001   3.901   4.502   9.933 -0.0913  0.5856  0.6099
  128MPD2    H7 2002   3.969   4.453   9.990  2.8976 -0.0762 -3.5258
  129TMC2    C1 2003   2.200   4.522   1.004  0.0844  0.0248 -0.7521
  129TMC2    C2 2004   2.153   4.638   0.952  0.4319  0.3081 -0.0939
  129TMC2    C3 2005   2.030   4.635   0.895 -0.0574 -0.1991  0.7058
  129TMC2    C4 2006   2.127   4.405   0.999  0.3072 -0.3294 -0.4257
  129TMC2    C5 2007   2.001   4.413   0.945  0.3159  0.2020 -0.3118
  129TMC2    C6 2008   1.949   4.525   0.897  0.3392 -0.1450  0.0848
  129TMC2     C 2009   2.314   4.524   1.086 -0.1873  0.6244  0.4216
  129TMC2     O 2010   2.352   4.413   1.120  0.3938  0.1168  0.5175
  129TMC2     H 2011   2.201   4.733   0.975  0.4049  0.7930 -2.0607
  129TMC2    H1 2012   2.167   4.314   1.042  0.4460 -0.3123 -0.5201
  129TMC2    H2 2013   1.853   4.521   0.846  0.4748 -2.9762  0.0893
  129TMC2    C7 2014   1.912   4.297   0.917 -0.0350  0.1377  0.1843
  129TMC2    C8 2015   1.971   0.015   0.840 -0.2711  0.1945 -0.3601
  129TMC2    O1 2016   1.794   4.328   0.905  0.3252  0.2393  0.8288
  129TMC2    O2 2017   1.852   0.036   0.840 -0.3372 -0.6362  0.5473
  129TMC2    O5 2018   2.061   0.115   0.828 -0.3106 -0.3671  0.8326
  129TMC2    H5 2019   2.149   0.080   0.802 -0.1073  0.6806  0.0950
  130MPD2     C 2020   2.537   4.591   1.267  0.8132 -0.9236 -0.1798
  130MPD2    C1 2021   2.503   4.665   1.161  0.5315 -0.0292  0.5170
  130MPD2    C2 2022   2.588   0.031   1.133  0.8136 -0.1084  0.3098
  130MPD2    C3 2023   2.706   0.049   1.197  0.7626 -0.5069  0.2921
  130MPD2    C4 2024   2.731   4.715   1.308 -0.5757 -0.1147  0.4411
  130MPD2    C5 2025   2.644   4.613   1.347 -0.6099  0.4878  0.1652
  130MPD2     H 2026   2.567   0.086   1.042  1.4867  0.1630  0.3163
  130MPD2    H1 2027   2.821   4.735   1.364 -0.9364 -1.4153  1.4915
  130MPD2    H2 2028   2.481   4.507   1.308 -0.7362 -0.7482 -1.9930
  130MPD2    H3 2029   2.659   4.561   1.440  2.3694  2.0907  0.5740
  130MPD2     N 2030   2.788   0.158   1.157  0.3087 -0.4134 -0.2826
  130MPD2    H5 2031   2.756   0.212   1.076 -0.3239 -0.8063 -0.2952
  130MPD2    N1 2032   2.389   4.641   1.086  0.4321  0.6230 -0.2407
  130MPD2    H7 2033   2.360   4.714   1.021  1.2682 -0.2331 -1.5746
  131TMC2    C1 2034   1.283   4.156   9.995 -0.3079 -0.1514 -0.1137
  131TMC2    C2 2035   1.328   4.223  10.105  0.3455  0.4449  0.0335
  131TMC2    C3 2036   1.338   4.358  10.091 -0.2473 -0.8965  0.5257
  131TMC2    C4 2037   1.263   4.222   9.877  0.0640  0.1032 -0.0892
  131TMC2    C5 2038   1.302   4.356   9.867 -0.1031 -0.3490  0.1115
  131TMC2    C6 2039   1.327   4.429   9.977 -0.3706  0.8304  0.0500
  131TMC2     C 2040   1.234   4.021  10.023 -0.0107 -0.4144  0.8045
  131TMC2     O 2041   1.233   3.990  10.137 -0.1051 -0.2378 -0.0894
  131TMC2     H 2042   1.364   4.169  10.192  1.2249 -0.8793 -1.1469
  131TMC2    H1 2043   1.230   4.179   9.784  0.9369  0.7311 -0.6848
  131TMC2    H2 2044   1.345   4.536   9.977 -0.7822  0.9027  0.8013
  131TMC2    C7 2045   1.278   4.425   9.742  0.3016 -0.1576  0.8173
  131TMC2    C8 2046   1.386   4.440  10.201 -0.1417 -0.4313  0.5711
  131TMC2    O1 2047   1.263   4.359   9.639 -0.8945 -0.0278  0.0710
  131TMC2    O2 2048   1.362   4.422  10.322 -0.1425 -0.1979 -0.6501
  131TMC2    O5 2049   1.512   4.473  10.154 -0.0597 -0.2111 -0.8081
  131TMC2    H5 2050   1.521   4.483  10.057  0.7172 -1.5256 -0.8703
  132MPD2     C 2051   1.144   3.737   9.800  1.0291  0.0361  0.1919
  132MPD2    C1 2052   1.170   3.803   9.918  1.1879  0.1374 -0.4640
  132MPD2    C2 2053   1.168   3.732  10.043 -0.2636  0.2962 -0.4773
  132MPD2    C3 2054   1.117   3.604  10.045  0.8063 -0.1996 -0.6840
  132MPD2    C4 2055   1.076   3.543   9.927  1.3609 -0.1464  0.3273
  132MPD2    C5 2056   1.095   3.608   9.808 -0.0468 -0.0606  1.0140
  132MPD2     H 2057   1.207   3.780  10.131 -1.0903 -0.4119  0.2774
  132MPD2    H1 2058   1.059   3.436   9.919  1.4005 -0.0551 -1.0233
  132MPD2    H2 2059   1.149   3.794   9.708 -3.5903 -1.5584 -1.0801
  132MPD2    H3 2060   1.066   3.557   9.717  2.5075 -0.0804  0.2222
  132MPD2     N 2061   1.113   3.537  10.168  0.0808 -0.0769  0.1578
  132MPD2    H5 2062   1.150   3.589  10.247 -1.7888  2.0866 -0.3966
  132MPD2    N1 2063   1.216   3.937   9.914  0.0738  0.1698  0.4829
  132MPD2    H7 2064   1.221   3.982   9.823 -0.7398  1.0766  0.8766
  133TMC2    C1 2065   0.105   3.074  10.122  0.2039 -0.8327  0.0586
  133TMC2    C2 2066   0.040   3.123  10.236 -0.2747  1.0418 -0.4499
  133TMC2    C3 2067   4.679   3.044  10.293 -0.1042 -0.9908  0.1846
  133TMC2    C4 2068   0.067   2.962  10.054  0.5630  0.1763 -0.1259
  133TMC2    C5 2069   4.692   2.902  10.108 -0.0912  0.2023  0.0018
  133TMC2    C6 2070   4.619   2.940  10.219  0.3176 -0.8690  0.3445
  133TMC2     C 2071   0.183   3.175  10.049 -0.3049  0.9111  0.0004
  133TMC2     O 2072   0.172   3.287  10.091  0.3968  0.0106 -0.1169
  133TMC2     H 2073   0.063   3.215  10.288  0.1569  1.6558 -1.7429
  133TMC2    H1 2074   0.098   2.923   9.958 -0.1473  0.6700 -0.5483
  133TMC2    H2 2075   4.537   2.885  10.263 -0.4378 -0.8446 -1.0219
  133TMC2    C7 2076   4.632   2.790  10.033 -0.5008 -0.4301  0.2058
  133TMC2    C8 2077   4.597   3.101  10.395  0.0746  0.7441  0.2246
  133TMC2    O1 2078   4.512   2.771  10.052 -0.3234  0.1711 -0.3541
  133TMC2    O2 2079   4.481   3.133  10.372  0.4015 -0.3116 -0.4462
  133TMC2    O5 2080   4.676   3.160  10.486  0.0148  0.2220  0.0055
  133TMC2    H5 2081   0.025   3.115  10.484  0.2974  0.7567  0.6147
  134MPD2     C 2082   0.444   3.145   9.784 -0.1305  0.3433  1.1493
  134MPD2    C1 2083   0.350   3.208   9.860 -0.0690 -0.8647  0.1562
  134MPD2    C2 2084   0.326   3.346   9.839  0.0051  0.1869 -0.7031
  134MPD2    C3 2085   0.416   3.417   9.761 -0.1906 -0.0804  0.3034
  134MPD2    C4 2086   0.512   3.350   9.691 -0.1017 -0.0512 -0.9106
  134MPD2    C5 2087   0.518   3.216   9.701 -0.5911  0.0228  0.2941
  134MPD2     H 2088   0.252   3.402   9.895  0.4702 -1.2674  1.3942
  134MPD2    H1 2089   0.580   3.409   9.630  0.1711 -0.2737 -0.8256
  134MPD2    H2 2090   0.471   3.043   9.807  2.7584  0.9965  0.5981
  134MPD2    H3 2091   0.595   3.173   9.637 -0.8992  0.7743 -0.5676
  134MPD2     N 2092   0.405   3.559   9.739  0.6483  0.4150 -0.5743
  134MPD2    H5 2093   0.484   3.604   9.694 -0.0898  0.3003 -1.9548
  134MPD2    N1 2094   0.265   3.126   9.949 -0.1324 -0.3638 -0.4103
  134MPD2    H7 2095   0.271   3.026   9.937 -1.3594 -0.5829  0.8200
  135TMC2    C1 2096   2.584   1.277   9.837  0.8452  0.2683  0.0371
  135TMC2    C2 2097   2.469   1.356   9.847 -0.6057  0.0314  0.0066
  135TMC2    C3 2098   2.363   1.297   9.917 -0.2464  0.1949  0.8808
  135TMC2    C4 2099   2.596   1.155   9.897 -0.1407  0.4213 -0.9796
  135TMC2    C5 2100   2.491   1.106   9.975 -0.0559 -0.3191 -0.4766
  135TMC2    C6 2101   2.375   1.175   9.981  0.3966  0.0357 -0.0815
  135TMC2     C 2102   2.705   1.338   9.769 -0.1246 -0.1497  0.5386
  135TMC2     O 2103   2.684   1.456   9.744 -0.0905 -0.3889 -0.5248
  135TMC2     H 2104   2.472   1.451   9.794 -1.3259 -0.7317 -1.4116
  135TMC2    H1 2105   2.689   1.100   9.904 -0.9061 -0.5906  1.4229
  135TMC2    H2 2106   2.292   1.141  10.042  0.0800 -0.8453 -0.9885
  135TMC2    C7 2107   2.510   0.973  10.034 -0.4687  0.0575  0.4024
  135TMC2    C8 2108   2.267   1.384   9.979  0.4571 -0.1870 -0.7173
  135TMC2    O1 2109   2.585   0.906   9.969  0.2726 -0.2420 -0.2041
  135TMC2    O2 2110   2.172   1.350  10.050  0.5811 -0.0310  0.1485
  135TMC2    O5 2111   2.296   1.515   9.965 -0.4957  0.2275  0.1621
  135TMC2    H5 2112   2.373   1.547   9.914  1.5852 -3.6402  0.9244
  136MPD2     C 2113   2.928   1.416   9.571  0.1030 -0.4751 -0.2218
  136MPD2    C1 2114   2.900   1.290   9.622  0.1828  0.0513  0.1258
  136MPD2    C2 2115   2.962   1.181   9.564 -0.4112 -0.7336 -0.2720
  136MPD2    C3 2116   3.056   1.187   9.463 -0.0613  0.2816  0.2522
  136MPD2    C4 2117   3.082   1.313   9.410  0.1980 -0.1789 -0.4252
  136MPD2    C5 2118   3.014   1.423   9.463  0.2991 -0.0918 -0.7665
  136MPD2     H 2119   2.936   1.087   9.612  0.3058 -0.6494  0.2777
  136MPD2    H1 2120   3.151   1.339   9.330  1.3129 -1.3834  0.1400
  136MPD2    H2 2121   2.886   1.504   9.618 -0.5963 -1.0156  0.1638
  136MPD2    H3 2122   3.042   1.518   9.419  0.1757 -0.4173 -1.5507
  136MPD2     N 2123   3.124   1.073   9.410  1.0197 -0.0176  0.0199
  136MPD2    H5 2124   3.201   1.085   9.346 -0.5889  0.0305 -1.9150
  136MPD2    N1 2125   2.803   1.255   9.719 -0.1914 -0.4078  0.5956
  136MPD2    H7 2126   2.802   1.156   9.743  2.5801 -1.0291 -1.8567
  137TMC2    C1 2127   2.494   0.421   9.416 -0.1019 -0.1844  0.3407
  137TMC2    C2 2128   2.583   0.397   9.313 -0.1310 -0.2646 -0.3437
  137TMC2    C3 2129   2.605   0.500   9.229 -0.4852  0.1088  0.0546
  137TMC2    C4 2130   2.416   0.531   9.421  0.2692  0.2646 -0.3145
  137TMC2    C5 2131   2.442   0.633   9.330 -0.5104 -0.4286  0.5240
  137TMC2    C6 2132   2.538   0.617   9.235  0.3159 -0.2854 -0.4610
  137TMC2     C 2133   2.457   0.311   9.508 -0.2018 -0.0387 -0.1322
  137TMC2     O 2134   2.393   0.342   9.607  0.4655  0.2716 -0.1526
  137TMC2     H 2135   2.644   0.307   9.312  2.3226  1.3950  2.1615
  137TMC2    H1 2136   2.351   0.537   9.507 -0.7267  0.1298 -1.0539
  137TMC2    H2 2137   2.559   0.697   9.165  0.2926  0.0646 -0.0673
  137TMC2    C7 2138   2.344   0.737   9.316  0.7634  0.0309 -0.2417
  137TMC2    C8 2139   2.689   0.474   9.109  0.6543  0.4405  1.0076
  137TMC2    O1 2140   2.369   0.844   9.260 -0.5095 -0.7157  0.0107
  137TMC2    O2 2141   2.729   0.563   9.040 -0.0773 -0.0577 -0.1304
  137TMC2    O5 2142   2.701   0.343   9.079 -0.4856 -0.0905 -0.5385
  137TMC2    H5 2143   2.646   0.286   9.138 -0.1696 -0.9759 -1.1023
  138MPD2     C 2144   2.433   4.688   9.436  0.2273  0.4429 -0.0794
  138MPD2    C1 2145   2.426   0.066   9.511  0.5964 -0.4943 -0.3611
  138MPD2    C2 2146   2.414   0.063   9.652  0.2440  0.2417  0.4185
  138MPD2    C3 2147   2.394   4.677   9.715 -0.5910 -0.6899 -1.5886
  138MPD2    C4 2148   2.387   4.564   9.640  0.4277 -0.0246 -0.2838
  138MPD2    C5 2149   2.401   4.571   9.503  0.5157 -0.5252 -0.1715
  138MPD2     H 2150   2.419   0.151   9.714 -2.7129 -0.3905  1.5331
  138MPD2    H1 2151   2.353   4.469   9.680  0.4373  0.4249  0.7850
  138MPD2    H2 2152   2.441   4.692   9.328 -1.9692 -1.5755 -0.3121
  138MPD2    H3 2153   2.389   4.476   9.452 -3.0178  0.1570 -0.6124
  138MPD2     N 2154   2.368   4.680   9.855  0.1378  0.0818 -0.2728
  138MPD2    H5 2155   2.386   0.025   9.909  1.6529  0.9923 -2.2289
  138MPD2    N1 2156   2.468   0.188   9.444  0.4124  0.2953 -0.4443
  138MPD2    H7 2157   2.495   0.175   9.347 -0.0449  1.9360 -0.7942
  139TMC2    C1 2158   3.310   3.228  13.332 -0.2174 -0.7643  0.1411
  139TMC2    C2 2159   3.352   3.292  13.219 -0.3862 -0.3374 -0.2208
  139TMC2    C3 2160   3.271   3.385  13.157 -0.2446 -0.1498 -0.0103
  139TMC2    C4 2161   3.187   3.250  13.390 -0.3639 -0.3508 -0.0303
  139TMC2    C5 2162   3.111   3.348  13.320  0.2941 -0.1657 -0.1383
  139TMC2    C6 2163   3.148   3.419  13.210 -0.1020  0.0856 -0.4001
  139TMC2     C 2164   3.410   3.133  13.383 -0.3225  0.6595  0.4891
  139TMC2     O 2165   3.520   3.152  13.338  0.1198 -0.1079 -0.2519
  139TMC2     H 2166   3.446   3.276  13.168  0.8082  0.9356  1.5899
  139TMC2    H1 2167   3.163   3.218  13.490  1.9178  0.2676  0.7167
  139TMC2    H2 2168   3.072   3.471  13.154 -0.7605 -2.4584 -1.8497
  139TMC2    C7 2169   2.981   3.375  13.375  0.3290  0.1578 -0.7157
  139TMC2    C8 2170   3.310   3.418  13.020 -0.0932 -0.0578 -0.1339
  139TMC2    O1 2171   2.947   3.490  13.394  0.0587 -0.1912 -0.1309
  139TMC2    O2 2172   3.408   3.364  12.967  0.2326 -0.2481 -0.2941
  139TMC2    O5 2173   3.235   3.519  12.969 -0.5287  0.4919  0.1945
  139TMC2    H5 2174   3.184   3.567  13.038  1.2853  0.3377  1.6194
  140MPD2     C 2175   3.345   2.850  13.618 -0.1398 -0.1721  0.0105
  140MPD2    C1 2176   3.420   2.929  13.529  0.7448  0.3950  0.3641
  140MPD2    C2 2177   3.545   2.886  13.488 -0.4252 -0.3659 -0.0681
  140MPD2    C3 2178   3.592   2.768  13.537 -0.5365  0.3303  0.2644
  140MPD2    C4 2179   3.520   2.696  13.628  0.1907  0.3870 -0.4277
  140MPD2    C5 2180   3.402   2.740  13.671  0.1894 -0.0061  0.1543
  140MPD2     H 2181   3.609   2.945  13.424  0.1757  0.9420  1.7159
  140MPD2    H1 2182   3.550   2.598  13.664 -1.3789  0.4931  1.1745
  140MPD2    H2 2183   3.237   2.854  13.632  0.0645  1.3202  1.0589
  140MPD2    H3 2184   3.357   2.676  13.745  0.4178 -0.6918 -0.3014
  140MPD2     N 2185   3.719   2.726  13.481 -0.2015  0.3287 -0.5176
  140MPD2    H5 2186   3.752   2.784  13.404 -0.5152 -0.1266 -0.9876
  140MPD2    N1 2187   3.357   3.045  13.475 -0.6477  0.5750 -0.2773
  140MPD2    H7 2188   3.259   3.061  13.498 -0.7292 -0.3482 -0.0009
  141TMC2    C1 2189   3.736   3.742  14.460  0.0402  0.4190 -0.6920
  141TMC2    C2 2190   3.615   3.669  14.474  0.0656  0.2535 -0.1165
  141TMC2    C3 2191   3.553   3.672  14.598 -0.6320 -0.2535 -0.5296
  141TMC2    C4 2192   3.796   3.799  14.573  0.0030 -0.7392 -0.1037
  141TMC2    C5 2193   3.732   3.791  14.693  0.1149 -0.3313 -0.0614
  141TMC2    C6 2194   3.619   3.717  14.714 -0.4840 -0.7283 -0.5102
  141TMC2     C 2195   3.815   3.734  14.343  0.3367 -0.1020  1.0792
  141TMC2     O 2196   3.935   3.743  14.349 -0.3225 -0.7054 -0.1972
  141TMC2     H 2197   3.583   3.597  14.399 -1.1480 -0.9957  1.6217
  141TMC2    H1 2198   3.897   3.839  14.563 -0.4468 -0.0938 -1.9992
  141TMC2    H2 2199   3.569   3.719  14.810 -0.4917 -0.8877 -0.5101
  141TMC2    C7 2200   3.791   3.853  14.807  0.8756 -0.7104  1.0611
  141TMC2    C8 2201   3.435   3.599  14.625  0.2705  0.6859 -0.3863
  141TMC2    O1 2202   3.739   3.818  14.915 -0.3452 -0.1744  0.0945
  141TMC2    O2 2203   3.389   3.567  14.738  0.1744 -0.2298 -0.0267
  141TMC2    O5 2204   3.358   3.634  14.520  0.1436 -0.5843 -0.3292
  141TMC2    H5 2205   3.415   3.682  14.456 -1.4301  1.9010  0.1398
  142TMC2    C1 2206   1.435   3.414   9.863 -0.1729 -0.3967 -0.7209
  142TMC2    C2 2207   1.433   3.431   9.728  0.1766  0.1212  0.3827
  142TMC2    C3 2208   1.473   3.555   9.681 -0.5124 -0.2581  0.3475
  142TMC2    C4 2209   1.444   3.519   9.952  0.9305 -0.1610 -0.3584
  142TMC2    C5 2210   1.464   3.642   9.898 -0.1325 -0.2391 -0.5502
  142TMC2    C6 2211   1.479   3.663   9.766 -0.5948  0.8220  0.1339
  142TMC2     C 2212   1.365   3.293   9.908  0.5257  0.0687  0.5906
  142TMC2     O 2213   1.294   3.241   9.825 -0.2624 -0.3341 -0.1197
  142TMC2     H 2214   1.419   3.345   9.664 -0.2020  0.7023 -0.3190
  142TMC2    H1 2215   1.404   3.517  10.052  2.5616 -1.9052  0.2597
  142TMC2    H2 2216   1.471   3.761   9.719  1.8566  1.0611  0.1987
  142TMC2    C7 2217   1.503   3.749   9.989 -0.1586 -0.6049  0.5784
  142TMC2    C8 2218   1.467   3.569   9.539 -0.2741 -0.1916  1.2681
  142TMC2    O1 2219   1.501   3.729  10.110  0.0365 -0.2112  1.1348
  142TMC2    O2 2220   1.417   3.485   9.468 -0.3920 -0.2060  0.4721
  142TMC2    O5 2221   1.555   3.663   9.502 -0.5079 -0.2968 -0.5520
  142TMC2    H5 2222   1.592   3.706   9.582 -1.9993 -0.5126  0.2521
  143MPD2     C 2223   1.256   2.952  10.285  0.4793  0.7507  0.2268
  143MPD2    C1 2224   1.214   2.965  10.159  0.6486 -0.2985  0.4710
  143MPD2    C2 2225   1.244   3.077  10.075 -0.0019  0.2889  0.4776
  143MPD2    C3 2226   1.320   3.180  10.126 -0.0610 -0.0319  0.1971
  143MPD2    C4 2227   1.379   3.149  10.251  0.4880  0.0140  0.6816
  143MPD2    C5 2228   1.344   3.043  10.336 -0.0014 -1.2479  0.0795
  143MPD2     H 2229   1.206   3.082   9.974 -1.6390  1.0306  1.1351
  143MPD2    H1 2230   1.449   3.220  10.292  1.3896 -0.1764 -0.5244
  143MPD2    H2 2231   1.232   2.868  10.349 -0.5427  0.8747 -0.0006
  143MPD2    H3 2232   1.381   3.029  10.437  2.2107  1.9913 -0.2893
  143MPD2     N 2233   1.375   3.275  10.048  0.9671 -0.0847  0.3852
  143MPD2    H5 2234   1.436   3.342  10.094  0.3125  0.9861 -0.3160
  143MPD2    N1 2235   1.139   2.850  10.108  0.1972 -0.3959  0.0248
  143MPD2    H7 2236   1.137   2.767  10.167 -1.1684  1.3520  2.4605
  144TMC2    C1 2237   4.695   0.790   0.598  0.3180 -0.0562 -0.5577
  144TMC2    C2 2238   4.716   0.657   0.614 -0.0019 -0.0479  0.0670
  144TMC2    C3 2239   0.086   0.628   0.700 -0.3892 -0.1351 -0.8227
  144TMC2    C4 2240   0.034   0.891   0.651 -1.1223 -0.5594 -0.5118
  144TMC2    C5 2241   0.133   0.857   0.737 -0.1156 -0.6612 -0.0628
  144TMC2    C6 2242   0.156   0.728   0.769 -0.2059  0.2584 -0.5011
  144TMC2     C 2243   4.586   0.827   0.514 -0.7249 -0.9442  0.0805
  144TMC2     O 2244   4.549   0.747   0.428 -0.4652 -0.0834 -0.0555
  144TMC2     H 2245   4.648   0.581   0.576  0.7793 -1.4831  1.5384
  144TMC2    H1 2246   0.018   0.995   0.623  0.3869 -0.7799 -2.1863
  144TMC2    H2 2247   0.230   0.701   0.843 -0.2856  2.9520  0.5779
  144TMC2    C7 2248   0.238   0.946   0.771 -0.9170  0.3211  0.2896
  144TMC2    C8 2249   0.107   0.492   0.725  0.1454 -0.0574 -0.4405
  144TMC2    O1 2250   0.339   0.900   0.822  0.3118  0.5078  0.2301
  144TMC2    O2 2251   0.150   0.454   0.832 -0.6019 -0.0815  0.0104
  144TMC2    O5 2252   0.110   0.427   0.608  0.4388 -0.1165 -0.5135
  144TMC2    H5 2253   0.101   0.484   0.529  1.9780  0.4216 -0.3064
  145MPD2     C 2254   4.291   1.180   0.260 -0.8868 -0.2558 -0.4285
  145MPD2    C1 2255   4.319   1.045   0.233 -0.4355  0.3525  0.1995
  145MPD2    C2 2256   4.414   0.976   0.309  0.2488 -0.1030 -0.7529
  145MPD2    C3 2257   4.462   1.028   0.430  0.0695 -0.1532 -0.1126
  145MPD2    C4 2258   4.424   1.155   0.465  0.1993 -0.9993 -0.2488
  145MPD2    C5 2259   4.348   1.226   0.374  0.3897  0.2971  0.3708
  145MPD2     H 2260   4.446   0.877   0.280 -2.0500 -0.6588 -1.3977
  145MPD2    H1 2261   4.447   1.199   0.562 -2.9899 -1.2835  0.6198
  145MPD2    H2 2262   4.239   1.245   0.190 -1.6689 -2.4966 -1.9438
  145MPD2    H3 2263   4.329   1.328   0.404 -0.0854  0.9512 -2.1953
  145MPD2     N 2264   4.537   0.951   0.526 -0.2802  0.1404 -0.6932
  145MPD2    H5 2265   4.566   0.997   0.612 -2.3608  1.2559 -0.5920
  145MPD2    N1 2266   4.271   0.974   0.126  0.6692 -0.4966  0.6449
  145MPD2    H7 2267   4.307   0.880   0.115 -4.2648 -2.4218  0.8566
  146TMC2    C1 2268   0.574   0.786  12.591 -0.3888  0.1689 -0.5722
  146TMC2    C2 2269   0.469   0.848  12.524  0.0633 -0.3235 -0.7265
  146TMC2    C3 2270   0.480   0.861  12.385  0.0830  0.2552  0.2562
  146TMC2    C4 2271   0.693   0.770  12.528 -0.3849 -0.2029  0.7198
  146TMC2    C5 2272   0.693   0.783  12.392  0.5875 -0.0359  0.4907
  146TMC2    C6 2273   0.592   0.828  12.315 -0.1508 -0.5135 -0.0947
  146TMC2     C 2274   0.568   0.810  12.735 -0.8411 -0.4924 -0.2933
  146TMC2     O 2275   0.477   0.884  12.780 -0.2730  0.5356 -0.3714
  146TMC2     H 2276   0.372   0.869  12.568  0.3250 -0.3479 -0.1349
  146TMC2    H1 2277   0.782   0.743  12.584  0.1234  3.1024  1.5010
  146TMC2    H2 2278   0.608   0.867  12.215 -0.6679  0.8562  0.3526
  146TMC2    C7 2279   0.805   0.731  12.312 -0.0604  0.7897  0.7381
  146TMC2    C8 2280   0.377   0.918  12.303  0.6719  0.6007 -0.0871
  146TMC2    O1 2281   0.779   0.707  12.196  0.2556  0.3264 -0.5367
  146TMC2    O2 2282   0.262   0.905  12.343 -0.3035 -0.0560 -0.0312
  146TMC2    O5 2283   0.421   1.020  12.225  0.2839  0.4728 -0.2308
  146TMC2    H5 2284   0.518   1.031  12.217  0.5445  0.1349  2.3923
  147MPD2     C 2285   1.268   0.503  12.274  0.3168  0.1185  0.0105
  147MPD2    C1 2286   1.242   0.527  12.407  0.6772  0.2732 -0.0883
  147MPD2    C2 2287   1.124   0.591  12.435  0.6561  0.2673  0.4742
  147MPD2    C3 2288   1.039   0.634  12.340 -0.9032  0.0282 -0.3831
  147MPD2    C4 2289   1.069   0.617  12.212  0.3824 -0.5295 -0.5946
  147MPD2    C5 2290   1.181   0.552  12.176 -0.4172  0.1401  0.0175
  147MPD2     H 2291   1.094   0.603  12.539 -1.2032 -2.0716  0.1951
  147MPD2    H1 2292   1.008   0.653  12.130 -0.0366  0.6957  0.2493
  147MPD2    H2 2293   1.360   0.455  12.242 -0.9363 -2.2373 -0.0899
  147MPD2    H3 2294   1.218   0.549  12.075 -0.8984 -0.1700 -0.1474
  147MPD2     N 2295   0.918   0.696  12.384  0.5685  0.1505  0.0854
  147MPD2    H5 2296   0.923   0.724  12.481 -0.1649  0.1453  0.1214
  147MPD2    N1 2297   1.333   0.473  12.498  0.0109 -0.1988 -0.7259
  147MPD2    H7 2298   1.415   0.432  12.455  0.8468  0.2729  0.4243
  148TMC2    C1 2299   0.976   4.500  10.757 -0.2770  0.3996 -0.6501
  148TMC2    C2 2300   1.022   4.614  10.830  0.2879 -1.2212 -0.3806
  148TMC2    C3 2301   1.125   4.585  10.918  0.2915  0.3119 -0.0116
  148TMC2    C4 2302   1.032   4.374  10.772  0.5580 -0.0316  0.4693
  148TMC2    C5 2303   1.130   4.356  10.868 -0.1661 -0.5661 -0.1736
  148TMC2    C6 2304   1.175   4.458  10.942  0.2972  0.6147  0.0880
  148TMC2     C 2305   0.838   4.505  10.709 -0.4269  0.4465  0.5335
  148TMC2     O 2306   0.798   4.615  10.663  0.2523  0.9457 -0.1719
  148TMC2     H 2307   0.980   4.713  10.817  1.6155 -0.5711  0.3381
  148TMC2    H1 2308   0.993   4.289  10.717 -0.2518  1.7266 -1.6807
  148TMC2    H2 2309   1.254   4.439  11.013 -1.0503 -0.8656  1.1930
  148TMC2    C7 2310   1.171   4.221  10.877  0.3377 -0.7054  0.1047
  148TMC2    C8 2311   1.195   4.700  10.975 -0.1047  0.1679  1.0460
  148TMC2    O1 2312   1.150   4.153  10.776 -0.1264 -0.2810  0.0717
  148TMC2    O2 2313   1.186   0.073  10.934  0.1164  0.5552 -0.7339
  148TMC2    O5 2314   1.230   4.665  11.100  0.2438 -0.0301 -0.4762
  148TMC2    H5 2315   1.211   4.573  11.128 -0.5505  0.5009  0.6934
  149MPD2     C 2316   0.577   4.447  10.585 -0.8736  0.3813  0.6311
  149MPD2    C1 2317   0.650   4.352  10.663  0.1492  0.3262  0.1405
  149MPD2    C2 2318   0.606   4.220  10.673 -0.0206 -0.5871 -0.0321
  149MPD2    C3 2319   0.483   4.184  10.621 -0.2241  0.1920 -0.2164
  149MPD2    C4 2320   0.411   4.286  10.550 -0.3650  0.0119  0.0658
  149MPD2    C5 2321   0.455   4.411  10.530  0.3483  0.0454 -0.2256
  149MPD2     H 2322   0.665   4.147  10.727  0.3528  0.2653  0.7060
  149MPD2    H1 2323   0.309   4.263  10.521 -0.2826  0.1605 -0.3457
  149MPD2    H2 2324   0.608   4.550  10.570 -0.1150  0.1490  0.6396
  149MPD2    H3 2325   0.387   4.486  10.489  0.0550 -0.3633 -0.4854
  149MPD2     N 2326   0.414   4.057  10.645 -0.1841  0.3557 -0.3422
  149MPD2    H5 2327   0.321   4.042  10.607 -0.2786 -0.3563  0.1705
  149MPD2    N1 2328   0.774   4.385  10.725 -0.0728  0.2805 -0.4003
  149MPD2    H7 2329   0.817   4.310  10.778 -1.0090  0.4187  0.5515
  150TMC2    C1 2330   3.140   3.554  11.937 -0.0445 -0.9368  0.6029
  150TMC2    C2 2331   3.157   3.567  11.795  0.0601 -0.8448 -0.7166
  150TMC2    C3 2332   3.285   3.610  11.765 -0.2749  0.2930  0.3682
  150TMC2    C4 2333   3.231   3.593  12.037 -0.1817 -0.5745 -0.4141
  150TMC2    C5 2334   3.350   3.636  11.984  0.3312 -0.7198 -0.3149
  150TMC2    C6 2335   3.374   3.653  11.852 -0.0655  0.9997  0.4158
  150TMC2     C 2336   3.005   3.556  11.989  0.7496  0.1557  0.0207
  150TMC2     O 2337   2.992   3.631  12.080 -0.0251 -0.1623  0.4695
  150TMC2     H 2338   3.080   3.541  11.723 -0.2785 -0.0899 -0.6306
  150TMC2    H1 2339   3.208   3.593  12.143 -3.3760  1.1001 -1.1221
  150TMC2    H2 2340   3.473   3.690  11.829  0.5439 -0.9008 -0.0745
  150TMC2    C7 2341   3.460   3.654  12.075 -0.1060  0.3767 -0.2353
  150TMC2    C8 2342   3.328   3.577  11.632  0.3432  0.2845  0.6468
  150TMC2    O1 2343   3.549   3.726  12.034  0.4481  0.0323 -0.3013
  150TMC2    O2 2344   3.247   3.547  11.546 -0.8420 -0.0824  0.0653
  150TMC2    O5 2345   3.424   3.486  11.658 -0.5163  0.6750 -0.6066
  150TMC2    H5 2346   3.475   3.511  11.738 -1.0887 -3.7356  1.0981
  151MPD2     C 2347   2.506   3.470  11.974 -0.0623  0.0871  0.3618
  151MPD2    C1 2348   2.567   3.391  11.881 -0.7626  0.0267  0.2827
  151MPD2    C2 2349   2.700   3.394  11.863  0.3359  0.0466 -0.5229
  151MPD2    C3 2350   2.778   3.479  11.939 -0.0832 -0.0085 -0.1347
  151MPD2    C4 2351   2.713   3.561  12.024 -0.9630  0.6371 -0.0309
  151MPD2    C5 2352   2.577   3.562  12.044  0.6718 -0.3512  0.1620
  151MPD2     H 2353   2.744   3.328  11.788  0.6643 -0.0461 -0.2532
  151MPD2    H1 2354   2.771   3.640  12.070 -0.0417  0.2207 -0.4664
  151MPD2    H2 2355   2.398   3.468  11.983 -0.0614 -0.1894  0.2905
  151MPD2    H3 2356   2.531   3.637  12.108 -0.8855 -0.2892 -1.0367
  151MPD2     N 2357   2.914   3.486  11.919  0.5367 -0.2816  0.5683
  151MPD2    H5 2358   2.955   3.433  11.843 -2.1176  0.1391 -1.1491
  151MPD2    N1 2359   2.479   3.304  11.805 -0.3283  0.6436 -0.2745
  151MPD2    H7 2360   2.386   3.290  11.844  0.7971  0.1709  2.2514
  152TMC2    C1 2361   2.879   3.401  12.572  0.3061 -0.8885 -0.6360
  152TMC2    C2 2362   2.960   3.291  12.602 -0.0702  0.5649  0.7971
  152TMC2    C3 2363   3.094   3.314  12.589  0.1498  0.4769 -0.2400
  152TMC2    C4 2364   2.921   3.521  12.522  0.0980  0.9156  0.7984
  152TMC2    C5 2365   3.061   3.534  12.512  0.1565 -0.3577 -0.7525
  152TMC2    C6 2366   3.150   3.431  12.551 -0.4002  0.0220 -0.2290
  152TMC2     C 2367   2.742   3.366  12.556  0.6109 -0.4057  0.4022
  152TMC2     O 2368   2.694   3.411  12.451 -0.7561 -0.3242  0.7122
  152TMC2     H 2369   2.914   3.199  12.634 -0.9815 -0.1727 -2.5946
  152TMC2    H1 2370   2.858   3.599  12.481 -1.1773 -0.4218  0.2472
  152TMC2    H2 2371   3.257   3.443  12.546 -0.4397  1.1115  1.5223
  152TMC2    C7 2372   3.111   3.656  12.462  0.4463  0.4662 -0.8756
  152TMC2    C8 2373   3.174   3.224  12.667 -1.0076  0.3686 -0.3073
  152TMC2    O1 2374   3.027   3.725  12.407  0.3367  0.3215  0.2960
  152TMC2    O2 2375   3.122   3.117  12.697 -0.1397 -0.6165 -0.5013
  152TMC2    O5 2376   3.256   3.302  12.746 -0.2266  0.7013  0.1131
  152TMC2    H5 2377   3.301   3.380  12.708  0.8990 -0.8796 -1.7742
  153MPD2     C 2378   2.529   3.174  12.775  0.0441  0.7744 -0.2511
  153MPD2    C1 2379   2.557   3.242  12.664  0.1669 -0.1651 -0.4231
  153MPD2    C2 2380   2.460   3.270  12.570  0.1466  0.1338  0.9634
  153MPD2    C3 2381   2.334   3.228  12.600 -0.0696  0.4803  0.4975
  153MPD2    C4 2382   2.304   3.158  12.716 -0.8361  0.3554  0.0031
  153MPD2    C5 2383   2.401   3.131  12.808  0.3488  0.6092  0.2997
  153MPD2     H 2384   2.474   3.322  12.475  0.5686 -3.5007 -0.9509
  153MPD2    H1 2385   2.203   3.128  12.742  0.0154 -2.1432  0.3918
  153MPD2    H2 2386   2.607   3.157  12.848 -1.7080 -0.2771  1.3596
  153MPD2    H3 2387   2.394   3.066  12.894 -0.9385 -0.6335 -0.7450
  153MPD2     N 2388   2.235   3.253  12.504 -0.1311 -0.9321 -0.2340
  153MPD2    H5 2389   2.268   3.297  12.419 -2.2994  1.3372  0.1241
  153MPD2    N1 2390   2.693   3.279  12.650 -0.1169 -0.2988  0.4539
  153MPD2    H7 2391   2.752   3.250  12.726 -0.5574  1.2260  1.3673
  154TMC2    C1 2392   0.084   2.450   0.684 -0.8670  1.3779 -0.1557
  154TMC2    C2 2393   0.118   2.510   0.805 -0.2402 -0.1608  0.4312
  154TMC2    C3 2394   0.247   2.502   0.839  0.2574  0.4226  0.1662
  154TMC2    C4 2395   0.179   2.376   0.612 -0.3883 -0.2377  0.3895
  154TMC2    C5 2396   0.308   2.376   0.656 -0.6136 -0.5252 -0.8320
  154TMC2    C6 2397   0.345   2.429   0.777 -0.3548  0.2992  0.2697
  154TMC2     C 2398   4.687   2.478   0.633  0.2522  0.6254 -0.5837
  154TMC2     O 2399   4.622   2.557   0.704 -0.3053  0.6712  0.1366
  154TMC2     H 2400   0.035   2.536   0.868 -0.8910 -2.3459  0.4995
  154TMC2    H1 2401   0.147   2.324   0.523  3.0233  0.6743 -1.3543
  154TMC2    H2 2402   0.444   2.412   0.818 -0.2098  0.8560  0.1470
  154TMC2    C7 2403   0.416   2.305   0.588 -1.2411 -0.3330 -0.2835
  154TMC2    C8 2404   0.287   2.525   0.979 -0.9614  0.4622  0.8386
  154TMC2    O1 2405   0.522   2.292   0.644 -0.1949 -0.3557 -0.2053
  154TMC2    O2 2406   0.356   2.442   1.037 -0.3777 -0.0607  0.0850
  154TMC2    O5 2407   0.177   2.580   1.030  0.1421  0.0374  0.1884
  154TMC2    H5 2408   0.126   2.637   0.968  2.3962  0.9415 -0.8530
  155MPD2     C 2409   4.516   2.446   0.312  0.0363  0.8547 -0.1346
  155MPD2    C1 2410   4.533   2.463   0.448 -0.2782 -0.0580  0.1482
  155MPD2    C2 2411   4.416   2.489   0.520 -0.6438 -0.8898  0.9606
  155MPD2    C3 2412   4.290   2.521   0.457 -0.0174  0.1874 -0.6055
  155MPD2    C4 2413   4.279   2.519   0.319 -0.2282  0.0619  0.4134
  155MPD2    C5 2414   4.391   2.476   0.251  0.0353 -0.1877 -0.2551
  155MPD2     H 2415   4.411   2.489   0.628  1.8444  2.4550  1.0582
  155MPD2    H1 2416   4.185   2.536   0.267 -1.0354  0.0386  1.8537
  155MPD2    H2 2417   4.585   2.414   0.235 -1.1153 -0.5452 -0.5806
  155MPD2    H3 2418   4.392   2.477   0.143  0.4220  2.9611 -0.2145
  155MPD2     N 2419   4.190   2.573   0.540 -0.0801  0.1983 -0.2493
  155MPD2    H5 2420   4.220   2.603   0.633  2.0004  0.1918 -0.9283
  155MPD2    N1 2421   4.655   2.432   0.509 -0.0047 -0.4720  0.6342
  155MPD2    H7 2422   4.716   2.371   0.455 -0.3786  0.9989 -1.4767
  156TMC2    C1 2423   3.175   0.727  11.994 -0.2821 -0.0710  0.2281
  156TMC2    C2 2424   3.295   0.673  12.022 -0.5622  0.1247 -0.1423
  156TMC2    C3 2425   3.329   0.578  11.924  0.4897  0.5164 -0.0126
  156TMC2    C4 2426   3.115   0.728  11.876 -0.5433  0.2219 -0.6069
  156TMC2    C5 2427   3.176   0.660  11.777 -0.2962 -0.6931  0.0280
  156TMC2    C6 2428   3.271   0.568  11.806 -0.3856  0.0103  0.2451
  156TMC2     C 2429   3.096   0.781  12.106  0.0536  0.0101  0.5166
  156TMC2     O 2430   2.998   0.852  12.091  0.1511  0.4998  0.2509
  156TMC2     H 2431   3.351   0.689  12.113  2.4807 -3.4369 -1.3811
  156TMC2    H1 2432   3.036   0.800  11.862 -2.8665 -1.6348  3.3127
  156TMC2    H2 2433   3.323   0.509  11.732  1.3823 -2.0956  3.1466
  156TMC2    C7 2434   3.126   0.671  11.639 -0.2108  0.0124 -1.0422
  156TMC2    C8 2435   3.473   0.542  11.935  0.1312 -0.1774  0.3145
  156TMC2    O1 2436   3.159   0.585  11.562  0.6385 -0.0630 -0.2681
  156TMC2    O2 2437   3.534   0.506  11.837 -0.4564 -0.0999 -0.1848
  156TMC2    O5 2438   3.486   0.471  12.050 -0.3183 -0.4983  0.2799
  156TMC2    H5 2439   3.419   0.474  12.121 -1.7806 -0.1228 -1.1354
  157MPD2     C 2440   3.147   0.731  12.469 -0.0244 -0.2710 -0.1673
  157MPD2    C1 2441   3.091   0.784  12.353 -0.1514 -0.2500  0.3054
  157MPD2    C2 2442   2.980   0.866  12.373  0.0640 -0.3590  0.0489
  157MPD2    C3 2443   2.927   0.904  12.497  0.3008  0.4533 -0.8562
  157MPD2    C4 2444   2.996   0.860  12.613  0.4340 -0.3745  0.5143
  157MPD2    C5 2445   3.105   0.772  12.591 -0.1044  0.1553  0.0002
  157MPD2     H 2446   2.924   0.906  12.290  0.7225 -0.8660 -0.6413
  157MPD2    H1 2447   2.963   0.884  12.713  0.6646  2.4182 -0.0822
  157MPD2    H2 2448   3.230   0.661  12.473 -3.3093 -4.1595 -0.2394
  157MPD2    H3 2449   3.144   0.708  12.669  0.9842  0.6530 -0.1393
  157MPD2     N 2450   2.833   1.004  12.491 -0.0855 -0.2386 -0.4173
  157MPD2    H5 2451   2.825   1.041  12.397 -1.1776 -0.6459 -0.4791
  157MPD2    N1 2452   3.147   0.748  12.230 -0.2266 -0.1405  0.2652
  157MPD2    H7 2453   3.232   0.693  12.225  0.0038  0.1270  1.3073
  158TMC2    C1 2454   2.849   4.472  13.179 -0.1242  0.3021 -0.7431
  158TMC2    C2 2455   2.861   4.592  13.112 -1.0738  0.2562 -0.3815
  158TMC2    C3 2456   2.738   4.651  13.093 -0.3811 -0.3129 -0.1933
  158TMC2    C4 2457   2.735   4.417  13.230  0.6865 -0.0367 -0.3764
  158TMC2    C5 2458   2.617   4.484  13.202 -0.0168  0.0617  0.5480
  158TMC2    C6 2459   2.621   4.596  13.135 -1.0080 -0.2988 -0.3131
  158TMC2     C 2460   2.977   4.437  13.248  0.6486 -0.5211  0.1742
  158TMC2     O 2461   3.070   4.471  13.173 -0.5123 -0.4334 -0.4839
  158TMC2     H 2462   2.948   4.634  13.064 -1.2038  1.4976  0.4801
  158TMC2    H1 2463   2.738   4.312  13.257 -0.1747  0.2790  0.9328
  158TMC2    H2 2464   2.529   4.652  13.133  0.6718  2.4770  1.2149
  158TMC2    C7 2465   2.493   4.417  13.222 -1.1918  0.4985  0.0822
  158TMC2    C8 2466   2.745   0.051  13.094  0.7991  0.5806 -0.3775
  158TMC2    O1 2467   2.407   4.453  13.147 -0.3034 -0.7593  0.2307
  158TMC2    O2 2468   2.839   0.114  13.136  0.1997 -0.7785 -0.0495
  158TMC2    O5 2469   2.662   0.100  13.008  0.3159  0.9492  0.4979
  158TMC2    H5 2470   2.621   0.028  12.956  3.1698 -0.2627 -0.0731
  159MPD2     C 2471   3.278   4.371  13.647  0.0200  0.1879  0.9329
  159MPD2    C1 2472   3.155   4.343  13.690  0.5569 -0.5470  0.2894
  159MPD2    C2 2473   3.045   4.348  13.595 -0.1717 -0.6187 -0.1637
  159MPD2    C3 2474   3.074   4.374  13.464 -0.3341 -0.5875 -0.1988
  159MPD2    C4 2475   3.206   4.388  13.423 -0.5242  0.6686 -0.2203
  159MPD2    C5 2476   3.307   4.379  13.512  0.3465  0.1450 -0.0478
  159MPD2     H 2477   2.946   4.358  13.638  1.1868 -2.0469  3.3457
  159MPD2    H1 2478   3.230   4.402  13.318 -2.8508  2.2981 -0.5319
  159MPD2    H2 2479   3.364   4.359  13.712 -0.8048 -0.8014  1.8398
  159MPD2    H3 2480   3.408   4.399  13.478 -0.1785  0.8688 -1.1935
  159MPD2     N 2481   2.968   4.387  13.372  0.4468 -0.4162 -0.0132
  159MPD2    H5 2482   2.873   4.384  13.409  0.6244 -0.7980  0.4111
  159MPD2    N1 2483   3.144   4.333  13.832 -0.1761  0.2956  0.0138
  159MPD2    H7 2484   3.231   4.343  13.884 -0.6001  0.8680  0.6205
  160TMC2    C1 2485   2.860   2.321   1.004 -0.9202 -0.2929 -0.2579
  160TMC2    C2 2486   2.737   2.270   0.961  0.2538 -0.7525  0.4750
  160TMC2    C3 2487   2.737   2.146   0.917  0.3364 -0.2322 -1.2352
  160TMC2    C4 2488   2.979   2.246   0.996  0.6352 -0.2748 -0.1886
  160TMC2    C5 2489   2.967   2.119   0.952  0.1678 -0.1490  0.1432
  160TMC2    C6 2490   2.847   2.064   0.908 -0.4038 -0.8340  0.0345
  160TMC2     C 2491   2.876   2.465   0.996 -0.2000  0.0042 -0.1193
  160TMC2     O 2492   2.985   2.506   1.030  0.1381  0.3391 -0.0122
  160TMC2     H 2493   2.642   2.317   0.980  0.2417 -0.7416  0.3899
  160TMC2    H1 2494   3.074   2.288   1.027  0.1415 -0.3984  1.4589
  160TMC2    H2 2495   2.827   1.960   0.888  1.0124 -1.7079  3.1362
  160TMC2    C7 2496   3.074   2.034   0.915  0.0909 -0.0020  0.3420
  160TMC2    C8 2497   2.606   2.081   0.897  0.8932 -0.5744  0.4839
  160TMC2    O1 2498   3.055   1.922   0.864  0.1105 -0.0815  0.0559
  160TMC2    O2 2499   2.587   1.963   0.905 -0.0314  0.5643  0.0324
  160TMC2    O5 2500   2.514   2.156   0.822 -0.2113 -0.0254 -0.0328
  160TMC2    H5 2501   2.526   2.253   0.811  2.6056 -0.3161  0.4672
  161MPD2     C 2502   2.871   2.730   0.876 -0.1495 -0.4529 -0.8493
  161MPD2    C1 2503   2.760   2.658   0.893 -0.1263  0.0641 -0.2223
  161MPD2    C2 2504   2.636   2.710   0.867 -0.4977 -0.0726 -0.4072
  161MPD2    C3 2505   2.620   2.850   0.846  0.6362 -0.1968 -0.3793
  161MPD2    C4 2506   2.731   2.927   0.832 -0.5029  0.5948  1.0262
  161MPD2    C5 2507   2.858   2.863   0.838 -0.0747  0.2591  0.3516
  161MPD2     H 2508   2.546   2.651   0.879 -0.4402 -0.3667 -1.4319
  161MPD2    H1 2509   2.729   3.033   0.806  0.2591  0.0827 -1.1239
  161MPD2    H2 2510   2.970   2.688   0.885 -0.3855 -0.4572  1.9143
  161MPD2    H3 2511   2.952   2.910   0.811 -0.9608  0.6148 -2.0995
  161MPD2     N 2512   2.493   2.913   0.826  0.0217 -0.4507 -0.2584
  161MPD2    H5 2513   2.496   3.014   0.833 -0.5799 -0.5059  0.8120
  161MPD2    N1 2514   2.770   2.523   0.933  0.2165  0.5591  0.2382
  161MPD2    H7 2515   2.700   2.464   0.889 -0.9281  3.7164 -2.1136
  162TMC2    C1 2516   0.842   4.489   0.129  0.2541 -0.3387  0.9541
  162TMC2    C2 2517   0.794   4.598   0.062  0.3584  0.2958  0.6563
  162TMC2    C3 2518   0.812   4.728   0.109  0.0233  0.5189  0.2603
  162TMC2    C4 2519   0.901   4.502   0.254 -0.2584  0.0470 -0.1834
  162TMC2    C5 2520   0.914   4.633   0.301 -0.2457 -0.6218  0.3650
  162TMC2    C6 2521   0.872   0.015   0.236 -0.5060 -0.0921  0.7234
  162TMC2     C 2522   0.804   4.352   0.087 -0.4484 -0.1896  0.0026
  162TMC2     O 2523   0.710   4.346   0.008  0.3177 -0.3942 -0.6441
  162TMC2     H 2524   0.759   4.581  17.715  0.4104 -1.4371  0.9416
  162TMC2    H1 2525   0.952   4.416   0.296 -1.7620 -0.2801  0.9383
  162TMC2    H2 2526   0.866   0.110   0.287  1.8952 -0.1234  1.0622
  162TMC2    C7 2527   1.013   4.654   0.409 -0.2542  0.9613 -0.6924
  162TMC2    C8 2528   0.747   0.098   0.043 -0.1007 -0.0723  1.0419
  162TMC2    O1 2529   1.080   0.017   0.384 -0.0963 -0.7412  0.1925
  162TMC2    O2 2530   0.659   0.100  17.713 -0.3566  0.1506 -0.0719
  162TMC2    O5 2531   0.813   0.213   0.094  0.5995  0.8743 -0.1880
  162TMC2    H5 2532   0.877   0.184   0.162  0.6419 -1.4189 -1.2293
  163MPD2     C 2533   0.926   3.864  17.741 -0.3105  0.7719 -0.1506
  163MPD2    C1 2534   0.858   3.952  17.671 -0.8352 -0.0074 -0.3836
  163MPD2    C2 2535   0.836   4.078  17.722  0.1275 -0.6676 -0.0187
  163MPD2    C3 2536   0.887   4.118   0.087  0.1215 -0.4226  0.2112
  163MPD2    C4 2537   0.973   4.026   0.155 -0.2823  0.4002 -0.2393
  163MPD2    C5 2538   0.980   3.899   0.111 -0.6104  1.1827 -0.1994
  163MPD2     H 2539   0.775   4.146  17.664  0.6972  0.1372  0.3368
  163MPD2    H1 2540   1.029   4.051   0.244  0.3524  0.2048 -0.5886
  163MPD2    H2 2541   0.943   3.766  17.699  2.8924  0.8403  0.9388
  163MPD2    H3 2542   1.055   3.831   0.151 -1.4696 -0.3889 -1.2500
  163MPD2     N 2543   0.888   4.256   0.125  0.0038  0.2206  0.2757
  163MPD2    H5 2544   0.963   4.275   0.191  0.8322  2.2894 -1.2616
  163MPD2    N1 2545   0.797   3.902  17.551 -0.2811  0.2042 -0.4110
  163MPD2    H7 2546   0.821   3.808  17.519 -0.0089  0.4076 -0.8005
  164TMC2    C1 2547   1.428   4.532  11.415  0.1115  0.9198  0.4098
  164TMC2    C2 2548   1.518   4.616  11.345 -0.1419 -0.5516 -0.0428
  164TMC2    C3 2549   1.497   0.016  11.348 -0.4950 -0.5890 -0.0683
  164TMC2    C4 2550   1.329   4.592  11.482  0.4415  0.1819 -0.2916
  164TMC2    C5 2551   1.304   4.727  11.466 -0.0208 -0.2590  0.8311
  164TMC2    C6 2552   1.391   0.071  11.411  0.3408  0.6050  0.8742
  164TMC2     C 2553   1.460   4.392  11.450 -0.4803 -0.5584  0.5180
  164TMC2     O 2554   1.419   4.360  11.561  0.5252 -0.2124 -0.9047
  164TMC2     H 2555   1.600   4.563  11.296  0.3237 -2.1441  2.4491
  164TMC2    H1 2556   1.252   4.533  11.531  1.9529 -0.4237  1.3433
  164TMC2    H2 2557   1.367   0.177  11.418 -1.3259  0.0999  2.9315
  164TMC2    C7 2558   1.183   0.056  11.511  0.3722 -0.5090 -0.9465
  164TMC2    C8 2559   1.604   0.097  11.312  0.0531 -0.3580 -0.1551
  164TMC2    O1 2560   1.132   0.143  11.446  0.2692 -0.5593  0.2728
  164TMC2    O2 2561   1.723   0.069  11.331 -0.2532 -0.3024  0.1865
  164TMC2    O5 2562   1.566   0.222  11.278 -0.5246 -0.4972  0.5559
  164TMC2    H5 2563   1.473   0.210  11.249 -0.5514 -0.2230  0.5338
  165TMC2    C1 2564   2.220   1.553   0.645  0.4474 -0.1890  0.1242
  165TMC2    C2 2565   2.180   1.682   0.633 -0.5387  0.0803  0.4100
  165TMC2    C3 2566   2.267   1.778   0.672  0.0607 -0.3176  0.5478
  165TMC2    C4 2567   2.344   1.518   0.693  1.0055  0.6742  0.3319
  165TMC2    C5 2568   2.425   1.626   0.717 -0.5790 -0.6850  0.4469
  165TMC2    C6 2569   2.396   1.758   0.703 -0.5723  0.3684 -0.0246
  165TMC2     C 2570   2.121   1.462   0.689 -0.3101  0.0957  0.1590
  165TMC2     O 2571   2.159   1.383   0.774 -0.3537 -0.7714 -0.4397
  165TMC2     H 2572   2.084   1.713   0.593 -1.2479 -3.0682 -0.3355
  165TMC2    H1 2573   2.380   1.420   0.722  1.0217  0.8835  1.0033
  165TMC2    H2 2574   2.463   1.840   0.728  0.1213 -0.1854 -0.0482
  165TMC2    C7 2575   2.563   1.584   0.754  0.1431 -0.9623 -0.2945
  165TMC2    C8 2576   2.251   1.909   0.612  0.0212 -0.1925 -0.2041
  165TMC2    O1 2577   2.599   1.469   0.740  0.0969  0.5807 -0.5477
  165TMC2    O2 2578   2.237   1.933   0.492  0.4436 -0.3856  0.1917
  165TMC2    O5 2579   2.268   2.001   0.714  0.1332 -0.1030 -0.1071
  165TMC2    H5 2580   2.287   1.955   0.799  2.6151  0.5941 -0.2941
  166MPD2     C 2581   1.724   1.145   0.589  0.5084 -0.9602  0.3664
  166MPD2    C1 2582   1.843   1.123   0.660  0.1812 -0.1184  0.1710
  166MPD2    C2 2583   1.932   1.231   0.681  0.4090 -0.2559 -0.6616
  166MPD2    C3 2584   1.914   1.351   0.613 -0.5111  0.3112 -0.4083
  166MPD2    C4 2585   1.803   1.361   0.527  0.1198 -0.0332 -0.2206
  166MPD2    C5 2586   1.711   1.261   0.530 -0.3958  0.6510  0.5111
  166MPD2     H 2587   2.016   1.223   0.750 -0.8705 -1.4042  0.7573
  166MPD2    H1 2588   1.791   1.454   0.472 -2.8692 -0.2398  0.1151
  166MPD2    H2 2589   1.647   1.069   0.580  0.1532 -0.4930 -0.4925
  166MPD2    H3 2590   1.624   1.269   0.466  0.1594  2.5716  0.0051
  166MPD2     N 2591   2.013   1.454   0.604 -0.4123  0.5797 -0.1744
  166MPD2    H5 2592   1.997   1.528   0.537  2.7473  0.4741 -1.0546
  166MPD2    N1 2593   1.870   0.994   0.708  0.0236  0.5085  0.3368
  166MPD2    H7 2594   1.795   0.926   0.703  0.5658 -0.0474 -0.4447
  167TMC2    C1 2595   0.811   4.044  12.984  0.0813  0.1508 -0.0318
  167TMC2    C2 2596   0.696   4.063  13.050 -0.3725  0.6187  0.0430
  167TMC2    C3 2597   0.594   3.994  13.005  0.3023 -0.7022  0.4956
  167TMC2    C4 2598   0.823   3.953  12.882 -0.0321  0.3552 -1.0855
  167TMC2    C5 2599   0.713   3.877  12.848 -0.1414 -0.1755 -1.3517
  167TMC2    C6 2600   0.596   3.899  12.907  0.1439 -0.1450 -0.1375
  167TMC2     C 2601   0.910   4.145  13.007  0.3293  0.0660  0.6934
  167TMC2     O 2602   0.897   4.218  13.105 -0.0106  0.0509 -0.0004
  167TMC2     H 2603   0.683   4.145  13.120 -1.2298  0.7032 -0.2240
  167TMC2    H1 2604   0.922   3.920  12.852  0.6105  1.8477 -0.5987
  167TMC2    H2 2605   0.504   3.854  12.871  0.9298 -0.7458 -1.3823
  167TMC2    C7 2606   0.710   3.765  12.761  0.5073 -0.6111 -0.2718
  167TMC2    C8 2607   0.477   4.018  13.066 -0.4124  0.0153  0.2570
  167TMC2    O1 2608   0.623   3.684  12.778 -0.3989  0.2607  0.1779
  167TMC2    O2 2609   0.398   3.929  13.083 -0.3150  0.0536 -0.3140
  167TMC2    O5 2610   0.429   4.140  13.031 -0.2045 -0.4032  0.3457
  167TMC2    H5 2611   0.504   4.202  13.018 -0.5311 -0.2360 -0.7330
  168MPD2     C 2612   1.162   4.335  12.985 -0.4073  0.0062  0.2225
  168MPD2    C1 2613   1.125   4.227  12.899  0.4748  0.2936 -0.0808
  168MPD2    C2 2614   1.197   4.212  12.778  0.2302  0.4208 -0.0628
  168MPD2    C3 2615   1.297   4.305  12.743 -0.0624  0.6171 -0.1972
  168MPD2    C4 2616   1.344   4.396  12.838  0.0011  0.2518  0.1981
  168MPD2    C5 2617   1.276   4.406  12.951  0.1430  0.8516  0.2475
  168MPD2     H 2618   1.164   4.131  12.715  2.3017 -0.9896  0.6771
  168MPD2    H1 2619   1.420   4.468  12.812  0.5739 -0.3544  0.1798
  168MPD2    H2 2620   1.105   4.356  13.075  2.0484  2.1484  1.2554
  168MPD2    H3 2621   1.313   4.477  13.024  0.3388 -1.3412  2.2975
  168MPD2     N 2622   1.347   4.288  12.610 -0.0255  0.4296  0.2818
  168MPD2    H5 2623   1.303   4.210  12.561 -2.3979  1.0338  1.4590
  168MPD2    N1 2624   1.009   4.151  12.905  0.0007  0.2735  0.1699
  168MPD2    H7 2625   0.991   4.087  12.829 -0.5137 -0.1836  0.6787
  169MPD1     C 2626   3.816   3.175   9.252 -0.2609  0.5166  0.2884
  169MPD1    C1 2627   3.833   3.130   9.378 -0.1581 -0.1246  0.1756
  169MPD1    C2 2628   3.791   3.218   9.479 -0.1852  0.1116  0.3085
  169MPD1    C3 2629   3.717   3.337   9.452 -0.1587  0.3894  0.3114
  169MPD1    C4 2630   3.685   3.360   9.322 -0.0320  0.5394 -0.4557
  169MPD1    C5 2631   3.730   3.280   9.225 -0.6909  0.3037 -0.1062
  169MPD1     H 2632   3.815   3.182   9.578 -0.8175  2.0889  1.1908
  169MPD1    H1 2633   3.615   3.434   9.286 -1.5408 -1.2911 -1.3306
  169MPD1    H2 2634   3.853   3.118   9.168 -1.4417  1.4738 -0.8810
  169MPD1    H3 2635   3.703   3.300   9.122 -0.9506  0.5866  0.0175
  169MPD1     N 2636   3.681   3.418   9.563 -0.4138 -1.1161  0.2913
  169MPD1    H5 2637   3.705   3.376   9.652  1.4888  0.7041  0.6534
  169MPD1    N1 2638   3.904   3.011   9.404  0.1552  0.0303 -0.4152
  169MPD1    H6 2639   3.881   2.939   9.336  1.2564 -0.9880  0.2726
  169MPD1    H7 2640   3.872   2.968   9.490  1.9820  0.9148  0.7083
  170MPD1     C 2641   1.372   1.061  13.124  0.2434 -0.7620 -0.7227
  170MPD1    C1 2642   1.372   1.040  13.264  0.1079  0.1662 -0.6492
  170MPD1    C2 2643   1.451   1.128  13.342 -0.7511 -0.0336 -0.2847
  170MPD1    C3 2644   1.514   1.236  13.281 -0.4013 -0.0656  0.8904
  170MPD1    C4 2645   1.493   1.264  13.146 -0.4978  0.1223  1.0419
  170MPD1    C5 2646   1.433   1.170  13.069 -0.8061  0.1354 -0.6054
  170MPD1     H 2647   1.453   1.116  13.450  0.0315 -1.9257 -0.5179
  170MPD1    H1 2648   1.542   1.347  13.096 -0.4471  0.1080  1.0675
  170MPD1    H2 2649   1.317   0.996  13.058 -1.3600  0.3650 -0.4896
  170MPD1    H3 2650   1.420   1.188  12.963  0.2652  0.3250 -0.6993
  170MPD1     N 2651   1.600   1.311  13.364  0.4481  0.8556  0.2572
  170MPD1    H5 2652   1.620   1.272  13.455 -0.3246  0.7249  0.3662
  170MPD1    N1 2653   1.311   0.928  13.326 -0.4476  0.0504  0.3491
  170MPD1    H6 2654   1.270   0.950  13.416  0.0550 -0.7445  0.7659
  170MPD1    H7 2655   1.233   0.892  13.271 -0.0049  2.6104 -1.9905
  171MPD1     C 2656   0.303   2.128  15.246  0.2948 -0.1058 -0.1475
  171MPD1    C1 2657   0.292   2.180  15.373 -0.7373  0.6923 -0.4315
  171MPD1    C2 2658   0.367   2.108  15.471 -0.2648  0.4778 -1.1922
  171MPD1    C3 2659   0.457   2.009  15.444 -0.2317 -0.7266 -0.1133
  171MPD1    C4 2660   0.475   1.980  15.309  0.0189  0.0481  1.0350
  171MPD1    C5 2661   0.401   2.036  15.210  0.5650 -0.4010  0.1238
  171MPD1     H 2662   0.352   2.124  15.578  1.5017 -0.5533 -0.7820
  171MPD1    H1 2663   0.536   1.894  15.283  0.3510  0.5185  0.2911
  171MPD1    H2 2664   0.226   2.162  15.177  2.0318  1.0114 -1.5302
  171MPD1    H3 2665   0.403   2.001  15.107  3.2378  0.7381 -0.2218
  171MPD1     N 2666   0.545   1.948  15.534 -0.1438 -0.4773 -0.4841
  171MPD1    H5 2667   0.601   1.873  15.496 -1.0336 -1.4478  0.1217
  171MPD1    N1 2668   0.193   2.264  15.405  0.3466 -0.1000  0.1482
  171MPD1    H6 2669   0.168   2.318  15.323  0.4225  1.4078  1.1306
  171MPD1    H7 2670   0.222   2.319  15.486 -1.9073  0.9153  0.2469
  172MPD1     C 2671   4.587   0.499  17.334 -0.6091 -0.5222 -0.0078
  172MPD1    C1 2672   4.584   0.495  17.473 -0.4658 -0.4250 -0.6658
  172MPD1    C2 2673   4.622   0.603  17.550  0.2019  0.3524 -0.0467
  172MPD1    C3 2674   4.671   0.718  17.489  0.0714 -0.4521  0.1290
  172MPD1    C4 2675   4.678   0.720  17.350  0.4005 -0.3581 -0.6275
  172MPD1    C5 2676   4.627   0.616  17.271 -0.2589  0.5279 -0.7275
  172MPD1     H 2677   4.621   0.599  17.658 -1.4130 -1.2023 -0.1266
  172MPD1    H1 2678   4.712   0.806  17.293 -1.0269 -0.5211 -1.6990
  172MPD1    H2 2679   4.543   0.421  17.273 -1.3239 -0.3090  0.2297
  172MPD1    H3 2680   4.619   0.620  17.163  0.5831  0.5190 -0.7954
  172MPD1     N 2681   4.703   0.835  17.564  0.0356 -0.0149 -0.2061
  172MPD1    H5 2682   4.730   0.916  17.509 -0.2428  0.2593  0.0612
  172MPD1    N1 2683   4.524   0.386  17.533  0.1255  0.8387 -0.2621
  172MPD1    H6 2684   4.553   0.376  17.630 -0.8901  1.3640  0.0938
  172MPD1    H7 2685   4.553   0.297  17.493  1.6557  1.3504 -0.3007
  173MPD1     C 2686   1.155   1.654  14.176 -0.5287  0.0868  0.3770
  173MPD1    C1 2687   1.129   1.526  14.143  0.8465 -0.3759  0.2502
  173MPD1    C2 2688   1.045   1.451  14.217  0.2392  0.9311  0.0667
  173MPD1    C3 2689   0.969   1.516  14.313  0.1057 -0.4864  0.4267
  173MPD1    C4 2690   0.981   1.654  14.336  0.3214 -0.5315  0.1324
  173MPD1    C5 2691   1.081   1.719  14.271 -0.4389 -0.2029  0.1954
  173MPD1     H 2692   1.025   1.347  14.191  0.3258  0.2241  2.8843
  173MPD1    H1 2693   0.929   1.709  14.413  0.8815 -0.9600  0.8146
  173MPD1    H2 2694   1.235   1.710  14.128 -0.2281  0.7891  1.7142
  173MPD1    H3 2695   1.089   1.826  14.288 -0.4837 -0.2376  0.4333
  173MPD1     N 2696   0.864   1.445  14.379 -0.4069  0.1986  0.0471
  173MPD1    H5 2697   0.852   1.347  14.354  1.6902 -0.4273  1.5202
  173MPD1    N1 2698   1.214   1.458  14.056  0.1107 -0.2941  0.0237
  173MPD1    H6 2699   1.181   1.367  14.024  0.9576 -0.7801  0.5434
  173MPD1    H7 2700   1.220   1.516  13.973 -1.1406 -1.2910 -0.7718
  174MPD1     C 2701   0.253   0.889  14.096 -0.3501  0.7917  0.9522
  174MPD1    C1 2702   0.358   0.827  14.155 -0.2542  0.1959 -0.3554
  174MPD1    C2 2703   0.431   0.899  14.247  0.6464 -0.2649  0.3440
  174MPD1    C3 2704   0.399   1.030  14.286  0.2525 -0.0423 -0.2830
  174MPD1    C4 2705   0.287   1.087  14.229  0.2369 -0.6169 -0.2658
  174MPD1    C5 2706   0.217   1.016  14.134  0.6328  1.3983 -0.7407
  174MPD1     H 2707   0.517   0.843  14.281  2.4035 -0.3346 -4.1698
  174MPD1    H1 2708   0.241   1.180  14.260 -1.7839 -2.1245  1.2453
  174MPD1    H2 2709   0.200   0.833  14.019  1.2853 -0.3600  0.6553
  174MPD1    H3 2710   0.136   1.069  14.087 -0.5197 -1.4710 -1.9502
  174MPD1     N 2711   0.480   1.108  14.371 -0.4057 -0.4852  0.2354
  174MPD1    H5 2712   0.443   1.201  14.381  1.5324  0.4211 -0.9736
  174MPD1    N1 2713   0.409   0.705  14.125  0.5995  0.0637  0.0571
  174MPD1    H6 2714   0.330   0.643  14.105  1.2172 -0.8147  0.3157
  174MPD1    H7 2715   0.457   0.658  14.201  1.4374  1.0238  0.1035
  175MPD1     C 2716   0.334   1.640  15.583  0.0109 -0.6805 -0.2122
  175MPD1    C1 2717   0.376   1.554  15.682 -0.9451 -0.2087  0.1977
  175MPD1    C2 2718   0.296   1.552  15.798 -0.2606 -0.2410 -0.2137
  175MPD1    C3 2719   0.201   1.640  15.816  0.1477  0.2935 -0.2036
  175MPD1    C4 2720   0.169   1.728  15.718 -0.5512 -0.1456  0.6866
  175MPD1    C5 2721   0.230   1.721  15.601 -0.2114  0.1286  0.7154
  175MPD1     H 2722   0.316   1.476  15.873 -2.8815  0.7389  1.5001
  175MPD1    H1 2723   0.082   1.792  15.731 -0.2213  0.9555 -2.6523
  175MPD1    H2 2724   0.373   1.633  15.483  0.2686  0.1234 -0.1669
  175MPD1    H3 2725   0.181   1.770  15.518 -0.8034 -1.4887  0.1033
  175MPD1     N 2726   0.141   1.652  15.936 -0.1125 -0.7040  0.0006
  175MPD1    H5 2727   0.101   1.745  15.947  1.9166  0.2123 -0.4053
  175MPD1    N1 2728   0.475   1.460  15.641  0.5165 -0.8988  0.4667
  175MPD1    H6 2729   0.530   1.420  15.717  0.3599 -0.3564  0.8685
  175MPD1    H7 2730   0.532   1.518  15.580 -1.8138 -0.4173 -1.2393
  176MPD1     C 2731   0.342   4.304  16.438 -0.6069 -0.5932  0.1315
  176MPD1    C1 2732   0.283   4.343  16.557  0.4819  0.5235 -0.3680
  176MPD1    C2 2733   0.359   4.339  16.672  0.5422 -0.1658  0.2988
  176MPD1    C3 2734   0.495   4.313  16.670  0.8212 -0.1780  0.8072
  176MPD1    C4 2735   0.553   4.271  16.553 -0.0599 -0.8993 -0.0217
  176MPD1    C5 2736   0.472   4.267  16.447  0.0555 -0.0147  0.1361
  176MPD1     H 2737   0.311   4.373  16.763 -1.5307 -0.0276 -0.8589
  176MPD1    H1 2738   0.651   4.225  16.549  1.2321  1.9308 -0.8528
  176MPD1    H2 2739   0.294   4.309  16.341  0.5727  1.5805 -0.3187
  176MPD1    H3 2740   0.520   4.244  16.352 -1.7821  1.2721 -1.1008
  176MPD1     N 2741   0.568   4.306  16.794 -0.9130  0.0967  0.7355
  176MPD1    H5 2742   0.523   4.338  16.879 -0.1951 -2.0637  1.9316
  176MPD1    N1 2743   0.153   4.393  16.572  0.7514 -0.2266  0.2482
  176MPD1    H6 2744   0.102   4.362  16.654  1.5706 -2.9648 -0.2887
  176MPD1    H7 2745   0.098   4.376  16.488 -1.5597 -1.7568  2.0662
  177MPD1     C 2746   3.823   0.408   8.812  0.0555  0.5690 -0.2523
  177MPD1    C1 2747   3.889   0.318   8.893 -0.1934 -0.4289  0.6187
  177MPD1    C2 2748   3.849   0.314   9.028  0.0100 -0.0331  0.1229
  177MPD1    C3 2749   3.743   0.388   9.074  0.0380  0.4753  0.5478
  177MPD1    C4 2750   3.671   0.457   8.985 -0.0108  0.0393 -0.3928
  177MPD1    C5 2751   3.716   0.473   8.855 -0.3237  0.3888  0.1034
  177MPD1     H 2752   3.918   0.264   9.094  1.1786  1.3156 -0.0624
  177MPD1    H1 2753   3.588   0.524   9.006  0.5231  0.7066 -0.4287
  177MPD1    H2 2754   3.859   0.430   8.712 -0.4351 -0.6282 -0.6891
  177MPD1    H3 2755   3.653   0.529   8.786 -1.4163 -3.8592 -2.3575
  177MPD1     N 2756   3.715   0.378   9.210 -0.5276 -0.0264 -0.1097
  177MPD1    H5 2757   3.792   0.342   9.265 -0.0118  1.1165 -0.0723
  177MPD1    N1 2758   4.012   0.261   8.852  0.4775 -0.1758  0.4740
  177MPD1    H6 2759   4.007   0.229   8.755  1.1328 -0.7231  0.6258
  177MPD1    H7 2760   4.030   0.175   8.903 -0.2224 -1.1545 -0.8983
  178MPD1     C 2761   2.146   4.270  17.422  0.4025  0.5884  0.0090
  178MPD1    C1 2762   2.026   4.330  17.454  0.1788 -0.2260  0.5678
  178MPD1    C2 2763   2.005   4.463  17.415 -1.3678  0.4968 -0.1092
  178MPD1    C3 2764   2.101   4.542  17.355  0.2400  0.4750 -0.4498
  178MPD1    C4 2765   2.228   4.486  17.335  0.2715  0.4879 -0.6824
  178MPD1    C5 2766   2.243   4.351  17.366  0.0948  0.1126 -0.0755
  178MPD1     H 2767   1.904   4.499  17.430 -1.8044 -0.4783 -0.6843
  178MPD1    H1 2768   2.307   4.536  17.280 -0.1093  2.5750  0.6602
  178MPD1    H2 2769   2.176   4.169  17.446  0.7341  0.3461 -1.4050
  178MPD1    H3 2770   2.338   4.303  17.347  0.3337  1.0042 -1.1895
  178MPD1     N 2771   2.079   4.674  17.319 -0.2045  0.3085 -0.5667
  178MPD1    H5 2772   2.160   4.722  17.281 -0.0777  1.7634  1.5477
  178MPD1    N1 2773   1.916   4.262  17.505  1.2017 -0.0641  0.0553
  178MPD1    H6 2774   1.861   4.318  17.570  0.1504 -0.5018 -0.4686
  178MPD1    H7 2775   1.944   4.171  17.540 -0.1710  0.0003  1.2942
  179MPD1     C 2776   0.993   3.534  15.403  0.4588  0.0762 -0.4566
  179MPD1    C1 2777   1.103   3.536  15.481  0.0100 -0.5447  0.2642
  179MPD1    C2 2778   1.148   3.417  15.539 -0.4734 -0.2068  0.3153
  179MPD1    C3 2779   1.104   3.295  15.502 -0.3529 -0.6077 -0.6292
  179MPD1    C4 2780   0.991   3.292  15.420  0.0806  0.6409  0.4096
  179MPD1    C5 2781   0.938   3.411  15.368  0.5160 -0.3254 -0.1582
  179MPD1     H 2782   1.230   3.425  15.609  0.7463  1.0686 -1.2658
  179MPD1    H1 2783   0.951   3.200  15.379  1.1689  1.0281 -1.5024
  179MPD1    H2 2784   0.948   3.624  15.361 -0.1625  1.0130  2.2228
  179MPD1    H3 2785   0.853   3.408  15.301 -0.6725  0.5505  1.2803
  179MPD1     N 2786   1.156   3.170  15.540 -0.0034  0.4249  0.6336
  179MPD1    H5 2787   1.099   3.093  15.505  0.1874  0.7539 -0.3946
  179MPD1    N1 2788   1.179   3.653  15.483 -1.2480  0.1668 -0.1354
  179MPD1    H6 2789   1.123   3.736  15.499  1.0200  2.0581 -2.0448
  179MPD1    H7 2790   1.261   3.647  15.544 -0.0944  0.4406 -1.6640
  180MPD1     C 2791   0.434   3.822  15.151 -0.0691 -0.5670  0.8222
  180MPD1    C1 2792   0.453   3.768  15.021 -0.5543 -0.2871  0.0524
  180MPD1    C2 2793   0.543   3.838  14.942 -0.0048  0.8202 -0.0303
  180MPD1    C3 2794   0.595   3.965  14.977 -0.4576  0.0360 -0.0031
  180MPD1    C4 2795   0.558   4.018  15.103 -0.4063  0.3321 -0.2336
  180MPD1    C5 2796   0.476   3.944  15.189  0.5268 -0.2166  1.1543
  180MPD1     H 2797   0.584   3.794  14.852 -1.3704 -0.1089 -0.1969
  180MPD1    H1 2798   0.597   4.112  15.141 -1.1700 -0.1525  1.7283
  180MPD1    H2 2799   0.383   3.763  15.227 -0.5242 -3.1476 -1.4785
  180MPD1    H3 2800   0.460   3.981  15.289  0.5664 -0.3618  1.2145
  180MPD1     N 2801   0.681   4.029  14.885 -0.2018  0.0292  0.3201
  180MPD1    H5 2802   0.680   4.000  14.788 -0.5327 -1.9218  0.9231
  180MPD1    N1 2803   0.412   3.639  14.994  0.4194  1.0330 -0.2821
  180MPD1    H6 2804   0.387   3.617  14.897  0.2269  0.9614 -0.2172
  180MPD1    H7 2805   0.320   3.625  15.037  1.1412  0.1055  0.9422
  181MPD1     C 2806   2.344   1.884  10.191 -0.2582 -0.1751  0.2153
  181MPD1    C1 2807   2.394   1.940  10.079 -0.2139  0.1542  0.3739
  181MPD1    C2 2808   2.521   1.993  10.073 -0.7652  0.0734 -0.5595
  181MPD1    C3 2809   2.591   2.017  10.187  0.3338 -0.3446 -1.0102
  181MPD1    C4 2810   2.535   1.989  10.310 -0.1817  0.4865 -0.3302
  181MPD1    C5 2811   2.420   1.913  10.306  0.1139 -0.1829  0.2492
  181MPD1     H 2812   2.552   2.047   9.984 -0.0556 -1.5070 -1.2602
  181MPD1    H1 2813   2.595   2.010  10.398  1.3168  1.8535 -1.6662
  181MPD1    H2 2814   2.250   1.829  10.192 -2.1932  3.2116  2.4118
  181MPD1    H3 2815   2.371   1.869  10.393 -0.9429 -1.0547 -0.7916
  181MPD1     N 2816   2.709   2.088  10.191  0.4380  0.0069  0.0246
  181MPD1    H5 2817   2.744   2.116  10.283 -0.0953  1.6980 -0.2828
  181MPD1    N1 2818   2.335   1.904   9.960 -0.0465  0.0190 -0.5509
  181MPD1    H6 2819   2.357   1.981   9.896  0.6987 -0.8334 -1.3193
  181MPD1    H7 2820   2.236   1.884   9.966  0.2224 -0.9846  0.4014
  182MPD1     C 2821   3.925   4.477   1.005 -0.2600  0.9963  1.0918
  182MPD1    C1 2822   3.919   4.403   0.884 -0.2421 -0.3364  0.5277
  182MPD1    C2 2823   3.928   4.479   0.768 -0.0447  0.1057  0.4929
  182MPD1    C3 2824   3.912   4.618   0.766 -0.0215  1.2918  0.3222
  182MPD1    C4 2825   3.900   4.690   0.886 -0.1125  0.2935 -0.1528
  182MPD1    C5 2826   3.905   4.616   1.004 -0.1171 -0.9454 -0.7081
  182MPD1     H 2827   3.927   4.426   0.674 -0.9401 -1.8048  1.5925
  182MPD1    H1 2828   3.886   0.058   0.894  0.0634  0.1902  1.7407
  182MPD1    H2 2829   3.945   4.433   1.102 -0.5883 -0.4846  0.4972
  182MPD1    H3 2830   3.887   4.664   1.099  0.9101 -1.7739 -0.0954
  182MPD1     N 2831   3.906   4.703   0.653  0.8191 -0.2450 -0.3057
  182MPD1    H5 2832   3.872   0.059   0.665 -1.4450 -1.1196  0.1864
  182MPD1    N1 2833   3.952   4.266   0.891 -0.4216  0.2323  0.6335
  182MPD1    H6 2834   3.927   4.208   0.811  0.2838 -0.9675  1.2732
  182MPD1    H7 2835   3.925   4.223   0.979 -2.2265 -2.6204 -1.3235
  183MPD1     C 2836   0.173   2.142   9.364 -0.7979 -0.6803  0.0110
  183MPD1    C1 2837   0.054   2.194   9.315  0.5265  0.0778  0.2297
  183MPD1    C2 2838   4.689   2.180   9.404  0.2643 -0.3380 -0.2710
  183MPD1    C3 2839   4.693   2.125   9.534  0.2492 -0.0636 -0.7133
  183MPD1    C4 2840   0.076   2.076   9.577 -0.0812  0.4439 -0.3470
  183MPD1    C5 2841   0.185   2.090   9.492 -0.4346 -0.3594  0.2391
  183MPD1     H 2842   4.596   2.219   9.364 -0.2075  0.0938  1.2215
  183MPD1    H1 2843   0.088   2.031   9.675  1.1570  2.1903  0.2986
  183MPD1    H2 2844   0.262   2.127   9.304  0.1146  2.3904  0.5975
  183MPD1    H3 2845   0.280   2.044   9.516 -0.2605  0.8910  1.9897
  183MPD1     N 2846   4.575   2.113   9.616  0.0488 -0.2167  0.0617
  183MPD1    H5 2847   4.492   2.139   9.564 -1.1241  0.2834  2.1705
  183MPD1    N1 2848   0.034   2.238   9.180 -0.0722 -0.6042  0.3439
  183MPD1    H6 2849   4.702   2.311   9.179 -0.7220 -1.2513 -0.3208
  183MPD1    H7 2850   0.123   2.284   9.158 -0.3517  0.3202  1.1182
  184MPD1     C 2851   2.790   4.560  11.139 -0.2289  0.2795  0.2814
  184MPD1    C1 2852   2.880   4.642  11.084 -0.7650 -0.1152  0.4751
  184MPD1    C2 2853   2.913   4.628  10.945 -0.7970  0.2477 -0.4401
  184MPD1    C3 2854   2.848   4.534  10.872 -0.3117 -0.0508  0.1493
  184MPD1    C4 2855   2.754   4.455  10.922 -0.2056  1.1911 -0.2484
  184MPD1    C5 2856   2.721   4.477  11.054 -0.5445 -0.1493  0.0058
  184MPD1     H 2857   2.992   4.691  10.906 -3.0087  2.4915 -1.2810
  184MPD1    H1 2858   2.702   4.378  10.866 -0.4430  0.2269  1.3023
  184MPD1    H2 2859   2.772   4.553  11.245 -1.6088 -2.6931 -0.1407
  184MPD1    H3 2860   2.656   4.412  11.111 -1.8724  0.5622 -0.7099
  184MPD1     N 2861   2.879   4.500  10.739 -0.1635  0.3217  0.0007
  184MPD1    H5 2862   2.820   4.434  10.690  0.4404  1.0308 -1.6943
  184MPD1    N1 2863   2.945   0.003  11.163 -0.2433  0.2310  0.4364
  184MPD1    H6 2864   3.004   0.073  11.121  0.5701 -0.9406 -0.3526
  184MPD1    H7 2865   2.906   0.023  11.256 -0.2739 -0.9332  0.6817
  185MPD1     C 2866   2.307   4.213  10.236  0.1772 -0.0007 -0.1043
  185MPD1    C1 2867   2.421   4.175  10.163 -0.2033 -0.8986  0.0256
  185MPD1    C2 2868   2.538   4.229  10.192  0.2535  0.3883 -0.6011
  185MPD1    C3 2869   2.544   4.337  10.279  0.3564  0.0977  0.0377
  185MPD1    C4 2870   2.425   4.384  10.340  0.0185  0.1910 -0.2042
  185MPD1    C5 2871   2.303   4.321  10.319  0.1247 -0.2279 -0.1898
  185MPD1     H 2872   2.623   4.187  10.139  0.5673 -0.5035  0.6305
  185MPD1    H1 2873   2.427   4.478  10.393 -0.3881  0.5877 -0.8927
  185MPD1    H2 2874   2.220   4.153  10.213  0.6300 -0.5533 -0.3957
  185MPD1    H3 2875   2.207   4.344  10.365  1.2741 -1.9753  3.0864
  185MPD1     N 2876   2.664   4.402  10.315 -0.6285  0.3287  0.6433
  185MPD1    H5 2877   2.653   4.485  10.373 -0.1152  1.0536 -0.3082
  185MPD1    N1 2878   2.410   4.062  10.078 -0.7746 -0.0690 -0.1350
  185MPD1    H6 2879   2.477   4.076  10.002 -0.0142 -0.7309  0.4005
  185MPD1    H7 2880   2.318   4.056  10.036  0.5521 -0.4298 -2.9536
  186MPD1     C 2881   2.263   3.308  16.854  0.0407  0.7502  0.0723
  186MPD1    C1 2882   2.176   3.400  16.904  0.5278 -0.1117  0.7409
  186MPD1    C2 2883   2.147   3.510  16.819  0.1741  0.0672 -0.4615
  186MPD1    C3 2884   2.212   3.523  16.696 -0.4216  0.3846 -0.4308
  186MPD1    C4 2885   2.303   3.425  16.658 -0.3525  0.1544  0.8056
  186MPD1    C5 2886   2.326   3.315  16.736  0.1542  0.1972  0.0426
  186MPD1     H 2887   2.085   3.586  16.864 -1.1079 -2.1024  1.4560
  186MPD1    H1 2888   2.341   3.414  16.556  1.4680 -0.2027  1.5123
  186MPD1    H2 2889   2.284   3.223  16.917 -1.7581  0.4747  0.2969
  186MPD1    H3 2890   2.384   3.231  16.700  0.9580  1.0010 -0.5109
  186MPD1     N 2891   2.170   3.624  16.601 -0.2181 -0.1399 -0.2800
  186MPD1    H5 2892   2.224   3.631  16.516 -0.1948  0.8240 -0.1836
  186MPD1    N1 2893   2.140   3.399  17.039  0.2113  0.5762  0.0101
  186MPD1    H6 2894   2.047   3.441  17.047  0.4877  1.3392 -0.8034
  186MPD1    H7 2895   2.148   3.311  17.089  1.8576  0.6144 -0.1949
  187MPD1     C 2896   1.242   4.695   0.091 -0.2443 -0.3580  0.4578
  187MPD1    C1 2897   1.158   4.641  17.752  0.4359 -0.3535 -0.1078
  187MPD1    C2 2898   1.093   4.734  17.669  0.0891  0.3785 -0.6658
  187MPD1    C3 2899   1.126   0.130  17.670  0.0580 -0.2655  0.0821
  187MPD1    C4 2900   1.209   0.176   0.014  0.0075  0.7511 -0.4210
  187MPD1    C5 2901   1.268   0.094   0.102  0.6185 -0.5376 -0.2677
  187MPD1     H 2902   1.039   4.695  17.583 -0.7852 -0.2000  0.1514
  187MPD1    H1 2903   1.231   0.282   0.025  0.8357  0.3599  1.7518
  187MPD1    H2 2904   1.293   4.632   0.163  0.3254 -1.8530 -1.2537
  187MPD1    H3 2905   1.334   0.128   0.181 -0.3101  1.2516 -0.2690
  187MPD1     N 2906   1.070   0.220  17.579 -0.8747  0.0757 -0.1288
  187MPD1    H5 2907   1.110   0.312  17.597  0.5906 -0.7113  0.6442
  187MPD1    N1 2908   1.145   4.503  17.736 -0.5329  0.1396 -0.6575
  187MPD1    H6 2909   1.196   4.463  17.657  1.1680  0.8208  0.0849
  187MPD1    H7 2910   1.183   4.460   0.066  1.8682 -0.2057 -1.9257
  188MPD1     C 2911   0.898   1.224  10.737  0.4093 -0.2507  0.2246
  188MPD1    C1 2912   0.966   1.127  10.809 -0.1796 -0.2533  0.3475
  188MPD1    C2 2913   0.981   1.000  10.752 -0.4699  0.1131  0.1638
  188MPD1    C3 2914   0.936   0.975  10.621  0.0400  0.6864  1.0707
  188MPD1    C4 2915   0.884   1.076  10.547  0.6742 -0.0833 -0.1642
  188MPD1    C5 2916   0.867   1.203  10.608  0.1946 -0.1914  0.5552
  188MPD1     H 2917   1.039   0.925  10.806 -0.1811  0.2000 -0.0263
  188MPD1    H1 2918   0.822   1.058  10.460  0.5474  2.4009 -0.5836
  188MPD1    H2 2919   0.875   1.316  10.791 -1.3619 -0.5557 -0.0217
  188MPD1    H3 2920   0.812   1.274  10.548  1.8519 -1.0212 -1.9858
  188MPD1     N 2921   0.952   0.853  10.557 -0.4992  0.4498 -0.7760
  188MPD1    H5 2922   0.937   0.853  10.457 -1.5302  0.7552 -0.6260
  188MPD1    N1 2923   0.989   1.140  10.950 -0.5276 -0.1048 -0.0999
  188MPD1    H6 2924   1.021   1.232  10.980 -0.4627 -1.0284  2.6873
  188MPD1    H7 2925   1.063   1.079  10.981  0.3977  1.2986  0.4621
  189MPD1     C 2926   3.126   0.935   0.325 -0.4119  0.8278 -0.3942
  189MPD1    C1 2927   3.002   0.944   0.382 -0.0979  0.0590  0.7795
  189MPD1    C2 2928   2.927   1.054   0.344 -0.8109 -0.5628 -1.0855
  189MPD1    C3 2929   2.979   1.146   0.253  0.1736  0.4258 -0.2292
  189MPD1    C4 2930   3.105   1.130   0.191 -0.9914  0.3081  0.2150
  189MPD1    C5 2931   3.172   1.020   0.225  0.4817  0.0008  0.0203
  189MPD1     H 2932   2.827   1.066   0.384  0.1237 -0.7332  1.3011
  189MPD1    H1 2933   3.149   1.196   0.117 -1.5072 -0.6022 -0.9108
  189MPD1    H2 2934   3.198   0.859   0.354 -1.7806 -0.6546 -0.8830
  189MPD1    H3 2935   3.266   0.998   0.175 -1.0334 -0.2446 -2.6820
  189MPD1     N 2936   2.886   1.245   0.219 -0.3391 -0.7918 -0.0291
  189MPD1    H5 2937   2.795   1.217   0.254 -0.5265 -0.7548 -0.4875
  189MPD1    N1 2938   2.980   0.860   0.496 -0.2803  0.0418 -1.0459
  189MPD1    H6 2939   3.024   0.768   0.495 -0.3341  0.0230 -2.6049
  189MPD1    H7 2940   2.883   0.842   0.520 -0.8822  1.4813 -2.4179
  190MPD1     C 2941   1.704   0.112  15.010 -0.8931 -0.3246 -0.1294
  190MPD1    C1 2942   1.844   0.106  14.998 -0.0532 -0.1754  1.2101
  190MPD1    C2 2943   1.930   0.144  15.105  0.5496 -0.7112 -0.1774
  190MPD1    C3 2944   1.876   0.169  15.228  0.0972 -0.1231 -0.5057
  190MPD1    C4 2945   1.739   0.166  15.251 -0.3171 -0.0977 -0.0040
  190MPD1    C5 2946   1.661   0.130  15.139 -0.5598 -0.3937 -0.6990
  190MPD1     H 2947   2.037   0.142  15.089  0.5499 -2.0107  0.0130
  190MPD1    H1 2948   1.694   0.180  15.348  1.0137 -1.2398  0.7733
  190MPD1    H2 2949   1.639   0.090  14.926 -1.4668  1.1345 -0.0763
  190MPD1    H3 2950   1.553   0.119  15.142 -0.7716  1.6552 -0.9860
  190MPD1     N 2951   1.968   0.185  15.330  0.4085  0.1356  0.0721
  190MPD1    H5 2952   2.061   0.204  15.293  0.8852 -2.2960 -0.0246
  190MPD1    N1 2953   1.895   0.094  14.866  0.1482  0.2596 -0.0075
  190MPD1    H6 2954   1.983   0.044  14.856 -0.2061 -0.2993 -0.3797
  190MPD1    H7 2955   1.835   0.030  14.814 -0.6335  0.7927  0.2382
  191MPD1     C 2956   1.112   1.797  13.437  0.1603  0.1205 -0.5533
  191MPD1    C1 2957   1.149   1.831  13.308  0.3151  0.0134  0.0157
  191MPD1    C2 2958   1.059   1.821  13.199 -0.6788 -0.5546 -0.3988
  191MPD1    C3 2959   0.925   1.820  13.225 -0.1664 -0.0343  0.3910
  191MPD1    C4 2960   0.893   1.801  13.354 -0.0901 -0.4961 -0.4953
  191MPD1    C5 2961   0.982   1.789  13.462  0.7105 -0.7141 -0.8332
  191MPD1     H 2962   1.097   1.843  13.100 -0.1417 -0.9764 -0.2862
  191MPD1    H1 2963   0.789   1.795  13.384  0.0387  0.8284  0.2027
  191MPD1    H2 2964   1.175   1.794  13.525  0.7145  0.0934 -0.9465
  191MPD1    H3 2965   0.948   1.773  13.563  0.3099 -0.6975 -0.9645
  191MPD1     N 2966   0.834   1.846  13.122 -0.6014 -0.0276  0.5779
  191MPD1    H5 2967   0.869   1.879  13.033 -0.6979  0.4126  0.7013
  191MPD1    N1 2968   1.290   1.846  13.293  0.5516 -0.2799  0.1125
  191MPD1    H6 2969   1.319   1.912  13.222 -0.9944 -0.1505 -0.3890
  191MPD1    H7 2970   1.329   1.883  13.379  3.1825 -0.4358 -1.0266
  192MPD1     C 2971   4.615   1.645  12.969  0.7656  0.5416 -0.3332
  192MPD1    C1 2972   4.627   1.780  12.959  0.2121  1.0552 -0.2091
  192MPD1    C2 2973   0.015   1.832  12.925  0.6138 -0.1823 -0.0119
  192MPD1    C3 2974   0.124   1.745  12.926  0.1255  0.3092  0.9780
  192MPD1    C4 2975   0.112   1.615  12.954 -0.5490  0.1646 -0.3527
  192MPD1    C5 2976   4.728   1.566  12.971  0.4970  0.3507  0.2106
  192MPD1     H 2977   0.021   1.940  12.917  0.1653 -0.2341 -1.0363
  192MPD1    H1 2978   0.201   1.553  12.957  1.1960  2.7597  2.1568
  192MPD1    H2 2979   4.516   1.604  12.981  0.7733  0.0863 -1.8064
  192MPD1    H3 2980   4.710   1.461  12.991  0.7616 -0.0403 -1.6144
  192MPD1     N 2981   0.258   1.793  12.909  0.3267 -0.0202 -0.2642
  192MPD1    H5 2982   0.336   1.728  12.917  1.3303  1.0112 -1.6036
  192MPD1    N1 2983   4.507   1.854  12.957 -0.9350 -0.0397  0.8641
  192MPD1    H6 2984   4.522   1.954  12.970  0.4572 -0.2855  1.1896
  192MPD1    H7 2985   4.433   1.826  13.021 -1.6662 -1.8931 -0.7918
  193MPD1     C 2986   0.473   2.026  16.042  0.7508 -0.1805  0.0762
  193MPD1    C1 2987   0.494   1.923  16.136  0.5939  0.2375  0.7396
  193MPD1    C2 2988   0.558   1.950  16.261  0.1835  0.2788  0.6426
  193MPD1    C3 2989   0.599   2.079  16.290  0.5385 -0.1844  0.1710
  193MPD1    C4 2990   0.569   2.180  16.197  0.3636  0.6542  0.5011
  193MPD1    C5 2991   0.506   2.152  16.079 -0.5920  0.0586  0.5708
  193MPD1     H 2992   0.568   1.863  16.326  0.9103 -2.1757 -2.7230
  193MPD1    H1 2993   0.602   2.279  16.224 -0.2062  1.7531 -2.8140
  193MPD1    H2 2994   0.417   2.007  15.951  0.8887 -2.7830  0.5345
  193MPD1    H3 2995   0.475   2.229  16.009  1.0381  0.8428  0.7147
  193MPD1     N 2996   0.677   2.120  16.402  0.3116 -0.0025 -0.2238
  193MPD1    H5 2997   0.700   2.218  16.417  1.7304 -0.4037  0.3005
  193MPD1    N1 2998   0.424   1.802  16.107  0.6927 -0.0272  0.4418
  193MPD1    H6 2999   0.474   1.727  16.155  0.3769  0.3531  1.3544
  193MPD1    H7 3000   0.413   1.767  16.012  1.9993  0.6498  0.0373
  194MPD1     C 3001   2.698   3.118  17.014  0.3064 -0.6707  0.3808
  194MPD1    C1 3002   2.752   3.044  17.119 -0.9476  0.8350 -0.4105
  194MPD1    C2 3003   2.886   3.017  17.129  0.1903  0.6427  0.1965
  194MPD1    C3 3004   2.973   3.054  17.031 -0.0423 -0.0058 -0.4121
  194MPD1    C4 3005   2.919   3.108  16.912  0.0994  0.3124  0.0106
  194MPD1    C5 3006   2.783   3.135  16.900 -0.0138 -0.2655  0.5138
  194MPD1     H 3007   2.926   2.971  17.219 -0.3152 -0.9643 -0.4097
  194MPD1    H1 3008   2.985   3.125  16.828  0.1894  0.6615  0.1483
  194MPD1    H2 3009   2.594   3.146  17.006  0.4658 -0.5534 -1.2503
  194MPD1    H3 3010   2.757   3.157  16.798  0.0925 -0.8049  0.3700
  194MPD1     N 3011   3.107   3.016  17.033 -0.2713  0.5258 -0.5123
  194MPD1    H5 3012   3.168   3.021  16.951 -0.7144  1.2255 -0.7996
  194MPD1    N1 3013   2.663   3.021  17.224  0.4361 -0.4968  0.8856
  194MPD1    H6 3014   2.683   2.939  17.280  1.3705 -0.4081  0.6782
  194MPD1    H7 3015   2.567   3.010  17.192  0.1243  2.2023  0.8756
  195MPD1     C 3016   0.723   1.216   0.105 -0.0921  0.0530 -0.7836
  195MPD1    C1 3017   0.765   1.128   0.206 -0.0439 -0.6180 -0.2508
  195MPD1    C2 3018   0.753   0.995   0.186  0.1971 -0.2048  0.0644
  195MPD1    C3 3019   0.692   0.942   0.077  0.0089 -0.6834 -0.0909
  195MPD1    C4 3020   0.644   1.028  17.737 -0.5234  0.7626  0.4098
  195MPD1    C5 3021   0.657   1.159  17.750  0.6596 -0.3560 -0.0645
  195MPD1     H 3022   0.792   0.936   0.268  0.6852 -0.7255 -0.5458
  195MPD1    H1 3023   0.598   0.991  17.646  1.0012 -1.3936  0.5215
  195MPD1    H2 3024   0.731   1.324   0.112  3.1799 -0.1262 -1.8326
  195MPD1    H3 3025   0.608   1.230  17.685  1.9578 -0.6803 -1.4131
  195MPD1     N 3026   0.665   0.805   0.050 -0.3999 -0.2825  0.6531
  195MPD1    H5 3027   0.602   0.792  17.725  1.2708 -1.9824 -0.4147
  195MPD1    N1 3028   0.841   1.187   0.317  0.3326 -0.0200  0.0885
  195MPD1    H6 3029   0.797   1.275   0.343 -0.2707 -0.0408 -0.8697
  195MPD1    H7 3030   0.810   1.136   0.399 -0.8303  1.1135  0.3561
  196MPD1     C 3031   4.505   4.077   0.256 -0.4502  0.0753 -0.0291
  196MPD1    C1 3032   4.433   4.042   0.365 -0.2338  0.0628 -0.2598
  196MPD1    C2 3033   4.475   4.100   0.487 -0.3734  0.0520 -0.2152
  196MPD1    C3 3034   4.557   4.210   0.491  0.4058 -0.0955  0.3479
  196MPD1    C4 3035   4.613   4.253   0.376 -0.2207  0.0074  0.9150
  196MPD1    C5 3036   4.594   4.182   0.262 -0.0624 -0.5122 -0.8222
  196MPD1     H 3037   4.439   4.069   0.584  0.3686  0.1366  0.0848
  196MPD1    H1 3038   4.696   4.323   0.371 -1.2353  1.2152  1.0599
  196MPD1    H2 3039   4.479   4.023   0.165  0.5305  1.1072 -0.9141
  196MPD1    H3 3040   4.638   4.224   0.172 -1.4312 -2.8833 -2.6030
  196MPD1     N 3041   4.579   4.287   0.609 -0.6979  0.2040 -0.3140
  196MPD1    H5 3042   4.614   4.381   0.594 -3.8027  1.2338 -0.8947
  196MPD1    N1 3043   4.345   3.932   0.360 -0.7897 -0.5315 -0.1777
  196MPD1    H6 3044   4.269   3.953   0.425  1.2802  1.6856  1.5333
  196MPD1    H7 3045   4.299   3.945   0.270 -1.1521  0.0865  0.0884
  197MPD1     C 3046   4.165   2.579  17.702 -1.0653 -0.1838 -0.1202
  197MPD1    C1 3047   4.169   2.497  17.593  0.6079 -0.2955 -0.0248
  197MPD1    C2 3048   4.266   2.510  17.493  0.9988  0.3110 -0.0228
  197MPD1    C3 3049   4.355   2.612  17.500 -0.4614  0.8548  0.0826
  197MPD1    C4 3050   4.354   2.697  17.608  0.0487  0.4057 -0.0138
  197MPD1    C5 3051   4.259   2.681  17.705 -0.1220 -0.7276  0.2739
  197MPD1     H 3052   4.261   2.450  17.403 -0.8492 -1.2971  1.1193
  197MPD1    H1 3053   4.417   2.785  17.601  1.0180 -0.4062 -1.5276
  197MPD1    H2 3054   4.090   2.578   0.027  1.6339 -2.2314  2.4247
  197MPD1    H3 3055   4.257   2.757   0.029 -0.5605  0.1404 -0.5868
  197MPD1     N 3056   4.443   2.645  17.390 -0.1697  0.0921  0.7389
  197MPD1    H5 3057   4.495   2.732  17.400 -0.2489  0.3154 -0.8706
  197MPD1    N1 3058   4.061   2.407  17.575  0.2434 -0.5003  0.0889
  197MPD1    H6 3059   4.018   2.375  17.662  1.4208 -1.2698  0.3789
  197MPD1    H7 3060   4.085   2.325  17.521 -2.5292 -1.2282 -0.0573
  198MPD1     C 3061   1.743   1.295  14.802 -0.2893 -0.1271  0.4058
  198MPD1    C1 3062   1.716   1.406  14.876 -0.5591  0.7437  0.2316
  198MPD1    C2 3063   1.689   1.393  15.012  0.3606  0.4926  0.2722
  198MPD1    C3 3064   1.704   1.270  15.074 -0.1718  0.0976 -0.7247
  198MPD1    C4 3065   1.738   1.164  14.998  0.3111 -0.3865  0.0450
  198MPD1    C5 3066   1.751   1.175  14.859  0.7336 -0.0248 -0.2895
  198MPD1     H 3067   1.656   1.481  15.066 -0.5580  0.5106 -0.3030
  198MPD1    H1 3068   1.754   1.069  15.048 -0.5591 -2.1208 -2.9581
  198MPD1    H2 3069   1.752   1.312  14.695 -1.9174  1.3554  0.4957
  198MPD1    H3 3070   1.775   1.091  14.795 -0.3263 -0.1181 -0.5576
  198MPD1     N 3071   1.666   1.262  15.209  0.7950  0.6348  0.1449
  198MPD1    H5 3072   1.630   1.349  15.249 -0.0523  0.7874 -0.9384
  198MPD1    N1 3073   1.695   1.529  14.813 -0.2626 -0.3870  0.2262
  198MPD1    H6 3074   1.750   1.540  14.729 -1.4555 -1.8248 -0.7499
  198MPD1    H7 3075   1.686   1.612  14.872  0.4874  1.2335 -1.9334
  199MPD1     C 3076   3.246   2.449  10.827  0.0424  0.4196  0.1992
  199MPD1    C1 3077   3.322   2.379  10.734 -0.1239 -0.0470 -0.1438
  199MPD1    C2 3078   3.315   2.411  10.600 -0.5579  0.5502 -0.1709
  199MPD1    C3 3079   3.231   2.518  10.568  0.1771  0.2015 -0.8687
  199MPD1    C4 3080   3.170   2.593  10.661 -0.5638 -0.4937  0.0364
  199MPD1    C5 3081   3.174   2.561  10.791  0.3763  0.0130 -0.3635
  199MPD1     H 3082   3.379   2.367  10.525 -0.8143  1.1234 -0.7222
  199MPD1    H1 3083   3.109   2.679  10.636 -0.0943 -0.2904 -0.3925
  199MPD1    H2 3084   3.265   2.426  10.931 -0.4399  0.4978  0.3051
  199MPD1    H3 3085   3.125   2.621  10.866  0.6254  1.8337 -1.6542
  199MPD1     N 3086   3.216   2.565  10.434  0.8813 -0.0230 -0.3729
  199MPD1    H5 3087   3.173   2.656  10.418 -0.3037 -0.9085 -2.0978
  199MPD1    N1 3088   3.426   2.288  10.774  0.2994  0.2241  0.2879
  199MPD1    H6 3089   3.440   2.216  10.703  0.3332  0.9167 -0.4060
  199MPD1    H7 3090   3.405   2.240  10.862 -0.5044  1.6584  0.8757
  200MPD1     C 3091   1.610   2.281  15.009  1.2365 -0.4036  0.4430
  200MPD1    C1 3092   1.583   2.417  14.972  0.2279  0.2746 -0.2272
  200MPD1    C2 3093   1.693   2.499  14.977  0.3421 -0.5764 -0.0395
  200MPD1    C3 3094   1.823   2.450  14.996 -0.4408  0.0660 -0.5448
  200MPD1    C4 3095   1.842   2.320  15.039  0.1270 -0.0093  0.3083
  200MPD1    C5 3096   1.733   2.252  15.061 -0.1653  0.0376  0.8531
  200MPD1     H 3097   1.677   2.604  14.957  0.6124 -0.6851 -0.8508
  200MPD1    H1 3098   1.937   2.275  15.062  0.5794  1.0973  0.6016
  200MPD1    H2 3099   1.536   2.203  15.019 -0.2027  0.9771  0.7285
  200MPD1    H3 3100   1.752   2.151  15.097  1.4080  0.3036  0.7564
  200MPD1     N 3101   1.923   2.545  14.986 -0.1998  0.5433 -0.3448
  200MPD1    H5 3102   1.889   2.639  14.969  1.3651  1.1651 -0.0537
  200MPD1    N1 3103   1.451   2.474  14.960 -0.2957  0.3236  0.0011
  200MPD1    H6 3104   1.445   2.570  14.925 -0.8930 -0.5806 -2.3624
  200MPD1    H7 3105   1.385   2.405  14.926 -0.7072  0.1823  1.0866
  201MPD1     C 3106   4.635   1.756  13.414 -0.0267 -0.1717  0.6998
  201MPD1    C1 3107   4.589   1.670  13.511  0.1952  0.1115  0.1392
  201MPD1    C2 3108   4.645   1.541  13.531 -0.6901 -0.5876 -0.0943
  201MPD1    C3 3109   4.734   1.497  13.434 -0.6610  0.1827 -0.4146
  201MPD1    C4 3110   0.041   1.587  13.334 -0.1734 -0.4403  0.9392
  201MPD1    C5 3111   4.737   1.716  13.331  0.1408 -0.1210 -0.4585
  201MPD1     H 3112   4.616   1.478  13.614  1.1198  0.3708  1.2546
  201MPD1    H1 3113   0.110   1.557  13.256 -1.5059 -1.8622  0.3154
  201MPD1    H2 3114   4.590   1.854  13.401 -0.6761 -0.5777 -0.1335
  201MPD1    H3 3115   0.041   1.778  13.253  1.3987  0.7057  0.8733
  201MPD1     N 3116   0.057   1.368  13.449 -0.5180 -0.2356  0.2207
  201MPD1    H5 3117   0.015   1.301  13.512 -0.2121 -0.1923  0.4694
  201MPD1    N1 3118   4.484   1.709  13.589  0.6982 -0.1078 -0.2462
  201MPD1    H6 3119   4.473   1.654  13.674  0.7556  1.0117  0.4835
  201MPD1    H7 3120   4.486   1.808  13.612 -1.6563  0.0137 -0.5257
  202MPD1     C 3121   4.384   0.663   9.243 -0.0684  0.3815  0.0501
  202MPD1    C1 3122   4.354   0.797   9.269  0.0507 -0.3762 -1.2489
  202MPD1    C2 3123   4.410   0.854   9.384  0.5448 -0.7977  0.4576
  202MPD1    C3 3124   4.479   0.778   9.472 -0.1466 -0.8120 -0.0927
  202MPD1    C4 3125   4.507   0.643   9.444 -0.0124  0.0902  0.1443
  202MPD1    C5 3126   4.462   0.586   9.326  0.3444  0.4387 -0.0918
  202MPD1     H 3127   4.406   0.962   9.389 -0.8761 -0.7843 -0.8594
  202MPD1    H1 3128   4.581   0.581   9.494  0.3235 -0.7267 -1.3438
  202MPD1    H2 3129   4.344   0.623   9.151  1.0300 -0.5360 -0.0301
  202MPD1    H3 3130   4.488   0.483   9.305 -1.4668 -0.0247 -0.0774
  202MPD1     N 3131   4.546   0.822   9.595  0.1299 -0.1351  0.1759
  202MPD1    H5 3132   4.600   0.760   9.655 -0.0265  0.2368  0.6999
  202MPD1    N1 3133   4.326   0.882   9.158  0.5736 -0.4706  0.7523
  202MPD1    H6 3134   4.255   0.848   9.093  0.5889  1.8631 -0.4880
  202MPD1    H7 3135   4.295   0.970   9.198 -1.7900 -0.5076 -1.0537
  203MPD1     C 3136   2.675   1.565  12.880 -0.6445 -0.1002  0.7706
  203MPD1    C1 3137   2.708   1.448  12.953  0.0494 -0.1124  0.1972
  203MPD1    C2 3138   2.813   1.376  12.904  0.1549 -0.1922 -0.1906
  203MPD1    C3 3139   2.871   1.398  12.774  1.1346 -0.6098 -0.1931
  203MPD1    C4 3140   2.839   1.508  12.704 -0.1322 -0.0086  0.4929
  203MPD1    C5 3141   2.744   1.593  12.767  0.5596 -0.7308 -0.0674
  203MPD1     H 3142   2.851   1.288  12.955  1.0372  0.5540  0.4516
  203MPD1    H1 3143   2.882   1.539  12.609 -1.5939 -1.5786 -0.6957
  203MPD1    H2 3144   2.601   1.638  12.910 -1.4847 -0.8778  0.5740
  203MPD1    H3 3145   2.723   1.683  12.711 -0.3906 -0.2485  1.0606
  203MPD1     N 3146   2.970   1.309  12.729  0.1228 -0.6837 -0.3555
  203MPD1    H5 3147   3.013   1.248  12.798 -0.2860 -1.2637 -0.6147
  203MPD1    N1 3148   2.674   1.432  13.084  0.8262  0.0809  1.0211
  203MPD1    H6 3149   2.656   1.336  13.111  1.2472 -0.6217 -1.1780
  203MPD1    H7 3150   2.589   1.483  13.105  1.0587  1.4250 -1.3366
  204MPD1     C 3151   3.156   2.757  17.728  0.0021 -0.4006 -0.1756
  204MPD1    C1 3152   3.189   2.780  17.595 -0.2847 -0.3004 -0.3382
  204MPD1    C2 3153   3.278   2.690  17.537 -0.0206 -0.3091  0.0064
  204MPD1    C3 3154   3.341   2.599  17.614 -1.1340  0.0769  0.0806
  204MPD1    C4 3155   3.309   2.578  17.746 -0.1210  0.1681 -0.2708
  204MPD1    C5 3156   3.212   2.652   0.051 -0.4047 -0.3306 -0.5433
  204MPD1     H 3157   3.293   2.694  17.430  1.6246  0.9942  0.2973
  204MPD1    H1 3158   3.352   2.505   0.059  1.5161  1.9876  0.6671
  204MPD1    H2 3159   3.071   2.800   0.026  1.5385  1.1905  1.0231
  204MPD1    H3 3160   3.175   2.621   0.148 -0.3762  0.4855 -0.2715
  204MPD1     N 3161   3.434   2.512  17.550 -0.5848 -0.4402 -0.0289
  204MPD1    H5 3162   3.439   2.532  17.450 -2.4183  2.7147  0.5072
  204MPD1    N1 3163   3.111   2.856  17.509 -0.2768 -0.3734 -0.1665
  204MPD1    H6 3164   3.153   2.890  17.423 -0.2237  0.4014  0.1644
  204MPD1    H7 3165   3.069   2.938  17.553  0.7682  0.0429  0.0528
  205MPD1     C 3166   3.820   1.163  16.479  0.2454  0.2654 -0.0525
  205MPD1    C1 3167   3.816   1.290  16.537 -0.3924  0.5605  0.0143
  205MPD1    C2 3168   3.796   1.299  16.671 -0.2815 -0.3607 -0.5011
  205MPD1    C3 3169   3.780   1.189  16.761 -0.1759  0.6780  0.2519
  205MPD1    C4 3170   3.784   1.064  16.697  0.8085 -0.2392  0.5731
  205MPD1    C5 3171   3.803   1.053  16.564  0.3016  0.0763 -0.5598
  205MPD1     H 3172   3.798   1.402  16.704 -3.6671 -0.4931  0.0982
  205MPD1    H1 3173   3.776   0.975  16.758  0.0484 -0.1574  0.5906
  205MPD1    H2 3174   3.833   1.146  16.373 -0.9340 -3.7210  0.4441
  205MPD1    H3 3175   3.810   0.951  16.527  1.6298  0.1757 -0.5720
  205MPD1     N 3176   3.750   1.202  16.896  0.2088  0.4078 -0.1891
  205MPD1    H5 3177   3.720   1.123  16.952  1.5520  0.0453  0.0342
  205MPD1    N1 3178   3.793   1.399  16.450  0.3133  0.1109  0.4810
  205MPD1    H6 3179   3.831   1.371  16.360 -1.1631  1.0030 -0.4142
  205MPD1    H7 3180   3.840   1.482  16.485  0.5037  0.5054 -0.7224
  206MPD1     C 3181   3.737   4.153  16.822 -0.5961 -0.6029  0.2677
  206MPD1    C1 3182   3.815   4.079  16.736 -0.3268  0.1741  0.3119
  206MPD1    C2 3183   3.779   4.065  16.605  0.6397 -0.0197 -0.5695
  206MPD1    C3 3184   3.660   4.123  16.557 -0.0366 -0.0669 -0.0865
  206MPD1    C4 3185   3.587   4.206  16.638  0.2771 -0.1993 -0.1120
  206MPD1    C5 3186   3.629   4.213  16.769 -0.1775 -0.3869  0.1263
  206MPD1     H 3187   3.851   4.011  16.544 -0.4189 -0.8270 -1.1222
  206MPD1    H1 3188   3.498   4.254  16.601 -0.7806 -1.5636  0.6604
  206MPD1    H2 3189   3.768   4.162  16.925  1.2557  1.9247 -0.5035
  206MPD1    H3 3190   3.575   4.279  16.836 -0.4804 -1.5350  1.0092
  206MPD1     N 3191   3.612   4.097  16.431  0.3722 -1.0798  0.3548
  206MPD1    H5 3192   3.534   4.150  16.392  0.5700 -1.0826 -0.0495
  206MPD1    N1 3193   3.909   4.000  16.794 -0.4640  0.2250 -0.3608
  206MPD1    H6 3194   3.960   4.037  16.874 -0.2532 -0.6361 -0.0876
  206MPD1    H7 3195   3.984   3.981  16.727  0.0032 -1.1949  0.5650
  207MPD1     C 3196   0.651   2.324   9.307  0.0328 -0.7382 -0.6323
  207MPD1    C1 3197   0.781   2.377   9.299 -0.1185  0.0438  0.9242
  207MPD1    C2 3198   0.836   2.424   9.418  0.0969 -0.4412 -0.1850
  207MPD1    C3 3199   0.769   2.411   9.537 -0.5821 -0.1143 -0.6058
  207MPD1    C4 3200   0.643   2.359   9.542 -0.0819 -0.0373 -0.5981
  207MPD1    C5 3201   0.589   2.316   9.428  1.0978  0.1441  0.7877
  207MPD1     H 3202   0.940   2.451   9.404  0.2155 -1.2210 -0.8245
  207MPD1    H1 3203   0.587   2.342   9.633 -0.1745  1.3429 -0.3989
  207MPD1    H2 3204   0.590   2.292   9.223  0.8825  0.4878 -1.7132
  207MPD1    H3 3205   0.494   2.264   9.431  1.2268 -0.2598 -1.9441
  207MPD1     N 3206   0.819   2.452   9.657  0.6729  0.2482 -0.2112
  207MPD1    H5 3207   0.764   2.443   9.741  1.1291  1.3299  0.2054
  207MPD1    N1 3208   0.844   2.393   9.181 -0.1864 -0.8298  0.0542
  207MPD1    H6 3209   0.943   2.381   9.198 -0.0923  0.4669  0.4324
  207MPD1    H7 3210   0.807   2.330   9.111 -0.1626  0.3809 -1.0468
  208MPD1     C 3211   4.440   0.426  16.910  0.1470 -0.4410 -0.5218
  208MPD1    C1 3212   4.417   0.336  17.014  0.1990  0.0431 -0.0809
  208MPD1    C2 3213   4.288   0.305  17.045 -0.0199  0.3130 -0.1223
  208MPD1    C3 3214   4.181   0.364  16.979  0.1207 -0.1406  0.1982
  208MPD1    C4 3215   4.197   0.456  16.878  0.0803 -0.4601 -0.4275
  208MPD1    C5 3216   4.330   0.491  16.856  0.2075  1.0816  0.4336
  208MPD1     H 3217   4.272   0.235  17.125 -2.3238  0.2451 -0.6462
  208MPD1    H1 3218   4.115   0.509  16.831  0.1084  0.3519  0.4490
  208MPD1    H2 3219   4.537   0.455  16.873  0.6568  2.4222  2.9682
  208MPD1    H3 3220   4.353   0.566  16.781  0.7537  1.4862  1.0117
  208MPD1     N 3221   4.052   0.317  17.019 -0.3597  0.0043 -0.1949
  208MPD1    H5 3222   4.050   0.261  17.104  0.9907 -1.0431 -0.8486
  208MPD1    N1 3223   4.517   0.249  17.050 -0.0797  0.0658 -0.0984
  208MPD1    H6 3224   4.522   0.212  17.145  0.1019  0.1685 -0.0660
  208MPD1    H7 3225   4.610   0.288  17.037  0.3917 -0.5943  1.2399
  209MPD1     C 3226   0.640   1.660  11.431 -0.3705 -0.1165  0.5138
  209MPD1    C1 3227   0.772   1.700  11.470  0.9672 -0.0566 -0.3062
  209MPD1    C2 3228   0.846   1.766  11.366 -0.4696 -0.3854  0.2175
  209MPD1    C3 3229   0.807   1.766  11.231  0.1678 -0.1901  0.0725
  209MPD1    C4 3230   0.682   1.722  11.199 -0.0578 -1.1172  0.0538
  209MPD1    C5 3231   0.599   1.676  11.296  0.2349 -0.3752  0.1123
  209MPD1     H 3232   0.943   1.810  11.385 -1.5666  1.9520  0.4653
  209MPD1    H1 3233   0.635   1.718  11.102 -0.6915  2.7123  0.2246
  209MPD1    H2 3234   0.570   1.617  11.502 -0.2493  1.1400  1.3937
  209MPD1    H3 3235   0.502   1.637  11.269  0.2780  1.3288 -2.4540
  209MPD1     N 3236   0.888   1.830  11.136  0.0734 -0.3387  0.6621
  209MPD1    H5 3237   0.967   1.882  11.173 -1.4046  2.7775 -0.5355
  209MPD1    N1 3238   0.792   1.718  11.605 -0.0227  0.1175 -0.6037
  209MPD1    H6 3239   0.738   1.648  11.655  0.5692  0.0456 -0.0738
  209MPD1    H7 3240   0.891   1.711  11.626  0.5352  1.4122 -2.6975
  210MPD1     C 3241   1.388   2.424  11.444  0.1744 -0.2393  0.2443
  210MPD1    C1 3242   1.423   2.439  11.308  0.2975 -0.4700  0.1437
  210MPD1    C2 3243   1.360   2.362  11.213 -0.3761  0.5266 -0.1149
  210MPD1    C3 3244   1.267   2.268  11.255 -0.7269 -0.6260 -0.5606
  210MPD1    C4 3245   1.235   2.246  11.393  0.3955 -0.4462 -0.0991
  210MPD1    C5 3246   1.296   2.330  11.481  0.0784 -0.1782  0.3944
  210MPD1     H 3247   1.387   2.371  11.108 -0.7064  0.0099 -0.2453
  210MPD1    H1 3248   1.160   2.184  11.439  0.4642 -1.4660 -1.3671
  210MPD1    H2 3249   1.442   2.482  11.518 -0.1579 -0.1481  0.4148
  210MPD1    H3 3250   1.277   2.325  11.588 -0.7103 -2.0607  0.1694
  210MPD1     N 3251   1.199   2.192  11.161 -0.1903  0.2162 -0.3330
  210MPD1    H5 3252   1.122   2.138  11.200  0.4628  1.3714  2.5442
  210MPD1    N1 3253   1.513   2.541  11.262  0.1693 -0.3304 -0.5703
  210MPD1    H6 3254   1.590   2.576  11.318 -1.6827 -0.2867  1.9319
  210MPD1    H7 3255   1.538   2.545  11.163  0.3428  1.6065 -0.4552
  211MPD1     C 3256   4.002   1.130  16.017  0.6127 -0.3860  0.4280
  211MPD1    C1 3257   4.022   1.263  15.990  0.1676  1.3329  0.3228
  211MPD1    C2 3258   3.911   1.343  16.008  0.6325 -0.4448 -0.3795
  211MPD1    C3 3259   3.786   1.295  16.050 -0.3071  0.8291 -0.0884
  211MPD1    C4 3260   3.766   1.158  16.037 -0.4841 -1.2394 -0.9240
  211MPD1    C5 3261   3.881   1.080  16.021  0.3333  0.4304  0.8609
  211MPD1     H 3262   3.929   1.450  15.999 -2.1316  0.0466  0.0879
  211MPD1    H1 3263   3.673   1.105  16.052 -0.0516 -1.5177  0.7552
  211MPD1    H2 3264   4.085   1.061  16.022  0.7310 -0.3667 -1.2043
  211MPD1    H3 3265   3.876   0.972  16.016  2.5475  0.4431 -1.0427
  211MPD1     N 3266   3.686   1.388  16.079 -0.2743 -0.9929  0.1158
  211MPD1    H5 3267   3.705   1.487  16.092 -0.4590 -0.7290 -1.5904
  211MPD1    N1 3268   4.153   1.313  15.977 -0.4010 -0.4019 -0.1944
  211MPD1    H6 3269   4.214   1.260  15.916 -1.6819  0.1095 -1.9255
  211MPD1    H7 3270   4.142   1.404  15.933 -2.6128 -0.8647 -0.6341
  212MPD1     C 3271   2.513   3.509   0.006 -0.8849 -0.3096  0.5907
  212MPD1    C1 3272   2.632   3.519  17.701 -0.3510 -0.0527  0.0253
  212MPD1    C2 3273   2.644   3.598  17.589  0.3639 -0.7089  0.3231
  212MPD1    C3 3274   2.530   3.666  17.537 -0.1848 -0.0833 -0.6925
  212MPD1    C4 3275   2.408   3.639  17.597 -0.5790  0.0376 -0.9318
  212MPD1    C5 3276   2.399   3.560  17.706  0.8399  0.1867  0.1551
  212MPD1     H 3277   2.741   3.610  17.542 -0.0614 -1.0585 -0.6475
  212MPD1    H1 3278   2.323   3.700  17.568  0.5838  1.1634 -1.9613
  212MPD1    H2 3279   2.506   3.451   0.098 -0.9208 -0.2801  0.6065
  212MPD1    H3 3280   2.308   3.548   0.009  1.1304  0.8198  0.7585
  212MPD1     N 3281   2.535   3.754  17.426 -0.0544 -0.2246  0.2684
  212MPD1    H5 3282   2.452   3.811  17.409  0.1296 -0.6204 -2.0164
  212MPD1    N1 3283   2.743   3.456   0.022 -0.4944 -0.2140 -0.2010
  212MPD1    H6 3284   2.712   3.395   0.097 -1.8440  0.1521 -0.4614
  212MPD1    H7 3285   2.783   3.396  17.704  0.0479  0.0942 -0.1557
  213MPD1     C 3286   1.132   0.505  15.899 -0.1145 -0.2816  0.8916
  213MPD1    C1 3287   1.064   0.385  15.882 -0.2914  0.4484  0.4139
  213MPD1    C2 3288   1.044   0.366  15.748  0.0695  1.0872 -0.4799
  213MPD1    C3 3289   1.043   0.459  15.653 -0.0750  0.6081 -0.1226
  213MPD1    C4 3290   1.077   0.587  15.684 -0.5084 -0.3737 -0.0815
  213MPD1    C5 3291   1.133   0.604  15.803 -0.4536  0.1569 -0.1776
  213MPD1     H 3292   1.008   0.270  15.713  0.6345  0.9572 -0.7052
  213MPD1    H1 3293   1.091   0.675  15.621  1.3266  0.0370  0.8928
  213MPD1    H2 3294   1.162   0.526  16.001  0.0160 -0.8007  0.9607
  213MPD1    H3 3295   1.170   0.701  15.834  1.2463 -0.5934  0.1647
  213MPD1     N 3296   1.016   0.420  15.523  0.1388 -0.7151 -0.1535
  213MPD1    H5 3297   1.009   0.320  15.507  1.4194 -1.0432  1.4118
  213MPD1    N1 3298   1.106   0.281  15.960  0.4134 -0.5323  0.0793
  213MPD1    H6 3299   1.055   0.194  15.943  0.2179  0.0906 -2.4768
  213MPD1    H7 3300   1.102   0.298  16.060 -0.4583 -1.5543  0.2253
  214MPD1     C 3301   0.649   4.435  15.361 -0.8861  0.1628  0.4159
  214MPD1    C1 3302   0.589   4.501  15.262  0.2433 -0.4566 -0.2061
  214MPD1    C2 3303   0.632   4.624  15.223  0.2850  0.0549  0.2107
  214MPD1    C3 3304   0.734   4.684  15.300  0.0597  0.5506 -0.1590
  214MPD1    C4 3305   0.780   4.620  15.410  0.5846  0.1950 -0.7046
  214MPD1    C5 3306   0.739   4.495  15.442 -0.8112  0.6226 -0.3552
  214MPD1     H 3307   0.588   4.668  15.134 -1.1185  0.2391  0.9894
  214MPD1    H1 3308   0.861   4.664  15.469 -1.7321  1.0817  1.8059
  214MPD1    H2 3309   0.615   4.334  15.378 -1.6947  0.4429  0.4425
  214MPD1    H3 3310   0.778   4.439  15.527 -0.1884 -0.1702 -1.1578
  214MPD1     N 3311   0.792   0.069  15.266  0.8148 -0.1047 -0.0651
  214MPD1    H5 3312   0.851   0.107  15.340 -0.8717  3.3274 -0.5249
  214MPD1    N1 3313   0.493   4.435  15.180 -0.4594 -0.5134  0.0370
  214MPD1    H6 3314   0.443   4.495  15.115 -0.5182  0.1544  0.7017
  214MPD1    H7 3315   0.423   4.388  15.238  1.5771 -0.4683  2.5333
  215MPD1     C 3316   4.504   2.167  11.072 -0.3384  0.1665 -0.2596
  215MPD1    C1 3317   4.623   2.240  11.045  0.8096 -0.1782  0.0009
  215MPD1    C2 3318   4.725   2.219  11.133 -0.0168 -0.0977 -0.0498
  215MPD1    C3 3319   4.726   2.120  11.225  0.5921  0.0222 -0.1799
  215MPD1    C4 3320   4.614   2.042  11.233  0.4476 -0.4194  0.1238
  215MPD1    C5 3321   4.501   2.066  11.163 -0.8089 -0.3116  0.1473
  215MPD1     H 3322   0.075   2.282  11.126 -1.1747  1.5317 -0.1614
  215MPD1    H1 3323   4.609   1.957  11.300  0.8096  0.3142  1.0895
  215MPD1    H2 3324   4.414   2.196  11.018 -0.1233 -0.8657 -1.1573
  215MPD1    H3 3325   4.413   2.006  11.179  0.1736 -1.6490  0.6036
  215MPD1     N 3326   0.104   2.094  11.301 -0.0150 -0.2103 -0.5495
  215MPD1    H5 3327   0.178   2.162  11.296  0.2215 -0.4867 -0.8280
  215MPD1    N1 3328   4.632   2.356  10.964 -0.7351 -0.1896  0.3900
  215MPD1    H6 3329   4.558   2.355  10.894 -0.3635 -0.2379  0.0002
  215MPD1    H7 3330   4.722   2.374  10.919 -1.1917  2.4427  0.5394
  216MPD1     C 3331   1.484   2.972   0.199 -0.2021  0.1454 -0.4823
  216MPD1    C1 3332   1.550   3.003   0.079 -0.0356 -0.2660  0.2358
  216MPD1    C2 3333   1.689   2.982   0.078  0.6514 -0.5166 -0.2347
  216MPD1    C3 3334   1.753   2.926   0.184 -0.6974  0.3248  0.1111
  216MPD1    C4 3335   1.687   2.887   0.292  0.5017 -0.5482  0.6415
  216MPD1    C5 3336   1.552   2.920   0.306 -0.4683  0.4334  0.6257
  216MPD1     H 3337   1.754   3.025   0.003  0.2822  0.6515  0.1020
  216MPD1    H1 3338   1.737   2.843   0.378  1.2890 -1.1367 -0.1191
  216MPD1    H2 3339   1.378   2.988   0.215 -0.2830 -2.7559  1.9497
  216MPD1    H3 3340   1.503   2.906   0.401 -2.2530  0.9699 -0.2006
  216MPD1     N 3341   1.895   2.913   0.185 -0.3500 -0.4645 -0.0281
  216MPD1    H5 3342   1.939   2.907   0.094 -1.0680 -0.8804 -0.3473
  216MPD1    N1 3343   1.490   3.086  17.737 -0.2473  0.0510 -0.1176
  216MPD1    H6 3344   1.525   3.058  17.645  2.0034  1.7417  0.2262
  216MPD1    H7 3345   1.389   3.080  17.745 -0.3625  0.7090 -1.0298
  217MPD1     C 3346   3.136   0.086   9.015  0.7274 -0.5590  0.5483
  217MPD1    C1 3347   3.037   0.177   9.021  0.0844  0.3293 -0.0625
  217MPD1    C2 3348   3.066   0.305   9.065 -0.2778  0.2224 -0.2062
  217MPD1    C3 3349   3.194   0.337   9.113 -0.1191 -0.6251 -0.5825
  217MPD1    C4 3350   3.293   0.246   9.105  0.5722 -0.5388  0.4586
  217MPD1    C5 3351   3.259   0.124   9.055 -0.1718  0.2865  0.4868
  217MPD1     H 3352   2.988   0.380   9.065  0.9139  1.4853  1.7934
  217MPD1    H1 3353   3.390   0.276   9.143 -0.3731  0.4127  2.1251
  217MPD1    H2 3354   3.109   4.728   8.975  1.2952 -0.9270  1.0514
  217MPD1    H3 3355   3.344   0.056   9.065 -0.3211  0.0629  0.2275
  217MPD1     N 3356   3.223   0.457   9.176 -0.0324 -0.7898 -0.0751
  217MPD1    H5 3357   3.320   0.477   9.200 -0.3598 -0.4823  1.0111
  217MPD1    N1 3358   2.907   0.151   8.968 -0.4255 -0.4354  0.0880
  217MPD1    H6 3359   2.830   0.207   9.004  1.0106  1.7052 -0.1805
  217MPD1    H7 3360   2.873   0.057   8.987 -1.8226  0.0190 -0.1990
  218MPD1     C 3361   1.182   2.529  12.149 -0.0507 -0.0221  0.2473
  218MPD1    C1 3362   1.212   2.429  12.235  0.1460  0.6758  0.2207
  218MPD1    C2 3363   1.108   2.353  12.282 -0.5915 -1.0976 -0.1178
  218MPD1    C3 3364   0.977   2.390  12.251 -0.5826  0.8785  0.0014
  218MPD1    C4 3365   0.950   2.499  12.172  0.0520  0.4614 -0.3822
  218MPD1    C5 3366   1.055   2.558  12.107 -0.0332 -0.3868  0.1303
  218MPD1     H 3367   1.124   2.279  12.359 -0.0573 -2.5649 -1.6441
  218MPD1    H1 3368   0.850   2.538  12.153 -1.5680 -3.2695  0.5442
  218MPD1    H2 3369   1.269   2.582  12.111 -0.4883  1.2021  0.9645
  218MPD1    H3 3370   1.041   2.648  12.048  0.9009 -0.2046  0.1868
  218MPD1     N 3371   0.874   2.309  12.307  0.2383 -0.6992  0.0686
  218MPD1    H5 3372   0.901   2.217  12.342 -0.5469 -0.2417  1.9008
  218MPD1    N1 3373   1.342   2.411  12.279  0.4955  0.1471  0.1495
  218MPD1    H6 3374   1.414   2.448  12.218  0.7671  0.5466  0.7100
  218MPD1    H7 3375   1.366   2.318  12.311 -1.7295 -0.2445  0.6741
  219MPD1     C 3376   0.069   1.657  12.067 -0.3794 -0.7017 -0.9143
  219MPD1    C1 3377   0.163   1.723  11.997  0.1743 -0.5308  0.1464
  219MPD1    C2 3378   0.227   1.834  12.048  0.6123 -0.5432 -0.8075
  219MPD1    C3 3379   0.206   1.878  12.177  0.6629  0.4001  0.8254
  219MPD1    C4 3380   0.111   1.810  12.251  0.0352 -0.5395 -0.0574
  219MPD1    C5 3381   0.045   1.696  12.198  0.0513 -1.2694 -0.4365
  219MPD1     H 3382   0.304   1.870  11.981 -0.4043  0.8647 -1.2335
  219MPD1    H1 3383   0.087   1.838  12.353  0.7375 -1.6197  0.4001
  219MPD1    H2 3384   0.013   1.579  12.017 -0.0589 -1.4842 -0.0529
  219MPD1    H3 3385   4.705   1.646  12.253 -0.5379 -0.1047 -0.2255
  219MPD1     N 3386   0.294   1.966  12.233  0.1277 -0.2984  0.0933
  219MPD1    H5 3387   0.292   1.976  12.334 -1.0551 -0.5961  0.0978
  219MPD1    N1 3388   0.212   1.680  11.871  0.0135 -0.3575 -0.6596
  219MPD1    H6 3389   0.277   1.744  11.825 -0.9002  0.5996 -0.6100
  219MPD1    H7 3390   0.164   1.605  11.822  0.7571 -0.9045 -0.5520
  220MPD1     C 3391   0.704   2.873   9.906 -0.1390 -0.3590  0.9767
  220MPD1    C1 3392   0.742   2.874  10.036  0.2085  0.3584 -0.0509
  220MPD1    C2 3393   0.687   2.774  10.119  0.8687  0.0248 -0.4482
  220MPD1    C3 3394   0.624   2.663  10.070 -0.0540  0.4270  0.1067
  220MPD1    C4 3395   0.609   2.656   9.939  0.1681  0.8130  0.0894
  220MPD1    C5 3396   0.644   2.758   9.856 -0.0287  0.8375  0.1570
  220MPD1     H 3397   0.688   2.782  10.227  1.1860  0.5801 -0.4896
  220MPD1    H1 3398   0.566   2.568   9.892 -1.1027  1.6465 -0.2991
  220MPD1    H2 3399   0.734   2.946   9.831 -0.2616  1.1075  2.3561
  220MPD1    H3 3400   0.636   2.746   9.749  0.6698  1.5769  0.0203
  220MPD1     N 3401   0.570   2.567  10.158  0.2577 -0.0607 -0.9211
  220MPD1    H5 3402   0.596   2.560  10.256  0.2525  1.4564 -0.8216
  220MPD1    N1 3403   0.802   2.984  10.088  0.1218 -0.3050 -0.0194
  220MPD1    H6 3404   0.859   2.976  10.172 -2.0239  0.9434  1.5424
  220MPD1    H7 3405   0.866   3.031  10.025  0.1779  1.7400  1.5828
  221MPD1     C 3406   2.722   1.863  15.562 -0.0459  0.5396  0.5881
  221MPD1    C1 3407   2.667   1.755  15.495  0.2466  0.4322  0.3620
  221MPD1    C2 3408   2.730   1.631  15.510  0.4796  0.1574 -0.5105
  221MPD1    C3 3409   2.848   1.614  15.588  0.0141  0.2292 -0.0539
  221MPD1    C4 3410   2.892   1.727  15.652 -0.3542 -0.5811  0.6887
  221MPD1    C5 3411   2.835   1.848  15.642  0.0353  0.6626 -0.1828
  221MPD1     H 3412   2.691   1.550  15.450  0.6893 -1.3556  1.3862
  221MPD1    H1 3413   2.978   1.723  15.718  0.6024  1.4822 -0.4063
  221MPD1    H2 3414   2.679   1.962  15.555 -0.2162  0.3060 -1.7701
  221MPD1    H3 3415   2.866   1.935  15.699  0.2074 -0.0007  0.7327
  221MPD1     N 3416   2.926   1.501  15.598 -0.0087  0.1180 -0.3517
  221MPD1    H5 3417   3.006   1.511  15.660  0.1248 -1.0137 -0.3448
  221MPD1    N1 3418   2.559   1.781  15.407  0.3512  0.1875  0.1671
  221MPD1    H6 3419   2.514   1.692  15.386  0.6119 -0.1219  0.9057
  221MPD1    H7 3420   2.501   1.853  15.449  0.1803  1.7833 -2.8403
  222MPD1     C 3421   1.709   3.892   0.163 -0.9917  0.4271  0.4456
  222MPD1    C1 3422   1.827   3.884   0.230 -0.0794  0.4093 -1.0727
  222MPD1    C2 3423   1.923   3.994   0.225  0.7552  0.6619 -0.6239
  222MPD1    C3 3424   1.888   4.109   0.158  0.1835  0.2656 -0.1169
  222MPD1    C4 3425   1.762   4.115   0.094  0.0289 -0.2056  0.1259
  222MPD1    C5 3426   1.669   4.008   0.096 -0.5725 -0.5665 -0.2426
  222MPD1     H 3427   2.024   3.971   0.255  0.7028 -2.1587 -2.6345
  222MPD1    H1 3428   1.743   4.204   0.035  0.9669  0.6608  1.1319
  222MPD1    H2 3429   1.640   3.809   0.173 -1.2844  0.3231 -2.4282
  222MPD1    H3 3430   1.575   4.018   0.042 -0.9855 -0.3587  0.5106
  222MPD1     N 3431   1.963   4.223   0.132 -0.4956  0.6323  0.0891
  222MPD1    H5 3432   1.918   4.300   0.083  0.0636  0.5756 -0.5033
  222MPD1    N1 3433   1.865   3.757   0.269  0.0420  0.0746  0.1175
  222MPD1    H6 3434   1.776   3.710   0.286  0.4481 -0.2724  1.3065
  222MPD1    H7 3435   1.928   3.747   0.348 -2.8236 -2.2864  2.0992
  223MPD1     C 3436   1.942   0.393  17.545  0.4623 -0.0313  0.0496
  223MPD1    C1 3437   2.081   0.387  17.562 -0.7965 -0.2635 -0.3217
  223MPD1    C2 3438   2.130   0.270  17.622 -0.0012 -0.0950 -0.1686
  223MPD1    C3 3439   2.047   0.166  17.648 -0.2653 -0.7064  0.4019
  223MPD1    C4 3440   1.916   0.172  17.609  0.6453  0.2615  0.8797
  223MPD1    C5 3441   1.864   0.286  17.565  0.3477 -0.6344  0.3371
  223MPD1     H 3442   2.234   0.252  17.643 -0.2813 -0.8392  0.5887
  223MPD1    H1 3443   1.850   0.092  17.640 -0.7477  0.7220 -0.8748
  223MPD1    H2 3444   1.898   0.488  17.517  0.3993 -0.5475 -1.6141
  223MPD1    H3 3445   1.758   0.290  17.542 -0.1478 -0.8004  2.5146
  223MPD1     N 3446   2.113   0.048  17.698  0.5906  0.0227 -0.0608
  223MPD1    H5 3447   2.214   0.046  17.709  0.2806 -2.3280  2.5557
  223MPD1    N1 3448   2.162   0.508  17.552  0.4705 -0.0871 -0.2341
  223MPD1    H6 3449   2.261   0.485  17.546  0.2245 -0.9325 -1.0734
  223MPD1    H7 3450   2.136   0.575  17.480  0.3646 -0.7300 -0.8017
  224MPD1     C 3451   4.276   1.944   9.423 -0.2213 -0.1111  0.0846
  224MPD1    C1 3452   4.147   1.991   9.436  0.4242 -0.0520  0.0346
  224MPD1    C2 3453   4.072   1.923   9.536 -0.0278 -0.2733  0.2467
  224MPD1    C3 3454   4.118   1.823   9.618 -1.0771  0.2190  0.0598
  224MPD1    C4 3455   4.254   1.799   9.602 -0.0131 -0.6173  0.4072
  224MPD1    C5 3456   4.328   1.858   9.510  0.0140  0.3861 -0.0654
  224MPD1     H 3457   3.967   1.949   9.544 -0.3353 -2.3830  2.8236
  224MPD1    H1 3458   4.295   1.719   9.663  1.2080  0.3180  0.8101
  224MPD1    H2 3459   4.343   1.987   9.350 -0.6869 -1.2404 -1.0061
  224MPD1    H3 3460   4.434   1.838   9.501  0.2246  1.0614  0.9297
  224MPD1     N 3461   4.051   1.752   9.722  1.1109 -0.0855 -0.0800
  224MPD1    H5 3462   4.097   1.670   9.761 -0.3205 -0.9546 -0.1694
  224MPD1    N1 3463   4.106   2.106   9.370  0.3907 -0.0946  0.2679
  224MPD1    H6 3464   4.155   2.103   9.281  1.2944 -0.5213  0.7749
  224MPD1    H7 3465   4.008   2.135   9.364  0.3353 -0.3663 -0.1578
  225MPD1     C 3466   0.630   2.740  12.589  0.7017 -0.1427  0.2671
  225MPD1    C1 3467   0.576   2.669  12.490 -0.1373 -0.9056 -0.6895
  225MPD1    C2 3468   0.441   2.654  12.492 -0.4614  0.1495 -0.0428
  225MPD1    C3 3469   0.364   2.680  12.602 -0.0304  0.5441  0.4488
  225MPD1    C4 3470   0.425   2.750  12.704 -0.0891  0.2764 -0.4423
  225MPD1    C5 3471   0.553   2.788  12.693 -0.2427  0.5099 -0.0591
  225MPD1     H 3472   0.396   2.617  12.401  1.4453 -0.2736 -0.8304
  225MPD1    H1 3473   0.367   2.793  12.785 -0.8833 -3.2418  0.8444
  225MPD1    H2 3474   0.735   2.767  12.592  0.3495  1.3923 -1.6201
  225MPD1    H3 3475   0.598   2.855  12.766  0.0921 -0.7403  0.8706
  225MPD1     N 3476   0.227   2.659  12.620 -0.0573  0.2231  0.7936
  225MPD1    H5 3477   0.181   2.683  12.707  0.0111  0.5653  0.7329
  225MPD1    N1 3478   0.653   2.641  12.376  0.5180  0.1832  0.0022
  225MPD1    H6 3479   0.753   2.630  12.389  0.8655  1.3112 -1.6995
  225MPD1    H7 3480   0.622   2.553  12.335 -2.9259  0.3135  2.2929
  226MPD1     C 3481   4.079   3.547  10.036  0.3560 -0.1344 -0.4447
  226MPD1    C1 3482   4.083   3.444  10.127 -0.7664  0.0249 -0.0931
  226MPD1    C2 3483   3.992   3.345  10.109  0.4144 -0.1542 -0.2819
  226MPD1    C3 3484   3.904   3.343  10.004  0.2485  0.1415  0.7225
  226MPD1    C4 3485   3.907   3.442   9.910  0.2830 -0.2571  0.4845
  226MPD1    C5 3486   3.998   3.546   9.930 -0.0101  0.2138 -0.1397
  226MPD1     H 3487   3.981   3.266  10.182  1.3305  0.6994  0.7899
  226MPD1    H1 3488   3.840   3.453   9.826 -0.0840 -1.7449  0.5689
  226MPD1    H2 3489   4.137   3.636  10.058  0.0490  0.0120 -0.2381
  226MPD1    H3 3490   4.004   3.632   9.864  2.9360 -0.0296 -0.1629
  226MPD1     N 3491   3.816   3.236  10.015 -0.3718 -0.0246  0.8749
  226MPD1    H5 3492   3.831   3.168  10.089  1.2826 -0.9675 -0.3263
  226MPD1    N1 3493   4.148   3.459  10.251 -0.6292  0.2907  0.0628
  226MPD1    H6 3494   4.183   3.369  10.284 -4.7102 -1.8184 -1.2895
  226MPD1    H7 3495   4.220   3.530  10.254 -0.7117  0.3765  0.0071
  227MPD1     C 3496   3.608   2.765  10.687 -0.1906 -0.1258  0.3379
  227MPD1    C1 3497   3.672   2.880  10.651 -0.6479 -0.5598  0.0593
  227MPD1    C2 3498   3.694   2.906  10.523 -0.7543  1.1390 -0.1964
  227MPD1    C3 3499   3.654   2.819  10.419 -0.6796  0.2748 -0.1504
  227MPD1    C4 3500   3.578   2.709  10.452 -0.4795  0.6642 -0.1400
  227MPD1    C5 3501   3.555   2.679  10.588 -0.0245 -0.3132  0.3939
  227MPD1     H 3502   3.743   2.998  10.492 -1.0740  0.9723 -1.2070
  227MPD1    H1 3503   3.537   2.641  10.378 -0.1359 -0.0858  0.3625
  227MPD1    H2 3504   3.594   2.749  10.794  0.4111 -1.8765  0.1459
  227MPD1    H3 3505   3.504   2.588  10.615 -1.4672  0.1038 -0.9019
  227MPD1     N 3506   3.684   2.861  10.283 -0.3891  0.0344  0.4482
  227MPD1    H5 3507   3.735   2.947  10.266 -0.2172 -0.1087  0.2376
  227MPD1    N1 3508   3.709   2.974  10.748  0.1686 -0.4876  0.3878
  227MPD1    H6 3509   3.670   2.966  10.841 -1.9829  1.6762 -0.3201
  227MPD1    H7 3510   3.804   3.009  10.739 -0.6048  1.8409  1.2647
  228MPD1     C 3511   2.302   0.425  12.735  0.8959 -0.5020  0.5408
  228MPD1    C1 3512   2.259   0.298  12.757  0.4207 -0.2217  0.2751
  228MPD1    C2 3513   2.121   0.277  12.771 -0.9934 -0.0145  0.7900
  228MPD1    C3 3514   2.030   0.378  12.744 -0.8417  0.6364  0.4121
  228MPD1    C4 3515   2.074   0.503  12.705  0.3832 -0.6160  0.3996
  228MPD1    C5 3516   2.211   0.527  12.718 -0.5851  0.5516  0.3424
  228MPD1     H 3517   2.093   0.174  12.791 -0.8549 -0.4477 -1.2066
  228MPD1    H1 3518   2.017   0.593  12.683  1.3127 -0.5368 -1.6331
  228MPD1    H2 3519   2.408   0.448  12.737  0.5238  0.9828  2.5003
  228MPD1    H3 3520   2.238   0.631  12.702  1.2806  0.3978  2.4484
  228MPD1     N 3521   1.887   0.355  12.747  0.3424 -0.1501 -0.0310
  228MPD1    H5 3522   1.854   0.261  12.765 -1.2150  0.3145 -0.4785
  228MPD1    N1 3523   2.345   0.191  12.767  0.2324  0.0420 -0.6894
  228MPD1    H6 3524   2.436   0.203  12.723  0.9836 -0.2933  0.7723
  228MPD1    H7 3525   2.299   0.101  12.757 -0.9626  0.5540  0.2641
  229MPD1     C 3526   1.753   3.688  15.953 -0.2083 -0.4308 -0.4213
  229MPD1    C1 3527   1.857   3.639  16.024 -0.3992  0.2515  1.2698
  229MPD1    C2 3528   1.926   3.532  15.984  0.4365 -0.2498 -0.0567
  229MPD1    C3 3529   1.898   3.470  15.863  0.1584 -0.1025 -0.1297
  229MPD1    C4 3530   1.789   3.512  15.794  0.6785  0.7700 -0.0723
  229MPD1    C5 3531   1.718   3.615  15.839  0.3485 -0.1011 -0.8638
  229MPD1     H 3532   1.999   3.486  16.049  2.2025  1.6240 -0.7241
  229MPD1    H1 3533   1.767   3.470  15.696 -1.6318  2.0352 -0.0889
  229MPD1    H2 3534   1.708   3.784  15.973  0.3925 -0.2468  0.0239
  229MPD1    H3 3535   1.632   3.651  15.783 -0.3207  0.2313  0.3855
  229MPD1     N 3536   1.968   3.358  15.816 -0.1846 -0.2212  0.1051
  229MPD1    H5 3537   1.938   3.312  15.731  1.0747  1.6742 -1.3483
  229MPD1    N1 3538   1.900   3.708  16.131 -0.1207  0.0602  0.7256
  229MPD1    H6 3539   1.932   3.645  16.204 -0.7005  0.2756  1.1646
  229MPD1    H7 3540   1.837   3.776  16.173  0.5433  1.7225 -0.9556
  230MPD1     C 3541   2.538   2.443  15.977  0.6904  0.3379  0.1751
  230MPD1    C1 3542   2.575   2.485  15.852  0.0669  0.6811 -0.4398
  230MPD1    C2 3543   2.536   2.618  15.819  0.6292 -0.3649 -0.3777
  230MPD1    C3 3544   2.439   2.681  15.888 -0.6357  0.4429  0.3927
  230MPD1    C4 3545   2.393   2.621  16.003 -0.3255  0.2221 -0.7879
  230MPD1    C5 3546   2.445   2.508  16.051  0.0685 -0.4300  0.3522
  230MPD1     H 3547   2.583   2.669  15.735 -1.3015  0.3035 -1.0445
  230MPD1    H1 3548   2.316   2.670  16.061 -0.1213  0.1409 -0.4476
  230MPD1    H2 3549   2.577   2.348  16.012  3.1709  1.6770  1.0575
  230MPD1    H3 3550   2.431   2.461  16.147 -0.6274 -0.9981 -0.0269
  230MPD1     N 3551   2.405   2.811  15.838  0.0890 -0.1686 -0.3586
  230MPD1    H5 3552   2.438   2.838  15.746  0.7327  0.3553  0.0279
  230MPD1    N1 3553   2.687   2.419  15.789 -0.0182 -0.1660  0.2660
  230MPD1    H6 3554   2.677   2.433  15.689  0.4720  2.8170  0.6257
  230MPD1    H7 3555   2.697   2.319  15.801 -0.0533 -0.3781 -1.4111
  231MPD1     C 3556   4.683   0.272  16.049  0.0088 -0.2499  0.1946
  231MPD1    C1 3557   4.637   0.250  15.920 -0.2025 -0.4545  0.3625
  231MPD1    C2 3558   4.717   0.284  15.815 -0.4301  0.1604 -0.4298
  231MPD1    C3 3559   0.095   0.354  15.826 -0.1793 -0.2678  0.4066
  231MPD1    C4 3560   0.134   0.392  15.954 -0.0435 -0.2552 -0.2218
  231MPD1    C5 3561   0.050   0.357  16.056 -0.9490  0.1305  0.3617
  231MPD1     H 3562   4.690   0.262  15.713  0.2998  0.6400 -0.7262
  231MPD1    H1 3563   0.224   0.445  15.980  0.4578 -1.3079  0.1760
  231MPD1    H2 3564   4.629   0.263  16.142 -0.6131  0.7587 -0.0647
  231MPD1    H3 3565   0.087   0.380  16.156  0.1951 -0.3890  0.0641
  231MPD1     N 3566   0.158   0.395  15.710  0.1068 -0.5228 -0.0179
  231MPD1    H5 3567   0.118   0.371  15.619 -1.4886 -0.8724  0.7832
  231MPD1    N1 3568   4.521   0.178  15.907  0.6151  0.5843  0.0814
  231MPD1    H6 3569   4.478   0.208  15.819  0.4160  0.8548  0.2716
  231MPD1    H7 3570   4.458   0.202  15.983  0.8739  0.0181  0.4706
  232MPD1     C 3571   0.866   1.907   1.369 -0.0732 -0.0788 -0.0533
  232MPD1    C1 3572   0.987   1.920   1.299 -0.0400  0.6957 -0.2557
  232MPD1    C2 3573   0.990   1.880   1.170  0.0351 -0.4258 -0.2063
  232MPD1    C3 3574   0.891   1.804   1.118 -0.4297  0.9218  0.1613
  232MPD1    C4 3575   0.782   1.779   1.190  0.2771  0.0718  0.3038
  232MPD1    C5 3576   0.770   1.824   1.317 -0.5000 -0.6467  0.4936
  232MPD1     H 3577   1.077   1.902   1.109  0.9313  0.8982  1.5752
  232MPD1    H1 3578   0.699   1.722   1.150 -0.1564  0.9249 -0.0301
  232MPD1    H2 3579   0.859   1.949   1.469 -1.1530  0.2314 -0.2645
  232MPD1    H3 3580   0.677   1.802   1.369  0.5030 -0.8094  2.2313
  232MPD1     N 3581   0.906   1.753   0.985  0.6309 -0.1948 -0.5992
  232MPD1    H5 3582   1.000   1.774   0.951  0.7643  0.1156 -0.0223
  232MPD1    N1 3583   1.090   1.995   1.349  0.0300  0.0296 -0.0688
  232MPD1    H6 3584   1.179   1.950   1.328  0.3752  0.8741 -0.4216
  232MPD1    H7 3585   1.089   1.985   1.450  0.2094  1.4815  0.0750
  233MPD1     C 3586   2.646   1.193   1.028  0.7753 -0.1186 -0.0315
  233MPD1    C1 3587   2.651   1.072   1.096  0.1772 -0.3650  0.3489
  233MPD1    C2 3588   2.762   0.992   1.075 -0.1270 -0.0639 -0.0823
  233MPD1    C3 3589   2.859   1.030   0.984  0.2846  0.7807 -0.6180
  233MPD1    C4 3590   2.847   1.147   0.917  0.1987 -0.6434  0.2498
  233MPD1    C5 3591   2.744   1.233   0.941  0.0989  0.1442 -0.0080
  233MPD1     H 3592   2.764   0.900   1.133  1.5233 -1.3650 -2.1785
  233MPD1    H1 3593   2.925   1.172   0.846  0.5474 -0.5646  0.6583
  233MPD1    H2 3594   2.560   1.256   1.045  1.9724  1.7294 -0.7598
  233MPD1    H3 3595   2.734   1.332   0.898 -1.3647 -0.2238 -0.5170
  233MPD1     N 3596   2.968   0.946   0.959 -0.0189  0.7772 -0.0013
  233MPD1    H5 3597   3.041   0.973   0.893  0.3507 -0.7375 -0.2088
  233MPD1    N1 3598   2.555   1.041   1.194  0.0153 -0.2049 -0.7731
  233MPD1    H6 3599   2.532   0.944   1.174 -2.0408  0.0453  0.2821
  233MPD1    H7 3600   2.463   1.078   1.170 -0.0914  2.1090  3.2464
  234MPD1     C 3601   4.453   4.665   9.920 -0.1146 -0.9818  0.5173
  234MPD1    C1 3602   4.496   0.035   9.990  0.8769 -0.3653 -0.4005
  234MPD1    C2 3603   4.467   0.161   9.951 -0.0252 -0.3113 -0.0415
  234MPD1    C3 3604   4.409   0.181   9.829  0.1152  0.3772 -0.3092
  234MPD1    C4 3605   4.378   0.071   9.748 -0.0892  0.9698 -0.9282
  234MPD1    C5 3606   4.407   4.687   9.793 -0.6812  0.4094 -0.4359
  234MPD1     H 3607   4.503   0.242  10.014 -1.8551  1.3090 -1.0644
  234MPD1    H1 3608   4.347   0.083   9.645 -0.8602 -0.3714 -0.8552
  234MPD1    H2 3609   4.475   4.564   9.952 -2.3313 -2.3772 -2.2773
  234MPD1    H3 3610   4.385   4.605   9.724  1.3032  0.4789 -1.1667
  234MPD1     N 3611   4.384   0.323   9.800 -0.0668  0.3989 -0.4464
  234MPD1    H5 3612   4.414   0.395   9.865  2.9066 -0.1199 -1.2270
  234MPD1    N1 3613   4.533   0.004  10.124  0.2290 -0.1334 -0.4373
  234MPD1    H6 3614   4.571   4.649  10.124  2.5215  0.7663 -2.5577
  234MPD1    H7 3615   4.597   0.076  10.156  0.6666 -0.3092 -0.9045
  235MPD1     C 3616   0.853   2.613  10.564  0.3128 -0.5383 -0.0840
  235MPD1    C1 3617   0.760   2.700  10.511 -1.2140  0.2027 -0.0578
  235MPD1    C2 3618   0.809   2.824  10.477 -0.2567  0.8832  0.0966
  235MPD1    C3 3619   0.928   2.882  10.520 -0.1950 -0.6660 -0.0795
  235MPD1    C4 3620   1.008   2.793  10.589 -0.4751 -0.2272  0.3547
  235MPD1    C5 3621   0.968   2.664  10.607 -0.1258  0.6701  0.5244
  235MPD1     H 3622   0.739   2.886  10.423 -1.2878 -0.1197  0.2811
  235MPD1    H1 3623   1.108   2.821  10.619 -0.3338 -1.6665  1.2185
  235MPD1    H2 3624   0.835   2.508  10.582  2.1961 -0.5196  2.0203
  235MPD1    H3 3625   1.046   2.601  10.647 -1.0656 -0.3166  0.7878
  235MPD1     N 3626   0.970   3.015  10.483 -0.1512  0.3131  0.3838
  235MPD1    H5 3627   0.906   3.065  10.423  0.6266  0.2382 -0.5043
  235MPD1    N1 3628   0.635   2.655  10.453 -0.2082 -0.3028 -0.2287
  235MPD1    H6 3629   0.603   2.574  10.506  2.1429 -0.7543  0.5288
  235MPD1    H7 3630   0.563   2.725  10.462 -0.2712 -0.1704 -1.8261
  236MPD1     C 3631   4.722   3.760  10.047 -0.0125  0.1640  0.9895
  236MPD1    C1 3632   0.035   3.641  10.100 -0.1930 -0.7142  0.2525
  236MPD1    C2 3633   0.068   3.640  10.234 -0.7854  0.1628  0.2160
  236MPD1    C3 3634   0.056   3.750  10.314  0.8911 -0.4366  0.2591
  236MPD1    C4 3635   0.016   3.870  10.259  0.3057 -0.0722  0.2617
  236MPD1    C5 3636   4.729   3.872  10.124  0.9097 -0.3418  0.0361
  236MPD1     H 3637   0.094   3.543  10.277 -0.4764 -0.3104 -1.0477
  236MPD1    H1 3638   4.739   3.960  10.318  3.1515 -0.0099  0.9305
  236MPD1    H2 3639   4.689   3.773   9.944  0.0402 -2.2991  0.6678
  236MPD1    H3 3640   4.692   3.965  10.082  0.4315 -0.7974 -0.5486
  236MPD1     N 3641   0.098   3.757  10.448 -0.1172 -0.2928 -0.1906
  236MPD1    H5 3642   0.096   3.850  10.490  3.7750  1.1202 -3.1157
  236MPD1    N1 3643   0.033   3.518  10.033 -0.3713 -0.0197 -0.6691
  236MPD1    H6 3644   0.045   3.531   9.933 -0.8911  0.1145 -0.7161
  236MPD1    H7 3645   0.102   3.449  10.063 -2.1538 -1.1556  0.8826
  237MPD1     C 3646   0.296   2.213  13.962 -0.3875  1.0749 -0.2575
  237MPD1    C1 3647   0.366   2.149  14.061  0.4599 -0.3984  0.0083
  237MPD1    C2 3648   0.309   2.128  14.187  0.4560  0.0278  0.1174
  237MPD1    C3 3649   0.174   2.149  14.214 -0.3466 -0.0534 -0.0515
  237MPD1    C4 3650   0.104   2.190  14.103  0.8772 -0.6739  0.1581
  237MPD1    C5 3651   0.161   2.222  13.980  0.0642  0.1303  0.3033
  237MPD1     H 3652   0.374   2.086  14.263  1.0075 -0.7440 -0.7909
  237MPD1    H1 3653   4.735   2.193  14.116  0.6672 -0.7855 -1.5612
  237MPD1    H2 3654   0.342   2.258  13.875 -2.3477  0.2190 -1.7292
  237MPD1    H3 3655   0.101   2.271  13.904 -2.4963 -1.5434  1.2475
  237MPD1     N 3656   0.111   2.147  14.339 -0.1384 -0.2770 -0.1237
  237MPD1    H5 3657   0.015   2.180  14.339  0.2353  0.8087 -2.1240
  237MPD1    N1 3658   0.504   2.134  14.048  0.3005 -0.7620 -0.3097
  237MPD1    H6 3659   0.543   2.131  13.954  1.8832  2.3758  0.2430
  237MPD1    H7 3660   0.535   2.049  14.094  0.3472 -0.2520  0.6159
  238MPD1     C 3661   2.379   0.559  14.948  0.1456  0.2295 -0.1703
  238MPD1    C1 3662   2.321   0.667  15.006 -0.5556  0.0630  0.2930
  238MPD1    C2 3663   2.189   0.683  14.987 -0.1765  0.5374 -0.6306
  238MPD1    C3 3664   2.111   0.584  14.931  0.2787  0.5576 -0.3007
  238MPD1    C4 3665   2.172   0.458  14.900  0.6442 -1.0437  0.6520
  238MPD1    C5 3666   2.305   0.448  14.902 -0.6769  0.3084 -0.2067
  238MPD1     H 3667   2.130   0.771  15.010  0.0679  0.4481  0.3518
  238MPD1    H1 3668   2.114   0.376  14.857  0.5146  0.9456 -2.9808
  238MPD1    H2 3669   2.487   0.555  14.939  0.0625  0.4496 -1.3266
  238MPD1    H3 3670   2.367   0.363  14.875  0.4588  1.7909 -2.2049
  238MPD1     N 3671   1.975   0.599  14.899  0.3982 -0.4398 -0.2624
  238MPD1    H5 3672   1.932   0.515  14.860 -0.2010 -0.1278 -0.2801
  238MPD1    N1 3673   2.395   0.787  15.028  0.5858  0.3921  0.0489
  238MPD1    H6 3674   2.342   0.845  15.092  0.6094 -1.6049  1.8975
  238MPD1    H7 3675   2.491   0.772  15.059  0.4829  2.0236  1.0904
  239MPD1     C 3676   2.159   1.566  15.049  0.3025  0.1342  0.0719
  239MPD1    C1 3677   2.239   1.655  14.992  0.3763  0.5926  0.9805
  239MPD1    C2 3678   2.214   1.699  14.865  0.3883  0.4249 -0.4582
  239MPD1    C3 3679   2.124   1.635  14.786  0.5725 -0.3730  1.1141
  239MPD1    C4 3680   2.047   1.539  14.844  0.3980  0.0096  0.1516
  239MPD1    C5 3681   2.059   1.509  14.979  0.1806 -0.7025  0.4026
  239MPD1     H 3682   2.257   1.789  14.823 -0.0711  0.1987 -1.4056
  239MPD1    H1 3683   1.971   1.493  14.781  0.2717 -1.2661  1.2262
  239MPD1    H2 3684   2.167   1.538  15.153 -0.2795  0.4712  0.2074
  239MPD1    H3 3685   1.994   1.436  15.026 -0.4916 -0.8056 -0.6716
  239MPD1     N 3686   2.094   1.674  14.651 -0.1658 -0.0415  0.1895
  239MPD1    H5 3687   2.008   1.642  14.608  0.9050 -0.6913 -1.4470
  239MPD1    N1 3688   2.321   1.731  15.077  0.2354  0.4676  0.6195
  239MPD1    H6 3689   2.372   1.677  15.146  1.0219 -0.7540 -0.9192
  239MPD1    H7 3690   2.393   1.772  15.018  1.1267 -1.5785  0.2944
  240MPD1     C 3691   1.730   1.741  14.006 -0.7570 -1.2224  0.3209
  240MPD1    C1 3692   1.602   1.735  13.965  0.3963 -0.3483 -0.5100
  240MPD1    C2 3693   1.513   1.650  14.037  0.7353 -0.1601 -0.8612
  240MPD1    C3 3694   1.572   1.563  14.134 -0.0287  0.2864  0.1346
  240MPD1    C4 3695   1.702   1.564  14.169 -0.1530  0.0655  0.2740
  240MPD1    C5 3696   1.776   1.653  14.101  0.1141  0.5897  0.4056
  240MPD1     H 3697   1.405   1.648  14.032  0.7892 -1.4081 -1.7360
  240MPD1    H1 3698   1.742   1.504  14.249 -0.4699  0.7578  0.9448
  240MPD1    H2 3699   1.800   1.812  13.963 -1.7764 -0.6541 -0.3995
  240MPD1    H3 3700   1.879   1.671  14.131  0.1996 -0.1924  0.5779
  240MPD1     N 3701   1.486   1.468  14.200  0.1024 -0.2800 -0.1621
  240MPD1    H5 3702   1.396   1.458  14.156 -0.7713 -1.3839  1.8401
  240MPD1    N1 3703   1.554   1.837  13.886 -0.6289  0.3519 -0.4001
  240MPD1    H6 3704   1.454   1.836  13.868 -0.4121  1.8340 -1.6518
  240MPD1    H7 3705   1.606   1.849  13.799  2.2586 -0.3773  1.2160
  241MPD1     C 3706   1.378   0.738  15.025 -0.1785  0.3217  0.6444
  241MPD1    C1 3707   1.462   0.851  15.019 -0.1922  0.5486 -0.0267
  241MPD1    C2 3708   1.438   0.933  14.912  0.3050 -0.0143 -0.3163
  241MPD1    C3 3709   1.341   0.900  14.811  0.1080  0.7826  0.0276
  241MPD1    C4 3710   1.263   0.787  14.822 -0.6826  0.3797 -0.3951
  241MPD1    C5 3711   1.283   0.708  14.928  0.0970 -0.5507  0.3563
  241MPD1     H 3712   1.501   1.018  14.886  1.5871 -0.8973 -0.0982
  241MPD1    H1 3713   1.202   0.767  14.735  1.5683 -1.1125 -1.6173
  241MPD1    H2 3714   1.382   0.666  15.106  0.1591 -0.4284 -0.0428
  241MPD1    H3 3715   1.234   0.611  14.934  1.2099 -1.0670  0.9951
  241MPD1     N 3716   1.329   0.979  14.694  0.0624  0.2675  0.0841
  241MPD1    H5 3717   1.274   0.939  14.618  0.8387 -1.3926  0.3827
  241MPD1    N1 3718   1.571   0.872  15.109 -0.2016  0.3615  0.1622
  241MPD1    H6 3719   1.595   0.971  15.116 -2.4569  0.8315  1.3658
  241MPD1    H7 3720   1.554   0.835  15.202 -2.4886 -3.3861 -1.7600
  242MPD1     C 3721   1.564   4.587  15.356 -0.2138 -0.3441  0.2352
  242MPD1    C1 3722   1.669   4.519  15.297  0.1569 -0.0325  0.6409
  242MPD1    C2 3723   1.658   4.382  15.302 -0.1573  0.1700  0.1445
  242MPD1    C3 3724   1.542   4.320  15.345 -0.3026  0.6482 -0.3606
  242MPD1    C4 3725   1.433   4.394  15.392 -0.1529 -0.0903  0.0914
  242MPD1    C5 3726   1.450   4.530  15.398  0.0113  0.4018  0.0922
  242MPD1     H 3727   1.734   4.314  15.265  0.0648 -0.1348  1.1701
  242MPD1    H1 3728   1.337   4.351  15.419  0.4572 -0.4175  1.7303
  242MPD1    H2 3729   1.563   4.695  15.365  0.5676 -0.4815  2.0488
  242MPD1    H3 3730   1.372   4.601  15.423  0.8060  1.7196 -1.2200
  242MPD1     N 3731   1.526   4.176  15.347 -0.1294  0.5430  0.2027
  242MPD1    H5 3732   1.433   4.145  15.372  0.3979  0.4032  1.9511
  242MPD1    N1 3733   1.794   4.581  15.279 -0.1087 -0.3011  1.1945
  242MPD1    H6 3734   1.797   4.680  15.254  1.2937 -0.5854  0.2506
  242MPD1    H7 3735   1.857   4.521  15.227 -3.3740 -0.9969 -1.9624
  243MPD1     C 3736   2.617   3.067  17.736 -0.0570  0.0428 -0.5575
  243MPD1    C1 3737   2.727   3.011   0.049  0.8062  0.3456  0.2866
  243MPD1    C2 3738   2.794   2.910  17.743  0.2297  0.1642 -0.2331
  243MPD1    C3 3739   2.756   2.855  17.620  0.6325  0.4169 -0.5186
  243MPD1    C4 3740   2.650   2.912  17.557 -0.2604 -0.4080  0.3990
  243MPD1    C5 3741   2.583   3.021  17.612 -0.4010 -0.1933 -0.5503
  243MPD1     H 3742   2.878   2.871   0.046  0.0011 -0.8762 -0.5961
  243MPD1    H1 3743   2.605   2.884  17.462  1.0471  1.1031 -0.6907
  243MPD1    H2 3744   2.564   3.152   0.022 -2.4482 -0.7911 -1.9407
  243MPD1    H3 3745   2.499   3.059  17.556  0.0847 -0.6303 -1.5757
  243MPD1     N 3746   2.827   2.759  17.545  0.7852 -0.4132 -0.1020
  243MPD1    H5 3747   2.920   2.733  17.576  0.5669  0.1898  1.0965
  243MPD1    N1 3748   2.775   3.074   0.163  0.7244  0.1185 -0.5106
  243MPD1    H6 3749   2.816   3.013   0.234  0.0433  2.9865  2.3186
  243MPD1    H7 3750   2.706   3.139   0.200  0.0204 -0.2892 -1.0972
  244MPD1     C 3751   3.364   1.925  17.541  0.4516  0.1271  0.2191
  244MPD1    C1 3752   3.396   1.968  17.411  0.5858  0.0017  0.9413
  244MPD1    C2 3753   3.346   2.090  17.376 -0.0811 -0.1566 -0.3969
  244MPD1    C3 3754   3.268   2.168  17.468  0.0355 -0.1353 -0.4172
  244MPD1    C4 3755   3.243   2.128  17.595 -0.5350  0.0335  0.0409
  244MPD1    C5 3756   3.291   2.004  17.631 -0.6363  0.4392  0.2538
  244MPD1     H 3757   3.356   2.132  17.276  0.6946  2.1840  0.6733
  244MPD1    H1 3758   3.181   2.182  17.665  0.1451  0.4751  0.3060
  244MPD1    H2 3759   3.397   1.830  17.580 -1.2969  0.0048  1.4181
  244MPD1    H3 3760   3.278   1.966  17.731 -0.5757 -0.0182  0.0863
  244MPD1     N 3761   3.210   2.284  17.411  0.1197 -0.4510  0.1144
  244MPD1    H5 3762   3.235   2.303  17.314  1.6045 -0.3614  0.5302
  244MPD1    N1 3763   3.470   1.883  17.324  0.0278 -0.7118 -0.3749
  244MPD1    H6 3764   3.508   1.933  17.243 -0.4429 -0.4485 -0.4336
  244MPD1    H7 3765   3.553   1.843  17.366 -0.4550  1.9454  3.0465
  245MPD1     C 3766   0.105   3.703  12.651  0.1027  0.2991  0.7606
  245MPD1    C1 3767   0.225   3.710  12.719 -0.3294 -0.1905 -0.6135
  245MPD1    C2 3768   0.216   3.761  12.846 -0.5723 -0.2663  0.2586
  245MPD1    C3 3769   0.095   3.790  12.909 -0.3825  0.4201  0.0134
  245MPD1    C4 3770   4.718   3.772  12.845  0.4179 -0.7205  0.1196
  245MPD1    C5 3771   4.727   3.723  12.720  0.5096  0.1816 -0.2391
  245MPD1     H 3772   0.302   3.784  12.908 -0.4839  0.7992 -0.2618
  245MPD1    H1 3773   4.624   3.786  12.897 -0.1533  1.6991 -1.5783
  245MPD1    H2 3774   0.101   3.670  12.548  2.9709  1.0645  0.4111
  245MPD1    H3 3775   4.631   3.708  12.671 -0.3116  0.6856  1.2089
  245MPD1     N 3776   0.114   3.838  13.038 -0.2324 -0.2330 -0.1014
  245MPD1    H5 3777   0.209   3.832  13.073 -0.4352 -3.1962 -0.0368
  245MPD1    N1 3778   0.344   3.679  12.648 -0.6430 -0.3233 -0.4026
  245MPD1    H6 3779   0.419   3.658  12.714 -0.2679 -0.1498 -0.7743
  245MPD1    H7 3780   0.338   3.593  12.594 -0.0951 -1.7677  1.8210
  246MPD1     C 3781   4.604   2.443   9.651 -0.1981 -0.1397  0.2476
  246MPD1    C1 3782   4.735   2.437   9.705  0.1259  0.2568  1.1922
  246MPD1    C2 3783   0.024   2.525   9.808  0.5664  0.4494 -0.6463
  246MPD1    C3 3784   4.665   2.609   9.866 -0.0648  0.5279  0.3605
  246MPD1    C4 3785   4.536   2.600   9.824 -0.1273 -0.2384 -0.3651
  246MPD1    C5 3786   4.513   2.512   9.720 -0.1521  0.5816  0.0959
  246MPD1     H 3787   0.130   2.544   9.821  0.9332 -3.4718  2.0495
  246MPD1    H1 3788   4.464   2.677   9.850 -0.0393 -0.3345  0.1546
  246MPD1    H2 3789   4.564   2.391   9.564  4.0031 -1.2488 -0.9805
  246MPD1    H3 3790   4.416   2.521   9.672 -1.4269  0.8672  2.7303
  246MPD1     N 3791   4.714   2.719   9.949  0.2154  0.3396  0.1205
  246MPD1    H5 3792   0.075   2.738   9.944  0.2625  0.4304  1.4906
  246MPD1    N1 3793   0.101   2.375   9.632 -0.3992  0.4560 -0.1557
  246MPD1    H6 3794   0.184   2.362   9.689  0.3504 -2.3367 -1.8846
  246MPD1    H7 3795   0.071   2.287   9.592 -0.1327 -0.0851  0.8504
  247MPD1     C 3796   4.313   2.944  17.131 -0.2843 -0.1231  0.1230
  247MPD1    C1 3797   4.272   2.813  17.108  0.4925 -0.2129 -0.4766
  247MPD1    C2 3798   4.308   2.752  16.987  0.5819 -0.4863 -0.6071
  247MPD1    C3 3799   4.393   2.818  16.889  0.7017 -0.5088 -0.1771
  247MPD1    C4 3800   4.440   2.941  16.919  0.4862 -0.1477 -0.1477
  247MPD1    C5 3801   4.395   3.004  17.038  0.5521  0.1445 -0.3337
  247MPD1     H 3802   4.261   2.658  16.961 -0.8316  0.4525 -1.4486
  247MPD1    H1 3803   4.504   2.994  16.850 -1.9382  2.4497 -0.3674
  247MPD1    H2 3804   4.291   2.996  17.224 -0.2741 -0.0310  0.0732
  247MPD1    H3 3805   4.436   3.103  17.055 -1.9702  1.3210 -0.9725
  247MPD1     N 3806   4.418   2.762  16.763  0.2524 -0.0704  0.4261
  247MPD1    H5 3807   4.474   2.813  16.695 -1.0334  2.4810  1.2998
  247MPD1    N1 3808   4.184   2.752  17.191  0.6619  0.1120  0.6751
  247MPD1    H6 3809   4.197   2.651  17.188  1.0867  0.1201  2.0581
  247MPD1    H7 3810   4.179   2.784  17.288 -1.0959 -2.1211  1.3218
  248MPD1     C 3811   0.577   1.972   0.237 -0.4172 -0.3483 -0.5895
  248MPD1    C1 3812   0.442   1.972   0.237  0.5489  0.3155 -0.5883
  248MPD1    C2 3813   0.379   2.074   0.300 -0.2457  0.1325 -0.2906
  248MPD1    C3 3814   0.452   2.153   0.388 -0.0933  0.8396 -0.3206
  248MPD1    C4 3815   0.594   2.151   0.388  0.1982 -0.3058  0.0603
  248MPD1    C5 3816   0.657   2.059   0.308  0.1690  0.4150  0.9771
  248MPD1     H 3817   0.271   2.086   0.300 -0.2892 -0.2055  0.7342
  248MPD1    H1 3818   0.650   2.226   0.442 -2.0836  0.9392  0.7067
  248MPD1    H2 3819   0.634   1.902   0.177 -0.2713 -1.5433  0.9574
  248MPD1    H3 3820   0.765   2.057   0.298  0.1403 -0.0664  0.7723
  248MPD1     N 3821   0.379   2.241   0.468  0.0294 -0.5741  0.0172
  248MPD1    H5 3822   0.280   2.239   0.445  0.1079  1.9038 -0.4930
  248MPD1    N1 3823   0.370   1.889   0.146 -0.3199 -0.6216 -0.1155
  248MPD1    H6 3824   0.279   1.869   0.186  0.3872  0.6012  2.0769
  248MPD1    H7 3825   0.400   1.792   0.135 -1.9105 -1.3496  1.9890
  249MPD1     C 3826   0.664   2.000   9.588 -0.1920  0.4340 -0.4711
  249MPD1    C1 3827   0.631   1.918   9.694  0.2466  0.7411  0.6891
  249MPD1    C2 3828   0.724   1.902   9.795  0.1666  0.0929 -0.4242
  249MPD1    C3 3829   0.841   1.980   9.808  0.3057  0.7715  0.9054
  249MPD1    C4 3830   0.873   2.057   9.702 -0.2935 -0.1661 -0.0645
  249MPD1    C5 3831   0.791   2.053   9.591 -0.2793 -0.1291  0.1802
  249MPD1     H 3832   0.706   1.841   9.883 -0.8804  2.2801  0.8493
  249MPD1    H1 3833   0.950   2.133   9.710 -2.1138  2.0002 -3.3943
  249MPD1    H2 3834   0.612   2.005   9.493  2.2998  0.2703 -1.8249
  249MPD1    H3 3835   0.829   2.118   9.513  1.1059 -1.2119 -0.0366
  249MPD1     N 3836   0.927   1.972   9.923 -0.0014 -0.6453  0.0521
  249MPD1    H5 3837   0.891   1.909   9.994 -1.3513  0.8490  0.6986
  249MPD1    N1 3838   0.504   1.866   9.698  0.4570 -0.7432  0.5080
  249MPD1    H6 3839   0.500   1.779   9.752 -0.0811 -1.9916 -1.5399
  249MPD1    H7 3840   0.457   1.855   9.609 -0.7327  0.0483  1.0362
  250MPD2     C 3841   3.293   2.111  13.274 -0.6330  0.5676 -0.0498
  250MPD2    C1 3842   3.187   2.188  13.245 -0.2209 -0.2917 -0.4648
  250MPD2    C2 3843   3.064   2.131  13.230 -0.3415 -0.3384 -0.1193
  250MPD2    C3 3844   3.035   2.000  13.256  0.0435  0.3648  0.3692
  250MPD2    C4 3845   3.138   1.919  13.289  0.2756 -0.8134 -0.5004
  250MPD2    C5 3846   3.267   1.975  13.299  0.0469  0.5484  0.5528
  250MPD2     H 3847   2.981   2.195  13.203  0.9441  0.9976 -0.9139
  250MPD2    H1 3848   3.132   1.812  13.306 -0.4641 -0.3061  2.4089
  250MPD2    H2 3849   3.392   2.156  13.284  0.2179 -1.3280 -0.0397
  250MPD2    H3 3850   3.349   1.911  13.329 -1.1252 -1.6756 -1.0050
  250MPD2     N 3851   2.895   1.966  13.258 -0.0684 -0.2834  0.4642
  250MPD2    H5 3852   2.830   2.035  13.221  2.0879  0.5159 -1.8758
  250MPD2    N1 3853   3.213   2.325  13.217 -0.0527  0.0336  0.6467
  250MPD2    H7 3854   3.308   2.363  13.218  0.1899 -0.6131  3.1845
  251TMC3    C1 3855   3.169   2.546  13.179 -0.4078 -0.2266 -0.5031
  251TMC3    C2 3856   3.078   2.645  13.175  0.4237  0.2873 -0.0965
  251TMC3    C3 3857   3.119   2.775  13.164  0.5013  0.3396 -0.4510
  251TMC3    C4 3858   3.305   2.570  13.174  0.2474 -0.2057 -0.3094
  251TMC3    C5 3859   3.341   2.699  13.172 -0.1812  0.2563 -0.1261
  251TMC3    C6 3860   3.253   2.806  13.160 -0.8391  0.4236  1.1375
  251TMC3     C 3861   3.117   2.417  13.208  0.5691 -0.5708  1.2822
  251TMC3     O 3862   2.994   2.412  13.226 -0.6671  0.1024  0.3510
  251TMC3     H 3863   2.971   2.632  13.189  0.3560 -0.5914 -1.3572
  251TMC3    H1 3864   3.379   2.495  13.150 -0.0986 -1.1700  1.6197
  251TMC3    H2 3865   3.283   2.909  13.172  1.1546 -0.2352  1.8742
  251TMC3    C7 3866   3.488   2.717  13.152 -0.3171  0.0906 -0.6913
  251TMC3    C8 3867   3.017   2.877  13.164  0.4887 -0.1481 -0.1762
  251TMC3    O1 3868   3.555   2.615  13.174 -0.0475  0.8455 -0.6289
  251TMC3    O2 3869   2.916   2.849  13.233 -0.1140 -0.1997  0.1148
  252TMC3    C1 3870   3.598   3.612   9.677 -0.1743 -0.7958 -0.2922
  252TMC3    C2 3871   3.619   3.744   9.693  0.4113 -0.6176  0.8333
  252TMC3    C3 3872   3.602   3.804   9.811 -0.7747 -0.3162  0.0502
  252TMC3    C4 3873   3.550   3.536   9.775 -0.3326  0.0915  0.4341
  252TMC3    C5 3874   3.520   3.599   9.890  0.1606  0.0390  0.0521
  252TMC3    C6 3875   3.550   3.725   9.915  0.7437  0.0189  0.1552
  252TMC3     C 3876   3.640   3.549   9.550 -0.0730  0.3093 -1.1101
  252TMC3     O 3877   3.632   3.612   9.442 -0.3840 -0.0645 -0.0999
  252TMC3     H 3878   3.658   3.801   9.610 -2.8918 -1.0942 -1.0516
  252TMC3    H1 3879   3.526   3.431   9.765 -0.8018  0.2484 -0.0599
  252TMC3    H2 3880   3.521   3.773  10.007  1.4834  2.0242 -0.6550
  252TMC3    C7 3881   3.524   3.520  10.011 -0.8099 -0.8131  0.6974
  252TMC3    C8 3882   3.722   3.869   9.850  0.0472  0.1232 -0.0753
  252TMC3    O1 3883   3.596   3.561  10.098  0.2320 -0.1800  0.7617
  252TMC3    O2 3884   3.791   3.922   9.770  0.5581  0.7378 -0.0716
  253MPD2     C 3885   4.493   2.280  15.135 -1.5882  0.1885 -0.3940
  253MPD2    C1 3886   4.359   2.248  15.134  0.2163 -0.6934 -0.9080
  253MPD2    C2 3887   4.308   2.159  15.226  0.0513 -0.6434  0.6386
  253MPD2    C3 3888   4.385   2.089  15.315  0.4569 -0.2307 -0.4363
  253MPD2    C4 3889   4.508   2.133  15.330 -0.5938  0.2441  0.3074
  253MPD2    C5 3890   4.561   2.220  15.231 -0.4206 -0.3979 -0.0244
  253MPD2     H 3891   4.200   2.147  15.230  0.0187 -0.8357 -1.0389
  253MPD2    H1 3892   4.566   2.092  15.412  0.0712 -0.3138 -0.4473
  253MPD2    H2 3893   4.537   2.347  15.061 -0.2579  1.0544  1.1868
  253MPD2    H3 3894   4.668   2.236  15.231 -0.5142  0.2040  2.3936
  253MPD2     N 3895   4.334   1.993  15.404 -0.3289 -0.5493  0.0375
  253MPD2    H5 3896   4.396   1.962  15.478 -1.0574 -0.9313  0.4815
  253MPD2    N1 3897   4.259   2.296  15.036 -0.1860  0.3629  0.2403
  253MPD2    H7 3898   4.162   2.267  15.036 -0.8963  2.7662  1.2544
  254TMC3    C1 3899   4.156   1.882  15.526  0.0971 -0.4868  0.2431
  254TMC3    C2 3900   4.019   1.888  15.547  0.6116  0.2740 -0.7399
  254TMC3    C3 3901   3.964   1.806  15.643 -0.6303  0.6287 -0.3087
  254TMC3    C4 3902   4.230   1.770  15.574  0.0402  0.0863  0.4337
  254TMC3    C5 3903   4.163   1.679  15.654  0.0881  0.5950  0.0179
  254TMC3    C6 3904   4.036   1.702  15.700 -0.2311  0.2992  0.1285
  254TMC3     C 3905   4.199   1.951  15.407 -0.7528 -0.5133 -0.1769
  254TMC3     O 3906   4.112   1.974  15.324 -0.1212  0.1656 -1.2222
  254TMC3     H 3907   3.977   1.982  15.515  1.2279  1.7672  2.7924
  254TMC3    H1 3908   4.333   1.752  15.547 -0.3716 -0.5925 -0.6916
  254TMC3    H2 3909   3.991   1.638  15.775  1.1206  0.9528  1.4823
  254TMC3    C7 3910   4.243   1.588  15.734 -0.1260  0.5135  0.3278
  254TMC3    C8 3911   3.840   1.842  15.711 -0.0414  0.2728  0.0167
  254TMC3    O1 3912   4.186   1.544  15.832 -0.5750 -0.1359 -0.3725
  254TMC3    O2 3913   3.817   1.786  15.820  0.1977  0.0978  1.2702
  255MPD2     C 3914   1.607   0.146  10.425  0.0438 -0.0121 -0.0328
  255MPD2    C1 3915   1.710   0.182  10.507 -0.5295  0.7285 -0.9997
  255MPD2    C2 3916   1.836   0.115  10.495  1.2215 -0.0379  0.1363
  255MPD2    C3 3917   1.854   0.014  10.402  0.2165 -0.2084 -0.3482
  255MPD2    C4 3918   1.741   4.712  10.326  0.0965 -0.0156  0.3813
  255MPD2    C5 3919   1.620   0.039  10.346  0.8023  0.0599 -0.0971
  255MPD2     H 3920   1.928   0.151  10.539  0.8934  2.3713 -1.1219
  255MPD2    H1 3921   1.743   4.640  10.245  1.6392  1.5805 -1.0045
  255MPD2    H2 3922   1.513   0.200  10.434 -1.0229 -2.1444  1.4851
  255MPD2    H3 3923   1.535   0.010  10.285  1.4634  1.5571 -1.7334
  255MPD2     N 3924   1.987   4.716  10.365  0.3079  0.4698 -0.4019
  255MPD2    H5 3925   2.060   0.036  10.404  1.4033  0.0947 -1.8521
  255MPD2    N1 3926   1.707   0.300  10.582 -0.0956  0.2469  0.4740
  255MPD2    H7 3927   1.635   0.369  10.562  1.5764  1.9769  0.4496
  256TMC3    C1 3928   1.835   0.470  10.666  0.8540  0.9040 -0.0949
  256TMC3    C2 3929   1.971   0.490  10.645  0.1643  0.4548 -0.2460
  256TMC3    C3 3930   2.012   0.596  10.573  0.4887  0.3029 -0.0803
  256TMC3    C4 3931   1.751   0.555  10.607  0.8917  0.1582  0.2130
  256TMC3    C5 3932   1.790   0.662  10.532 -0.6132 -0.0343  0.0573
  256TMC3    C6 3933   1.925   0.673  10.501  0.0922  0.2312 -0.6805
  256TMC3     C 3934   1.803   0.335  10.678 -0.6194  0.0269  0.2013
  256TMC3     O 3935   1.876   0.261  10.745 -0.2486  0.1048 -0.2287
  256TMC3     H 3936   2.042   0.432  10.704 -0.1004 -0.0356 -0.4099
  256TMC3    H1 3937   1.646   0.543  10.632  1.1791 -0.2301  1.2394
  256TMC3    H2 3938   1.954   0.742  10.423  0.6185 -1.0455 -1.6125
  256TMC3    C7 3939   1.696   0.706  10.423  0.2575  0.4073 -0.0493
  256TMC3    C8 3940   2.141   0.577  10.508 -0.8084  0.6650 -0.7249
  256TMC3    O1 3941   1.610   0.623  10.388  0.0637  0.2038 -0.4118
  256TMC3    O2 3942   2.190   0.464  10.516 -0.5376  0.8978 -0.4066
  257MPD2     C 3943   1.821   2.300  13.414  0.4401 -1.0102 -0.0596
  257MPD2    C1 3944   1.772   2.221  13.308 -0.4194  0.0220  0.0520
  257MPD2    C2 3945   1.756   2.087  13.327 -0.2698 -0.6684  1.5988
  257MPD2    C3 3946   1.783   2.031  13.453  0.1213 -0.0675 -0.4477
  257MPD2    C4 3947   1.837   2.108  13.557 -0.3463  0.1630  0.7871
  257MPD2    C5 3948   1.859   2.239  13.536 -0.6491 -0.0143  1.5352
  257MPD2     H 3949   1.717   2.018  13.253  0.1034 -0.0193  0.8072
  257MPD2    H1 3950   1.860   2.069  13.656 -0.7258  0.7511  1.1150
  257MPD2    H2 3951   1.819   2.408  13.400  0.1466 -1.2060 -1.5643
  257MPD2    H3 3952   1.914   2.286  13.617  0.5855 -1.3347  1.4741
  257MPD2     N 3953   1.757   1.891  13.472 -1.2399 -0.0963  0.6789
  257MPD2    H5 3954   1.755   1.842  13.383  0.2069  0.3904  0.3758
  257MPD2    N1 3955   1.742   2.293  13.185  0.9694  0.3961 -0.2525
  257MPD2    H7 3956   1.751   2.394  13.181  2.1901  0.2646 -0.5725
  258TMC3    C1 3957   1.728   1.684  13.577 -0.0837  0.1453 -0.8775
  258TMC3    C2 3958   1.710   1.624  13.457  0.0090 -0.2521  0.2245
  258TMC3    C3 3959   1.728   1.489  13.436  0.1947  0.5102  0.2139
  258TMC3    C4 3960   1.770   1.613  13.679 -0.5750  0.2469 -0.4330
  258TMC3    C5 3961   1.773   1.482  13.666 -0.5468  0.0859  0.9699
  258TMC3    C6 3962   1.753   1.416  13.548 -0.4434 -0.4162  0.4789
  258TMC3     C 3963   1.744   1.826  13.591 -0.6670 -0.1626  0.1337
  258TMC3     O 3964   1.736   1.872  13.699 -0.7406  0.3809 -0.0170
  258TMC3     H 3965   1.696   1.679  13.365  0.2283  0.1612  0.4401
  258TMC3    H1 3966   1.787   1.658  13.776  0.4189 -0.6805 -0.1716
  258TMC3    H2 3967   1.760   1.308  13.555  2.3845 -0.2806 -0.4128
  258TMC3    C7 3968   1.819   1.395  13.780  0.1269  0.2989  0.3274
  258TMC3    C8 3969   1.645   1.435  13.333  0.1359  0.0319  0.2870
  258TMC3    O1 3970   1.782   1.280  13.782 -0.0913  0.3724 -0.0687
  258TMC3    O2 3971   1.625   1.509  13.239 -0.1259  0.0266  0.3548
  259MPD2     C 3972   0.804   2.527   0.414 -0.1060  0.5903 -0.6274
  259MPD2    C1 3973   0.913   2.533   0.493  1.0605  1.1538  0.2802
  259MPD2    C2 3974   1.020   2.465   0.453  0.1050 -0.5611  0.1366
  259MPD2    C3 3975   1.031   2.419   0.322  0.0919 -0.3532  0.0012
  259MPD2    C4 3976   0.921   2.436   0.237 -0.1764  0.3183  0.0882
  259MPD2    C5 3977   0.804   2.480   0.285 -0.7853 -0.6847  0.7679
  259MPD2     H 3978   1.097   2.446   0.527 -0.9680  1.4812  1.7687
  259MPD2    H1 3979   0.924   2.413   0.131 -2.0678 -0.3778  0.1923
  259MPD2    H2 3980   0.708   2.565   0.445 -1.9045 -5.1853  0.8485
  259MPD2    H3 3981   0.721   2.499   0.217 -0.8547  0.1497  1.0829
  259MPD2     N 3982   1.149   2.372   0.267 -0.3166  0.4648  0.2491
  259MPD2    H5 3983   1.228   2.356   0.329 -1.1073 -0.6906  0.9554
  259MPD2    N1 3984   0.902   2.611   0.608  0.0399 -0.0314  0.2207
  259MPD2    H7 3985   0.810   2.650   0.624 -0.7749 -0.8469 -2.6216
  260TMC3    C1 3986   1.314   2.316   0.107 -0.3920  0.2774  0.1744
  260TMC3    C2 3987   1.363   2.233   0.203 -0.9894  0.0330  0.8293
  260TMC3    C3 3988   1.490   2.191   0.185  0.4151  0.4093  0.3554
  260TMC3    C4 3989   1.384   2.359  17.752  0.6671 -0.1039  0.7081
  260TMC3    C5 3990   1.501   2.293  17.732 -0.6512 -0.1219  0.1763
  260TMC3    C6 3991   1.559   2.209   0.066 -0.7480 -0.2827 -0.1907
  260TMC3     C 3992   1.179   2.366   0.128 -0.0784  0.1151  0.5785
  260TMC3     O 3993   1.124   2.418   0.038  0.2005 -0.0127  0.6254
  260TMC3     H 3994   1.316   2.219   0.299 -0.0785 -1.0051  1.1180
  260TMC3    H1 3995   1.335   2.427  17.682 -0.6749  0.3001  2.0281
  260TMC3    H2 3996   1.647   2.151   0.041 -1.2749 -1.4360  0.6658
  260TMC3    C7 3997   1.569   2.310  17.605  0.2232  0.7523  0.2730
  260TMC3    C8 3998   1.552   2.121   0.293  0.0823 -0.3288  0.1690
  260TMC3    O1 3999   1.626   2.207  17.570  0.5119 -0.6284 -0.3533
  260TMC3    O2 4000   1.648   2.176   0.346 -0.2314 -0.1022 -0.3239
  261MPD2     C 4001   2.466   2.418  13.052 -0.0849  0.3113  0.7432
  261MPD2    C1 4002   2.433   2.289  13.018 -0.4898  0.6083 -0.0207
  261MPD2    C2 4003   2.377   2.257  12.894 -0.6746  0.6648  0.7289
  261MPD2    C3 4004   2.378   2.354  12.788 -0.0145 -0.1300 -0.0358
  261MPD2    C4 4005   2.426   2.477  12.823 -0.5578  0.0062 -0.1743
  261MPD2    C5 4006   2.467   2.512  12.951  0.0490 -0.5805 -0.2039
  261MPD2     H 4007   2.328   2.161  12.893  1.3603 -0.3786 -0.5071
  261MPD2    H1 4008   2.442   2.559  12.754  0.0296  0.7844  0.8881
  261MPD2    H2 4009   2.485   2.449  13.154 -1.2715  0.0638  1.0386
  261MPD2    H3 4010   2.492   2.611  12.987  1.1825 -0.5734 -1.0118
  261MPD2     N 4011   2.332   2.317  12.658  0.1431 -0.1290 -0.5454
  261MPD2    H5 4012   2.266   2.239  12.663  0.6427 -0.5739 -0.8193
  261MPD2    N1 4013   2.439   2.174  13.104  0.8605 -0.0524  0.4731
  261MPD2    H7 4014   2.385   2.097  13.067 -0.0112  0.0051  1.6481
  262TMC3    C1 4015   2.253   2.361  12.438  0.3035 -0.5302 -0.1104
  262TMC3    C2 4016   2.227   2.461  12.339 -0.4184  0.1367 -0.4103
  262TMC3    C3 4017   2.171   2.414  12.216  0.0734  0.0796  0.4971
  262TMC3    C4 4018   2.232   2.230  12.408 -0.4861 -0.3108  0.4078
  262TMC3    C5 4019   2.189   2.189  12.280  0.2632  0.1461 -0.1337
  262TMC3    C6 4020   2.155   2.287  12.183  0.5083  0.1141 -0.1133
  262TMC3     C 4021   2.311   2.411  12.556  0.5224  0.5875 -0.6168
  262TMC3     O 4022   2.331   2.534  12.551  0.1386 -0.0322  0.1925
  262TMC3     H 4023   2.243   2.568  12.349 -0.7027  0.0261  1.2272
  262TMC3    H1 4024   2.270   2.155  12.476  0.9220 -1.9263 -2.1358
  262TMC3    H2 4025   2.120   2.253  12.086 -0.0293  0.9075 -0.1945
  262TMC3    C7 4026   2.260   2.066  12.232 -0.7229  0.2526 -0.3060
  262TMC3    C8 4027   2.130   2.514  12.125  0.2466  0.0766 -0.0307
  262TMC3    O1 4028   2.312   1.990  12.316 -0.0858 -0.0395 -0.3437
  262TMC3    O2 4029   2.210   2.610  12.112 -0.0895  0.3235  0.0023
  263MPD2     C 4030   3.072   1.000  11.054  0.6640  0.1186  0.3699
  263MPD2    C1 4031   3.146   1.067  11.152 -0.4460 -0.4438  0.4296
  263MPD2    C2 4032   3.162   1.209  11.134  0.0783  0.0266  0.0642
  263MPD2    C3 4033   3.092   1.280  11.038  0.2722  0.5386  0.3963
  263MPD2    C4 4034   3.022   1.207  10.942 -0.2436 -0.1115  0.0472
  263MPD2    C5 4035   3.029   1.071  10.940 -0.0852  0.6242  0.5163
  263MPD2     H 4036   3.230   1.265  11.197 -0.0749  0.9095 -0.5580
  263MPD2    H1 4037   2.964   1.258  10.866 -1.0739 -0.3856  0.4970
  263MPD2    H2 4038   3.051   0.893  11.054 -2.2937  0.7139  1.6932
  263MPD2    H3 4039   2.990   1.010  10.860 -0.7671  0.7627  0.7433
  263MPD2     N 4040   3.109   1.421  11.023  0.5874  0.1611  0.0062
  263MPD2    H5 4041   3.164   1.471  11.091 -0.2312  0.2458  0.5992
  263MPD2    N1 4042   3.197   0.990  11.254  0.5048 -0.0123 -0.5707
  263MPD2    H7 4043   3.187   0.889  11.254 -0.3185  0.0575  1.1763
  264TMC3    C1 4044   3.109   1.630  10.910  0.3075 -0.4341 -0.4606
  264TMC3    C2 4045   3.093   1.697  11.028  0.1927  0.1440 -0.7717
  264TMC3    C3 4046   3.109   1.832  11.039 -0.0098 -0.2227 -0.0388
  264TMC3    C4 4047   3.130   1.691  10.791  0.1135  0.1445  0.2097
  264TMC3    C5 4048   3.144   1.830  10.804  0.1816 -0.1246  0.4097
  264TMC3    C6 4049   3.143   1.898  10.921  0.5060 -0.3939 -0.2762
  264TMC3     C 4050   3.092   1.487  10.902  0.1333 -0.7575 -0.1883
  264TMC3     O 4051   3.083   1.437  10.791 -0.1357  0.1761  0.5379
  264TMC3     H 4052   3.076   1.637  11.116 -0.3033  1.0779 -0.2229
  264TMC3    H1 4053   3.138   1.630  10.702 -0.1155  1.5569 -0.7647
  264TMC3    H2 4054   3.162   2.005  10.918 -0.5593 -0.1180  2.5327
  264TMC3    C7 4055   3.199   1.915  10.695 -0.1658 -0.2911  1.0271
  264TMC3    C8 4056   3.177   1.892  11.153 -0.4997  0.1655 -0.8305
  264TMC3    O1 4057   3.132   2.004  10.648  0.0797  0.6728 -0.1143
  264TMC3    O2 4058   3.254   1.985  11.126  0.2784 -0.1424  0.7931
  265MPD2     C 4059   0.948   1.357  15.564 -0.5348  0.5517 -0.0498
  265MPD2    C1 4060   0.889   1.470  15.505  0.7027  0.0679 -0.1410
  265MPD2    C2 4061   0.907   1.491  15.365  0.4162  0.2295  0.6406
  265MPD2    C3 4062   0.976   1.398  15.290  0.1578 -0.1615  0.5818
  265MPD2    C4 4063   1.036   1.290  15.351 -0.4316 -0.1331  0.1427
  265MPD2    C5 4064   1.023   1.275  15.485  0.3455  0.1659  0.0705
  265MPD2     H 4065   0.859   1.580  15.325 -1.6093 -0.5591  1.2973
  265MPD2    H1 4066   1.101   1.223  15.296 -1.5138 -1.7215  0.8398
  265MPD2    H2 4067   0.943   1.333  15.670 -0.1668 -0.9077 -0.3642
  265MPD2    H3 4068   1.070   1.190  15.531 -2.2245 -0.4819  1.5303
  265MPD2     N 4069   1.008   1.419  15.154  0.0727  0.2930 -0.1606
  265MPD2    H5 4070   1.065   1.344  15.115 -0.6243  0.3704 -1.3309
  265MPD2    N1 4071   0.809   1.560  15.577 -0.7899 -0.4816  0.3568
  265MPD2    H7 4072   0.766   1.636  15.526  0.8257  0.3340  0.2034
  266TMC3    C1 4073   0.738   1.675  15.771 -0.0383 -0.6373 -0.7178
  266TMC3    C2 4074   0.784   1.713  15.894  0.6357  0.7512  0.3363
  266TMC3    C3 4075   0.771   1.843  15.930 -0.0929  0.6217 -0.1558
  266TMC3    C4 4076   0.662   1.760  15.692  0.5202 -0.2290  0.6284
  266TMC3    C5 4077   0.637   1.884  15.744 -0.5188 -0.3902  0.2750
  266TMC3    C6 4078   0.698   1.931  15.857  0.0067 -0.9599  0.2012
  266TMC3     C 4079   0.794   1.557  15.717 -0.6937  0.6141 -0.0416
  266TMC3     O 4080   0.833   1.480  15.803  0.7748  0.1665 -0.2778
  266TMC3     H 4081   0.849   1.650  15.953 -1.4795 -1.0657  0.7196
  266TMC3    H1 4082   0.600   1.722  15.611  0.7269 -0.9420  0.8073
  266TMC3    H2 4083   0.682   2.036  15.878 -1.6874 -0.9024 -1.3746
  266TMC3    C7 4084   0.552   1.974  15.664 -0.1459 -0.3461  0.5189
  266TMC3    C8 4085   0.853   1.893  16.035  0.2997 -0.5918  0.4166
  266TMC3    O1 4086   0.494   2.058  15.729 -1.0772  0.4064 -0.2905
  266TMC3    O2 4087   0.915   1.808  16.099  0.4196  0.6342 -0.0650
  267MPD2     C 4088   2.846   3.126   0.544 -0.2978 -0.2958 -0.4957
  267MPD2    C1 4089   2.869   2.999   0.493 -0.2077 -0.6050  0.3587
  267MPD2    C2 4090   2.772   2.911   0.451  0.4832 -0.2017 -0.2801
  267MPD2    C3 4091   2.643   2.956   0.453  0.5572 -0.2665 -0.1407
  267MPD2    C4 4092   2.623   3.089   0.492  0.5717 -0.0298 -0.4052
  267MPD2    C5 4093   2.720   3.172   0.537 -0.4779 -0.5444  0.1079
  267MPD2     H 4094   2.795   2.809   0.420 -2.8486 -1.6224  1.9340
  267MPD2    H1 4095   2.523   3.132   0.484  0.9247  1.3587  2.7350
  267MPD2    H2 4096   2.926   3.189   0.582 -0.5592 -1.8660  2.6567
  267MPD2    H3 4097   2.688   3.268   0.575  2.2663  0.2623  0.3753
  267MPD2     N 4098   2.537   2.881   0.397  0.4585 -0.1379  0.5747
  267MPD2    H5 4099   2.563   2.795   0.349 -1.4254 -1.2452  1.5410
  267MPD2    N1 4100   3.003   2.960   0.493  0.0233  0.2247  0.6140
  267MPD2    H7 4101   3.066   3.025   0.538  1.3989 -0.4775 -0.2870
  268TMC3    C1 4102   3.202   2.848   0.456  0.0473  0.0083 -0.4918
  268TMC3    C2 4103   3.292   2.833   0.350 -0.0107  0.1924  0.0999
  268TMC3    C3 4104   3.424   2.850   0.392 -0.2133  0.3506  0.4421
  268TMC3    C4 4105   3.230   2.876   0.587 -0.2623  0.4388 -0.4375
  268TMC3    C5 4106   3.361   2.897   0.618  0.6054 -0.5462 -0.0353
  268TMC3    C6 4107   3.453   2.880   0.517  0.7846 -0.3418 -0.0665
  268TMC3     C 4108   3.067   2.859   0.421  0.2377 -0.0309 -0.6086
  268TMC3     O 4109   3.023   2.792   0.329 -0.4095  0.2914  0.4324
  268TMC3     H 4110   3.253   2.827   0.249  1.1037  1.5195 -0.3993
  268TMC3    H1 4111   3.150   2.878   0.660  0.2703 -1.6876  0.2057
  268TMC3    H2 4112   3.559   2.883   0.541  0.9346  2.3478 -0.9953
  268TMC3    C7 4113   3.414   2.846   0.747  0.0914  0.9348 -0.5464
  268TMC3    C8 4114   3.525   2.868   0.294  0.0581 -0.0350  0.3048
  268TMC3    O1 4115   3.363   2.748   0.797 -0.4608 -0.4320 -0.1230
  268TMC3    O2 4116   3.640   2.845   0.341  0.3194 -0.4639 -0.5515
  269MPD2     C 4117   3.549   2.345  15.391 -0.2562  0.1133 -0.2690
  269MPD2    C1 4118   3.423   2.354  15.440  0.3211 -0.5514  0.0446
  269MPD2    C2 4119   3.371   2.481  15.477 -0.7521 -0.4653 -0.3609
  269MPD2    C3 4120   3.443   2.595  15.444  0.0057  0.6050 -0.0843
  269MPD2    C4 4121   3.568   2.575  15.391 -0.0717  0.2034  1.2439
  269MPD2    C5 4122   3.622   2.451  15.365  0.5362  0.2974  0.5949
  269MPD2     H 4123   3.271   2.497  15.517 -0.6940  2.2557 -1.3160
  269MPD2    H1 4124   3.637   2.655  15.366  0.6312 -0.9024 -0.3337
  269MPD2    H2 4125   3.614   2.260  15.378  0.6917  0.7073  0.5810
  269MPD2    H3 4126   3.721   2.448  15.321  0.7413  1.5355  0.9633
  269MPD2     N 4127   3.382   2.723  15.469 -0.9533  0.2925 -0.3682
  269MPD2    H5 4128   3.290   2.718  15.512 -0.9673 -1.9517 -0.6741
  269MPD2    N1 4129   3.362   2.235  15.475  0.0294  0.0500  0.0442
  269MPD2    H7 4130   3.391   2.148  15.433  2.1282  0.5344  0.5302
  270TMC3    C1 4131   3.205   2.075  15.534  0.4608  0.0648 -0.3514
  270TMC3    C2 4132   3.087   2.028  15.481  0.2751 -0.0150  0.4777
  270TMC3    C3 4133   3.088   1.902  15.435 -0.5289 -0.7503 -0.2757
  270TMC3    C4 4134   3.317   1.994  15.540 -0.7915  0.3536 -0.7496
  270TMC3    C5 4135   3.302   1.865  15.510 -0.4394  0.1620 -0.1855
  270TMC3    C6 4136   3.184   1.813  15.462  0.5471  0.0306 -0.2731
  270TMC3     C 4137   3.236   2.216  15.522 -0.0060  0.4217  0.0837
  270TMC3     O 4138   3.148   2.294  15.560  0.1329  0.0961 -0.4041
  270TMC3     H 4139   3.010   2.098  15.451 -2.5180 -2.6678  1.4464
  270TMC3    H1 4140   3.412   2.028  15.580 -1.0557 -0.5701  0.6519
  270TMC3    H2 4141   3.182   1.707  15.441 -1.4674 -0.1504  0.8428
  270TMC3    C7 4142   3.417   1.825  15.426  0.5303 -1.3101 -0.6063
  270TMC3    C8 4143   3.023   1.881  15.310  0.1945 -0.3353 -0.0987
  270TMC3    O1 4144   3.530   1.846  15.460  0.2777  0.9021  0.0907
  270TMC3    O2 4145   3.092   1.808  15.236  0.5448  0.1320 -0.1606
  271MPD2     C 4146   2.294   2.517  13.867  0.3717  0.0370  0.1948
  271MPD2    C1 4147   2.232   2.412  13.931 -0.1613  0.1841  1.1090
  271MPD2    C2 4148   2.092   2.404  13.915 -0.3909  0.3685 -0.2362
  271MPD2    C3 4149   2.027   2.511  13.863 -0.3605  0.0218 -0.3361
  271MPD2    C4 4150   2.097   2.625  13.821 -0.0241  0.5450  0.4712
  271MPD2    C5 4151   2.233   2.631  13.820 -0.3623 -0.4233  0.0168
  271MPD2     H 4152   2.032   2.323  13.955  0.9003 -1.2805 -1.6382
  271MPD2    H1 4153   2.056   2.717  13.780  0.7287 -0.1004 -1.7169
  271MPD2    H2 4154   2.401   2.527  13.885  0.5792 -1.3917 -0.2523
  271MPD2    H3 4155   2.289   2.721  13.796 -1.2423  0.1671  0.1515
  271MPD2     N 4156   1.883   2.523  13.841 -0.3432  0.0926  0.6779
  271MPD2    H5 4157   1.850   2.613  13.809 -0.7104 -0.3674 -0.2148
  271MPD2    N1 4158   2.304   2.301  14.000 -0.1945  0.3465  0.2920
  271MPD2    H7 4159   2.244   2.245  14.060  1.5321 -1.4844  0.3152
  272TMC3    C1 4160   2.504   2.189  14.068 -0.4730  0.3035  0.5152
  272TMC3    C2 4161   2.638   2.168  14.054 -0.4007  0.2759 -0.1085
  272TMC3    C3 4162   2.707   2.108  14.155  0.7350  0.4370  0.7102
  272TMC3    C4 4163   2.441   2.161  14.189 -0.3700 -0.8557  0.0663
  272TMC3    C5 4164   2.515   2.109  14.293 -0.6893 -0.3491 -0.3641
  272TMC3    C6 4165   2.649   2.080  14.275  0.6999 -0.1939  0.1423
  272TMC3     C 4166   2.442   2.280  13.980 -0.3146  0.1591  0.0328
  272TMC3     O 4167   2.501   2.313  13.880  0.0941 -0.3908  0.1739
  272TMC3     H 4168   2.685   2.205  13.963  0.3121 -0.1341  0.0977
  272TMC3    H1 4169   2.337   2.185  14.207  0.0959  0.2802  1.2176
  272TMC3    H2 4170   2.705   2.055  14.364  1.0586  1.3185  0.3560
  272TMC3    C7 4171   2.456   2.131  14.424  0.1765 -0.2030 -0.2408
  272TMC3    C8 4172   2.852   2.110  14.136 -0.4143  0.2227 -0.2352
  272TMC3    O1 4173   2.343   2.091  14.441 -0.2501  0.1792  0.0037
  272TMC3    O2 4174   2.891   2.159  14.030  0.3645  0.1173  0.1011
  273MPD2     C 4175   3.496   0.421  11.494 -0.7432 -0.2647 -0.3088
  273MPD2    C1 4176   3.629   0.402  11.485 -0.3616  0.2742 -0.1949
  273MPD2    C2 4177   3.683   0.372  11.361  0.5501  0.4410  0.3030
  273MPD2    C3 4178   3.599   0.351  11.252 -0.2072  1.0072 -0.2184
  273MPD2    C4 4179   3.463   0.363  11.268 -0.2264 -0.0926  0.1570
  273MPD2    C5 4180   3.412   0.408  11.388 -0.5101  0.2339  0.3663
  273MPD2     H 4181   3.791   0.368  11.348  0.5841 -1.5208  1.0812
  273MPD2    H1 4182   3.397   0.381  11.184 -2.9003 -1.8992  1.8898
  273MPD2    H2 4183   3.445   0.452  11.584  0.7361 -1.1464  0.8182
  273MPD2    H3 4184   3.314   0.455  11.397  0.3379  2.1838 -0.6242
  273MPD2     N 4185   3.653   0.314  11.123  0.4694 -0.3156  0.9690
  273MPD2    H5 4186   3.594   0.346  11.047  2.5972 -1.1367 -1.0426
  273MPD2    N1 4187   3.708   0.430  11.602  0.3476  0.2860 -0.4083
  273MPD2    H7 4188   3.666   0.490  11.673 -0.2854 -0.7301  0.0870
  274TMC3    C1 4189   3.839   0.285  10.983  0.4298 -0.2772 -0.2198
  274TMC3    C2 4190   3.765   0.321  10.878 -0.6353  0.3404  0.3020
  274TMC3    C3 4191   3.815   0.413  10.785  0.2598 -0.0883  0.2527
  274TMC3    C4 4192   3.973   0.325  10.999 -0.1579 -0.2393 -1.0500
  274TMC3    C5 4193   4.016   0.422  10.917  1.0190  0.3746 -0.3738
  274TMC3    C6 4194   3.945   0.461  10.806  0.1019  0.0997  0.2583
  274TMC3     C 4195   3.778   0.268  11.111  0.4722 -0.5286  0.6077
  274TMC3     O 4196   3.851   0.220  11.194 -0.3226 -0.1999 -0.4710
  274TMC3     H 4197   3.659   0.298  10.876 -0.4454 -0.6783  1.6956
  274TMC3    H1 4198   4.025   0.295  11.089 -2.1702  0.8272  0.4702
  274TMC3    H2 4199   3.975   0.551  10.752 -1.9397  0.3376 -0.5016
  274TMC3    C7 4200   4.077   0.527  10.993  0.6796 -0.6375 -0.7496
  274TMC3    C8 4201   3.733   0.452  10.668 -0.1961  0.6992 -0.2342
  274TMC3    O1 4202   4.151   0.611  10.945  0.4630  0.2991  0.7177
  274TMC3    O2 4203   3.617   0.411  10.656  0.3732  0.5892 -0.2131
  275MPD2     C 4204   3.824   3.323  14.169  0.7364  0.3008 -0.7263
  275MPD2    C1 4205   3.793   3.352  14.300  0.1486  0.6438  0.4846
  275MPD2    C2 4206   3.668   3.324  14.343 -0.7310  0.3017 -0.3854
  275MPD2    C3 4207   3.570   3.290  14.251 -0.3932  0.1743  0.3898
  275MPD2    C4 4208   3.601   3.282  14.116 -1.5464 -0.0009  0.0896
  275MPD2    C5 4209   3.730   3.291  14.078 -0.9792 -0.1830  0.1105
  275MPD2     H 4210   3.638   3.331  14.447 -0.0730  0.8792 -0.2415
  275MPD2    H1 4211   3.539   3.240  14.038  1.7251  1.3531 -3.2268
  275MPD2    H2 4212   3.925   3.327  14.130  1.0329  0.5038  0.0630
  275MPD2    H3 4213   3.745   3.284  13.971  1.0533  1.3133  0.2932
  275MPD2     N 4214   3.432   3.273  14.287  0.0244  0.3257  0.4385
  275MPD2    H5 4215   3.369   3.248  14.211 -0.7703 -0.4581  1.3432
  275MPD2    N1 4216   3.887   3.406  14.389  1.1276  0.3863  0.5541
  275MPD2    H7 4217   3.843   3.422  14.479  1.2035  0.7433  0.5250
  276TMC3    C1 4218   4.088   3.435  14.492  0.6264  0.2003 -0.3685
  276TMC3    C2 4219   4.024   3.496  14.600  0.5610 -0.0150 -0.4249
  276TMC3    C3 4220   4.032   3.441  14.718  0.6502 -0.3544  0.0705
  276TMC3    C4 4221   4.176   3.330  14.519 -0.0756  0.2179 -0.2982
  276TMC3    C5 4222   4.214   3.305  14.649 -0.1459 -0.3636  0.1554
  276TMC3    C6 4223   4.129   3.356  14.744  1.3885 -0.4906 -0.1713
  276TMC3     C 4224   4.021   3.423  14.365 -0.3688 -0.1760  0.3282
  276TMC3     O 4225   4.087   3.393  14.268 -0.2527 -0.4802 -0.4096
  276TMC3     H 4226   3.951   3.574  14.579  0.3687  0.5989  2.5604
  276TMC3    H1 4227   4.213   3.283  14.428  0.4392 -0.7566  0.4188
  276TMC3    H2 4228   4.149   3.330  14.847 -4.3482  1.6770  1.5045
  276TMC3    C7 4229   4.266   3.179  14.676  0.2332 -0.1066  0.2819
  276TMC3    C8 4230   3.901   3.379  14.746  0.5544 -0.3717 -0.4802
  276TMC3    O1 4231   4.226   3.097  14.596 -0.1516 -0.0029  0.3326
  276TMC3    O2 4232   3.807   3.433  14.689  0.5516 -0.1516 -0.0597
  277MPD2     C 4233   1.295   2.188  13.452 -0.2006  0.9963 -0.0505
  277MPD2    C1 4234   1.161   2.183  13.463  0.2268  0.3721  0.0837
  277MPD2    C2 4235   1.105   2.121  13.576  0.1877  0.0737  0.1743
  277MPD2    C3 4236   1.176   2.042  13.656 -0.2590  0.0975  0.1102
  277MPD2    C4 4237   1.315   2.037  13.636 -0.6604 -0.3395 -0.5334
  277MPD2    C5 4238   1.375   2.118  13.538 -0.3940 -0.2342 -0.2362
  277MPD2     H 4239   0.998   2.116  13.592  0.0051  0.8990 -0.7388
  277MPD2    H1 4240   1.385   1.990  13.703  1.6451  1.5600 -1.5774
  277MPD2    H2 4241   1.328   2.250  13.369  0.2785 -1.7297 -1.9030
  277MPD2    H3 4242   1.482   2.119  13.520 -0.5594  2.0233 -1.1186
  277MPD2     N 4243   1.110   1.967  13.755  0.5435 -0.2513 -0.6373
  277MPD2    H5 4244   1.010   1.979  13.765  0.5647  0.1907 -0.9584
  277MPD2    N1 4245   1.081   2.238  13.359 -0.0067 -0.3746  0.2051
  277MPD2    H7 4246   1.128   2.280  13.280 -0.9061  1.3076  0.5630
  278TMC3    C1 4247   1.057   1.769  13.854 -0.1056  0.1203  0.9303
  278TMC3    C2 4248   1.074   1.639  13.826 -0.4552  0.6401  0.1619
  278TMC3    C3 4249   0.958   1.570  13.811  0.2205 -0.1884  0.3130
  278TMC3    C4 4250   0.940   1.826  13.888 -0.0120 -0.2439 -0.3627
  278TMC3    C5 4251   0.825   1.748  13.878 -0.0511 -0.0431  0.3135
  278TMC3    C6 4252   0.828   1.616  13.836  0.2961  0.0458  0.3223
  278TMC3     C 4253   1.168   1.859  13.820 -0.6366 -0.1574 -0.9100
  278TMC3     O 4254   1.283   1.807  13.804  0.2100  0.1615  0.0544
  278TMC3     H 4255   1.168   1.594  13.795  0.0394  0.9010  1.3062
  278TMC3    H1 4256   0.926   1.927  13.924 -0.6349 -0.8253  1.0132
  278TMC3    H2 4257   0.737   1.560  13.818  1.0883 -0.6867 -1.4189
  278TMC3    C7 4258   0.722   1.822  13.809  0.7762  0.2273 -0.2344
  278TMC3    C8 4259   0.967   1.433  13.761 -0.4162  0.9277 -0.0052
  278TMC3    O1 4260   0.763   1.879  13.711 -0.1665  0.3673  0.3265
  278TMC3    O2 4261   1.075   1.377  13.785  0.4622 -0.6845  0.3165
  279MPD2     C 4262   0.507   1.456   0.102  0.4252 -0.0374 -0.3205
  279MPD2    C1 4263   0.426   1.402   0.004 -0.7567 -0.6231  0.3585
  279MPD2    C2 4264   0.411   1.476  17.641 -0.4620 -1.1745 -0.6831
  279MPD2    C3 4265   0.471   1.600  17.630 -0.6412 -0.1382 -0.3247
  279MPD2    C4 4266   0.550   1.648  17.739  0.0353 -0.0856 -0.0125
  279MPD2    C5 4267   0.571   1.572   0.092  0.8506  0.5265  0.1109
  279MPD2     H 4268   0.342   1.441  17.565  0.8028 -1.7903 -1.5366
  279MPD2    H1 4269   0.595   1.747  17.736  0.0972 -0.1847 -2.1942
  279MPD2    H2 4270   0.511   1.407   0.198 -1.4155  2.1731  0.8925
  279MPD2    H3 4271   0.642   1.603   0.168  0.5599  0.9463  0.2069
  279MPD2     N 4272   0.445   1.688  17.521  0.1747 -0.2108 -0.2617
  279MPD2    H5 4273   0.477   1.783  17.535 -0.5341 -0.1628  1.0093
  279MPD2    N1 4274   0.349   1.290   0.042  0.8653 -0.2096 -0.2735
  279MPD2    H7 4275   0.358   1.271   0.141  0.2889 -0.2084 -0.2188
  280TMC3    C1 4276   0.176   1.127   0.022  0.0864 -0.1851 -0.1276
  280TMC3    C2 4277   0.125   1.019  17.713  0.2436  0.7642  0.0538
  280TMC3    C3 4278   4.738   0.974   0.000  0.1942  0.5492 -0.0697
  280TMC3    C4 4279   0.108   1.187   0.121 -0.3134 -0.1819  0.8159
  280TMC3    C5 4280   4.726   1.146   0.163 -0.6439 -0.0259 -0.1992
  280TMC3    C6 4281   4.669   1.039   0.101  0.4740  0.3415 -0.2170
  280TMC3     C 4282   0.273   1.213  17.707 -0.4278 -0.4284 -0.2483
  280TMC3     O 4283   0.281   1.204  17.585  0.2178  0.5082  0.0716
  280TMC3     H 4284   0.187   0.971  17.639 -0.2514  0.9810 -0.5090
  280TMC3    H1 4285   0.153   1.274   0.167  0.5949 -0.5173  0.5736
  280TMC3    H2 4286   4.566   1.010   0.119  0.7923 -0.3820  0.4820
  280TMC3    C7 4287   4.648   1.257   0.222 -0.5911 -0.2827 -0.7285
  280TMC3    C8 4288   4.668   0.863  17.696  0.2671 -0.7428  0.2500
  280TMC3    O1 4289   4.666   1.288   0.336  0.0214 -0.3681  0.1112
  280TMC3    O2 4290   4.580   0.810   0.015  0.3106 -0.2749  0.0244
  281TMC3    C1 4291   3.893   2.578  13.444  0.3355 -0.2910 -0.5116
  281TMC3    C2 4292   3.936   2.668  13.350 -0.4074 -0.2538  0.5391
  281TMC3    C3 4293   3.959   2.611  13.227  0.3673  0.3698  0.3515
  281TMC3    C4 4294   3.868   2.444  13.416  0.2490  0.0740 -0.4124
  281TMC3    C5 4295   3.880   2.402  13.281 -0.4622  0.3832  0.2537
  281TMC3    C6 4296   3.948   2.480  13.189 -0.2860  0.1712  0.7700
  281TMC3     C 4297   3.793   2.622  13.534  0.5532 -0.1163 -0.4996
  281TMC3     O 4298   3.772   2.557  13.635 -0.1879 -0.0844  0.5676
  281TMC3     H 4299   3.963   2.770  13.375  1.4350 -0.6995  0.3349
  281TMC3    H1 4300   3.850   2.377  13.499 -0.0449 -0.2423 -0.7298
  281TMC3    H2 4301   3.966   2.445  13.088 -2.2115  0.5116  0.3099
  281TMC3    C7 4302   3.845   2.271  13.242  0.3440 -0.6116  0.5868
  281TMC3    C8 4303   4.046   2.694  13.143  0.5341  0.2390 -0.2028
  281TMC3    O1 4304   3.894   2.221  13.144  0.2639 -0.6979  0.0556
  281TMC3    O2 4305   4.137   2.638  13.085 -0.5066 -0.4522 -0.1347
  282MPD2     C 4306   0.762   3.428  14.669  0.2658 -0.3963  0.9198
  282MPD2    C1 4307   0.654   3.500  14.720  0.1169 -0.5873 -0.0989
  282MPD2    C2 4308   0.577   3.575  14.632 -0.3551 -0.5025 -0.7552
  282MPD2    C3 4309   0.609   3.585  14.500  0.0515  0.5651 -0.2840
  282MPD2    C4 4310   0.714   3.517  14.444 -0.6761 -0.4254  0.9053
  282MPD2    C5 4311   0.789   3.434  14.534  0.0817  0.3371  0.6978
  282MPD2     H 4312   0.492   3.631  14.667  0.6190  2.3534 -2.9565
  282MPD2    H1 4313   0.744   3.527  14.341  0.6693  0.4319  1.3806
  282MPD2    H2 4314   0.836   3.376  14.729 -0.2390 -3.0004 -0.7200
  282MPD2    H3 4315   0.869   3.374  14.492  0.4805  0.3877  1.3757
  282MPD2     N 4316   0.519   3.656  14.416  0.1071  0.0871 -0.0420
  282MPD2    H5 4317   0.445   3.709  14.460 -0.1344 -1.1071  0.9761
  282MPD2    N1 4318   0.627   3.499  14.864  0.5252 -0.1436 -0.1410
  282MPD2    H7 4319   0.550   3.556  14.899  0.8114 -0.0279  0.2901
  283TMC3    C1 4320   0.633   3.426  15.084 -0.2889 -0.4971  0.3922
  283TMC3    C2 4321   0.680   3.536  15.158 -0.2182  0.7162  0.3418
  283TMC3    C3 4322   0.625   3.555  15.285 -0.1242  0.8767  0.3394
  283TMC3    C4 4323   0.559   3.323  15.140 -0.0731 -0.7087 -0.9030
  283TMC3    C5 4324   0.507   3.352  15.262  0.1647 -0.5381  0.2927
  283TMC3    C6 4325   0.536   3.464  15.335  0.0013  0.5315 -0.1239
  283TMC3     C 4326   0.675   3.405  14.950 -0.0774  0.7176 -0.2964
  283TMC3     O 4327   0.721   3.294  14.919 -0.8317 -0.1614  0.5273
  283TMC3     H 4328   0.738   3.615  15.113  2.3967 -0.8336  0.9927
  283TMC3    H1 4329   0.559   3.227  15.090  2.1554 -0.4956 -1.3082
  283TMC3    H2 4330   0.494   3.483  15.433  3.9787  0.4474  1.6000
  283TMC3    C7 4331   0.480   3.242  15.348 -0.5220  0.5793  0.5050
  283TMC3    C8 4332   0.679   3.652  15.384  0.1159  0.2803 -0.5505
  283TMC3    O1 4333   0.510   3.259  15.465 -0.0201  0.0130  0.3126
  283TMC3    O2 4334   0.682   3.616  15.503 -0.2848 -0.1109 -0.0690
  284MPD2     C 4335   2.965   3.090  11.934 -0.3210  0.6819  0.2834
  284MPD2    C1 4336   3.060   2.993  11.948 -0.5145  0.3631  0.6299
  284MPD2    C2 4337   3.023   2.874  12.006 -0.3715  0.0829  0.2691
  284MPD2    C3 4338   2.898   2.852  12.063  0.2567 -0.5632  0.3274
  284MPD2    C4 4339   2.810   2.955  12.056  0.2155  0.7503 -0.4437
  284MPD2    C5 4340   2.838   3.067  11.987 -0.1648  0.4900  0.0446
  284MPD2     H 4341   3.105   2.805  12.018 -0.6053 -0.2922 -0.3010
  284MPD2    H1 4342   2.715   2.960  12.107  0.6092 -0.8783  0.4485
  284MPD2    H2 4343   2.988   3.193  11.907  0.7802  0.2328 -0.4955
  284MPD2    H3 4344   2.763   3.145  11.993  0.9475  1.8744 -3.4629
  284MPD2     N 4345   2.865   2.743  12.140  0.6813 -0.3450  0.2920
  284MPD2    H5 4346   2.789   2.752  12.207  0.6117 -0.9075  0.2839
  284MPD2    N1 4347   3.198   3.012  11.922 -0.2658 -0.3534 -0.3706
  284MPD2    H7 4348   3.265   2.936  11.929 -0.7224 -0.5052  2.4762
  285TMC3    C1 4349   3.400   3.143  11.908 -0.6736 -0.4852 -0.3377
  285TMC3    C2 4350   3.473   3.034  11.891 -0.1105  0.0108  0.4556
  285TMC3    C3 4351   3.604   3.028  11.920 -0.1677 -0.4088  0.4400
  285TMC3    C4 4352   3.458   3.259  11.952 -0.2341  0.3388  0.4937
  285TMC3    C5 4353   3.591   3.257  11.984 -0.6716 -0.3139 -0.2640
  285TMC3    C6 4354   3.664   3.146  11.964 -0.9613  0.5181  0.4265
  285TMC3     C 4355   3.258   3.137  11.905  0.0508 -0.2884  0.2705
  285TMC3     O 4356   3.204   3.248  11.904  0.0377  0.3895 -0.2631
  285TMC3     H 4357   3.432   2.945  11.844  0.0605  0.2698 -0.1853
  285TMC3    H1 4358   3.404   3.352  11.966 -0.6239  0.0855  0.6771
  285TMC3    H2 4359   3.771   3.151  11.975 -0.6922 -1.9394 -1.1664
  285TMC3    C7 4360   3.656   3.383  11.958  0.5851 -0.4670 -0.0312
  285TMC3    C8 4361   3.684   2.911  11.887  0.4011  0.1093 -0.0639
  285TMC3    O1 4362   3.595   3.444  11.874 -0.2634  0.3272  0.0370
  285TMC3    O2 4363   3.618   2.809  11.880  0.0053 -1.0294  0.0769
  286MPD2     C 4364   3.559   0.763   1.081  0.1149 -0.0250 -0.3104
  286MPD2    C1 4365   3.609   0.824   0.959  0.0615 -0.5780  1.1068
  286MPD2    C2 4366   3.709   0.768   0.881  0.4885 -0.1452  0.2335
  286MPD2    C3 4367   3.748   0.648   0.916  0.0248  0.3831  0.2789
  286MPD2    C4 4368   3.704   0.591   1.042  0.4471 -0.7342 -1.1286
  286MPD2    C5 4369   3.609   0.645   1.114 -0.1295 -0.2601  0.5079
  286MPD2     H 4370   3.740   0.809   0.785 -1.8230 -0.0409 -0.4644
  286MPD2    H1 4371   3.757   0.505   1.080 -1.0275 -0.8131  0.7359
  286MPD2    H2 4372   3.481   0.814   1.136  0.8919  1.7302 -0.8201
  286MPD2    H3 4373   3.567   0.602   1.204 -0.9321  0.1771  0.3416
  286MPD2     N 4374   3.844   0.566   0.847 -0.2679  0.6606 -0.2691
  286MPD2    H5 4375   3.849   0.468   0.874  2.3642  0.5682 -1.1108
  286MPD2    N1 4376   3.551   0.942   0.904 -0.0064  0.3049  0.5719
  286MPD2    H7 4377   3.587   0.979   0.816  1.5332 -0.7305  0.7638
  287TMC3    C1 4378   4.032   0.492   0.724 -0.2698 -0.0585 -0.0413
  287TMC3    C2 4379   4.089   0.476   0.604  0.7940  0.2758 -0.1668
  287TMC3    C3 4380   4.164   0.360   0.580 -0.3877 -0.3861 -0.6071
  287TMC3    C4 4381   4.057   0.406   0.825  0.4478 -0.0913  0.1648
  287TMC3    C5 4382   4.136   0.298   0.800 -0.4710 -0.4610  0.9980
  287TMC3    C6 4383   4.189   0.267   0.678 -0.3986 -0.1116  0.1454
  287TMC3     C 4384   3.942   0.605   0.751  0.0210 -0.1442  0.2178
  287TMC3     O 4385   3.954   0.715   0.692 -0.1571  0.3548 -0.4057
  287TMC3     H 4386   4.046   0.539   0.528 -1.0739 -0.2658  0.4526
  287TMC3    H1 4387   4.024   0.424   0.927  0.7267  1.3947 -0.0084
  287TMC3    H2 4388   4.251   0.179   0.667 -3.0249 -2.0697  1.0299
  287TMC3    C7 4389   4.206   0.260   0.918 -0.2347 -0.6805 -0.7573
  287TMC3    C8 4390   4.189   0.310   0.447  0.5142  0.1214 -0.1596
  287TMC3    O1 4391   4.209   0.336   1.009  0.0268 -0.5286  0.5556
  287TMC3    O2 4392   4.200   0.191   0.434  0.3273  0.0164  0.1113
  288TMC3    C1 4393   0.628   1.164  14.541 -0.3156 -0.3203  0.1282
  288TMC3    C2 4394   0.655   1.142  14.671 -0.6555  0.1320 -0.1099
  288TMC3    C3 4395   0.704   1.244  14.742  0.3314  0.3212  0.1680
  288TMC3    C4 4396   0.656   1.279  14.478 -0.4794  0.1085  0.2556
  288TMC3    C5 4397   0.716   1.384  14.550 -0.3155  0.2791  0.7886
  288TMC3    C6 4398   0.732   1.367  14.686  0.2066 -0.1934 -0.7421
  288TMC3     C 4399   0.580   1.063  14.455  0.3415  0.4938 -0.0817
  288TMC3     O 4400   0.619   0.945  14.460 -0.0737 -0.0760  0.1332
  288TMC3     H 4401   0.641   1.042  14.712  0.1490  0.7762  1.7316
  288TMC3    H1 4402   0.628   1.299  14.376 -3.3358 -2.0363  0.6306
  288TMC3    H2 4403   0.789   1.444  14.738  0.6201 -2.2745  1.8761
  288TMC3    C7 4404   0.801   1.486  14.491 -0.2840  0.2797 -0.0476
  288TMC3    C8 4405   0.697   1.244  14.890  0.1369  0.2766  0.3482
  288TMC3    O1 4406   0.814   1.584  14.560  0.0854  0.1051 -0.7360
  288TMC3    O2 4407   0.721   1.354  14.938 -0.0666 -0.5554 -0.1374
  289MPD2     C 4408   1.227   0.661  14.154 -0.6675  0.1864 -0.0443
  289MPD2    C1 4409   1.180   0.791  14.146 -0.7232  0.6205  0.2952
  289MPD2    C2 4410   1.065   0.818  14.070  0.0730  0.3417 -0.6167
  289MPD2    C3 4411   0.998   0.709  14.009  0.6573  0.2603  0.4784
  289MPD2    C4 4412   1.051   0.583  14.016  0.0820  0.0666 -0.3856
  289MPD2    C5 4413   1.172   0.562  14.076 -0.2306 -0.6460  0.5621
  289MPD2     H 4414   1.028   0.920  14.069  1.1031  0.7145 -0.8700
  289MPD2    H1 4415   0.998   0.501  13.971 -1.2864 -0.2519  1.8030
  289MPD2    H2 4416   1.319   0.631  14.203 -1.2796  0.3755  1.2288
  289MPD2    H3 4417   1.211   0.461  14.072  2.6894  0.5585 -1.1036
  289MPD2     N 4418   0.878   0.729  13.936 -0.2556 -0.4010 -0.3229
  289MPD2    H5 4419   0.836   0.639  13.913  0.8395 -1.2032  0.7830
  289MPD2    N1 4420   1.224   0.896  14.230 -0.1513  0.2795  0.0287
  289MPD2    H7 4421   1.276   0.858  14.309 -0.3661 -0.6968 -0.2971
  290TMC3    C1 4422   0.685   0.823  13.863 -0.4155  0.4565  0.1873
  290TMC3    C2 4423   0.608   0.937  13.859 -0.5892  0.1616 -0.6586
  290TMC3    C3 4424   0.481   0.927  13.806  0.0283  0.7750  0.1264
  290TMC3    C4 4425   0.639   0.707  13.815 -0.7058 -0.6132  0.1254
  290TMC3    C5 4426   0.518   0.698  13.750 -0.6594 -0.2220 -1.0442
  290TMC3    C6 4427   0.438   0.812  13.735  0.4219 -0.0273  0.6173
  290TMC3     C 4428   0.820   0.850  13.910  0.1812  0.2128 -0.0430
  290TMC3     O 4429   0.854   0.968  13.929 -0.2244 -0.0565  0.7451
  290TMC3     H 4430   0.646   1.031  13.894  0.9174 -1.1110  1.0904
  290TMC3    H1 4431   0.697   0.616  13.815 -1.5299 -1.1387  0.8482
  290TMC3    H2 4432   0.336   0.815  13.699  0.7221  1.5762 -0.1130
  290TMC3    C7 4433   0.457   0.574  13.708  0.0188  0.0112 -0.5448
  290TMC3    C8 4434   0.401   1.046  13.789  0.4998 -0.3654  0.4958
  290TMC3    O1 4435   0.389   0.580  13.611  0.1218 -0.0093  0.3017
  290TMC3    O2 4436   0.338   1.052  13.685  0.4677 -0.5130  0.3861
  291MPD2     C 4437   0.056   0.028   0.361 -0.2695  1.2334 -0.4284
  291MPD2    C1 4438   0.189   0.015   0.388  0.0440 -0.6623  0.2631
  291MPD2    C2 4439   0.287   0.102   0.335  0.1413  0.2895 -0.0892
  291MPD2    C3 4440   0.240   0.204   0.257  0.0169  0.8398 -0.3872
  291MPD2    C4 4441   0.114   0.216   0.231 -0.0542  0.0612  0.0293
  291MPD2    C5 4442   0.019   0.133   0.283  0.4041 -0.1637  0.0860
  291MPD2     H 4443   0.391   0.109   0.365  0.1758 -2.9359  0.5773
  291MPD2    H1 4444   0.081   0.305   0.177  1.5677 -0.2420 -1.4558
  291MPD2    H2 4445   4.715   4.700   0.390  1.3667 -0.1862  0.7927
  291MPD2    H3 4446   4.656   0.156   0.254  0.4547 -0.2171 -0.1353
  291MPD2     N 4447   0.325   0.303   0.200 -0.2844 -0.0916  0.3220
  291MPD2    H5 4448   0.282   0.370   0.136 -1.5946 -0.9631  0.2959
  291MPD2    N1 4449   0.235   4.642   0.464 -0.2480  0.2192  0.1967
  291MPD2    H7 4450   0.336   4.635   0.477  0.0206  0.8580 -1.6177
  292TMC3    C1 4451   0.239   4.444   0.583  0.0888  0.1114 -0.6826
  292TMC3    C2 4452   0.224   4.420   0.720 -0.9749  0.1533  0.0033
  292TMC3    C3 4453   0.227   4.294   0.768  0.4895 -0.4472 -0.3458
  292TMC3    C4 4454   0.231   4.333   0.496  0.3386  0.0485  0.0578
  292TMC3    C5 4455   0.235   4.206   0.551  0.1638  0.5751  0.3032
  292TMC3    C6 4456   0.246   4.178   0.685 -0.3669  0.4148  0.4557
  292TMC3     C 4457   0.161   4.551   0.531 -0.2784 -0.3442 -0.7269
  292TMC3     O 4458   0.045   4.540   0.550 -0.0334 -0.5480 -0.1862
  292TMC3     H 4459   0.193   4.505   0.779 -1.3111  0.4059 -0.5334
  292TMC3    H1 4460   0.219   4.358   0.392 -2.1469 -2.1881 -0.1877
  292TMC3    H2 4461   0.238   4.077   0.723  3.0855 -0.4275 -1.0498
  292TMC3    C7 4462   0.228   4.094   0.458 -0.6963 -0.4998 -0.0277
  292TMC3    C8 4463   0.216   4.273   0.910  0.1001  0.2001  0.2102
  292TMC3    O1 4464   0.197   4.118   0.345  0.0903 -0.5164  0.1665
  292TMC3    O2 4465   0.229   4.370   0.981  0.9810 -0.3105 -0.0835
  293MPD2     C 4466   1.903   2.278  12.560 -0.2496  0.1505 -0.4579
  293MPD2    C1 4467   1.850   2.179  12.638 -0.9469 -0.0187  0.3329
  293MPD2    C2 4468   1.897   2.171  12.768 -0.5390  0.5233 -0.0768
  293MPD2    C3 4469   1.978   2.274  12.824  0.2283  0.0448 -0.5004
  293MPD2    C4 4470   2.019   2.382  12.745  0.2217 -0.2194  0.5569
  293MPD2    C5 4471   1.976   2.384  12.612 -0.0294  0.2428 -0.6914
  293MPD2     H 4472   1.865   2.088  12.831  1.1030  1.6785  2.2653
  293MPD2    H1 4473   2.066   2.473  12.780  0.1763 -1.7135  4.4962
  293MPD2    H2 4474   1.886   2.283  12.453 -0.5638  0.1957 -0.4040
  293MPD2    H3 4475   2.009   2.466  12.549  1.5990 -0.0623 -0.2382
  293MPD2     N 4476   2.012   2.267  12.962  0.0063  0.3913 -0.1051
  293MPD2    H5 4477   1.981   2.181  13.007 -0.7880  0.7478  0.0266
  293MPD2    N1 4478   1.755   2.102  12.571  0.2599 -0.0404 -1.0500
  293MPD2    H7 4479   1.747   2.125  12.473  4.9873 -0.2809 -1.4988
  294TMC3    C1 4480   1.584   1.941  12.544  0.0790  0.6667  0.5908
  294TMC3    C2 4481   1.524   1.822  12.581 -0.7170  0.1133 -0.4824
  294TMC3    C3 4482   1.396   1.800  12.537  0.0520 -0.1983 -0.4880
  294TMC3    C4 4483   1.530   2.017  12.444  0.9145 -0.8133  0.4146
  294TMC3    C5 4484   1.409   1.984  12.389  1.1305  0.8769  0.2665
  294TMC3    C6 4485   1.329   1.878  12.446  0.0118 -0.6022 -0.6673
  294TMC3     C 4486   1.692   1.992  12.622 -0.3442  0.2481 -0.3372
  294TMC3     O 4487   1.716   1.933  12.728 -0.5729 -0.0902 -0.0029
  294TMC3     H 4488   1.574   1.744  12.637 -1.1284  1.1815  1.3684
  294TMC3    H1 4489   1.567   2.112  12.408 -1.5345  0.8595  2.3491
  294TMC3    H2 4490   1.239   1.847  12.395 -0.4462  0.4025 -0.4673
  294TMC3    C7 4491   1.374   2.049  12.267 -0.4898 -0.1479 -0.8167
  294TMC3    C8 4492   1.341   1.665  12.529 -0.9818  0.0876  0.2512
  294TMC3    O1 4493   1.255   2.073  12.249  0.2715 -0.8467  0.1832
  294TMC3    O2 4494   1.420   1.578  12.486  0.2730 -0.0172 -0.0292
  295MPD2     C 4495   3.241   4.433   0.567  0.1613 -0.0420  0.4027
  295MPD2    C1 4496   3.247   4.566   0.522  0.7217 -0.1568 -0.6980
  295MPD2    C2 4497   3.226   4.668   0.609  0.6069 -0.3791 -0.7101
  295MPD2    C3 4498   3.190   4.644   0.739  0.3315  0.1221  0.6786
  295MPD2    C4 4499   3.172   4.513   0.781  1.2926  0.1627 -0.0041
  295MPD2    C5 4500   3.204   4.417   0.698 -0.4640  0.2314 -0.7834
  295MPD2     H 4501   3.245   0.032   0.581  0.5021 -0.2870 -0.4429
  295MPD2    H1 4502   3.138   4.487   0.881 -0.4207  2.5667  0.0264
  295MPD2    H2 4503   3.260   4.341   0.514 -0.8297 -0.1806  0.3041
  295MPD2    H3 4504   3.186   4.316   0.733 -0.9503  0.7581  0.4391
  295MPD2     N 4505   3.168   0.008   0.834 -0.2143 -0.0887  0.0544
  295MPD2    H5 4506   3.123   4.716   0.920  3.2884 -2.0312  1.1688
  295MPD2    N1 4507   3.272   4.598   0.380 -0.4613 -0.1991 -0.1597
  295MPD2    H7 4508   3.285   4.693   0.346  2.8730 -0.4765  0.2924
  296TMC3    C1 4509   3.127   0.229   0.896 -0.5362  0.6097  0.0220
  296TMC3    C2 4510   3.070   0.335   0.837  0.3537 -0.0581 -0.3454
  296TMC3    C3 4511   2.963   0.387   0.898 -0.2098  0.3629  0.6343
  296TMC3    C4 4512   3.089   0.182   1.017  0.1663 -0.3745 -0.2862
  296TMC3    C5 4513   2.987   0.246   1.083  0.1592 -0.2941 -0.6958
  296TMC3    C6 4514   2.921   0.349   1.027  0.4726 -1.1370 -0.6034
  296TMC3     C 4515   3.190   0.138   0.804 -0.1445  0.1701 -0.1573
  296TMC3     O 4516   3.246   0.194   0.712 -0.0822 -0.0206  0.0684
  296TMC3     H 4517   3.109   0.369   0.741  2.1696  0.4714  0.5737
  296TMC3    H1 4518   3.126   0.085   1.050 -0.6346 -0.4814  0.2747
  296TMC3    H2 4519   2.839   0.395   1.080  1.7369  1.1526 -0.6620
  296TMC3    C7 4520   2.922   0.166   1.174 -0.4015  0.7378 -0.7078
  296TMC3    C8 4521   2.920   0.509   0.845  0.7977  0.3452 -0.2530
  296TMC3    O1 4522   2.997   0.078   1.219  0.3582  0.5640  0.0558
  296TMC3    O2 4523   2.986   0.571   0.759 -0.2084 -0.2312 -0.0839
  297MPD2     C 4524   0.338   2.057  16.610 -0.1999 -0.2466 -0.2573
  297MPD2    C1 4525   0.292   2.068  16.476 -0.2456 -0.1511  0.4977
  297MPD2    C2 4526   0.299   2.195  16.420  0.5908 -0.8435 -0.0938
  297MPD2    C3 4527   0.361   2.305  16.481  0.2537 -0.3172  0.4036
  297MPD2    C4 4528   0.410   2.280  16.607  0.7770 -0.8564  0.0224
  297MPD2    C5 4529   0.392   2.168  16.666 -0.4337 -0.4584 -0.0636
  297MPD2     H 4530   0.252   2.207  16.323  2.4800 -0.5999 -0.9847
  297MPD2    H1 4531   0.468   2.356  16.658  0.1205 -0.7793  0.6527
  297MPD2    H2 4532   0.326   1.962  16.661  0.0758  0.4475  1.1029
  297MPD2    H3 4533   0.420   2.162  16.770  1.0346 -1.9421 -0.5473
  297MPD2     N 4534   0.381   2.420  16.405 -0.6807  0.1360  0.2832
  297MPD2    H5 4535   0.341   2.436  16.313 -0.5051  3.8325  0.8326
  297MPD2    N1 4536   0.215   1.974  16.411 -0.6724  0.5964 -0.6229
  297MPD2    H7 4537   0.167   1.999  16.325 -0.4731 -0.0493 -0.9264
  298TMC3    C1 4538   0.114   1.791  16.330  0.7527 -0.5644  0.5732
  298TMC3    C2 4539   0.159   1.684  16.260  0.5953  0.2310  0.1502
  298TMC3    C3 4540   0.080   1.650  16.153 -0.2019 -0.2366 -0.2719
  298TMC3    C4 4541   0.005   1.868  16.298 -0.4342  0.7049  0.0097
  298TMC3    C5 4542   4.665   1.825  16.190  0.7650  0.1362 -0.1301
  298TMC3    C6 4543   4.702   1.712  16.124  0.0568 -0.3673  0.3159
  298TMC3     C 4544   0.195   1.841  16.438 -0.1082 -0.0090 -0.1764
  298TMC3     O 4545   0.255   1.773  16.516  0.3353 -0.2901 -0.1881
  298TMC3     H 4546   0.258   1.643  16.278 -0.4784 -1.9095  1.2578
  298TMC3    H1 4547   4.702   1.938  16.370 -1.2921 -1.1109  1.2945
  298TMC3    H2 4548   4.639   1.658  16.054  0.9818 -0.8839 -0.1050
  298TMC3    C7 4549   4.547   1.909  16.171 -0.7336  0.0764  0.7582
  298TMC3    C8 4550   0.149   1.579  16.049  0.7786 -0.3620  0.2592
  298TMC3    O1 4551   4.551   2.024  16.216 -0.4330  0.0397  0.4490
  298TMC3    O2 4552   0.197   1.470  16.067  0.3940  0.0924 -0.1206
  299MPD2     C 4553   0.217   2.597  10.453 -0.2035  0.2250  0.4309
  299MPD2    C1 4554   0.168   2.544  10.570 -0.3506  0.2125 -0.1810
  299MPD2    C2 4555   0.034   2.498  10.567 -0.4057  0.0258  0.6122
  299MPD2    C3 4556   4.688   2.518  10.458 -0.3119 -0.4553  0.1779
  299MPD2    C4 4557   0.002   2.575  10.349 -0.0345 -0.1659  0.1589
  299MPD2    C5 4558   0.130   2.604  10.347 -0.0328  0.5722  0.8042
  299MPD2     H 4559   4.735   2.455  10.659 -1.4940  0.1177  0.2138
  299MPD2    H1 4560   4.683   2.592  10.259  0.6666  1.3235 -0.0198
  299MPD2    H2 4561   0.323   2.616  10.446  0.0239 -1.4984 -0.6286
  299MPD2    H3 4562   0.163   2.639  10.250 -0.9644 -0.5366  0.0765
  299MPD2     N 4563   4.551   2.480  10.459  0.1200  0.5371 -0.2066
  299MPD2    H5 4564   4.480   2.512  10.394  2.0542 -0.3937 -2.7883
  299MPD2    N1 4565   0.256   2.524  10.681  0.2177  0.3692 -0.4334
  299MPD2    H7 4566   0.346   2.569  10.667 -0.3099  1.4382 -0.3964
  300TMC3    C1 4567   4.360   2.372  10.556 -0.4808 -0.0380 -0.2406
  300TMC3    C2 4568   4.275   2.480  10.529 -0.5197 -0.1697  0.3120
  300TMC3    C3 4569   4.147   2.483  10.571  0.0070 -0.8964 -0.3446
  300TMC3    C4 4570   4.316   2.269  10.640 -0.2738  0.3469  0.3730
  300TMC3    C5 4571   4.183   2.269  10.674  0.1265 -0.2604  0.6472
  300TMC3    C6 4572   4.107   2.375  10.647  0.6232 -0.5380 -0.2437
  300TMC3     C 4573   4.506   2.394  10.559 -0.0994  0.0566 -0.1426
  300TMC3     O 4574   4.568   2.320  10.635 -0.3686 -0.3091  0.3650
  300TMC3     H 4575   4.314   2.559  10.466 -0.2137 -0.9532 -0.4828
  300TMC3    H1 4576   4.387   2.193  10.669  0.0601  1.0672  1.4388
  300TMC3    H2 4577   4.001   2.371  10.671  0.6120 -2.1766 -0.5586
  300TMC3    C7 4578   4.139   2.205  10.798 -0.1363 -0.0727  0.4209
  300TMC3    C8 4579   4.122   2.618  10.633  0.2000  1.4082 -0.4816
  300TMC3    O1 4580   4.049   2.252  10.867  0.2652  0.2980  0.6764
  300TMC3    O2 4581   4.218   2.690  10.642 -0.6998 -0.2990 -0.2426
  301MPD2     C 4582   2.419   3.754   0.782  0.2239 -0.1016 -0.3065
  301MPD2    C1 4583   2.315   3.712   0.708 -0.1315  0.1159 -0.2841
  301MPD2    C2 4584   2.286   3.576   0.700  0.1519  0.8415 -0.1263
  301MPD2    C3 4585   2.361   3.489   0.778 -0.4412  0.1189  0.0856
  301MPD2    C4 4586   2.467   3.536   0.857  0.1179 -0.0492  0.2746
  301MPD2    C5 4587   2.498   3.663   0.857  0.1687 -0.3457 -0.0872
  301MPD2     H 4588   2.200   3.554   0.637  2.2804 -1.3009 -2.2752
  301MPD2    H1 4589   2.528   3.468   0.915 -0.7863 -1.8927 -0.9188
  301MPD2    H2 4590   2.446   3.858   0.797 -2.2738  0.4524  0.4408
  301MPD2    H3 4591   2.589   3.695   0.905  0.8781 -1.5586 -0.6319
  301MPD2     N 4592   2.326   3.350   0.779  0.6993  0.2697 -0.8821
  301MPD2    H5 4593   2.390   3.286   0.824 -0.8702 -1.7298 -1.5187
  301MPD2    N1 4594   2.233   3.806   0.646  0.1413  0.1859 -0.2997
  301MPD2    H7 4595   2.160   3.757   0.595 -0.5303  1.5572 -0.6364
  302TMC3    C1 4596   2.184   3.155   0.739 -0.3956 -0.0364 -0.0318
  302TMC3    C2 4597   2.293   3.074   0.751  0.3722  0.2125 -1.0163
  302TMC3    C3 4598   2.260   2.940   0.774 -0.1934 -0.1611  0.3174
  302TMC3    C4 4599   2.054   3.113   0.739  0.4867  0.4089 -0.9424
  302TMC3    C5 4600   2.026   2.980   0.760 -0.5832 -0.4793 -0.0698
  302TMC3    C6 4601   2.132   2.891   0.775 -0.2023 -0.6620  0.1690
  302TMC3     C 4602   2.205   3.293   0.733  0.0362 -0.7234  0.4269
  302TMC3     O 4603   2.109   3.352   0.690 -0.4969 -0.4024 -0.2313
  302TMC3     H 4604   2.394   3.113   0.740  0.6401 -0.4935 -1.0708
  302TMC3    H1 4605   1.976   3.189   0.735  0.3550  0.2173 -2.0631
  302TMC3    H2 4606   2.122   2.784   0.790  1.3778 -0.9249 -0.7091
  302TMC3    C7 4607   1.894   2.931   0.760 -0.3935 -0.2921 -0.0680
  302TMC3    C8 4608   2.369   2.846   0.802 -0.5172  0.3824 -0.2944
  302TMC3    O1 4609   1.891   2.809   0.774  0.0922  0.2203 -0.0398
  302TMC3    O2 4610   2.352   2.728   0.795  0.4263 -0.3698 -1.0491
  303MPD2     C 4611   2.500   2.201  10.770 -0.6506  0.2038  0.3332
  303MPD2    C1 4612   2.412   2.103  10.733 -0.0419  0.2473 -0.0486
  303MPD2    C2 4613   2.355   2.117  10.608 -0.3873  0.0343 -0.7067
  303MPD2    C3 4614   2.383   2.224  10.521  0.3619 -0.0007  0.3021
  303MPD2    C4 4615   2.469   2.320  10.560 -0.1886 -0.5093 -0.1419
  303MPD2    C5 4616   2.528   2.304  10.685  0.0568 -0.2697  0.2311
  303MPD2     H 4617   2.285   2.039  10.580  0.6056 -1.1682  0.1548
  303MPD2    H1 4618   2.481   2.407  10.497 -1.0585  0.7205  1.3822
  303MPD2    H2 4619   2.549   2.206  10.867 -0.5839 -1.7112  0.3984
  303MPD2    H3 4620   2.586   2.390  10.719  1.6499 -0.7585 -1.2031
  303MPD2     N 4621   2.326   2.237  10.393  0.0628  0.0193  0.7318
  303MPD2    H5 4622   2.378   2.296  10.329  1.4032 -0.0709  1.7429
  303MPD2    N1 4623   2.381   1.994  10.818  0.0007  0.1164 -0.8063
  303MPD2    H7 4624   2.344   1.908  10.779 -1.7334 -0.6710  2.6427
  304TMC3    C1 4625   2.328   1.883  11.027  0.4217 -0.4721  0.8723
  304TMC3    C2 4626   2.247   1.933  11.122 -0.4655  0.0815  0.7301
  304TMC3    C3 4627   2.138   1.854  11.157  0.2520  0.3156  0.1755
  304TMC3    C4 4628   2.306   1.768  10.957 -0.7378 -0.4514  0.3937
  304TMC3    C5 4629   2.199   1.690  11.004 -0.1439  0.6110  0.2430
  304TMC3    C6 4630   2.126   1.729  11.111  0.0620 -0.0803  0.3179
  304TMC3     C 4631   2.398   1.992  10.958  0.5824 -0.4562  0.4281
  304TMC3     O 4632   2.435   2.081  11.028  0.5974 -0.1894 -1.4492
  304TMC3     H 4633   2.255   2.038  11.146 -2.0476  0.1905  0.7291
  304TMC3    H1 4634   2.378   1.736  10.882  0.6428 -1.0417  1.9542
  304TMC3    H2 4635   2.040   1.675  11.152 -0.6163  0.3845 -0.5033
  304TMC3    C7 4636   2.117   1.614  10.911 -0.3878 -0.3134  0.6104
  304TMC3    C8 4637   2.007   1.921  11.153 -0.2530  0.1637  0.2157
  304TMC3    O1 4638   1.995   1.612  10.941 -0.6277  0.6257  0.0469
  304TMC3    O2 4639   1.997   2.024  11.213 -0.2410  0.0207 -0.2327
  305MPD2     C 4640   1.099   3.749  13.862  0.1212  0.0618  0.0018
  305MPD2    C1 4641   0.992   3.673  13.900  0.2053  0.7746  0.5641
  305MPD2    C2 4642   0.896   3.647  13.807  0.4722  0.6295 -0.1200
  305MPD2    C3 4643   0.898   3.709  13.682 -0.3929  0.5272 -0.5459
  305MPD2    C4 4644   1.007   3.785  13.642  0.2747 -0.4179 -0.3469
  305MPD2    C5 4645   1.100   3.808  13.741  0.6052  0.1627  0.3529
  305MPD2     H 4646   0.802   3.604  13.840  1.2565 -0.1727  1.0725
  305MPD2    H1 4647   1.014   3.830  13.543  0.4491 -1.0039 -0.5958
  305MPD2    H2 4648   1.186   3.775  13.921  1.1298  0.3485 -1.6178
  305MPD2    H3 4649   1.191   3.863  13.716 -0.2230  0.9700 -0.8800
  305MPD2     N 4650   0.793   3.698  13.585 -0.0165  0.3370  0.1989
  305MPD2    H5 4651   0.814   3.736  13.494 -0.4657  0.9798  0.3668
  305MPD2    N1 4652   0.979   3.622  14.034  0.0620  0.3086 -0.2753
  305MPD2    H7 4653   0.905   3.552  14.044  0.2194 -0.2526 -3.1138
  306TMC3    C1 4654   1.029   3.598  14.257 -0.6100  0.6793 -0.1077
  306TMC3    C2 4655   1.096   3.483  14.271  0.9320 -0.7330  0.2162
  306TMC3    C3 4656   1.141   3.438  14.390  0.0736 -0.5744 -0.5747
  306TMC3    C4 4657   1.007   3.678  14.366 -1.1710  0.4499  0.7353
  306TMC3    C5 4658   1.053   3.636  14.486  0.4637  0.6143  0.9969
  306TMC3    C6 4659   1.133   3.520  14.496  0.1792 -0.3766  0.1060
  306TMC3     C 4660   1.053   3.674  14.135  0.1518 -0.1593  0.3492
  306TMC3     O 4661   1.111   3.776  14.149 -0.2141  0.2290  0.0444
  306TMC3     H 4662   1.128   3.425  14.185  1.2248 -0.6838  0.2924
  306TMC3    H1 4663   0.956   3.772  14.351  1.5693  1.3511 -3.0098
  306TMC3    H2 4664   1.185   3.497  14.589  0.3972 -0.6471 -0.0821
  306TMC3    C7 4665   1.008   3.708  14.610  0.1748 -0.1004  0.2508
  306TMC3    C8 4666   1.193   3.304  14.401  0.0574 -0.2692 -0.6625
  306TMC3    O1 4667   0.906   3.778  14.602 -0.0122  0.2659 -0.6210
  306TMC3    O2 4668   1.174   3.228  14.306 -0.2638  0.1707 -0.1591
  307MPD2     C 4669   3.558   1.235   0.348 -0.5315  0.3817  1.0425
  307MPD2    C1 4670   3.580   1.370   0.335 -0.3631 -0.5072  0.3755
  307MPD2    C2 4671   3.478   1.464   0.366 -0.4804 -0.4139 -0.3085
  307MPD2    C3 4672   3.354   1.414   0.388  0.1585  0.2979 -0.1305
  307MPD2    C4 4673   3.330   1.277   0.395  0.6336 -0.1060  0.6251
  307MPD2    C5 4674   3.432   1.189   0.373 -0.6344 -0.8083  0.4691
  307MPD2     H 4675   3.495   1.571   0.357 -0.9962 -0.1520  1.8126
  307MPD2    H1 4676   3.234   1.233   0.420 -0.0410 -0.8658 -3.3718
  307MPD2    H2 4677   3.629   1.156   0.326 -0.8022  0.4482 -0.0796
  307MPD2    H3 4678   3.421   1.081   0.380  1.0513 -1.0416 -0.4173
  307MPD2     N 4679   3.246   1.498   0.414  0.1110 -0.4455 -0.5851
  307MPD2    H5 4680   3.160   1.457   0.447  1.0625 -2.7820 -1.0304
  307MPD2    N1 4681   3.701   1.416   0.280 -0.2549  0.4468  0.1172
  307MPD2    H7 4682   3.709   1.517   0.271  0.4198  0.1957 -2.2019
  308TMC3    C1 4683   2.871   1.660   0.467  0.9926  0.5619  0.1304
  308TMC3    C2 4684   2.859   1.793   0.511 -0.5414 -0.2090  0.1912
  308TMC3    C3 4685   2.973   1.865   0.521  0.3800  0.3076 -0.0620
  308TMC3    C4 4686   2.993   1.601   0.435 -0.4296  0.3946 -0.6507
  308TMC3    C5 4687   3.105   1.681   0.459  0.3829  0.1327 -0.2536
  308TMC3    C6 4688   3.102   1.814   0.495 -0.2595  0.5762 -0.3887
  308TMC3     C 4689   2.760   1.582   0.423 -0.2406  0.4339  0.1121
  308TMC3     O 4690   2.782   1.469   0.391 -0.1366 -0.4032 -0.0072
  308TMC3     H 4691   2.766   1.830   0.553 -1.9509 -1.4487 -1.8449
  308TMC3    H1 4692   2.999   1.497   0.403 -1.2908  0.2393 -0.3165
  308TMC3    H2 4693   3.188   1.879   0.484  0.0248  0.4904  1.3665
  308TMC3    C7 4694   3.236   1.632   0.410  0.5655  0.3356 -0.1792
  308TMC3    C8 4695   2.957   2.007   0.559 -0.3799 -0.2968 -0.0228
  308TMC3    O1 4696   3.325   1.719   0.396  0.3852  0.1733  0.5031
  308TMC3    O2 4697   2.842   2.040   0.567 -0.3433  0.2609  0.2360
  309MPD2     C 4698   2.732   2.284  17.234  0.5642 -0.4570 -0.4319
  309MPD2    C1 4699   2.665   2.321  17.116 -1.5827 -0.2774 -0.1258
  309MPD2    C2 4700   2.534   2.343  17.116  0.1430  0.2546  0.1015
  309MPD2    C3 4701   2.462   2.345  17.239 -0.5625  0.3636 -0.0984
  309MPD2    C4 4702   2.531   2.328  17.358  0.2808 -0.1862 -0.1184
  309MPD2    C5 4703   2.662   2.294  17.352 -0.4741 -0.4024  0.1009
  309MPD2     H 4704   2.475   2.357  17.026 -0.2305  1.4280  0.5295
  309MPD2    H1 4705   2.476   2.330  17.452  0.5865 -1.5052  0.0931
  309MPD2    H2 4706   2.838   2.262  17.241  0.4762 -0.9532 -0.6744
  309MPD2    H3 4707   2.704   2.263  17.447 -3.5607 -2.3248  0.8297
  309MPD2     N 4708   2.322   2.362  17.251 -1.0654 -0.3046  0.4805
  309MPD2    H5 4709   2.275   2.366  17.341 -0.7157 -0.2057  0.6590
  309MPD2    N1 4710   2.732   2.318  16.995 -0.3668 -0.0007  0.2027
  309MPD2    H7 4711   2.670   2.338  16.917 -0.3314  1.4825  0.5538
  310TMC3    C1 4712   2.907   2.373  16.843 -0.3573  0.1926  0.3944
  310TMC3    C2 4713   2.815   2.439  16.768  0.3466  0.1991  0.4375
  310TMC3    C3 4714   2.849   2.472  16.636 -0.4387  0.3816  0.0351
  310TMC3    C4 4715   3.026   2.330  16.789  0.2837 -0.0344  0.0778
  310TMC3    C5 4716   3.057   2.361  16.659  0.0102  0.3250 -0.3640
  310TMC3    C6 4717   2.964   2.428  16.582  0.1875  0.2719  0.3872
  310TMC3     C 4718   2.866   2.327  16.981 -0.6385  0.9985  0.6098
  310TMC3     O 4719   2.961   2.311  17.058  0.1928 -0.5121  0.5938
  310TMC3     H 4720   2.716   2.460  16.806 -0.2533  1.0157 -1.6173
  310TMC3    H1 4721   3.088   2.271  16.855 -1.3460 -0.8861  0.8616
  310TMC3    H2 4722   2.979   2.426  16.474 -0.3943 -0.6615  0.3223
  310TMC3    C7 4723   3.123   2.248  16.595 -0.2295  0.2373 -0.5861
  310TMC3    C8 4724   2.756   2.572  16.571 -0.3706 -0.1404 -0.4083
  310TMC3    O1 4725   3.070   2.205  16.494 -0.3089 -0.0824  0.1083
  310TMC3    O2 4726   2.639   2.558  16.604 -0.1046  0.3580  0.0940
  311MPD2     C 4727   4.662   3.759  12.342 -0.2723  0.1593  0.4734
  311MPD2    C1 4728   4.628   3.891  12.354 -0.4773  0.8040 -0.5637
  311MPD2    C2 4729   4.513   3.935  12.408 -0.5905 -0.0565 -0.3099
  311MPD2    C3 4730   4.429   3.846  12.462  0.4690 -1.0455 -0.4966
  311MPD2    C4 4731   4.457   3.713  12.459  0.0276  0.0853  0.1487
  311MPD2    C5 4732   4.577   3.671  12.402  0.1937  0.1749  0.5641
  311MPD2     H 4733   4.491   4.040  12.398  0.2544  0.2116  0.5903
  311MPD2    H1 4734   4.394   3.639  12.508 -1.0570  0.9921  0.1385
  311MPD2    H2 4735   0.016   3.716  12.306  0.9911  1.3635  2.2913
  311MPD2    H3 4736   4.601   3.566  12.414 -3.1772 -0.9406 -2.6224
  311MPD2     N 4737   4.312   3.898  12.523 -0.7973  0.1159 -0.6033
  311MPD2    H5 4738   4.303   3.999  12.524 -1.3010  0.0628  0.9689
  311MPD2    N1 4739   4.718   3.992  12.307 -0.0453 -0.0639 -0.2372
  311MPD2    H7 4740   4.672   4.082  12.297  0.6790  0.3865  0.5337
  312TMC3    C1 4741   4.100   3.910  12.618  0.1549  0.4222  0.5224
  312TMC3    C2 4742   3.972   3.856  12.596  0.6403 -0.0466  0.2362
  312TMC3    C3 4743   3.862   3.938  12.593  0.1855  0.2747  0.2290
  312TMC3    C4 4744   4.115   4.040  12.646 -0.0693 -0.6666 -0.6342
  312TMC3    C5 4745   3.997   4.121  12.643 -0.3905 -0.4072 -0.0771
  312TMC3    C6 4746   3.872   4.079  12.610 -0.1737  0.3565 -0.4116
  312TMC3     C 4747   4.214   3.826  12.581 -0.4314 -0.1886 -0.2451
  312TMC3     O 4748   4.190   3.707  12.580 -0.0554 -0.2380 -0.1024
  312TMC3     H 4749   3.955   3.749  12.586  0.4818 -0.0774  0.8343
  312TMC3    H1 4750   4.209   4.081  12.681  0.6479 -1.0418 -2.1624
  312TMC3    H2 4751   3.782   4.136  12.629 -1.8979 -3.0287  1.5448
  312TMC3    C7 4752   4.019   4.256  12.694 -0.8200 -0.2644 -0.0555
  312TMC3    C8 4753   3.730   3.874  12.567  0.1381 -0.1745  1.1318
  312TMC3    O1 4754   3.949   4.346  12.644 -0.5032 -0.1247  0.4869
  312TMC3    O2 4755   3.710   3.765  12.619  0.1200 -0.4975 -0.2846
  313MPD2     C 4756   3.820   2.729  11.359 -0.6286  0.1195  0.3150
  313MPD2    C1 4757   3.697   2.768  11.418 -0.7435 -0.0456 -0.0062
  313MPD2    C2 4758   3.588   2.682  11.427 -0.5793  0.1729 -0.2351
  313MPD2    C3 4759   3.593   2.557  11.367 -0.3455 -0.0194 -0.6763
  313MPD2    C4 4760   3.713   2.517  11.319  0.5515  0.0125 -0.4488
  313MPD2    C5 4761   3.821   2.601  11.310  0.3890  0.1897  0.1880
  313MPD2     H 4762   3.492   2.724  11.453  0.0986  2.1077 -0.7882
  313MPD2    H1 4763   3.727   2.417  11.279  1.4094  0.1188 -0.4136
  313MPD2    H2 4764   3.893   2.805  11.334  1.1350 -1.5103  0.5387
  313MPD2    H3 4765   3.905   2.574  11.247  0.5448 -2.5211  1.5496
  313MPD2     N 4766   3.477   2.488  11.370 -0.4228 -0.0770 -0.3174
  313MPD2    H5 4767   3.403   2.537  11.419  1.1444  1.4359  0.5249
  313MPD2    N1 4768   3.676   2.899  11.468 -0.2331  0.3320 -0.0406
  313MPD2    H7 4769   3.580   2.919  11.495 -0.2965  0.9893 -0.7395
  314TMC3    C1 4770   3.740   3.120  11.551  0.6478  0.1402  0.2396
  314TMC3    C2 4771   3.844   3.198  11.579 -0.4466  0.4870 -0.3415
  314TMC3    C3 4772   3.831   3.331  11.562  0.0497  0.1474 -0.4232
  314TMC3    C4 4773   3.616   3.158  11.522  0.4067 -0.3821 -0.8663
  314TMC3    C5 4774   3.606   3.292  11.501  0.2630  0.1939 -0.4274
  314TMC3    C6 4775   3.708   3.381  11.520  0.3029  0.1639 -0.0441
  314TMC3     C 4776   3.781   2.993  11.494  0.4881 -0.0822 -0.1621
  314TMC3     O 4777   3.900   2.988  11.463 -0.1617 -0.0629  0.5351
  314TMC3     H 4778   3.935   3.150  11.611 -2.0188 -1.5836  0.9673
  314TMC3    H1 4779   3.541   3.087  11.490  0.5226 -0.2331 -1.4678
  314TMC3    H2 4780   3.702   3.489  11.509  0.1242  0.3733  1.9951
  314TMC3    C7 4781   3.531   3.316  11.383 -0.3222 -0.6867  0.3007
  314TMC3    C8 4782   3.944   3.414  11.528  0.6386 -0.0945  0.2887
  314TMC3    O1 4783   3.426   3.257  11.382  1.0514  0.4128 -0.2000
  314TMC3    O2 4784   3.920   3.506  11.451 -0.2520  0.0464 -0.3856
  315MPD2     C 4785   4.053   1.171  17.105 -0.3989 -0.0500  0.4033
  315MPD2    C1 4786   4.085   1.195  17.237 -0.0923 -0.5948  0.1529
  315MPD2    C2 4787   4.139   1.313  17.274 -0.1187 -0.2585 -0.0059
  315MPD2    C3 4788   4.149   1.413  17.186  0.3539 -0.8886  0.0964
  315MPD2    C4 4789   4.130   1.390  17.051  0.0490  0.1668  0.2487
  315MPD2    C5 4790   4.083   1.272  17.012 -0.4649  0.0182 -0.5218
  315MPD2     H 4791   4.151   1.332  17.380 -0.5538  0.1108 -0.0220
  315MPD2    H1 4792   4.138   1.473  16.982  2.9158  0.2329  0.6653
  315MPD2    H2 4793   4.038   1.074  17.058 -1.4841  0.7602 -0.9016
  315MPD2    H3 4794   4.052   1.261  16.909 -0.4327 -0.2981 -0.4977
  315MPD2     N 4795   4.169   1.536  17.245 -0.3994 -0.3767  0.2210
  315MPD2    H5 4796   4.185   1.527  17.345  2.1446 -0.4143 -0.1795
  315MPD2    N1 4797   4.067   1.103  17.345  0.3016 -0.1315 -0.5687
  315MPD2    H7 4798   4.096   1.129  17.438 -0.7262 -1.0896  0.0095
  316TMC3    C1 4799   4.218   1.755  17.276 -0.0395  0.3464  0.5266
  316TMC3    C2 4800   4.294   1.734  17.387  0.1920 -0.0175 -0.1699
  316TMC3    C3 4801   4.297   1.828  17.486 -0.6929 -0.0533 -0.1389
  316TMC3    C4 4802   4.157   1.873  17.268 -0.1769  0.1213  0.1343
  316TMC3    C5 4803   4.170   1.970  17.365  0.2978  0.0723  0.0917
  316TMC3    C6 4804   4.248   1.951  17.469  0.0774 -0.2283  0.2452
  316TMC3     C 4805   4.166   1.656  17.183  0.6782 -0.3047 -0.4659
  316TMC3     O 4806   4.132   1.696  17.074 -0.0486 -0.4043 -0.5391
  316TMC3     H 4807   4.340   1.637  17.405 -2.0750 -0.5378  2.8008
  316TMC3    H1 4808   4.080   1.878  17.191 -0.0249  0.6616  0.0185
  316TMC3    H2 4809   4.277   2.036  17.531  1.0650  0.1095 -0.6763
  316TMC3    C7 4810   4.117   2.107  17.345  0.5011 -0.0800 -0.5292
  316TMC3    C8 4811   4.344   1.801  17.620 -0.2355 -0.5560 -0.0603
  316TMC3    O1 4812   4.132   2.187  17.434  0.1429  0.5155 -0.5712
  316TMC3    O2 4813   4.320   1.887  17.702  0.8658 -0.3079 -0.2559
  317MPD2     C 4814   0.674   0.898  12.985 -0.1101  0.0746 -0.4226
  317MPD2    C1 4815   0.716   0.784  12.924 -0.0283  0.1412 -0.1866
  317MPD2    C2 4816   0.811   0.708  12.985  0.8287  0.2632 -0.1465
  317MPD2    C3 4817   0.869   0.739  13.108  0.3882  0.3166 -0.5405
  317MPD2    C4 4818   0.826   0.847  13.175 -0.5488  0.0353  0.0885
  317MPD2    C5 4819   0.727   0.922  13.110  0.6736  0.2150 -0.6741
  317MPD2     H 4820   0.846   0.619  12.933 -2.9061 -1.2540 -0.0914
  317MPD2    H1 4821   0.856   0.871  13.276  0.8833 -0.2989 -0.2567
  317MPD2    H2 4822   0.602   0.969  12.946  0.2760  0.6189 -0.1370
  317MPD2    H3 4823   0.688   1.014  13.154  2.4662  0.3889  0.5836
  317MPD2     N 4824   0.958   0.652  13.162 -0.2510 -0.3411 -0.1353
  317MPD2    H5 4825   0.987   0.574  13.104  1.0965  0.3599 -0.4017
  317MPD2    N1 4826   0.664   0.744  12.803 -0.1509  0.3260  0.1086
  317MPD2    H7 4827   0.710   0.665  12.759 -2.2027 -0.0439 -1.3628
  318TMC3    C1 4828   1.102   0.546  13.304  0.2271 -0.2281  0.3573
  318TMC3    C2 4829   1.048   0.425  13.310 -0.0716  0.7954 -0.6493
  318TMC3    C3 4830   1.132   0.317  13.315  0.1754 -0.3490 -0.0933
  318TMC3    C4 4831   1.239   0.563  13.314  0.3664 -0.5190 -0.4316
  318TMC3    C5 4832   1.313   0.455  13.311  0.0111 -0.2671  0.2688
  318TMC3    C6 4833   1.268   0.328  13.323  0.0886 -0.0206 -0.0981
  318TMC3     C 4834   1.025   0.664  13.285 -0.1246 -0.9048 -0.8801
  318TMC3     O 4835   1.041   0.759  13.363 -0.0262  0.1673 -0.1951
  318TMC3     H 4836   0.939   0.419  13.313 -0.0312  0.6840  0.6530
  318TMC3    H1 4837   1.277   0.664  13.309  0.5497 -0.4206  2.5804
  318TMC3    H2 4838   1.326   0.238  13.305  0.4620  0.1386  0.3287
  318TMC3    C7 4839   1.436   0.476  13.249 -0.6166 -0.7100 -0.8523
  318TMC3    C8 4840   1.078   0.179  13.309 -0.4418  0.4715 -0.1011
  318TMC3    O1 4841   1.464   0.584  13.195 -0.1633 -0.4136 -0.2453
  318TMC3    O2 4842   1.158   0.089  13.334  0.4281  0.2754 -1.1537
  319MPD2     C 4843   2.160   1.631  16.636  0.3543  0.8628 -0.1011
  319MPD2    C1 4844   2.118   1.517  16.693  0.3227  0.2173  0.0934
  319MPD2    C2 4845   2.030   1.435  16.626 -0.6584 -0.4415  0.6924
  319MPD2    C3 4846   1.979   1.472  16.501 -0.0047 -0.6871 -0.1525
  319MPD2    C4 4847   2.024   1.584  16.447  0.5145 -0.1698  0.6287
  319MPD2    C5 4848   2.112   1.662  16.511 -0.6108  0.0714  0.5470
  319MPD2     H 4849   1.996   1.348  16.680  1.2423 -1.9541 -0.5530
  319MPD2    H1 4850   1.982   1.616  16.352  0.8865 -1.4950  0.0160
  319MPD2    H2 4851   2.219   1.712  16.677  0.5486  0.2212  0.8833
  319MPD2    H3 4852   2.142   1.749  16.454 -0.2277  1.3183  2.6410
  319MPD2     N 4853   1.874   1.409  16.438 -0.4424  0.4242  0.0517
  319MPD2    H5 4854   1.842   1.449  16.350 -0.1025 -0.3870 -0.4370
  319MPD2    N1 4855   2.154   1.480  16.823 -0.7124 -0.2906  0.1612
  319MPD2    H7 4856   2.102   1.398  16.854 -0.3422 -1.0113 -1.0888
  320TMC3    C1 4857   1.681   1.273  16.420  0.0259 -0.1830 -0.0181
  320TMC3    C2 4858   1.609   1.381  16.367  0.9273 -0.3260  0.2531
  320TMC3    C3 4859   1.501   1.345  16.289  0.0641  0.1139  0.3112
  320TMC3    C4 4860   1.640   1.143  16.403 -0.1350 -0.0047  0.1751
  320TMC3    C5 4861   1.527   1.118  16.324 -0.7379  0.7737 -0.5081
  320TMC3    C6 4862   1.463   1.219  16.266 -0.0485  0.7544 -0.0240
  320TMC3     C 4863   1.805   1.299  16.487 -0.6398 -0.2533 -0.4655
  320TMC3     O 4864   1.840   1.224  16.577 -0.2247 -0.3023 -0.4243
  320TMC3     H 4865   1.630   1.484  16.393 -0.6626 -0.5656  2.4666
  320TMC3    H1 4866   1.700   1.058  16.433  1.2488  1.1617  0.6637
  320TMC3    H2 4867   1.370   1.190  16.218  0.4054  1.1598 -1.1482
  320TMC3    C7 4868   1.506   0.987  16.253  0.1621 -0.9284  0.0012
  320TMC3    C8 4869   1.451   1.443  16.191 -0.4567  0.2049 -0.0305
  320TMC3    O1 4870   1.435   0.983  16.151 -0.0142 -0.0783  0.4995
  320TMC3    O2 4871   1.472   1.555  16.226  0.1882 -0.1331 -0.0093
  321TMC3    C1 4872   2.258   1.467  17.037  0.1134  0.0144  0.2690
  321TMC3    C2 4873   2.143   1.423  17.103  0.0399  0.4864 -0.8374
  321TMC3    C3 4874   2.148   1.401  17.239  0.0238 -0.1984 -0.5349
  321TMC3    C4 4875   2.359   1.517  17.113 -0.1025  0.7011  0.1391
  321TMC3    C5 4876   2.365   1.497  17.243 -0.7243 -0.2659 -0.1723
  321TMC3    C6 4877   2.262   1.439  17.306  0.0980  0.4256 -0.5169
  321TMC3     C 4878   2.243   1.534  16.907 -0.2695  0.2534  0.2987
  321TMC3     O 4879   2.318   1.635  16.913  0.2612 -0.2198 -0.3590
  321TMC3     H 4880   2.058   1.383  17.048 -0.2306  1.5341 -1.1917
  321TMC3    H1 4881   2.453   1.541  17.064  0.4521 -0.5472  0.6107
  321TMC3    H2 4882   2.270   1.427  17.413  1.5287 -2.0271 -0.9147
  321TMC3    C7 4883   2.481   1.424  17.272 -0.3309 -0.3375  0.4888
  321TMC3    C8 4884   2.090   1.267  17.273 -0.8016  0.4181 -0.1766
  321TMC3    O1 4885   2.450   1.305  17.287  0.1300  0.1109  0.0479
  321TMC3    O2 4886   1.979   1.225  17.241  0.0403 -0.3631 -0.3931
  322MPD2     C 4887   0.205   3.144  13.808 -0.0440  0.2532  0.1128
  322MPD2    C1 4888   0.275   3.055  13.888 -0.6063  0.0587 -0.6471
  322MPD2    C2 4889   0.309   2.932  13.830  0.2925  0.5157  0.4677
  322MPD2    C3 4890   0.275   2.902  13.701 -0.6595  0.4179 -0.4026
  322MPD2    C4 4891   0.197   2.985  13.626  0.8860  0.2337  0.3348
  322MPD2    C5 4892   0.164   3.105  13.681 -0.3434  0.1101  0.0677
  322MPD2     H 4893   0.365   2.861  13.889  0.9388  0.3657 -0.3199
  322MPD2    H1 4894   0.167   2.956  13.526  0.1590 -0.5769  0.7855
  322MPD2    H2 4895   0.184   3.247  13.834  1.3382  0.5072  0.2265
  322MPD2    H3 4896   0.097   3.166  13.622 -1.4085  0.0088  1.1780
  322MPD2     N 4897   0.331   2.785  13.653  0.2567  0.1725 -0.0402
  322MPD2    H5 4898   0.401   2.745  13.716  0.9659  0.9246 -0.3555
  322MPD2    N1 4899   0.338   3.104  13.999  0.2619  0.1838  0.2942
  322MPD2    H7 4900   0.334   3.204  14.016  2.4084  0.1622  0.8477
  323TMC3    C1 4901   0.508   3.112  14.164 -0.6086 -0.0464 -0.0605
  323TMC3    C2 4902   0.548   3.237  14.119  0.3444  0.4135 -0.0966
  323TMC3    C3 4903   0.668   3.277  14.167  0.8168  0.1126 -0.4788
  323TMC3    C4 4904   0.572   3.041  14.262 -0.0541 -0.5809 -0.3074
  323TMC3    C5 4905   0.680   3.097  14.322 -0.4680  0.7183  0.0213
  323TMC3    C6 4906   0.738   3.212  14.265  0.2299 -0.0079  0.0278
  323TMC3     C 4907   0.416   3.037  14.088  0.5122  0.7279 -0.2815
  323TMC3     O 4908   0.429   2.914  14.084  0.5332  0.2770  0.2798
  323TMC3     H 4909   0.480   3.299  14.061 -0.5599 -2.0320 -1.6931
  323TMC3    H1 4910   0.533   2.943  14.290 -2.7673  0.3917 -0.6279
  323TMC3    H2 4911   0.835   3.246  14.301 -0.8375 -1.3519  4.1591
  323TMC3    C7 4912   0.761   3.001  14.400  0.1417 -0.6650 -0.9084
  323TMC3    C8 4913   0.753   3.340  14.072  0.0818  0.1171  0.7201
  323TMC3    O1 4914   0.763   2.885  14.369  0.6767 -0.1514  0.0307
  323TMC3    O2 4915   0.866   3.366  14.112  0.0721 -0.2401  0.0024
  324MPD2     C 4916   2.538   4.253  14.836  0.6007  0.7334 -0.3969
  324MPD2    C1 4917   2.564   4.321  14.718 -0.0160  0.2774  0.3976
  324MPD2    C2 4918   2.457   4.379  14.654  0.2576 -0.0884 -0.6994
  324MPD2    C3 4919   2.328   4.355  14.689  0.9049  0.0160 -0.5157
  324MPD2    C4 4920   2.307   4.271  14.796 -0.1777  0.3609  0.5474
  324MPD2    C5 4921   2.408   4.228  14.880 -0.6442 -0.6481  0.0862
  324MPD2     H 4922   2.473   4.438  14.564  1.6019 -0.6597 -0.8402
  324MPD2    H1 4923   2.208   4.235  14.823  0.0600  0.7433  1.9497
  324MPD2    H2 4924   2.616   4.216  14.901  0.9992  2.2804 -0.0195
  324MPD2    H3 4925   2.394   4.174  14.973 -1.1627  1.0824  1.0252
  324MPD2     N 4926   2.212   4.385  14.617 -0.2893  0.1971  0.0612
  324MPD2    H5 4927   2.125   4.349  14.655  0.5451 -1.0491  0.7968
  324MPD2    N1 4928   2.693   4.353  14.678 -0.0598  0.3302 -0.2626
  324MPD2    H7 4929   2.712   4.401  14.590 -1.3231 -0.7992 -1.1491
  325TMC3    C1 4930   2.068   4.461  14.456 -0.3569  0.7266  0.2268
  325TMC3    C2 4931   2.018   4.426  14.331  0.2402  0.2918 -0.1770
  325TMC3    C3 4932   1.884   4.430  14.306  0.2092  0.9269  0.5245
  325TMC3    C4 4933   1.988   4.509  14.551 -0.7678 -0.1068 -0.2030
  325TMC3    C5 4934   1.848   4.511  14.519  0.0261 -0.3868 -0.4910
  325TMC3    C6 4935   1.792   4.468  14.402 -0.5815 -1.3910  0.3944
  325TMC3     C 4936   2.210   4.427  14.488  0.0898  0.5352 -0.1684
  325TMC3     O 4937   2.295   4.443  14.403  0.0527  0.2632  0.2323
  325TMC3     H 4938   2.089   4.380  14.263  0.0618  0.0381 -0.1922
  325TMC3    H1 4939   2.030   4.542  14.645 -0.7700 -0.4006 -0.1015
  325TMC3    H2 4940   1.687   4.454  14.381 -0.4499 -1.7451 -0.0375
  325TMC3    C7 4941   1.762   4.542  14.631 -0.2343  0.5045  0.1530
  325TMC3    C8 4942   1.832   4.356  14.186  0.2470  0.3587 -1.3365
  325TMC3    O1 4943   1.806   4.616  14.717  0.2454  0.3468 -0.0602
  325TMC3    O2 4944   1.904   4.270  14.137 -0.0401  0.0963 -0.5519
  326MPD2     C 4945   3.160   0.640  10.913 -0.4181  0.3347  0.1220
  326MPD2    C1 4946   3.232   0.695  10.812  0.0354 -0.2398 -0.5768
  326MPD2    C2 4947   3.366   0.720  10.831  0.3586 -0.5363 -0.2978
  326MPD2    C3 4948   3.419   0.723  10.959 -0.6304 -0.3763 -0.1534
  326MPD2    C4 4949   3.343   0.676  11.062 -0.2406  0.1972 -0.5253
  326MPD2    C5 4950   3.216   0.625  11.041  0.5278  0.3113  0.5067
  326MPD2     H 4951   3.423   0.759  10.747 -0.7696  1.1918 -0.2645
  326MPD2    H1 4952   3.377   0.678  11.164 -1.3415 -2.4722 -0.1038
  326MPD2    H2 4953   3.059   0.601  10.901 -0.4910  0.1810  1.2336
  326MPD2    H3 4954   3.158   0.582  11.122 -0.8386  1.4340  0.1263
  326MPD2     N 4955   3.551   0.769  10.994 -0.5125  0.1613  0.4866
  326MPD2    H5 4956   3.580   0.765  11.091  1.7236 -1.5007 -0.2255
  326MPD2    N1 4957   3.183   0.715  10.678 -0.0547  0.8347  0.0577
  326MPD2    H7 4958   3.252   0.746  10.611  0.8793 -0.6943  0.3293
  327TMC3    C1 4959   3.046   0.706  10.498  0.0034 -0.3800 -0.6795
  327TMC3    C2 4960   2.952   0.798  10.454  0.0025 -0.6275  0.2123
  327TMC3    C3 4961   2.979   0.859  10.338  0.3302 -0.1772 -0.1752
  327TMC3    C4 4962   3.166   0.678  10.431  0.2340  0.2486  0.6560
  327TMC3    C5 4963   3.188   0.743  10.316  0.3782 -0.2166 -0.6005
  327TMC3    C6 4964   3.097   0.832  10.266  0.2568 -0.7518 -0.8532
  327TMC3     C 4965   3.059   0.698  10.641  0.5367  0.9110  0.0018
  327TMC3     O 4966   2.961   0.716  10.714  0.4081  0.8236 -1.0068
  327TMC3     H 4967   2.865   0.814  10.516 -0.7705  0.7302 -1.2108
  327TMC3    H1 4968   3.236   0.614  10.485 -0.6609 -1.9413 -0.7594
  327TMC3    H2 4969   3.123   0.906  10.191 -0.0307 -0.3375 -0.5429
  327TMC3    C7 4970   3.326   0.761  10.271  0.1217  0.0184 -0.0626
  327TMC3    C8 4971   2.911   0.991  10.326 -0.1464 -0.5778  0.1937
  327TMC3    O1 4972   3.348   0.865  10.206 -0.8616  0.1057 -0.1617
  327TMC3    O2 4973   2.976   1.078  10.270 -0.1700 -0.1559  0.3380
  328MPD2     C 4974   1.129   0.079  17.127  0.3953  0.0842  0.2591
  328MPD2    C1 4975   1.079   0.001  17.027 -0.4128  0.3236 -0.5372
  328MPD2    C2 4976   1.046   0.055  16.901  0.1449  0.6916  0.1636
  328MPD2    C3 4977   1.058   0.193  16.882  0.4551 -0.0233  0.2321
  328MPD2    C4 4978   1.098   0.273  16.990 -0.3817  0.3814 -0.0799
  328MPD2    C5 4979   1.139   0.211  17.105  0.2830 -0.2303  1.1827
  328MPD2     H 4980   1.013   4.722  16.827 -0.0837 -0.1184  1.0548
  328MPD2    H1 4981   1.083   0.380  16.977 -4.5202 -0.1953 -0.2132
  328MPD2    H2 4982   1.154   0.043  17.226  0.3745  0.4639  0.4017
  328MPD2    H3 4983   1.161   0.283  17.184 -0.2284 -0.4185  1.4940
  328MPD2     N 4984   1.038   0.261  16.761 -0.1246 -0.1044 -0.0451
  328MPD2    H5 4985   1.038   0.363  16.762  0.6730 -0.0843 -1.0694
  328MPD2    N1 4986   1.035   4.611  17.057  0.2936  0.4718 -0.0836
  328MPD2    H7 4987   1.037   4.576  17.153  3.7598 -2.6662 -1.2945
  329TMC3    C1 4988   0.900   4.418  17.038 -0.0193 -0.3763  0.7613
  329TMC3    C2 4989   0.809   4.482  17.119  0.6702  0.2369  1.0535
  329TMC3    C3 4990   0.686   4.418  17.130 -0.2230 -0.6051 -0.2715
  329TMC3    C4 4991   0.868   4.322  16.952 -0.2787  0.0936 -0.1620
  329TMC3    C5 4992   0.740   4.277  16.950 -0.3543  0.2135  0.1236
  329TMC3    C6 4993   0.651   4.320  17.040  0.2864  0.6469  0.5456
  329TMC3     C 4994   0.982   4.520  16.973  0.4356  0.6420 -0.2132
  329TMC3     O 4995   0.991   4.508  16.849  0.1501 -0.0650  0.1764
  329TMC3     H 4996   0.822   4.581  17.159 -1.1063  0.3413  1.3893
  329TMC3    H1 4997   0.944   4.285  16.884  0.0889 -0.0506  0.3235
  329TMC3    H2 4998   0.552   4.277  17.037  1.2528 -1.6575  1.9708
  329TMC3    C7 4999   0.701   4.269  16.808  0.1850  0.4019  0.3772
  329TMC3    C8 5000   0.583   4.511  17.180  0.8664  0.5989  0.0395
  329TMC3    O1 5001   0.784   4.233  16.725 -0.2360  0.7650 -0.4424
  329TMC3    O2 5002   0.487   4.510  17.112 -0.2005 -0.2545  0.3109
  330TMC3    C1 5003   3.481   0.387   9.619 -0.6900 -0.1680  0.1932
  330TMC3    C2 5004   3.590   0.354   9.691 -0.0535  0.1137 -0.3154
  330TMC3    C3 5005   3.713   0.365   9.625 -0.0037  0.4014 -0.6512
  330TMC3    C4 5006   3.490   0.415   9.481  0.4418 -0.0802  0.3881
  330TMC3    C5 5007   3.614   0.431   9.420  0.0102  0.1631  0.1281
  330TMC3    C6 5008   3.726   0.403   9.497  0.5851 -1.1464  0.6537
  330TMC3     C 5009   3.359   0.360   9.684 -0.2033 -0.3735 -0.5986
  330TMC3     O 5010   3.340   0.245   9.720 -0.2127 -0.6404 -0.3931
  330TMC3     H 5011   3.570   0.329   9.795 -0.0025 -1.0657 -0.5937
  330TMC3    H1 5012   3.406   0.390   9.417 -0.8578 -0.2616  2.1913
  330TMC3    H2 5013   3.825   0.428   9.461 -0.4659  1.4600 -0.4317
  330TMC3    C7 5014   3.609   0.440   9.274  0.1024  0.5255 -0.3940
  330TMC3    C8 5015   3.829   0.312   9.679 -0.4645  0.0323  0.4323
  330TMC3    O1 5016   3.507   0.480   9.225 -0.4504 -0.4382  0.0572
  330TMC3    O2 5017   3.930   0.377   9.668  0.3254  0.0977 -0.4151
  331MPD2     C 5018   1.446   3.757  12.496  0.3888 -0.8602  0.0499
  331MPD2    C1 5019   1.542   3.771  12.393  0.1692  0.7397  0.6446
  331MPD2    C2 5020   1.620   3.662  12.365  0.3703 -0.3329 -0.1838
  331MPD2    C3 5021   1.588   3.534  12.410  0.4138  0.0257  0.0726
  331MPD2    C4 5022   1.479   3.522  12.492  0.7087 -0.5199  0.0176
  331MPD2    C5 5023   1.415   3.631  12.542  0.1577 -0.3328 -0.6010
  331MPD2     H 5024   1.702   3.680  12.296  1.1232  0.3487  0.8901
  331MPD2    H1 5025   1.450   3.422  12.520 -0.1574 -0.4662 -0.6880
  331MPD2    H2 5026   1.374   3.831  12.531 -1.3331 -2.8946  0.8254
  331MPD2    H3 5027   1.330   3.614  12.606  0.3779  1.3469  0.1251
  331MPD2     N 5028   1.655   3.415  12.378  0.1300  0.4489 -0.2951
  331MPD2    H5 5029   1.640   3.335  12.439 -2.8792  2.1798  1.1937
  331MPD2    N1 5030   1.577   3.902  12.351 -0.2443 -0.7556  0.1986
  331MPD2    H7 5031   1.538   3.980  12.404 -1.5603 -1.0766 -0.3047
  332TMC3    C1 5032   1.831   3.274  12.287 -0.7797 -0.3167 -0.1366
  332TMC3    C2 5033   1.889   3.243  12.166  0.2559  1.0002  0.2083
  332TMC3    C3 5034   2.021   3.211  12.165  0.0663 -0.4445  0.2107
  332TMC3    C4 5035   1.906   3.275  12.407  0.5201 -0.1634 -0.0781
  332TMC3    C5 5036   2.035   3.249  12.393  0.2126 -0.1056  0.7740
  332TMC3    C6 5037   2.100   3.214  12.277  0.1636  0.1742  0.5051
  332TMC3     C 5038   1.742   3.391  12.277  0.0695  0.1878 -0.0597
  332TMC3     O 5039   1.749   3.460  12.173  0.1452 -0.3924 -0.3343
  332TMC3     H 5040   1.828   3.256  12.078 -0.2026 -2.3606  0.0249
  332TMC3    H1 5041   1.853   3.301  12.498 -0.6527  1.7612 -1.2973
  332TMC3    H2 5042   2.197   3.165  12.276 -0.0389 -0.1901 -1.6149
  332TMC3    C7 5043   2.102   3.217  12.516 -0.1736  0.0067  0.1813
  332TMC3    C8 5044   2.076   3.264  12.043 -0.2458  0.0358 -0.2089
  332TMC3    O1 5045   2.021   3.179  12.599  0.2230  0.1853 -0.4264
  332TMC3    O2 5046   2.187   3.318  12.043  0.2250 -0.1283 -0.4318
  333MPD2     C 5047   2.218   3.974  11.100 -0.4671 -0.1433 -0.2596
  333MPD2    C1 5048   2.221   3.903  10.975  0.6985  0.0564 -1.1859
  333MPD2    C2 5049   2.182   3.768  10.973 -0.3639  0.1811 -0.4381
  333MPD2    C3 5050   2.142   3.709  11.091 -0.3147  0.6513  0.2120
  333MPD2    C4 5051   2.142   3.783  11.212  0.0070 -0.5836  0.1163
  333MPD2    C5 5052   2.178   3.916  11.215 -0.0206  0.0544  1.0997
  333MPD2     H 5053   2.178   3.709  10.882  0.4745  0.2588 -0.5236
  333MPD2    H1 5054   2.139   3.732  11.308  0.8119  0.4806  0.7103
  333MPD2    H2 5055   2.238   4.081  11.095 -1.0570  0.0119  0.6691
  333MPD2    H3 5056   2.180   3.972  11.308  0.5085  0.5453  0.7876
  333MPD2     N 5057   2.090   3.581  11.076 -0.0584 -0.2005  0.5552
  333MPD2    H5 5058   2.094   3.544  10.982  1.8174  3.3510 -0.7766
  333MPD2    N1 5059   2.272   3.984  10.874 -0.0203  0.1397 -0.1906
  333MPD2    H7 5060   2.299   4.076  10.908 -1.4355  1.7104 -3.3619
  334TMC3    C1 5061   2.364   4.023  10.668  0.0436  0.7987 -0.6304
  334TMC3    C2 5062   2.466   3.971  10.591 -0.3377  0.3942 -0.3551
  334TMC3    C3 5063   2.565   4.061  10.551  0.0113  0.0560 -0.2624
  334TMC3    C4 5064   2.349   4.158  10.688  0.6694 -0.3365  0.0652
  334TMC3    C5 5065   2.446   4.239  10.640  0.5501 -0.1954 -0.3440
  334TMC3    C6 5066   2.554   4.194  10.576 -0.1819  0.9015  0.4661
  334TMC3     C 5067   2.298   3.928  10.752  0.4146 -0.1968 -0.1004
  334TMC3     O 5068   2.298   3.808  10.717 -0.5532 -0.4036  0.0284
  334TMC3     H 5069   2.468   3.871  10.549  0.7070 -1.1420  3.3136
  334TMC3    H1 5070   2.268   4.195  10.750  2.1168  0.0860  1.6989
  334TMC3    H2 5071   2.620   4.270  10.537  1.8791 -0.6006  1.0454
  334TMC3    C7 5072   2.444   4.381  10.663  0.1748 -0.4252 -0.2390
  334TMC3    C8 5073   2.677   4.017  10.472 -0.1971  0.1850  0.1842
  334TMC3    O1 5074   2.541   4.456  10.646 -0.4150 -0.4538 -0.0449
  334TMC3    O2 5075   2.668   3.926  10.392 -0.0343 -0.1116 -0.2710
  335TMC3    C1 5076   1.969   0.128  17.265  0.5262 -0.6978 -0.4281
  335TMC3    C2 5077   1.855   0.175  17.212  0.4405  0.2806 -0.2586
  335TMC3    C3 5078   1.852   0.299  17.160 -0.8848  0.2169  0.0884
  335TMC3    C4 5079   2.075   0.211  17.282  0.5093  0.2728 -0.3683
  335TMC3    C5 5080   2.075   0.332  17.217  0.4272  0.2914 -0.0162
  335TMC3    C6 5081   1.959   0.382  17.167 -0.3209 -0.3618  0.1420
  335TMC3     C 5082   1.960   4.732  17.320 -0.5784 -0.2309  0.3980
  335TMC3     O 5083   1.848   4.690  17.348  0.1014 -0.9660 -0.7253
  335TMC3     H 5084   1.768   0.111  17.213  0.1621  0.6993  1.4449
  335TMC3    H1 5085   2.166   0.182  17.333  1.3307  2.9746 -0.2614
  335TMC3    H2 5086   1.959   0.474  17.110  2.4928 -0.5487 -0.1698
  335TMC3    C7 5087   2.186   0.415  17.213  0.3528  0.0153 -0.2838
  335TMC3    C8 5088   1.737   0.348  17.092  0.0883  0.5712  0.4990
  335TMC3    O1 5089   2.297   0.362  17.202 -0.0766  0.1874  0.6133
  335TMC3    O2 5090   1.719   0.468  17.086  0.1733 -0.2070 -0.1976
  336MPD2     C 5091   1.574   2.743  16.187  0.1786 -0.0167  0.4582
  336MPD2    C1 5092   1.585   2.685  16.064 -0.0800  0.1473  0.7541
  336MPD2    C2 5093   1.660   2.572  16.049  0.4617  0.2529  0.4675
  336MPD2    C3 5094   1.706   2.510  16.167  1.2065  0.2198 -0.5130
  336MPD2    C4 5095   1.693   2.567  16.292 -0.4129 -0.0076 -0.6107
  336MPD2    C5 5096   1.625   2.685  16.300 -0.2922  0.4037  0.7826
  336MPD2     H 5097   1.667   2.523  15.953  0.2431  0.3043  0.4255
  336MPD2    H1 5098   1.726   2.522  16.385  0.3614  0.9450 -0.4189
  336MPD2    H2 5099   1.513   2.831  16.207 -1.3641 -0.2824 -3.1887
  336MPD2    H3 5100   1.602   2.724  16.399 -1.8518  2.2091 -0.2849
  336MPD2     N 5101   1.764   2.379  16.157  0.6918  0.3537 -1.1201
  336MPD2    H5 5102   1.779   2.346  16.252 -1.0949  0.8361 -0.6570
  336MPD2    N1 5103   1.521   2.743  15.951  1.3143  0.2750  0.2833
  336MPD2    H7 5104   1.529   2.686  15.867 -2.6054 -0.2691  0.2666
  337TMC3    C1 5105   1.384   2.872  15.814 -0.2340  0.1593  0.7728
  337TMC3    C2 5106   1.309   2.760  15.770 -0.0641 -0.1779 -0.3372
  337TMC3    C3 5107   1.213   2.784  15.675  1.1687  0.8816  0.7149
  337TMC3    C4 5108   1.360   2.996  15.772  0.0427  0.2276  0.2745
  337TMC3    C5 5109   1.270   3.011  15.673 -0.3379 -1.0623 -0.0523
  337TMC3    C6 5110   1.196   2.909  15.627 -0.6571  0.5449 -0.1658
  337TMC3     C 5111   1.439   2.853  15.947 -0.5844  0.0624 -0.2072
  337TMC3     O 5112   1.451   2.946  16.027 -0.3462 -0.3927 -0.3708
  337TMC3     H 5113   1.334   2.662  15.809 -3.5900 -0.3727  1.3988
  337TMC3    H1 5114   1.426   3.077  15.803  0.0686  0.5001 -0.4817
  337TMC3    H2 5115   1.131   2.921  15.542 -1.0235 -1.5919 -0.1660
  337TMC3    C7 5116   1.254   3.151  15.631  0.0967 -0.4002  0.4324
  337TMC3    C8 5117   1.142   2.674  15.616 -0.5223 -0.4545 -0.0360
  337TMC3    O1 5118   1.328   3.233  15.680  0.4507  0.7296 -0.5428
  337TMC3    O2 5119   1.212   2.576  15.597 -0.0703 -0.1943 -0.0754
  338MPD2     C 5120   1.938   1.802   0.862  0.5889  0.3929 -0.3260
  338MPD2    C1 5121   1.848   1.746   0.779  0.4918 -0.5119 -1.3248
  338MPD2    C2 5122   1.787   1.622   0.814 -0.1029 -0.1722 -0.0678
  338MPD2    C3 5123   1.814   1.561   0.933  0.1214 -0.0823 -0.5069
  338MPD2    C4 5124   1.899   1.625   1.021 -0.7322  0.2006  0.2749
  338MPD2    C5 5125   1.956   1.748   0.983  0.2440  0.5433 -0.4772
  338MPD2     H 5126   1.712   1.576   0.752  0.1025  0.0033 -0.4448
  338MPD2    H1 5127   1.921   1.589   1.121 -1.1926 -1.2729 -0.1571
  338MPD2    H2 5128   1.979   1.899   0.836  1.1204 -0.2633 -1.9186
  338MPD2    H3 5129   2.007   1.812   1.054  0.2730 -0.9924  0.8918
  338MPD2     N 5130   1.752   1.438   0.974 -0.1582  0.5110 -0.6696
  338MPD2    H5 5131   1.691   1.393   0.906  1.5382  0.8555 -2.4052
  338MPD2    N1 5132   1.825   1.802   0.654  0.1007 -0.1670  0.3024
  338MPD2    H7 5133   1.756   1.750   0.600  1.4426  0.6012 -2.1663
  339TMC3    C1 5134   1.690   1.258   1.106  1.0747 -0.1037 -0.2978
  339TMC3    C2 5135   1.634   1.219   1.227  0.9426 -0.3500  0.4305
  339TMC3    C3 5136   1.567   1.098   1.233  0.0738  0.5795 -0.2004
  339TMC3    C4 5137   1.682   1.175   0.988  0.0754  0.9385 -0.5174
  339TMC3    C5 5138   1.601   1.075   0.997 -0.3289  0.0654  0.4995
  339TMC3    C6 5139   1.547   1.026   1.117 -0.4855  0.3840 -0.6443
  339TMC3     C 5140   1.747   1.387   1.102  0.3929  0.8345  0.0610
  339TMC3     O 5141   1.777   1.438   1.209  0.2814  0.6551 -0.4821
  339TMC3     H 5142   1.643   1.276   1.318 -2.1060 -0.1380  0.6008
  339TMC3    H1 5143   1.740   1.208   0.902  1.3654 -0.1160 -0.0638
  339TMC3    H2 5144   1.474   0.946   1.120  1.4476 -1.2958  2.9553
  339TMC3    C7 5145   1.506   1.083   0.884  0.5858  0.6857 -0.5552
  339TMC3    C8 5146   1.452   1.105   1.321  0.2023  0.2860  0.5738
  339TMC3    O1 5147   1.522   1.181   0.811 -0.4439  0.4520 -0.5338
  339TMC3    O2 5148   1.420   1.215   1.362 -0.2922  0.4428 -0.1486
  340MPD2     C 5149   1.599   1.043  10.054 -0.1676 -0.4788 -0.8402
  340MPD2    C1 5150   1.571   0.909  10.063 -0.3423 -0.3683  0.3472
  340MPD2    C2 5151   1.608   0.845  10.175 -0.9029  0.0157  0.1984
  340MPD2    C3 5152   1.677   0.906  10.277  0.3698 -0.1974 -0.2015
  340MPD2    C4 5153   1.700   1.042  10.267 -0.0077 -0.6723 -0.4756
  340MPD2    C5 5154   1.670   1.107  10.157 -0.4293  0.4518 -0.1203
  340MPD2     H 5155   1.606   0.737  10.180  1.9502 -0.0986 -1.2464
  340MPD2    H1 5156   1.754   1.093  10.346 -0.2341  0.6252 -1.1594
  340MPD2    H2 5157   1.575   1.097   9.963 -0.1144  1.7769  0.4778
  340MPD2    H3 5158   1.702   1.209  10.143 -0.5529  0.5043 -0.0173
  340MPD2     N 5159   1.719   0.833  10.386 -0.5202 -0.1697 -0.0798
  340MPD2    H5 5160   1.773   0.889  10.452  1.6719 -1.1028 -1.0879
  340MPD2    N1 5161   1.531   0.835   9.946  0.6543 -0.0182  0.6230
  340MPD2    H7 5162   1.492   0.888   9.870  3.4324  1.6668  0.3678
  341TMC3    C1 5163   1.480   0.665   9.800 -0.6153 -0.6671 -0.7824
  341TMC3    C2 5164   1.433   0.541   9.794  0.0929 -0.8103 -0.3467
  341TMC3    C3 5165   1.474   0.462   9.688  0.3175 -0.3874  0.3812
  341TMC3    C4 5166   1.561   0.719   9.695  0.5396  0.2818  0.6913
  341TMC3    C5 5167   1.598   0.633   9.590  0.1235 -0.1037  0.3368
  341TMC3    C6 5168   1.555   0.506   9.592 -0.0669 -0.3407  0.2296
  341TMC3     C 5169   1.523   0.698   9.931  0.3776  0.4696 -0.6130
  341TMC3     O 5170   1.537   0.611  10.011  0.5855  0.3083 -0.5054
  341TMC3     H 5171   1.375   0.497   9.875 -0.1619  0.2466  0.0524
  341TMC3    H1 5172   1.613   0.814   9.705  1.2273 -0.0354  0.0766
  341TMC3    H2 5173   1.587   0.441   9.511 -1.8593  0.6932 -1.2966
  341TMC3    C7 5174   1.729   0.644   9.538 -0.3508 -0.3205 -0.0910
  341TMC3    C8 5175   1.435   0.320   9.696  0.5186  0.2265 -0.3237
  341TMC3    O1 5176   1.790   0.543   9.514 -0.5620  0.2356 -0.6656
  341TMC3    O2 5177   1.414   0.265   9.805 -0.1739  0.1146  0.0625
  342MPD2     C 5178   4.618   2.728   0.088  0.0875  0.1366  0.1370
  342MPD2    C1 5179   4.673   2.780  17.726  0.2620  0.0157  0.2936
  342MPD2    C2 5180   4.681   2.913  17.718  0.3985 -0.6393  0.1851
  342MPD2    C3 5181   4.629   2.994   0.059  0.0391  0.5967 -0.5763
  342MPD2    C4 5182   4.568   2.943   0.173  0.2481  0.7789 -0.4671
  342MPD2    C5 5183   4.574   2.808   0.191 -0.1775  0.2572 -0.3825
  342MPD2     H 5184   4.732   2.955  17.633  1.3346 -0.8150  0.6659
  342MPD2    H1 5185   4.543   3.008   0.256  0.7461 -1.1226  1.1585
  342MPD2    H2 5186   4.625   2.622   0.108 -0.3035 -0.3802 -2.4641
  342MPD2    H3 5187   4.534   2.763   0.281  0.3173  0.6855  0.0452
  342MPD2     N 5188   4.635   3.137   0.053  0.9832  0.4027 -0.0324
  342MPD2    H5 5189   4.602   3.195   0.129  0.2232  0.0432 -0.0823
  342MPD2    N1 5190   4.739   2.704  17.629 -0.0533  0.5755  0.1028
  342MPD2    H7 5191   0.042   2.749  17.549 -0.0416  0.5891  0.1164
  343TMC3    C1 5192   0.064   2.504  17.508 -0.2382  0.1385 -0.1045
  343TMC3    C2 5193   0.160   2.571  17.448 -0.2986 -0.4345 -0.3247
  343TMC3    C3 5194   0.207   2.518  17.329 -0.1150 -0.5957 -0.6200
  343TMC3    C4 5195   0.009   2.386  17.466  0.2414  0.6066 -0.0105
  343TMC3    C5 5196   0.060   2.336  17.346  0.0930 -0.3453  0.0999
  343TMC3    C6 5197   0.154   2.410  17.271  0.0854 -0.5942  0.3883
  343TMC3     C 5198   0.006   2.564  17.625  0.0164  0.7360 -0.9411
  343TMC3     O 5199   4.679   2.492  17.694 -0.3584  0.3428  0.0148
  343TMC3     H 5200   0.209   2.651  17.501 -0.1255 -0.6794 -0.1169
  343TMC3    H1 5201   4.680   2.328  17.527 -0.4504 -0.1019 -1.4603
  343TMC3    H2 5202   0.184   2.373  17.173  0.3086  2.7522 -0.7791
  343TMC3    C7 5203   0.038   2.196  17.322  0.3247  0.2443 -0.2320
  343TMC3    C8 5204   0.313   2.586  17.259  0.5668 -0.0616  0.7111
  343TMC3    O1 5205   0.009   2.160  17.209 -0.3742  0.6030  0.4685
  343TMC3    O2 5206   0.332   2.702  17.296  0.5683  0.1072 -0.0855
  344MPD2     C 5207   0.903   2.781  10.915  0.6585  0.3176  0.1958
  344MPD2    C1 5208   0.774   2.820  10.863 -0.0775 -1.1512 -0.1674
  344MPD2    C2 5209   0.761   2.948  10.822 -0.3338 -0.0781 -0.9734
  344MPD2    C3 5210   0.851   3.045  10.870  0.1950  0.1258 -0.0049
  344MPD2    C4 5211   0.970   3.008  10.926  0.5713 -0.2788  1.1386
  344MPD2    C5 5212   1.000   2.875  10.945 -0.2478 -0.3925 -0.3056
  344MPD2     H 5213   0.659   2.975  10.795 -1.3025 -2.9444 -0.2096
  344MPD2    H1 5214   1.032   3.087  10.966 -1.0168  1.0029  1.0535
  344MPD2    H2 5215   0.934   2.680  10.935  2.0380  0.8864  0.8878
  344MPD2    H3 5216   1.089   2.841  10.996 -2.1866  1.2096  4.1732
  344MPD2     N 5217   0.825   3.184  10.863 -0.1689 -0.4016 -0.1286
  344MPD2    H5 5218   0.893   3.247  10.905 -1.0995 -0.2594  1.1646
  344MPD2    N1 5219   0.662   2.730  10.867 -0.5581 -0.5703  0.0083
  344MPD2    H7 5220   0.575   2.754  10.822  0.1928  0.2298 -1.0102
  345TMC3    C1 5221   0.752   3.388  10.786 -0.3762  0.7084 -0.1619
  345TMC3    C2 5222   0.825   3.435  10.889 -0.2096  0.1640 -0.3023
  345TMC3    C3 5223   0.872   3.564  10.879 -0.7236 -0.3148  0.0165
  345TMC3    C4 5224   0.718   3.453  10.674 -0.1516  0.4544 -0.3464
  345TMC3    C5 5225   0.767   3.584  10.665 -0.1862  0.2526  0.1384
  345TMC3    C6 5226   0.845   3.641  10.770 -0.1748 -0.5099  0.2399
  345TMC3     C 5227   0.724   3.244  10.791 -0.3319  0.7469  0.1807
  345TMC3     O 5228   0.632   3.197  10.728 -0.3087 -0.4947  0.5186
  345TMC3     H 5229   0.827   3.390  10.988 -0.2455  0.3989 -0.1939
  345TMC3    H1 5230   0.651   3.408  10.602  0.3166  1.7160 -1.5666
  345TMC3    H2 5231   0.872   3.745  10.759 -0.3133 -0.3067  1.7937
  345TMC3    C7 5232   0.733   3.675  10.558 -0.5014  0.1999  0.4177
  345TMC3    C8 5233   0.951   3.620  10.990  0.4885  0.4881  0.2773
  345TMC3    O1 5234   0.817   3.759  10.527 -0.1918 -0.7293  0.1873
  345TMC3    O2 5235   0.966   3.556  11.097  0.0335 -0.7835 -0.5668
  346MPD2     C 5236   0.937   4.080  13.956 -0.8389 -0.5721 -0.5237
  346MPD2    C1 5237   0.938   4.216  13.988 -0.3943 -0.9643 -0.2614
  346MPD2    C2 5238   0.894   4.258  14.113 -0.5598  0.5375  0.1856
  346MPD2    C3 5239   0.854   4.168  14.204  0.0584  0.0168  0.3528
  346MPD2    C4 5240   0.845   4.033  14.175  0.5372 -0.1431 -0.0418
  346MPD2    C5 5241   0.888   3.995  14.056  0.4956 -0.2128  0.5677
  346MPD2     H 5242   0.907   4.362  14.142 -0.7023 -0.3412  3.3606
  346MPD2    H1 5243   0.821   3.952  14.243  2.0753  0.2344  0.9434
  346MPD2    H2 5244   0.982   4.031  13.871 -1.1314  0.7181 -1.4186
  346MPD2    H3 5245   0.883   3.889  14.038  0.2086  0.3569 -2.8813
  346MPD2     N 5246   0.840   4.220  14.335  0.5139 -0.2808 -0.0227
  346MPD2    H5 5247   0.876   4.311  14.361 -1.4234 -0.6757  4.1413
  346MPD2    N1 5248   0.980   4.313  13.896  0.0186 -0.5826 -0.6573
  346MPD2    H7 5249   0.970   4.411  13.921  2.4314 -0.9533  1.7517
  347TMC3    C1 5250   0.851   4.184  14.570 -0.2170  0.2877  0.7106
  347TMC3    C2 5251   0.979   4.223  14.574 -0.0855  0.3679  0.3814
  347TMC3    C3 5252   1.045   4.226  14.693 -0.3248  0.0478 -0.0991
  347TMC3    C4 5253   0.786   4.139  14.679 -0.6816 -0.1719  0.2034
  347TMC3    C5 5254   0.857   4.135  14.796 -0.0057 -1.3663  0.1543
  347TMC3    C6 5255   0.985   4.191  14.811  0.4018  0.5260  0.0875
  347TMC3     C 5256   0.804   4.143  14.442  0.4259 -0.3234  0.3461
  347TMC3     O 5257   0.728   4.048  14.445  0.5339 -0.0567 -0.2817
  347TMC3     H 5258   1.040   4.247  14.487 -0.7781 -0.1043 -0.2240
  347TMC3    H1 5259   0.682   4.112  14.669 -0.7310  0.6250 -1.4265
  347TMC3    H2 5260   1.022   4.205  14.912  1.8341  0.0737 -0.3758
  347TMC3    C7 5261   0.782   4.107  14.914 -0.4720  0.3371  0.1469
  347TMC3    C8 5262   1.182   4.255  14.696 -0.8432  0.0139  0.3386
  347TMC3    O1 5263   0.817   4.147  15.022  0.4550 -0.2798  0.6552
  347TMC3    O2 5264   1.240   4.256  14.588 -0.1519 -0.3968 -0.1850
  348MPD2     C 5265   4.629   4.582  12.023  0.1100 -0.4096 -0.4626
  348MPD2    C1 5266   4.639   4.543  11.886 -0.0142  0.2265 -0.3048
  348MPD2    C2 5267   4.555   4.598  11.789 -0.4688 -0.4769 -0.2651
  348MPD2    C3 5268   4.474   4.701  11.825 -0.1696 -0.6073  0.0210
  348MPD2    C4 5269   4.471   0.005  11.952  0.2317  0.1911 -0.9225
  348MPD2    C5 5270   4.540   4.687  12.060 -0.4594 -0.5284  0.6693
  348MPD2     H 5271   4.565   4.564  11.687 -0.0031  0.0679 -0.3951
  348MPD2    H1 5272   4.408   0.091  11.970 -1.9949 -1.8883  1.2470
  348MPD2    H2 5273   4.692   4.534  12.097 -0.1755  0.1072  0.1217
  348MPD2    H3 5274   4.543   4.725  12.162  0.6477 -1.7563  1.0849
  348MPD2     N 5275   4.407   0.030  11.722 -0.0431  0.2558 -0.3276
  348MPD2    H5 5276   4.393   4.714  11.637 -0.1234 -0.3362  0.0679
  348MPD2    N1 5277   4.738   4.455  11.840  0.1168 -0.1503  0.7317
  348MPD2    H7 5278   0.006   4.431  11.742 -2.7548  0.6811  0.3322
  349TMC3    C1 5279   0.162   4.299  11.833 -1.1093  0.4968  0.3779
  349TMC3    C2 5280   0.156   4.167  11.880  0.3657 -0.4583  0.4749
  349TMC3    C3 5281   0.103   4.071  11.801 -0.0171  0.0438  0.0019
  349TMC3    C4 5282   0.144   4.317  11.702  0.0036 -0.2960 -0.5099
  349TMC3    C5 5283   0.090   4.218  11.627  0.0825 -0.2008  0.0738
  349TMC3    C6 5284   0.069   4.094  11.669  0.7187  0.9069  0.6757
  349TMC3     C 5285   0.076   4.376  11.919  0.1808 -0.0636  0.7603
  349TMC3     O 5286   0.064   4.347  12.037  0.1508 -0.2961  0.3250
  349TMC3     H 5287   0.164   4.144  11.985  0.6545  2.2170  1.0428
  349TMC3    H1 5288   0.166   4.414  11.658 -3.5440  0.3327 -0.9157
  349TMC3    H2 5289   0.041   4.011  11.605  1.1551  1.7343 -0.5776
  349TMC3    C7 5290   4.731   4.274  11.533  0.8995 -0.4126  0.4347
  349TMC3    C8 5291   0.140   3.928  11.833 -0.7420 -0.2316 -0.5078
  349TMC3    O1 5292   0.006   4.387  11.501  0.0013  0.2070 -0.1071
  349TMC3    O2 5293   0.057   3.843  11.813 -0.4749 -0.2880  0.4034
  350MPD2     C 5294   2.854   2.437  10.748  0.2983 -1.2471 -0.3257
  350MPD2    C1 5295   2.933   2.332  10.729  0.7146  0.0517  0.1984
  350MPD2    C2 5296   2.991   2.278  10.846  0.6047 -0.6425  1.0311
  350MPD2    C3 5297   2.958   2.328  10.969  0.5498 -0.2311  0.4988
  350MPD2    C4 5298   2.866   2.427  10.988 -0.2321 -0.0155 -0.2500
  350MPD2    C5 5299   2.813   2.482  10.871  0.2212 -0.2940  0.2930
  350MPD2     H 5300   3.051   2.188  10.837  1.2030 -0.0503 -0.8805
  350MPD2    H1 5301   2.844   2.467  11.087  1.2494 -1.0613  0.5008
  350MPD2    H2 5302   2.809   2.490  10.664 -1.2794 -2.2372 -0.1129
  350MPD2    H3 5303   2.754   2.571  10.889 -1.8062 -1.1097 -2.3084
  350MPD2     N 5304   3.033   2.273  11.074  0.1667 -0.0680 -0.1372
  350MPD2    H5 5305   3.114   2.220  11.042 -0.9098 -2.0093  0.3804
  350MPD2    N1 5306   2.969   2.282  10.598  0.0471 -0.0818 -0.3613
  350MPD2    H7 5307   3.040   2.210  10.590 -0.0855 -0.1867 -0.6048
  351TMC3    C1 5308   2.942   2.243  10.370  0.7302 -0.0985 -0.7694
  351TMC3    C2 5309   3.057   2.164  10.370 -0.3003 -0.6192  0.5533
  351TMC3    C3 5310   3.102   2.131  10.246 -0.4435  0.3500 -0.3005
  351TMC3    C4 5311   2.870   2.254  10.251  0.5878 -0.0208  0.6732
  351TMC3    C5 5312   2.907   2.197  10.135 -0.2009  0.1115 -0.1688
  351TMC3    C6 5313   3.029   2.135  10.131 -0.0014 -0.1633 -0.3997
  351TMC3     C 5314   2.892   2.314  10.484  0.3509 -0.7603 -0.4736
  351TMC3     O 5315   2.787   2.371  10.467  0.0784  0.4651 -0.2730
  351TMC3     H 5316   3.128   2.168  10.452  0.8732 -2.5842 -0.3522
  351TMC3    H1 5317   2.786   2.323  10.248 -0.5188 -1.4146 -0.2299
  351TMC3    H2 5318   3.051   2.082  10.039  2.7283  1.1483 -0.5176
  351TMC3    C7 5319   2.799   2.115  10.084  0.0232  0.3026 -0.0756
  351TMC3    C8 5320   3.208   2.028  10.245 -0.6636 -0.2620  0.2159
  351TMC3    O1 5321   2.805   2.061   9.972 -0.1691  0.0851 -0.0351
  351TMC3    O2 5322   3.290   2.050  10.158 -0.0852 -0.1611 -0.5503
  352MPD2     C 5323   2.209   0.014   0.325 -0.6690 -1.1331 -0.5603
  352MPD2    C1 5324   2.078   4.728   0.363  0.0831 -0.5328  0.9448
  352MPD2    C2 5325   2.039   4.604   0.401 -0.1242  0.0229  0.8535
  352MPD2    C3 5326   2.129   4.505   0.411  0.7911 -0.2785  0.2030
  352MPD2    C4 5327   2.263   4.526   0.378  0.3378 -0.2620  0.3233
  352MPD2    C5 5328   2.298   4.649   0.335  0.6592 -0.0834  0.0491
  352MPD2     H 5329   1.933   4.591   0.418 -0.0771  0.0865  1.2034
  352MPD2    H1 5330   2.341   4.451   0.370 -0.1538 -0.6857 -0.4531
  352MPD2    H2 5331   2.245   0.112   0.295 -2.7487 -0.2515 -0.1954
  352MPD2    H3 5332   2.403   4.657   0.308  0.4363  0.2324 -0.7511
  352MPD2     N 5333   2.091   4.377   0.455 -0.4193 -0.0883 -0.4922
  352MPD2    H5 5334   2.173   4.319   0.471 -0.4168  0.1299  0.2531
  352MPD2    N1 5335   1.980   0.092   0.361 -0.2581 -0.2845  0.2683
  352MPD2    H7 5336   2.005   0.181   0.318 -0.2236  0.1173  1.1339
  353TMC3    C1 5337   1.988   4.190   0.538 -0.4169 -0.7069  0.4036
  353TMC3    C2 5338   2.111   4.133   0.561  0.0249 -0.4183 -0.3106
  353TMC3    C3 5339   2.114   3.999   0.591 -0.0800  0.2041  0.1119
  353TMC3    C4 5340   1.875   4.120   0.544  0.3167  0.5574 -0.3600
  353TMC3    C5 5341   1.870   3.990   0.591 -0.1825  0.2826 -0.1426
  353TMC3    C6 5342   1.995   3.929   0.608  1.0984  0.1813 -0.2720
  353TMC3     C 5343   1.970   4.324   0.488 -0.1402  0.0487  0.3422
  353TMC3     O 5344   1.856   4.360   0.467 -0.5527  0.3370  0.0476
  353TMC3     H 5345   2.207   4.182   0.546 -0.2912 -0.3317 -1.9526
  353TMC3    H1 5346   1.782   4.170   0.522 -1.0135 -1.7649  0.0263
  353TMC3    H2 5347   1.996   3.828   0.648  3.0115  0.6801  0.9352
  353TMC3    C7 5348   1.750   3.917   0.591  0.0141 -0.4088 -0.0398
  353TMC3    C8 5349   2.238   3.941   0.637 -0.3184 -0.1129 -0.4280
  353TMC3    O1 5350   1.768   3.799   0.606  0.1883 -0.6143  0.1819
  353TMC3    O2 5351   2.325   4.011   0.684  0.5067 -0.1039  0.2268
  354TMC3    C1 5352   3.635   0.550  13.383  0.2252  0.1820  0.2042
  354TMC3    C2 5353   3.645   0.690  13.361 -0.3343 -0.1658  0.3676
  354TMC3    C3 5354   3.733   0.739  13.270 -0.7498 -0.2129 -0.0551
  354TMC3    C4 5355   3.697   0.470  13.297 -0.1383  0.6002  0.4785
  354TMC3    C5 5356   3.785   0.528  13.210  0.5207 -0.8691 -0.3045
  354TMC3    C6 5357   3.808   0.657  13.201  0.4044 -0.2451 -0.3147
  354TMC3     C 5358   3.590   0.509  13.514  0.2911  0.1944  0.0400
  354TMC3     O 5359   3.541   0.402  13.532 -0.3267  0.0411  0.3283
  354TMC3     H 5360   3.579   0.756  13.416  0.1927  0.1713  0.6015
  354TMC3    H1 5361   3.691   0.361  13.295  0.2624  0.6301 -1.5731
  354TMC3    H2 5362   3.883   0.697  13.134  1.4967  0.0515  1.0846
  354TMC3    C7 5363   3.779   0.462  13.074 -0.5861 -0.3052 -0.2315
  354TMC3    C8 5364   3.679   0.836  13.183 -0.4353  0.2793  0.3326
  354TMC3    O1 5365   3.783   0.338  13.066  0.3274  0.7839  0.3216
  354TMC3    O2 5366   3.684   0.810  13.060 -0.9133  0.0192  0.3113
  355MPD2     C 5367   3.299   1.445  12.191 -0.3151  0.1263  0.0558
  355MPD2    C1 5368   3.379   1.431  12.083  0.9270 -0.0405  0.2440
  355MPD2    C2 5369   3.504   1.483  12.080 -0.0125  0.6322  0.1809
  355MPD2    C3 5370   3.550   1.551  12.192 -0.6012  0.7140 -0.2872
  355MPD2    C4 5371   3.468   1.563  12.305 -0.4663  1.0474 -0.4603
  355MPD2    C5 5372   3.343   1.505  12.308  0.1859  0.1695  0.5219
  355MPD2     H 5373   3.570   1.459  11.997 -0.5906 -1.4514  0.3463
  355MPD2    H1 5374   3.495   1.614  12.396 -1.6599 -1.3034  1.1967
  355MPD2    H2 5375   3.196   1.412  12.195 -0.1761 -0.3430 -0.2687
  355MPD2    H3 5376   3.277   1.522  12.392 -0.3232  1.3553 -0.1192
  355MPD2     N 5377   3.680   1.607  12.183  0.0433  0.7893  0.2056
  355MPD2    H5 5378   3.707   1.664  12.263  0.0582 -0.2202  0.9263
  355MPD2    N1 5379   3.323   1.367  11.971  0.1149  0.0481 -0.2940
  355MPD2    H7 5380   3.250   1.302  11.997 -2.2784  1.8176 -2.6373
  356TMC3    C1 5381   3.869   1.706  12.098 -0.4658  0.3633  0.4566
  356TMC3    C2 5382   3.926   1.748  11.983  0.4848  0.4377 -0.0839
  356TMC3    C3 5383   4.026   1.842  11.988  0.8166 -0.6021  0.2820
  356TMC3    C4 5384   3.905   1.753  12.218  0.5350  0.3560  0.7539
  356TMC3    C5 5385   4.011   1.842  12.229 -0.5092 -0.6484 -0.2522
  356TMC3    C6 5386   4.064   1.893  12.113 -0.3682 -0.1536 -0.2118
  356TMC3     C 5387   3.764   1.606  12.079  0.2233 -0.3777 -0.8685
  356TMC3     O 5388   3.773   1.543  11.972 -0.4076  0.1895  0.2785
  356TMC3     H 5389   3.897   1.713  11.885  1.5423 -0.3772 -0.1011
  356TMC3    H1 5390   3.863   1.705  12.305 -1.5138 -0.7755 -0.8491
  356TMC3    H2 5391   4.155   1.952  12.115 -0.9396  0.6792  1.1440
  356TMC3    C7 5392   4.045   1.879  12.359  0.1019 -0.0773  0.0561
  356TMC3    C8 5393   4.065   1.899  11.861 -0.9049 -0.1596 -0.1812
  356TMC3    O1 5394   3.992   1.811  12.445  0.5484 -0.1665  0.1049
  356TMC3    O2 5395   4.037   1.837  11.762 -0.0723 -0.2726 -0.1815
  357MPD2     C 5396   3.669   0.687   0.295  0.1258 -0.2434  0.3200
  357MPD2    C1 5397   3.691   0.592   0.389 -0.4742  0.5613 -0.3683
  357MPD2    C2 5398   3.605   0.596   0.496 -0.4959  0.8759 -0.6859
  357MPD2    C3 5399   3.511   0.699   0.520  0.5651  0.5530 -0.2979
  357MPD2    C4 5400   3.504   0.807   0.432  0.3686  0.7558 -0.0426
  357MPD2    C5 5401   3.586   0.800   0.318  0.9872  0.4791 -0.2028
  357MPD2     H 5402   3.624   0.535   0.584 -1.3794 -0.0290 -1.1286
  357MPD2    H1 5403   3.446   0.893   0.460  0.1479  0.3050  0.9116
  357MPD2    H2 5404   3.724   0.692   0.202  0.9906 -0.8989  0.8032
  357MPD2    H3 5405   3.595   0.883   0.249  0.6238  0.8793  0.2314
  357MPD2     N 5406   3.430   0.692   0.637 -0.3639  0.2429 -0.3259
  357MPD2    H5 5407   3.421   0.600   0.679  1.1006  0.2894  0.0951
  357MPD2    N1 5408   3.780   0.487   0.356  0.4018  0.0347  0.3612
  357MPD2    H7 5409   3.850   0.493   0.283 -0.5638 -1.2699 -0.6542
  358TMC3    C1 5410   3.857   0.259   0.383 -0.7365  0.1695 -0.8418
  358TMC3    C2 5411   3.843   0.233   0.248  0.0358  0.4709  0.0181
  358TMC3    C3 5412   3.862   0.100   0.204 -0.4100 -0.4027 -0.5782
  358TMC3    C4 5413   3.879   0.163   0.474  0.1871 -0.3379 -0.5024
  358TMC3    C5 5414   3.895   0.033   0.429  0.3618 -0.4620 -0.0546
  358TMC3    C6 5415   3.890   0.003   0.296 -0.1667  0.5061 -0.0583
  358TMC3     C 5416   3.786   0.370   0.429  0.2129  0.2353 -0.6388
  358TMC3     O 5417   3.733   0.341   0.532 -1.1579 -0.2858  0.2722
  358TMC3     H 5418   3.794   0.304   0.182 -1.4364  0.5457  1.1904
  358TMC3    H1 5419   3.892   0.200   0.575  2.4014  1.3703 -1.3933
  358TMC3    H2 5420   3.889   4.636   0.272  0.2932  0.6134 -0.5466
  358TMC3    C7 5421   3.909   4.662   0.523  0.6944 -0.1193 -0.3873
  358TMC3    C8 5422   3.834   0.066   0.067  0.4160  0.0874 -0.7954
  358TMC3    O1 5423   3.921   4.552   0.475  0.4119  0.6888 -0.1413
  358TMC3    O2 5424   3.893   0.134  17.739  0.0424  0.0063 -0.1943
  359MPD2     C 5425   3.717   0.811  12.218  0.0594  0.0920 -0.2153
  359MPD2    C1 5426   3.731   0.680  12.183 -0.1101 -1.2471 -0.2524
  359MPD2    C2 5427   3.684   0.586  12.274  0.4294  0.8326 -0.6654
  359MPD2    C3 5428   3.622   0.629  12.391 -0.5378 -0.4190  0.0621
  359MPD2    C4 5429   3.602   0.762  12.417  0.5010  0.5909  1.0335
  359MPD2    C5 5430   3.658   0.855  12.334  0.5286 -0.8706 -0.6872
  359MPD2     H 5431   3.698   0.482  12.246 -0.1837  0.8417 -0.9870
  359MPD2    H1 5432   3.556   0.808  12.504 -0.6302 -1.3835  1.4940
  359MPD2    H2 5433   3.745   0.888  12.147  1.5034  0.4144  0.7153
  359MPD2    H3 5434   3.651   0.961  12.355 -1.7836 -1.0599 -0.5272
  359MPD2     N 5435   3.572   0.536  12.484  0.1945 -0.0464 -0.7602
  359MPD2    H5 5436   3.514   0.577  12.557  0.7753 -1.9913  0.7710
  359MPD2    N1 5437   3.794   0.634  12.064  0.1246 -0.0896 -0.5203
  359MPD2    H7 5438   3.805   0.534  12.052  0.4743  0.3443 -3.7258
  360TMC3    C1 5439   3.923   0.637  11.874 -0.0379  0.1947  0.7159
  360TMC3    C2 5440   4.034   0.692  11.818  0.5183  0.7910 -0.9503
  360TMC3    C3 5441   4.078   0.646  11.694 -0.0663  0.2084  0.3276
  360TMC3    C4 5442   3.860   0.536  11.806 -0.5001  0.0901 -0.2574
  360TMC3    C5 5443   3.912   0.486  11.689 -0.3439 -0.0130  0.3843
  360TMC3    C6 5444   4.022   0.539  11.633  0.7036 -0.2712 -0.1334
  360TMC3     C 5445   3.865   0.713  11.981  0.3098  0.1646  0.6359
  360TMC3     O 5446   3.896   0.830  11.990  0.1081 -0.1499 -0.1537
  360TMC3     H 5447   4.095   0.754  11.883  0.1324  0.9737 -0.7649
  360TMC3    H1 5448   3.778   0.480  11.850 -1.7149 -0.0633 -2.7023
  360TMC3    H2 5449   4.062   0.487  11.547  0.6957  1.4077 -1.1480
  360TMC3    C7 5450   3.841   0.396  11.606 -0.5030  0.5313 -0.4916
  360TMC3    C8 5451   4.213   0.676  11.663 -0.2696 -0.1221  0.0690
  360TMC3    O1 5452   3.908   0.309  11.551 -0.2370 -0.6320  0.1767
  360TMC3    O2 5453   4.280   0.589  11.607 -1.0188 -0.2459  0.0667
  361MPD2     C 5454   1.179   3.652  16.169 -0.0551  0.7803 -0.5659
  361MPD2    C1 5455   1.123   3.683  16.292 -0.2857  0.1089  1.1475
  361MPD2    C2 5456   1.171   3.639  16.410 -0.5793 -0.2903  0.6206
  361MPD2    C3 5457   1.279   3.549  16.403  0.0973 -0.1232 -0.1419
  361MPD2    C4 5458   1.342   3.518  16.287  0.3189 -0.0338 -0.3237
  361MPD2    C5 5459   1.286   3.567  16.168  0.1102  0.2101 -0.1486
  361MPD2     H 5460   1.125   3.667  16.504 -0.2041  0.0396  0.7078
  361MPD2    H1 5461   1.408   3.432  16.284  1.3534  0.7137  0.8497
  361MPD2    H2 5462   1.154   3.696  16.073 -1.1338 -2.2892 -1.6988
  361MPD2    H3 5463   1.343   3.538  16.080  1.0434  0.0334  0.5237
  361MPD2     N 5464   1.321   3.478  16.515 -0.2041 -0.1856 -0.8985
  361MPD2    H5 5465   1.390   3.404  16.501 -0.3784 -0.2725 -1.2976
  361MPD2    N1 5466   1.002   3.757  16.303 -0.0063  0.4696 -0.4109
  361MPD2    H7 5467   0.936   3.755  16.380  1.1652  2.8007  0.6474
  362TMC3    C1 5468   0.823   3.882  16.219 -0.4168  0.5807 -0.6572
  362TMC3    C2 5469   0.757   3.862  16.341  0.0738  0.4400  0.5872
  362TMC3    C3 5470   0.622   3.900  16.348 -0.4036  0.3741  0.0588
  362TMC3    C4 5471   0.764   3.930  16.111 -0.4958  0.3573  0.1434
  362TMC3    C5 5472   0.638   3.964  16.118  1.0576 -0.3907  0.5814
  362TMC3    C6 5473   0.561   3.951  16.235 -0.2384 -0.3009  0.0835
  362TMC3     C 5474   0.963   3.839  16.196  0.1759  0.0241 -0.0155
  362TMC3     O 5475   1.031   3.879  16.104  0.1567  0.5648 -0.9129
  362TMC3     H 5476   0.806   3.811  16.424 -2.2744  2.4649  3.2088
  362TMC3    H1 5477   0.822   3.940  16.020 -2.7764 -3.1283 -1.7030
  362TMC3    H2 5478   0.461   3.993  16.233  0.6343  1.7245 -1.0288
  362TMC3    C7 5479   0.580   4.038  16.016 -0.5286  0.1445 -0.6371
  362TMC3    C8 5480   0.546   3.919  16.465  0.3541 -0.0310 -0.3769
  362TMC3    O1 5481   0.500   4.121  16.048 -0.0573 -0.1371 -0.2267
  362TMC3    O2 5482   0.425   3.927  16.450 -0.6305 -0.5178 -0.2598
  363TMC3    C1 5483   4.430   2.049   9.783 -0.3962 -0.2789 -0.4684
  363TMC3    C2 5484   4.392   1.953   9.868  0.4443 -0.0384 -0.3399
  363TMC3    C3 5485   4.265   1.947   9.917 -0.6414  0.4748  0.0287
  363TMC3    C4 5486   4.344   2.154   9.760 -0.3306 -0.4770 -0.4662
  363TMC3    C5 5487   4.212   2.145   9.809 -0.0213 -0.1269  0.3052
  363TMC3    C6 5488   4.174   2.046   9.892 -0.0279 -0.5186 -0.1590
  363TMC3     C 5489   4.561   2.047   9.732 -0.7667 -0.0439 -0.4158
  363TMC3     O 5490   4.645   1.982   9.796 -0.3560 -0.3685  0.5265
  363TMC3     H 5491   4.463   1.876   9.899  1.7511 -0.1098 -3.5008
  363TMC3    H1 5492   4.372   2.247   9.712  2.1169 -0.0933  1.6788
  363TMC3    H2 5493   4.076   2.039   9.939  0.4827 -2.6649  0.5640
  363TMC3    C7 5494   4.128   2.258   9.791  0.5965  0.0045 -0.3681
  363TMC3    C8 5495   4.231   1.829  10.007  0.3922 -0.0376  0.3523
  363TMC3    O1 5496   4.064   2.297   9.889  0.5453  0.0686  0.5380
  363TMC3    O2 5497   4.127   1.839  10.075  0.2345  0.1368  0.6403
  364MPD2     C 5498   2.463   1.256  10.365 -0.0419  0.0538 -0.2260
  364MPD2    C1 5499   2.582   1.287  10.306  0.3889 -0.5858  0.3716
  364MPD2    C2 5500   2.689   1.204  10.302  0.3791 -0.4539  0.2485
  364MPD2    C3 5501   2.676   1.078  10.357  0.2378 -0.6749 -0.1714
  364MPD2    C4 5502   2.554   1.044  10.418  0.7509 -0.1631 -0.0670
  364MPD2    C5 5503   2.451   1.136  10.426  0.1053 -0.4614 -0.0038
  364MPD2     H 5504   2.786   1.230  10.262  0.3747 -1.7114 -0.5729
  364MPD2    H1 5505   2.536   0.945  10.459  2.8207 -0.9282 -1.0778
  364MPD2    H2 5506   2.379   1.325  10.368 -1.0512 -1.2843  2.8180
  364MPD2    H3 5507   2.353   1.110  10.462 -0.0863  1.3262  0.7927
  364MPD2     N 5508   2.777   0.980  10.359 -1.1184  0.2219  0.0698
  364MPD2    H5 5509   2.744   0.892  10.398  3.4078 -0.7567  1.6826
  364MPD2    N1 5510   2.589   1.415  10.249 -0.7861 -0.2669  0.7363
  364MPD2    H7 5511   2.511   1.475  10.275 -0.6275  0.7889 -1.2143
  365TMC3    C1 5512   2.685   1.598  10.138  0.4507  0.2012  0.4015
  365TMC3    C2 5513   2.770   1.618  10.036 -0.7648 -0.7226  0.2522
  365TMC3    C3 5514   2.875   1.696  10.052 -0.0716 -0.9225 -0.0380
  365TMC3    C4 5515   2.707   1.659  10.261  0.2096  0.4368  0.7787
  365TMC3    C5 5516   2.820   1.732  10.272 -0.4777  0.4033  0.3846
  365TMC3    C6 5517   2.905   1.760  10.164 -0.2700 -0.6847  0.0392
  365TMC3     C 5518   2.676   1.454  10.152  0.0436  0.4376  0.4761
  365TMC3     O 5519   2.764   1.393  10.086 -0.0314 -0.8262  0.3689
  365TMC3     H 5520   2.747   1.570   9.941  0.8762 -1.8527  0.4463
  365TMC3    H1 5521   2.636   1.643  10.342 -0.1941  0.6933  0.4753
  365TMC3    H2 5522   2.993   1.820  10.180 -0.6142 -0.1042 -0.2432
  365TMC3    C7 5523   2.842   1.812  10.393 -0.0931 -0.2659  0.2880
  365TMC3    C8 5524   3.002   1.651   9.994  0.2727  0.1938 -0.4181
  365TMC3    O1 5525   2.898   1.918  10.376 -0.0581  0.6136 -0.1626
  365TMC3    O2 5526   3.078   1.742   9.986  0.0598 -0.6123  0.2613
  366MPD2     C 5527   1.398   1.990  15.495 -0.4663  0.3022  0.1706
  366MPD2    C1 5528   1.514   2.056  15.453  0.4184  0.1971  0.4030
  366MPD2    C2 5529   1.628   1.981  15.430  0.1057  0.2930 -0.2314
  366MPD2    C3 5530   1.624   1.846  15.411 -0.1105  0.3125 -0.1881
  366MPD2    C4 5531   1.495   1.782  15.423 -0.1025 -0.3944  0.1729
  366MPD2    C5 5532   1.391   1.858  15.469 -0.2014  0.3729 -0.0742
  366MPD2     H 5533   1.726   2.026  15.422 -0.4785  1.5843  0.0275
  366MPD2    H1 5534   1.475   1.676  15.433  3.7768 -1.0726  0.5835
  366MPD2    H2 5535   1.302   2.030  15.526 -1.9312 -1.0842 -2.5696
  366MPD2    H3 5536   1.305   1.798  15.497 -0.1646  0.5653  0.4614
  366MPD2     N 5537   1.730   1.780  15.356 -0.1518  0.2514  0.3086
  366MPD2    H5 5538   1.812   1.833  15.329  0.5214 -0.3923  1.0927
  366MPD2    N1 5539   1.523   2.201  15.447  0.3099  0.4417  0.2578
  366MPD2    H7 5540   1.615   2.243  15.444  0.7620 -0.4632  1.2182
  367TMC3    C1 5541   1.435   2.407  15.397 -0.0051  0.8857 -0.5054
  367TMC3    C2 5542   1.527   2.474  15.469 -0.2679 -0.3182  0.7475
  367TMC3    C3 5543   1.523   2.609  15.461 -0.7060 -0.8356  0.1356
  367TMC3    C4 5544   1.353   2.465  15.303  0.7763  0.2133  0.6445
  367TMC3    C5 5545   1.355   2.601  15.304 -0.5114  0.7111 -0.3204
  367TMC3    C6 5546   1.447   2.678  15.372  0.2797 -0.5945  0.4283
  367TMC3     C 5547   1.409   2.276  15.424 -0.3370  0.2412 -0.2087
  367TMC3     O 5548   1.294   2.235  15.409 -0.5883  0.0259 -0.7228
  367TMC3     H 5549   1.592   2.435  15.545  0.0874 -3.2300 -1.0642
  367TMC3    H1 5550   1.268   2.411  15.264  1.6861 -1.2261  0.6784
  367TMC3    H2 5551   1.441   2.784  15.352 -0.0593 -0.3370  1.8957
  367TMC3    C7 5552   1.253   2.665  15.224  0.1164  0.1620 -0.4908
  367TMC3    C8 5553   1.604   2.680  15.562  0.3357  0.0153 -0.0417
  367TMC3    O1 5554   1.226   2.784  15.254  0.4665 -0.0636 -0.1763
  367TMC3    O2 5555   1.616   2.609  15.662  0.1531  0.4730 -0.6141
  368MPD2     C 5556   2.445   3.914  13.164  0.1974  0.0265  0.1156
  368MPD2    C1 5557   2.472   3.945  13.030 -0.0047 -0.2041 -0.0049
  368MPD2    C2 5558   2.599   3.985  12.999  0.8608 -0.5093  0.2344
  368MPD2    C3 5559   2.694   3.995  13.102 -0.4868 -0.1988 -0.2455
  368MPD2    C4 5560   2.670   3.955  13.231 -0.4864 -0.1338  0.6574
  368MPD2    C5 5561   2.542   3.922  13.261 -0.3611 -0.1289 -1.3186
  368MPD2     H 5562   2.625   4.019  12.900  0.8323 -0.8832  0.1003
  368MPD2    H1 5563   2.742   3.951  13.312  1.6519 -0.7581 -1.2667
  368MPD2    H2 5564   2.345   3.883  13.193  0.0243 -0.4031 -0.9243
  368MPD2    H3 5565   2.527   3.890  13.364  2.6928 -1.4990 -1.2981
  368MPD2     N 5566   2.822   4.042  13.065 -0.1192  0.1923  0.0031
  368MPD2    H5 5567   2.837   4.060  12.967 -0.2130  2.1121  0.3449
  368MPD2    N1 5568   2.363   3.947  12.932  0.2077  0.5484  0.0593
  368MPD2    H7 5569   2.269   3.961  12.968 -0.0754 -1.7689  0.2471
  369TMC3    C1 5570   2.279   3.940  12.702 -0.0869  0.6576 -0.3329
  369TMC3    C2 5571   2.311   3.984  12.575  0.4531 -0.5254 -0.1820
  369TMC3    C3 5572   2.211   4.022  12.491 -0.5228  0.1033 -0.2064
  369TMC3    C4 5573   2.150   3.930  12.746  0.2458 -0.2652 -0.3965
  369TMC3    C5 5574   2.052   3.975  12.661  0.4264 -0.2330  0.2526
  369TMC3    C6 5575   2.077   4.018  12.532 -0.0525  0.2134 -0.0134
  369TMC3     C 5576   2.391   3.925  12.793 -0.3026  0.1527  0.7881
  369TMC3     O 5577   2.498   3.889  12.744  0.1112  0.5676 -0.0679
  369TMC3     H 5578   2.414   4.009  12.551  0.4108 -1.3514 -1.2255
  369TMC3    H1 5579   2.141   3.892  12.847  2.2292 -1.7498 -0.7849
  369TMC3    H2 5580   2.003   4.054  12.461  2.0194  0.5252 -2.0197
  369TMC3    C7 5581   1.915   3.916  12.685  0.0276 -0.1739 -0.3534
  369TMC3    C8 5582   2.233   4.133  12.408  0.0452 -0.0336 -0.3030
  369TMC3    O1 5583   1.836   3.913  12.590  0.5520  0.4790 -0.2486
  369TMC3    O2 5584   2.144   4.215  12.400  0.0008  0.2508 -0.0337
  370TMC3    C1 5585   2.352   0.082  16.209 -0.5685  0.9106 -0.1494
  370TMC3    C2 5586   2.254   0.044  16.291 -0.5187 -0.0292  0.1455
  370TMC3    C3 5587   2.190   4.674  16.256 -0.6675 -0.1992  0.4566
  370TMC3    C4 5588   2.384   0.023  16.092 -0.0670 -0.2881 -0.4668
  370TMC3    C5 5589   2.322   4.644  16.065 -0.0407 -0.3686 -0.1751
  370TMC3    C6 5590   2.224   4.595  16.149 -0.0257 -0.8108  0.5640
  370TMC3     C 5591   2.418   0.209  16.249  0.6696 -0.1339  0.2315
  370TMC3     O 5592   2.438   0.232  16.369  0.6523  0.1308 -0.9712
  370TMC3     H 5593   2.220   0.106  16.372  4.6762 -0.8098  2.9408
  370TMC3    H1 5594   2.459   0.055  16.021  0.6010 -0.8962 -0.0380
  370TMC3    H2 5595   2.164   4.507  16.128 -0.3815 -0.1905 -1.0111
  370TMC3    C7 5596   2.384   4.559  15.966  0.5552 -0.3064  0.0932
  370TMC3    C8 5597   2.114   4.608  16.351 -0.1121  0.0156  0.1649
  370TMC3    O1 5598   2.460   4.610  15.886 -0.0314 -0.0824  0.3198
  370TMC3    O2 5599   2.148   4.613  16.467 -0.1831  0.5352  0.5643
  371TMC3    C1 5600   3.342   2.957  15.454  0.2754 -0.6394  0.7511
  371TMC3    C2 5601   3.207   2.942  15.484 -0.0261  0.0988  0.9673
  371TMC3    C3 5602   3.135   3.055  15.520  0.6108  1.0933  0.6390
  371TMC3    C4 5603   3.388   3.085  15.447  0.6944 -1.2077  0.2987
  371TMC3    C5 5604   3.307   3.190  15.458 -0.8132 -0.3297  0.6427
  371TMC3    C6 5605   3.181   3.182  15.506 -0.0040  0.8219 -0.4060
  371TMC3     C 5606   3.436   2.846  15.438  0.2889  0.1413  0.5945
  371TMC3     O 5607   3.555   2.866  15.411  0.3626 -0.0212  0.4813
  371TMC3     H 5608   3.164   2.843  15.497 -2.2340  0.7886 -1.1050
  371TMC3    H1 5609   3.495   3.103  15.438  0.3093  0.0978 -1.5858
  371TMC3    H2 5610   3.131   3.273  15.537 -1.0787 -1.2092  3.8835
  371TMC3    C7 5611   3.345   3.313  15.396 -0.0443 -0.1164  1.0831
  371TMC3    C8 5612   3.037   3.028  15.620 -0.1670 -0.1836  0.2051
  371TMC3    O1 5613   3.294   3.423  15.422  0.2894 -0.0684  0.2808
  371TMC3    O2 5614   3.031   2.918  15.666 -0.1759  0.2561  0.7057
  372MPD2     C 5615   2.284   4.216  13.260  0.9463  0.2149  0.0549
  372MPD2    C1 5616   2.392   4.218  13.341 -0.8380 -0.5644  0.2543
  372MPD2    C2 5617   2.393   4.123  13.444 -0.0225  0.3868  0.1753
  372MPD2    C3 5618   2.299   4.025  13.465 -0.0937  0.6376  0.8718
  372MPD2    C4 5619   2.193   4.022  13.378  0.3873  0.2792 -0.3974
  372MPD2    C5 5620   2.179   4.128  13.290  0.0878 -0.4905 -0.4202
  372MPD2     H 5621   2.468   4.133  13.521 -2.2123  1.9491  2.1408
  372MPD2    H1 5622   2.111   3.951  13.382  0.1740  0.5924  0.9052
  372MPD2    H2 5623   2.269   4.274  13.170  0.9183  0.3680  0.1585
  372MPD2    H3 5624   2.090   4.129  13.229  0.5703  0.3700 -1.1115
  372MPD2     N 5625   2.307   3.939  13.576  0.2139 -0.0058 -0.1134
  372MPD2    H5 5626   2.378   3.968  13.642  0.5746 -1.5180  0.1713
  372MPD2    N1 5627   2.494   4.312  13.318 -0.3710 -0.0146  0.2188
  372MPD2    H7 5628   2.578   4.295  13.372  0.8054  1.0923 -1.2503
  373TMC3    C1 5629   2.284   3.735  13.691 -0.1356 -0.0132  0.0440
  373TMC3    C2 5630   2.334   3.794  13.803 -0.1840  0.0838  0.2635
  373TMC3    C3 5631   2.416   3.721  13.880 -0.0001  0.3903 -0.9496
  373TMC3    C4 5632   2.315   3.608  13.656 -0.3836 -0.8462  0.7271
  373TMC3    C5 5633   2.398   3.543  13.740 -0.0143 -0.0028 -0.4299
  373TMC3    C6 5634   2.458   3.599  13.845  0.1916  0.0214 -0.2305
  373TMC3     C 5635   2.238   3.818  13.585 -0.1388 -0.4411 -0.2414
  373TMC3     O 5636   2.167   3.760  13.508  0.4504  1.1171  0.2737
  373TMC3     H 5637   2.312   3.898  13.824  1.5081 -0.2745  3.7805
  373TMC3    H1 5638   2.299   3.557  13.562  0.7314  0.0181  0.0723
  373TMC3    H2 5639   2.509   3.537  13.918 -2.0522 -0.0190  1.3237
  373TMC3    C7 5640   2.423   3.408  13.705 -0.8312 -0.3965  0.0025
  373TMC3    C8 5641   2.466   3.778  14.007 -0.8730  0.0680  0.1444
  373TMC3    O1 5642   2.335   3.326  13.722  0.0248  0.2630  0.1585
  373TMC3    O2 5643   2.585   3.755  14.031 -0.4077  0.6584 -0.6576
  374TMC3    C1 5644   2.997   4.499  10.529 -0.7073  0.1221 -0.0739
  374TMC3    C2 5645   3.125   4.501  10.475 -0.0659 -0.8581  0.0238
  374TMC3    C3 5646   3.129   4.471  10.341 -0.3164 -0.4656  0.2046
  374TMC3    C4 5647   2.882   4.471  10.463 -0.3081 -0.5457 -1.0670
  374TMC3    C5 5648   2.892   4.457  10.323  0.1568 -0.4226 -0.1238
  374TMC3    C6 5649   3.016   4.449  10.265  0.0958 -0.0057  0.4256
  374TMC3     C 5650   2.985   4.550  10.664 -0.1991 -0.3944 -0.7516
  374TMC3     O 5651   3.079   4.617  10.705  0.0083  0.4758  0.3549
  374TMC3     H 5652   3.210   4.505  10.541  0.0193  0.4515 -0.1637
  374TMC3    H1 5653   2.789   4.451  10.516  0.4158 -0.1350  0.3692
  374TMC3    H2 5654   3.028   4.407  10.166  0.2498  3.6514 -1.1159
  374TMC3    C7 5655   2.783   4.386  10.255 -0.2677  0.1220 -0.2924
  374TMC3    C8 5656   3.258   4.469  10.265 -0.0777  0.0750  0.0404
  374TMC3    O1 5657   2.812   4.330  10.147 -0.0957 -0.2992  0.1473
  374TMC3    O2 5658   3.260   4.472  10.146  0.0238 -0.0453 -0.2718
  375MPD2     C 5659   3.029   0.144  16.982 -0.1911 -0.4867  0.1481
  375MPD2    C1 5660   3.051   0.261  16.912  0.0529  0.2199  0.1450
  375MPD2    C2 5661   3.079   0.253  16.775 -0.6260  0.3122 -0.2121
  375MPD2    C3 5662   3.106   0.128  16.716 -0.6034 -0.1930  0.4271
  375MPD2    C4 5663   3.084   0.019  16.798 -0.5168 -0.1026  0.1023
  375MPD2    C5 5664   3.048   0.026  16.925  0.7562  0.3833  0.0911
  375MPD2     H 5665   3.073   0.348  16.723  2.1895 -0.0176 -1.1637
  375MPD2    H1 5666   3.094   4.659  16.753  0.6132  0.0489  0.0246
  375MPD2    H2 5667   2.988   0.142  17.082 -0.7130  1.8881 -0.0243
  375MPD2    H3 5668   3.015   4.678  16.981  0.7922  0.9278  0.9678
  375MPD2     N 5669   3.137   0.112  16.582  0.0394 -0.3465  0.2352
  375MPD2    H5 5670   3.140   0.020  16.539  1.1489 -0.4038  0.4250
  375MPD2    N1 5671   3.029   0.388  16.964  0.4724  0.3663  0.4601
  375MPD2    H7 5672   3.042   0.469  16.903 -1.4934 -0.7905 -1.5114
  376TMC3    C1 5673   3.215   0.180  16.371  0.2600 -0.3815 -0.4226
  376TMC3    C2 5674   3.297   0.072  16.354  0.0094  0.4273  0.3320
  376TMC3    C3 5675   3.313   0.023  16.232  0.0378  0.0381  0.4284
  376TMC3    C4 5676   3.152   0.244  16.270  0.3431 -0.5392  0.4764
  376TMC3    C5 5677   3.175   0.191  16.148 -0.1120 -0.4392 -0.5138
  376TMC3    C6 5678   3.247   0.074  16.125  0.7820  0.5905  0.1880
  376TMC3     C 5679   3.183   0.219  16.506 -0.8093  0.2060  0.0426
  376TMC3     O 5680   3.189   0.339  16.525 -0.3971  0.2962  0.1710
  376TMC3     H 5681   3.343   0.022  16.438  1.8458 -0.6097 -1.2814
  376TMC3    H1 5682   3.115   0.345  16.284 -0.0234 -0.5899 -0.1025
  376TMC3    H2 5683   3.256   0.032  16.026 -0.6529  2.6856 -0.8342
  376TMC3    C7 5684   3.131   0.270  16.035 -0.4821 -1.0499 -0.0009
  376TMC3    C8 5685   3.449   4.710  16.205  0.6502  0.6519 -0.0411
  376TMC3    O1 5686   3.141   0.395  16.038  0.3500 -0.6792 -0.0437
  376TMC3    O2 5687   3.482   0.009  16.093 -0.7388 -0.1124 -0.6063
  377MPD2     C 5688   2.137   4.328  12.701 -0.2575  0.0824  0.1715
  377MPD2    C1 5689   2.004   4.344  12.670  1.2735 -0.3347  0.0943
  377MPD2    C2 5690   1.910   4.294  12.755  0.1353 -1.0156 -0.6049
  377MPD2    C3 5691   1.946   4.235  12.874  0.1186  0.0396  0.3270
  377MPD2    C4 5692   2.084   4.232  12.908  0.2802 -0.5949 -0.2924
  377MPD2    C5 5693   2.180   4.279  12.820  0.4112  0.0037 -0.0454
  377MPD2     H 5694   1.805   4.303  12.731  0.1932 -0.2980 -0.5831
  377MPD2    H1 5695   2.123   4.197  13.003 -1.8109 -0.8740  0.4569
  377MPD2    H2 5696   2.214   4.357  12.630 -0.8476  0.2351 -0.4069
  377MPD2    H3 5697   2.285   4.276  12.847 -0.2678  1.0839  2.7321
  377MPD2     N 5698   1.849   4.191  12.971  0.1615 -0.3061 -0.3007
  377MPD2    H5 5699   1.884   4.168  13.064  0.2652 -0.1639 -0.3043
  377MPD2    N1 5700   1.973   4.405  12.546 -0.9109  0.1874 -0.5011
  377MPD2    H7 5701   2.051   4.421  12.483 -1.2588 -0.2068 -1.0325
  378TMC3    C1 5702   1.753   4.672  12.232  0.3378 -0.3688 -0.5732
  378TMC3    C2 5703   1.741   4.587  12.340  0.3016 -0.0914 -0.2756
  378TMC3    C3 5704   1.843   4.501  12.366  0.4510 -0.2351  0.5577
  378TMC3    C4 5705   1.859   4.660  12.139 -0.3175  0.9859 -0.2111
  378TMC3    C5 5706   1.953   4.561  12.162 -0.1946 -0.1423 -0.6643
  378TMC3    C6 5707   1.951   4.490  12.278 -0.0927  0.1041  0.0672
  378TMC3     C 5708   1.639   0.016  12.204  0.0325 -0.2489 -0.2805
  378TMC3     O 5709   1.542   4.727  12.274  0.0481 -0.2517 -0.0144
  378TMC3     H 5710   1.670   4.602  12.421 -0.0407 -1.7069 -0.2658
  378TMC3    H1 5711   1.856   4.698  12.038  0.5039 -1.0414 -0.9890
  378TMC3    H2 5712   2.024   4.414  12.300  0.6224  0.2911 -1.6355
  378TMC3    C7 5713   2.075   4.556  12.080 -0.2159 -0.0709 -0.5635
  378TMC3    C8 5714   1.846   4.447  12.506 -0.0217  0.4058  0.8780
  378TMC3    O1 5715   2.132   4.447  12.085  0.1341  0.4234  0.1220
  378TMC3    O2 5716   1.757   4.470  12.586 -0.0220  0.1788 -0.4021
  379MPD2     C 5717   2.612   2.892  16.196  0.8773  0.8859 -0.0760
  379MPD2    C1 5718   2.537   2.832  16.296  0.1308  0.3666  0.6218
  379MPD2    C2 5719   2.607   2.757  16.395 -0.3764 -0.1362 -0.1990
  379MPD2    C3 5720   2.739   2.737  16.387  0.1918  0.0514  0.0265
  379MPD2    C4 5721   2.810   2.787  16.283  0.1349 -0.0249 -0.6439
  379MPD2    C5 5722   2.749   2.863  16.184  0.3991 -0.1240 -0.0364
  379MPD2     H 5723   2.556   2.701  16.473  0.5170  0.3136  0.7070
  379MPD2    H1 5724   2.916   2.769  16.270  0.3129  0.6721 -0.1305
  379MPD2    H2 5725   2.563   2.952  16.121  0.9718  1.9784  0.7428
  379MPD2    H3 5726   2.822   2.907  16.117  0.3030  0.2460  0.1005
  379MPD2     N 5727   2.809   2.641  16.469  0.2894 -0.0816  0.3061
  379MPD2    H5 5728   2.906   2.625  16.445  0.9086  1.2094  1.9575
  379MPD2    N1 5729   2.394   2.849  16.285  0.4326  0.1055  0.7965
  379MPD2    H7 5730   2.346   2.904  16.213  0.4696 -1.2240 -0.2504
  380TMC3    C1 5731   2.179   2.760  16.301  0.7831  0.1930  0.0691
  380TMC3    C2 5732   2.146   2.625  16.294 -0.2870 -0.2943  0.2093
  380TMC3    C3 5733   2.047   2.583  16.208  0.1142  0.3181 -0.0869
  380TMC3    C4 5734   2.124   2.847  16.210  0.4496 -0.3179  0.1770
  380TMC3    C5 5735   2.043   2.804  16.114 -0.1324  0.2587  0.1872
  380TMC3    C6 5736   2.002   2.671  16.114 -0.2632 -0.1656  0.2423
  380TMC3     C 5737   2.308   2.782  16.369 -0.4871  0.1014 -0.4140
  380TMC3     O 5738   2.331   2.726  16.474 -0.2202  0.4504 -0.1812
  380TMC3     H 5739   2.178   2.560  16.375  0.4673  0.2645  0.3644
  380TMC3    H1 5740   2.133   2.954  16.224  0.6166 -0.0058 -2.2761
  380TMC3    H2 5741   1.920   2.648  16.047 -1.3166  1.0754  1.1025
  380TMC3    C7 5742   1.958   2.901  16.054  0.0342  0.2393 -0.1548
  380TMC3    C8 5743   2.077   2.460  16.139 -0.2527  0.5720 -0.3215
  380TMC3    O1 5744   1.919   2.994  16.117  0.1212 -0.0773 -0.1343
  380TMC3    O2 5745   2.062   2.466  16.017 -0.4465  0.0792 -0.2031
  381TMC3    C1 5746   2.058   3.819  16.521  0.0566  0.3787 -0.3328
  381TMC3    C2 5747   2.177   3.876  16.467 -0.3839  0.2913 -0.7294
  381TMC3    C3 5748   2.164   3.972  16.371 -0.1416 -0.2630  0.5905
  381TMC3    C4 5749   1.942   3.881  16.490 -0.0166 -0.5342 -0.4526
  381TMC3    C5 5750   1.936   3.975  16.398  0.3825  0.0894  0.0622
  381TMC3    C6 5751   2.047   4.027  16.328  0.1526 -0.3517  0.0200
  381TMC3     C 5752   2.062   3.709  16.615 -0.3020  0.4761  0.2666
  381TMC3     O 5753   1.965   3.686  16.685  0.3436  0.0074 -0.2479
  381TMC3     H 5754   2.276   3.847  16.499 -0.0309  0.3534 -1.7698
  381TMC3    H1 5755   1.858   3.830  16.536 -1.5033  0.6233 -1.8823
  381TMC3    H2 5756   2.037   4.111  16.261  1.0320 -0.0609  0.2551
  381TMC3    C7 5757   1.810   4.015  16.354  0.0929 -0.2003 -0.3715
  381TMC3    C8 5758   2.281   4.037  16.313 -0.3438 -0.1096  0.1118
  381TMC3    O1 5759   1.720   3.978  16.424 -0.4028 -0.1595  0.0580
  381TMC3    O2 5760   2.337   3.986  16.216  0.3204  0.3628 -0.4092
  382MPD2     C 5761   0.800   1.182  17.453 -0.1112  0.4951 -0.0701
  382MPD2    C1 5762   0.900   1.100  17.516 -0.1628 -0.0646  0.3478
  382MPD2    C2 5763   0.900   0.967  17.491 -0.2883  0.3362 -0.3228
  382MPD2    C3 5764   0.809   0.906  17.402  0.2109  0.2367 -0.2213
  382MPD2    C4 5765   0.714   0.987  17.346 -0.8773  0.2627  0.4486
  382MPD2    C5 5766   0.706   1.119  17.375 -0.1396 -0.2655 -0.5374
  382MPD2     H 5767   0.987   0.911  17.523 -0.2173  1.0103  0.6549
  382MPD2    H1 5768   0.632   0.955  17.282 -1.7106 -0.1708  1.7330
  382MPD2    H2 5769   0.792   1.288  17.472 -0.3047  0.5401 -0.4105
  382MPD2    H3 5770   0.625   1.176  17.332 -1.3076 -2.2728 -1.0040
  382MPD2     N 5771   0.808   0.762  17.359 -0.2438 -0.6244  0.0615
  382MPD2    H5 5772   0.735   0.738  17.292  0.6031 -1.2129 -0.6446
  382MPD2    N1 5773   0.993   1.150  17.612 -0.0806  0.1816  0.5291
  382MPD2    H7 5774   1.033   1.082  17.675 -0.5943  0.4480  1.1509
  383TMC3    C1 5775   0.897   0.532  17.362  0.3742 -0.7152  0.2096
  383TMC3    C2 5776   0.849   0.515  17.238  0.1032 -0.4661 -0.5929
  383TMC3    C3 5777   0.832   0.386  17.200 -0.2651  0.5211  0.2084
  383TMC3    C4 5778   0.941   0.428  17.439  0.4391  0.3769 -0.1370
  383TMC3    C5 5779   0.943   0.301  17.389  0.5229 -0.4318  0.2687
  383TMC3    C6 5780   0.884   0.278  17.270 -0.6203  0.4711  0.1422
  383TMC3     C 5781   0.888   0.663  17.418  0.4165  0.0384 -0.8663
  383TMC3     O 5782   0.950   0.673  17.524 -0.4009  0.5044  0.7461
  383TMC3     H 5783   0.807   0.591  17.173  2.6531 -0.2913 -2.0149
  383TMC3    H1 5784   0.956   0.437  17.546  2.5224  1.5754 -0.5289
  383TMC3    H2 5785   0.842   0.182  17.242 -1.1325  0.9465 -0.7011
  383TMC3    C7 5786   0.985   0.188  17.472  0.0871 -0.3312 -0.4882
  383TMC3    C8 5787   0.762   0.367  17.070  0.6189 -0.1071 -0.3556
  383TMC3    O1 5788   0.950   0.081  17.426  0.3096  0.2001  0.3970
  383TMC3    O2 5789   0.677   0.445  17.038 -0.3671 -0.4981  0.2138
  384MPD2     C 5790   2.488   2.807  11.931  0.5253 -0.2484 -0.1094
  384MPD2    C1 5791   2.512   2.754  12.057  0.6188  0.5464  0.2127
  384MPD2    C2 5792   2.543   2.622  12.077 -0.0674  0.7187 -0.0923
  384MPD2    C3 5793   2.541   2.544  11.969 -0.0232  0.2215  0.2567
  384MPD2    C4 5794   2.531   2.595  11.838 -0.6047  0.5185 -0.5743
  384MPD2    C5 5795   2.501   2.727  11.824 -0.6925 -0.0629  0.4368
  384MPD2     H 5796   2.555   2.582  12.178  2.0063 -0.1792 -0.7102
  384MPD2    H1 5797   2.541   2.537  11.747 -0.8835 -2.6841  1.4525
  384MPD2    H2 5798   2.457   2.911  11.927 -2.2743 -1.0894  0.3771
  384MPD2    H3 5799   2.479   2.770  11.727 -0.7384 -2.1456 -0.4821
  384MPD2     N 5800   2.561   2.413  11.997 -0.1800 -0.0240 -0.1556
  384MPD2    H5 5801   2.555   2.391  12.096  0.9357  1.2907  0.1948
  384MPD2    N1 5802   2.505   2.843  12.168 -1.0287  0.4821  0.2927
  384MPD2    H7 5803   2.457   2.930  12.144  0.6941  1.7444  1.4396
  385TMC3    C1 5804   2.606   2.196  11.983  0.6284  0.9662 -0.7732
  385TMC3    C2 5805   2.707   2.107  11.941 -0.1111 -0.5375  0.2237
  385TMC3    C3 5806   2.775   2.050  12.041 -0.4170  0.3124  0.1451
  385TMC3    C4 5807   2.564   2.213  12.113 -0.0608  0.9777 -0.3234
  385TMC3    C5 5808   2.642   2.164  12.207  0.6214  0.6979 -0.4307
  385TMC3    C6 5809   2.747   2.082  12.171 -0.0733  0.0036  0.5334
  385TMC3     C 5810   2.580   2.315  11.906 -0.0610  0.3478  0.1510
  385TMC3     O 5811   2.581   2.312  11.781  0.3534 -0.1205 -0.5649
  385TMC3     H 5812   2.737   2.110  11.837  1.4918 -0.3723  0.6841
  385TMC3    H1 5813   2.470   2.262  12.138 -0.9811 -1.7709  1.5832
  385TMC3    H2 5814   2.821   2.069  12.249 -1.4844  1.4230  2.1497
  385TMC3    C7 5815   2.659   2.272  12.298 -0.5378 -0.6656  0.3505
  385TMC3    C8 5816   2.866   1.942  12.024  0.4022  0.5578 -0.3579
  385TMC3    O1 5817   2.609   2.375  12.263  0.5578  0.4886  0.1966
  385TMC3    O2 5818   2.909   1.888  12.126  0.3565  0.4185 -0.1917
  386TMC3    C1 5819   3.088   0.284  11.868  0.4997 -0.0221  0.4238
  386TMC3    C2 5820   3.086   0.288  11.729 -0.6084  0.0497 -0.3195
  386TMC3    C3 5821   2.960   0.323  11.678  0.0764 -0.1822 -0.0884
  386TMC3    C4 5822   2.988   0.317  11.955 -0.0436  0.4179  0.5422
  386TMC3    C5 5823   2.883   0.365  11.892 -0.0027 -0.1770 -0.6583
  386TMC3    C6 5824   2.863   0.375  11.757 -0.1831  0.1768  0.0307
  386TMC3     C 5825   3.194   0.201  11.927  0.3234 -0.0068 -0.7984
  386TMC3     O 5826   3.306   0.219  11.882 -0.2705  0.4069  0.2301
  386TMC3     H 5827   3.166   0.254  11.664 -1.4616 -0.9882 -0.8245
  386TMC3    H1 5828   2.998   0.325  12.063 -3.0237  1.3635  0.7344
  386TMC3    H2 5829   2.766   0.405  11.720  2.0757  2.7896 -3.7665
  386TMC3    C7 5830   2.769   0.392  11.978 -0.0576  0.0277 -0.1841
  386TMC3    C8 5831   2.939   0.330  11.532 -0.1326  0.2721 -0.5675
  386TMC3    O1 5832   2.729   0.299  12.042 -0.4390 -0.5635 -0.2569
  386TMC3    O2 5833   2.836   0.390  11.500  0.1816  0.2930 -0.0003
  387MPD2     C 5834   0.700   0.396   9.932  0.2686 -0.8876  0.9291
  387MPD2    C1 5835   0.739   0.372  10.063  0.8191 -0.0899  0.2603
  387MPD2    C2 5836   0.732   0.242  10.105  0.3581 -0.3381 -0.7566
  387MPD2    C3 5837   0.664   0.143  10.038  0.8341  0.2726 -0.1719
  387MPD2    C4 5838   0.621   0.171   9.915  0.8165  0.1778  0.4487
  387MPD2    C5 5839   0.641   0.299   9.860 -0.4249  0.1100  0.0610
  387MPD2     H 5840   0.772   0.206  10.199  2.2602  2.9610 -0.2837
  387MPD2    H1 5841   0.568   0.096   9.858 -2.7603  1.5939  1.8902
  387MPD2    H2 5842   0.733   0.489   9.887  0.6342 -2.0488 -1.1792
  387MPD2    H3 5843   0.628   0.320   9.755 -2.8324  0.2147  0.3686
  387MPD2     N 5844   0.652   0.019  10.104 -0.1039 -0.2431  0.3740
  387MPD2    H5 5845   0.668   0.010  10.203 -0.1827  1.1696  0.5114
  387MPD2    N1 5846   0.814   0.472  10.131 -0.6117 -0.1845 -0.4542
  387MPD2    H7 5847   0.839   0.562  10.091  2.2766 -0.0530  1.6137
  388TMC3    C1 5848   0.934   0.544  10.322 -0.3998 -0.8106  0.4214
  388TMC3    C2 5849   0.898   0.628  10.420 -1.3317  0.1671 -0.3787
  388TMC3    C3 5850   0.976   0.620  10.535  0.7571  0.5378  0.2326
  388TMC3    C4 5851   1.043   0.463  10.336 -0.2008 -0.3695  0.1539
  388TMC3    C5 5852   1.114   0.453  10.455 -0.1044  0.0152 -0.6561
  388TMC3    C6 5853   1.078   0.535  10.561 -0.2860 -0.5064  0.7223
  388TMC3     C 5854   0.828   0.461  10.270 -0.0805  0.5436 -0.1248
  388TMC3     O 5855   0.787   0.376  10.348  0.3808 -0.9002 -0.2244
  388TMC3     H 5856   0.806   0.684  10.406 -1.3449 -0.0402 -1.1467
  388TMC3    H1 5857   1.068   0.400  10.252 -0.0567  1.2092 -0.9811
  388TMC3    H2 5858   1.135   0.544  10.653 -0.3839  1.3055  0.5991
  388TMC3    C7 5859   1.176   0.326  10.499  0.5846 -0.0021 -0.0829
  388TMC3    C8 5860   0.972   0.735  10.626  0.4555  0.0440  0.0851
  388TMC3    O1 5861   1.195   0.323  10.618 -0.1777 -0.4572 -0.2223
  388TMC3    O2 5862   1.000   0.712  10.742  0.1072 -0.2785 -0.0581
  389MPD2     C 5863   4.647   2.859  11.801 -0.0595 -0.5061 -0.3777
  389MPD2    C1 5864   4.561   2.799  11.711 -0.2924 -0.6715 -0.0387
  389MPD2    C2 5865   4.447   2.745  11.758  0.1815 -0.1510 -0.0641
  389MPD2    C3 5866   4.410   2.762  11.895 -0.1904  0.0956 -0.9201
  389MPD2    C4 5867   4.490   2.836  11.977 -0.0594 -0.9801  0.0526
  389MPD2    C5 5868   4.614   2.880  11.931 -1.2384  0.2657  0.6190
  389MPD2     H 5869   4.377   2.694  11.692 -0.0456  1.5002 -1.1024
  389MPD2    H1 5870   4.479   2.848  12.085 -2.1361 -1.0212 -0.1582
  389MPD2    H2 5871   0.008   2.892  11.777 -0.0111  0.2371  0.8241
  389MPD2    H3 5872   4.686   2.936  11.990 -1.2047  1.0666 -0.1644
  389MPD2     N 5873   4.293   2.707  11.951 -0.1344 -0.1266 -0.1407
  389MPD2    H5 5874   4.265   2.737  12.044 -3.2769 -0.1018 -1.1045
  389MPD2    N1 5875   4.589   2.815  11.574  0.3053 -0.0059 -0.7423
  389MPD2    H7 5876   4.674   2.865  11.549  1.3092 -1.0742  0.5535
  390TMC3    C1 5877   4.097   2.583  11.971  0.1103 -0.1666  0.0424
  390TMC3    C2 5878   4.025   2.472  11.945 -0.5506  0.2635 -0.2658
  390TMC3    C3 5879   3.925   2.433  12.022 -0.0715 -0.3230  0.1897
  390TMC3    C4 5880   4.056   2.655  12.083 -0.1866  0.2502  0.4373
  390TMC3    C5 5881   3.946   2.619  12.156 -0.0873  0.4209 -1.2611
  390TMC3    C6 5882   3.879   2.501  12.127  0.3554  0.0020 -0.2578
  390TMC3     C 5883   4.223   2.597  11.895 -0.4407 -0.0742 -0.4400
  390TMC3     O 5884   4.244   2.526  11.796  0.4543 -0.2116  0.0102
  390TMC3     H 5885   4.055   2.413  11.859  0.0514 -2.3403  1.7199
  390TMC3    H1 5886   4.107   2.748  12.105 -0.8202  0.5742  0.5228
  390TMC3    H2 5887   3.773   2.486  12.144  0.8140 -2.4263  0.3471
  390TMC3    C7 5888   3.864   2.731  12.211 -0.2045 -0.2715 -0.1616
  390TMC3    C8 5889   3.873   2.298  12.000  0.4030 -0.4550 -0.1310
  390TMC3    O1 5890   3.911   2.839  12.178  0.2209  0.2600  0.3230
  390TMC3    O2 5891   3.887   2.240  11.891  0.0700  0.4469  0.1147
  391MPD2     C 5892   3.823   4.440  11.402  0.5908  0.6243 -0.3807
  391MPD2    C1 5893   3.929   4.507  11.348  0.0257  0.1372  0.2838
  391MPD2    C2 5894   3.982   4.462  11.226  0.0772 -0.1552  0.4674
  391MPD2    C3 5895   3.926   4.358  11.154 -0.5745  0.8212 -0.3896
  391MPD2    C4 5896   3.803   4.310  11.200 -0.0739 -1.2290 -0.1301
  391MPD2    C5 5897   3.755   4.349  11.317  0.5406 -0.6430  1.3647
  391MPD2     H 5898   4.059   4.516  11.172  0.2558  0.5475  1.4075
  391MPD2    H1 5899   3.743   4.234  11.150  0.5005 -1.3098 -0.7096
  391MPD2    H2 5900   3.780   4.466  11.498 -1.6037  1.4558 -1.5814
  391MPD2    H3 5901   3.660   4.314  11.354 -0.3455 -1.1069 -1.4017
  391MPD2     N 5902   3.964   4.331  11.020  0.0117  0.1781 -0.4613
  391MPD2    H5 5903   3.901   4.276  10.963 -0.5342  1.0071 -0.6410
  391MPD2    N1 5904   3.970   4.628  11.407  0.5166 -0.3381  0.2315
  391MPD2    H7 5905   3.920   4.653  11.491  0.0009  2.4334 -0.8973
  392TMC3    C1 5906   4.094   4.383  10.823  0.8778  0.1699 -0.5856
  392TMC3    C2 5907   3.977   4.384  10.750  0.3950  0.7492  0.1562
  392TMC3    C3 5908   3.970   4.450  10.624  0.4814 -0.0188  0.0333
  392TMC3    C4 5909   4.200   4.454  10.770  0.3427  0.5833 -0.1983
  392TMC3    C5 5910   4.184   4.519  10.651 -0.2560  0.1922 -1.3808
  392TMC3    C6 5911   4.070   4.529  10.580  0.1400  0.1175  0.0296
  392TMC3     C 5912   4.085   4.365  10.966 -0.1829 -1.1226  0.0070
  392TMC3     O 5913   4.186   4.407  11.021 -0.6001  0.3862  0.2223
  392TMC3     H 5914   3.889   4.331  10.783  0.2464  1.4478  0.8871
  392TMC3    H1 5915   4.289   4.458  10.831 -1.2394 -2.6008  2.2992
  392TMC3    H2 5916   4.066   4.605  10.503  1.1883  1.0490  0.9036
  392TMC3    C7 5917   4.290   4.613  10.614 -0.2846  0.1357  0.6531
  392TMC3    C8 5918   3.838   4.458  10.573  0.1962 -0.6198  0.0081
  392TMC3    O1 5919   4.257   4.727  10.597 -0.2350 -0.2321 -0.7057
  392TMC3    O2 5920   3.753   4.388  10.624  0.3770  0.4097  0.4592
  393TMC3    C1 5921   2.547   2.992  10.998 -0.9100  0.2661 -0.5624
  393TMC3    C2 5922   2.503   2.881  10.930  0.5290  0.2205 -0.0269
  393TMC3    C3 5923   2.494   2.761  11.003  0.5942 -0.3403  0.4909
  393TMC3    C4 5924   2.575   2.989  11.138  0.5394  0.0768 -0.1541
  393TMC3    C5 5925   2.559   2.870  11.204 -1.4335  0.3474 -0.1291
  393TMC3    C6 5926   2.521   2.757  11.138 -0.0647  0.2293 -0.7622
  393TMC3     C 5927   2.612   3.081  10.914 -0.1853  0.4709  0.7912
  393TMC3     O 5928   2.652   3.032  10.804  0.0617 -0.3013  0.2073
  393TMC3     H 5929   2.498   2.881  10.821 -0.3551  0.3278  0.0094
  393TMC3    H1 5930   2.627   3.070  11.189 -0.7763 -1.4152  3.5121
  393TMC3    H2 5931   2.488   2.671  11.195  0.0900  1.5298  1.2790
  393TMC3    C7 5932   2.607   2.854  11.335 -0.2614  0.0605 -0.8109
  393TMC3    C8 5933   2.426   2.648  10.937 -0.4320 -0.1412 -0.5377
  393TMC3    O1 5934   2.653   2.952  11.390  0.4832 -0.0434 -0.1956
  393TMC3    O2 5935   2.351   2.574  11.004 -0.0123 -0.5208  0.3423
  394TMC3    C1 5936   4.538   2.826  11.333  0.7488 -0.0494 -0.4137
  394TMC3    C2 5937   4.430   2.816  11.238 -0.0347  0.3340  0.1855
  394TMC3    C3 5938   4.441   2.888  11.120 -0.0614 -0.5912  0.2818
  394TMC3    C4 5939   4.647   2.911  11.313  0.5883 -0.4050  0.1907
  394TMC3    C5 5940   4.648   2.966  11.183  0.3572  0.2728 -0.7905
  394TMC3    C6 5941   4.547   2.959  11.088  0.0194  0.0048  0.9632
  394TMC3     C 5942   4.518   2.761  11.464  0.2589 -0.1685 -0.4457
  394TMC3     O 5943   4.430   2.675  11.472 -0.3829 -0.3194  0.4709
  394TMC3     H 5944   4.359   2.735  11.249  1.0975 -0.8219 -1.0154
  394TMC3    H1 5945   4.733   2.916  11.378  0.5453  1.4865  0.1180
  394TMC3    H2 5946   4.549   3.004  10.990  1.6094  1.8012  1.8386
  394TMC3    C7 5947   0.009   3.071  11.144  0.7191 -0.3005  0.6859
  394TMC3    C8 5948   4.336   2.868  11.021 -0.5189  0.7023 -0.3905
  394TMC3    O1 5949   4.705   3.165  11.075  0.0685  0.0139  0.1606
  394TMC3    O2 5950   4.375   2.863  10.907 -0.7457  0.1466  0.3308
  395TMC3    C1 5951   4.126   4.728  15.042  0.0241 -0.7693  0.1035
  395TMC3    C2 5952   4.130   4.594  15.004 -0.0651  0.4656 -0.2862
  395TMC3    C3 5953   4.252   4.527  15.010 -0.2611  0.2134 -0.0282
  395TMC3    C4 5954   4.241   0.060  15.068 -0.5743 -0.1723 -0.5832
  395TMC3    C5 5955   4.363   4.735  15.060 -0.4342 -0.5585 -0.3433
  395TMC3    C6 5956   4.367   4.597  15.034 -0.3253  0.3133 -0.6512
  395TMC3     C 5957   3.998   0.047  15.068  0.4566 -0.3148 -0.8871
  395TMC3     O 5958   3.976   0.163  15.027  0.0889 -0.4030  0.0922
  395TMC3     H 5959   4.035   4.542  15.000  1.0535 -1.6128  0.0778
  395TMC3    H1 5960   4.230   0.158  15.113 -1.3122  0.0369 -1.2095
  395TMC3    H2 5961   4.463   4.548  15.043  0.9639  2.5988 -2.0216
  395TMC3    C7 5962   4.475   0.082  15.088  0.6359 -0.4555 -0.6409
  395TMC3    C8 5963   4.257   4.384  15.024 -0.6814 -0.3516  0.8534
  395TMC3    O1 5964   4.442   0.184  15.146 -0.4367 -0.3385  0.9399
  395TMC3    O2 5965   4.348   4.333  15.087 -0.1713 -0.3325  0.0235
  396MPD2     C 5966   4.189   0.782  16.635  0.2162  0.1225  0.4841
  396MPD2    C1 5967   4.291   0.737  16.557 -0.5505  0.1889  0.3723
  396MPD2    C2 5968   4.385   0.832  16.517  0.1101 -0.1222  0.6074
  396MPD2    C3 5969   4.376   0.974  16.543 -0.1812 -0.1810  0.0254
  396MPD2    C4 5970   4.260   1.006  16.616  0.4763 -0.5179  0.1063
  396MPD2    C5 5971   4.170   0.915  16.654  0.0282 -0.2036  0.0716
  396MPD2     H 5972   4.477   0.805  16.465 -0.4184 -1.0356  0.1397
  396MPD2    H1 5973   4.232   1.107  16.644  0.1557 -0.8425  0.9804
  396MPD2    H2 5974   4.113   0.718  16.678 -0.9761  1.1182 -0.1364
  396MPD2    H3 5975   4.076   0.941  16.700  0.5044 -0.2386  1.0496
  396MPD2     N 5976   4.477   1.067  16.508 -0.5193  0.2364 -0.0230
  396MPD2    H5 5977   4.553   1.042  16.446  0.7039  1.1567  1.1132
  396MPD2    N1 5978   4.312   0.599  16.531  0.4156  0.0215 -0.2956
  396MPD2    H7 5979   4.405   0.570  16.504  0.7822 -2.0512  3.1928
  397TMC3    C1 5980   4.275   0.374  16.507  0.9182  0.1958 -0.4864
  397TMC3    C2 5981   4.286   0.356  16.373 -0.4343 -0.1074 -0.2134
  397TMC3    C3 5982   4.268   0.237  16.305  1.1123  0.5770 -0.1115
  397TMC3    C4 5983   4.215   0.274  16.576 -1.3016  0.0863  0.7071
  397TMC3    C5 5984   4.174   0.159  16.501  0.7566  0.2006  0.6388
  397TMC3    C6 5985   4.198   0.139  16.367 -0.4136 -0.1326  0.5037
  397TMC3     C 5986   4.214   0.499  16.530  0.1223 -0.3402 -0.2214
  397TMC3     O 5987   4.093   0.512  16.541  0.3354 -0.0925 -0.2712
  397TMC3     H 5988   4.327   0.435  16.312 -2.2669  2.1780  1.5264
  397TMC3    H1 5989   4.164   0.306  16.666 -0.8028  1.3183  0.5483
  397TMC3    H2 5990   4.175   0.046  16.317 -0.8745  0.3079 -0.1211
  397TMC3    C7 5991   4.097   0.059  16.567 -0.3298  0.7617 -1.0375
  397TMC3    C8 5992   4.243   0.247  16.163  0.1065  0.5238  0.2542
  397TMC3    O1 5993   4.036   4.722  16.489 -0.7329 -0.0623 -0.2218
  397TMC3    O2 5994   4.315   0.313  16.086 -0.3024 -0.2950  0.0276
  398MPD2     C 5995   2.732   2.038   0.190 -0.4450  0.1630  0.4094
  398MPD2    C1 5996   2.828   1.945   0.157 -0.2587 -0.0156  0.3544
  398MPD2    C2 5997   2.954   1.991   0.152 -0.5946 -0.5386  0.4412
  398MPD2    C3 5998   2.992   2.119   0.191  0.2542  0.3386  0.3267
  398MPD2    C4 5999   2.887   2.202   0.234  0.0043  0.4255 -0.0092
  398MPD2    C5 6000   2.760   2.161   0.225 -0.3601  0.3568  0.9687
  398MPD2     H 6001   3.026   1.922   0.108  0.1267 -1.0047  2.3619
  398MPD2    H1 6002   2.905   2.300   0.276 -2.4475  0.8868 -0.0313
  398MPD2    H2 6003   2.626   2.018   0.179 -0.1758 -0.4924 -1.1387
  398MPD2    H3 6004   2.680   2.233   0.243 -0.6154  0.7079 -1.4971
  398MPD2     N 6005   3.126   2.166   0.189 -0.2787 -0.5046 -0.1580
  398MPD2    H5 6006   3.199   2.096   0.180  1.0513  1.0649 -1.4958
  398MPD2    N1 6007   2.804   1.814   0.106  0.3063  0.0687 -0.1008
  398MPD2    H7 6008   2.889   1.768   0.076  1.6113  1.7515  0.9803
  399TMC3    C1 6009   2.688   1.618   0.053  0.2244 -0.4885  0.3939
  399TMC3    C2 6010   2.806   1.557   0.086 -0.2134  0.5331 -0.0992
  399TMC3    C3 6011   2.807   1.422   0.087 -0.0795 -0.0453  0.3453
  399TMC3    C4 6012   2.574   1.545   0.022 -0.3225 -0.4228  0.0455
  399TMC3    C5 6013   2.583   1.409   0.023 -0.2543  0.3443  0.1761
  399TMC3    C6 6014   2.692   1.347   0.065 -0.2820  0.4899 -0.7674
  399TMC3     C 6015   2.678   1.759   0.083 -1.0260  1.7603 -0.0923
  399TMC3     O 6016   2.567   1.813   0.087  0.1701  0.1539  0.8202
  399TMC3     H 6017   2.896   1.605   0.123 -0.1855  1.1751 -0.9898
  399TMC3    H1 6018   2.481   1.598   0.008  0.5592  0.6627 -1.7461
  399TMC3    H2 6019   2.697   1.240   0.083  1.3401  0.9627  1.4872
  399TMC3    C7 6020   2.465   1.333  17.751 -0.1445 -0.7267 -0.0116
  399TMC3    C8 6021   2.923   1.351   0.146 -0.2116 -0.1278  0.0365
  399TMC3    O1 6022   2.467   1.220   0.043 -0.5752 -0.0206 -0.5725
  399TMC3    O2 6023   3.038   1.392   0.131 -0.5268 -0.1778 -0.4615
  400TMC3    C1 6024   0.962   0.296  16.538 -0.0422 -0.4871  0.5928
  400TMC3    C2 6025   0.845   0.279  16.481  0.0243  0.6415 -0.1266
  400TMC3    C3 6026   0.776   0.394  16.443 -0.1833  0.2038  0.4277
  400TMC3    C4 6027   1.017   0.420  16.556  0.0389  0.0809 -0.1890
  400TMC3    C5 6028   0.943   0.536  16.533 -0.3093  0.4647 -0.0679
  400TMC3    C6 6029   0.819   0.519  16.472 -0.8284  0.0584  0.1521
  400TMC3     C 6030   0.999   0.196  16.647 -0.6253 -0.1308 -0.1438
  400TMC3     O 6031   0.961   0.076  16.631 -0.5967  0.4132 -0.5446
  400TMC3     H 6032   0.798   0.182  16.484 -0.9774  1.1201  0.0326
  400TMC3    H1 6033   1.118   0.428  16.597 -0.1899 -0.2806  0.4566
  400TMC3    H2 6034   0.742   0.596  16.464 -0.5418  0.1116 -1.9611
  400TMC3    C7 6035   0.938   0.606  16.655  0.0223  0.1284 -0.5301
  400TMC3    C8 6036   0.636   0.375  16.412 -0.3928 -0.4193 -0.3557
  400TMC3    O1 6037   0.998   0.551  16.744  0.2710 -0.1876  0.6710
  400TMC3    O2 6038   0.557   0.437  16.477  0.4626 -0.0394 -0.0104
  401MPD2     C 6039   3.971   3.493   0.850  0.6352  0.0509 -0.1135
  401MPD2    C1 6040   4.045   3.417   0.937 -0.6647 -0.2931 -0.0678
  401MPD2    C2 6041   4.036   3.281   0.925  0.4689  0.1444  0.4348
  401MPD2    C3 6042   3.951   3.220   0.834  0.4912  0.1973  0.5413
  401MPD2    C4 6043   3.869   3.300   0.755  0.5047 -0.4701 -0.1323
  401MPD2    C5 6044   3.879   3.434   0.761  0.3851 -0.2940 -0.5668
  401MPD2     H 6045   4.086   3.216   0.996  0.1891 -2.4262 -1.7291
  401MPD2    H1 6046   3.801   3.255   0.684  0.1953 -0.1565 -0.0382
  401MPD2    H2 6047   3.968   3.601   0.840  1.7745 -0.0395 -1.5041
  401MPD2    H3 6048   3.811   3.497   0.704 -1.1130  1.1644  2.8546
  401MPD2     N 6049   3.967   3.085   0.821 -0.2109  0.1075  0.6580
  401MPD2    H5 6050   4.033   3.046   0.888 -0.8460 -0.4465  0.9539
  401MPD2    N1 6051   4.127   3.464   1.033  0.0692  0.1207  0.3764
  401MPD2    H7 6052   4.184   3.392   1.076 -1.6344 -1.0493  0.6517
  402TMC3    C1 6053   3.963   2.860   0.736  0.5474 -0.1764  0.2818
  402TMC3    C2 6054   3.997   2.800   0.857  0.3887  0.0150 -0.5455
  402TMC3    C3 6055   4.043   2.667   0.853  0.8050 -0.1452 -0.3845
  402TMC3    C4 6056   3.950   2.789   0.627 -0.4857  0.5646  0.5773
  402TMC3    C5 6057   3.991   2.658   0.621 -0.2223  0.4182 -0.0279
  402TMC3    C6 6058   4.041   2.594   0.732 -0.7175 -0.1612  0.1382
  402TMC3     C 6059   3.916   3.000   0.719 -0.6432  0.0559  0.6311
  402TMC3     O 6060   3.837   3.018   0.624 -0.4932 -0.1243  0.3085
  402TMC3     H 6061   4.004   2.862   0.945 -0.2288  1.1558 -1.2968
  402TMC3    H1 6062   3.927   2.845   0.537 -2.9699 -1.5134 -0.0697
  402TMC3    H2 6063   4.089   2.497   0.733 -0.1620  0.1259  1.0131
  402TMC3    C7 6064   4.072   2.629   0.502  0.2954 -0.3770 -0.6024
  402TMC3    C8 6065   4.103   2.610   0.972 -0.3680 -0.3047 -0.1456
  402TMC3    O1 6066   4.034   2.672   0.394 -0.1043 -0.1779  0.6067
  402TMC3    O2 6067   4.176   2.515   0.940 -0.0379 -0.4145  0.0289
  403MPD2     C 6068   1.835   2.802  13.507 -0.2197  0.2339 -0.0002
  403MPD2    C1 6069   1.969   2.771  13.500 -0.2970  0.1622  0.2814
  403MPD2    C2 6070   2.057   2.859  13.550 -0.4669 -0.3099 -1.0196
  403MPD2    C3 6071   2.010   2.956  13.640  0.0092  0.0489 -0.2451
  403MPD2    C4 6072   1.879   2.985  13.647  0.2037  0.5485  0.3427
  403MPD2    C5 6073   1.791   2.907  13.582 -0.4794  0.2098  0.7198
  403MPD2     H 6074   2.165   2.847  13.541 -0.9730 -3.1015 -3.1059
  403MPD2    H1 6075   1.843   3.072  13.701 -1.2128  1.3983 -1.9644
  403MPD2    H2 6076   1.759   2.732  13.474 -0.9424  1.0129 -0.0146
  403MPD2    H3 6077   1.684   2.918  13.580 -0.6347 -1.6071 -1.4481
  403MPD2     N 6078   2.109   3.021  13.727 -0.4320 -0.5472  0.0269
  403MPD2    H5 6079   2.208   2.998  13.716  0.1534  1.4825  0.8737
  403MPD2    N1 6080   2.013   2.647  13.440 -0.5622  0.2648  0.0415
  403MPD2    H7 6081   1.944   2.599  13.383  0.7288 -1.7752  0.1742
  404TMC3    C1 6082   2.140   2.476  13.373  0.0595  0.9603 -0.1094
  404TMC3    C2 6083   2.174   2.363  13.439  0.2827 -0.1431  0.3602
  404TMC3    C3 6084   2.170   2.245  13.368 -0.0928 -0.0378  0.5525
  404TMC3    C4 6085   2.103   2.478  13.242 -0.2921 -0.0460 -0.2499
  404TMC3    C5 6086   2.094   2.361  13.178  0.0754 -0.2827  0.3154
  404TMC3    C6 6087   2.129   2.244  13.235  0.1320  0.1201  0.2986
  404TMC3     C 6088   2.138   2.595  13.452 -0.1555  0.3638  0.3677
  404TMC3     O 6089   2.241   2.622  13.506  0.6033 -0.2150  0.0067
  404TMC3     H 6090   2.221   2.383  13.535  0.8553  0.4203 -0.0420
  404TMC3    H1 6091   2.073   2.571  13.195  0.4485 -0.5803 -1.7989
  404TMC3    H2 6092   2.131   2.157  13.170  1.2284 -0.5797  1.2492
  404TMC3    C7 6093   2.071   2.376  13.033 -0.5483  0.3081 -0.1379
  404TMC3    C8 6094   2.205   2.112  13.428 -0.3742 -0.1963 -0.1330
  404TMC3    O1 6095   2.114   2.483  12.992  0.8007  0.0705  0.4627
  404TMC3    O2 6096   2.210   2.019  13.349  0.5776 -0.3911  0.5449
  405MPD2     C 6097   1.769   3.133  15.176 -0.5790 -0.1240 -0.3000
  405MPD2    C1 6098   1.866   3.087  15.089 -0.3800  0.9905 -0.3210
  405MPD2    C2 6099   1.857   3.126  14.953  0.0236  1.0288 -0.0250
  405MPD2    C3 6100   1.757   3.219  14.917 -0.2703  0.1538 -0.2284
  405MPD2    C4 6101   1.664   3.265  15.003  0.2908  0.2462 -0.3909
  405MPD2    C5 6102   1.673   3.223  15.133 -0.1593  0.0985 -0.7193
  405MPD2     H 6103   1.934   3.104  14.880 -0.5092  1.9988 -0.8772
  405MPD2    H1 6104   1.589   3.339  14.974  0.1118 -0.6885 -2.2626
  405MPD2    H2 6105   1.773   3.103  15.280  3.4217  0.9797 -0.1199
  405MPD2    H3 6106   1.604   3.260  15.209  0.6951  1.8942 -0.8167
  405MPD2     N 6107   1.756   3.260  14.783  0.4847 -0.0554  0.0312
  405MPD2    H5 6108   1.807   3.185  14.736 -0.1929 -0.6303  0.2071
  405MPD2    N1 6109   1.960   2.990  15.129  0.0797  0.7717 -0.0016
  405MPD2    H7 6110   1.951   2.933  15.213  0.5939 -1.2215 -1.2929
  406TMC3    C1 6111   1.694   3.401  14.355  0.0636 -0.1346  0.1645
  406TMC3    C2 6112   1.826   3.372  14.330  0.0946  0.0035 -0.6175
  406TMC3    C3 6113   1.917   3.357  14.435 -1.0518 -0.5901 -0.3911
  406TMC3    C4 6114   1.647   3.402  14.489 -0.2976 -0.3096  0.0934
  406TMC3    C5 6115   1.735   3.368  14.583 -0.1709  0.4509  0.4077
  406TMC3    C6 6116   1.869   3.361  14.560  0.0779  1.1411  0.0431
  406TMC3     C 6117   1.584   3.379  14.259 -0.0104  0.0598 -0.3290
  406TMC3     O 6118   1.481   3.442  14.272  0.6510  0.4463  0.9086
  406TMC3     H 6119   1.866   3.377  14.229  1.5485  1.1174  0.0012
  406TMC3    H1 6120   1.541   3.401  14.510  0.2653 -3.0100  2.7404
  406TMC3    H2 6121   1.934   3.358  14.647  1.7608  1.6531 -1.2008
  406TMC3    C7 6122   1.692   3.361  14.719  0.5981  0.3283  0.1325
  406TMC3    C8 6123   2.037   3.276  14.408  0.4330 -0.9214  0.4934
  406TMC3    O1 6124   1.623   3.450  14.758 -0.2156 -0.3615 -0.5793
  406TMC3    O2 6125   2.065   3.261  14.289 -0.3286 -0.3130  0.1854
  407MPD2     C 6126   0.062   4.361   9.849 -0.2104  1.1095 -0.2109
  407MPD2    C1 6127   0.168   4.334   9.929  0.2807 -0.3880 -0.2378
  407MPD2    C2 6128   0.209   4.440  10.011 -0.2542  0.4548 -0.1949
  407MPD2    C3 6129   0.155   4.569  10.016  0.2789 -0.5830 -0.1051
  407MPD2    C4 6130   0.060   4.591   9.927  0.1192  0.3678  0.0142
  407MPD2    C5 6131   0.015   4.490   9.843 -0.2768  0.2850  0.1641
  407MPD2     H 6132   0.297   4.429  10.073 -0.3355  2.9397  0.3370
  407MPD2    H1 6133   0.028   4.694   9.916 -0.3160  0.4054  1.7162
  407MPD2    H2 6134   0.016   4.292   9.778 -0.7542 -0.2908  1.4943
  407MPD2    H3 6135   4.674   4.514   9.773 -0.2158 -1.0604 -0.3595
  407MPD2     N 6136   0.215   4.670  10.092 -0.2663 -0.4024 -0.3937
  407MPD2    H5 6137   0.190   0.026  10.065  0.3629  0.1065  0.7728
  407MPD2    N1 6138   0.225   4.206   9.934 -0.0073  0.5711 -0.4001
  407MPD2    H7 6139   0.314   4.197   9.981  0.2569  2.6473 -0.5435
  408TMC3    C1 6140   0.292   4.002   9.855 -0.7764  0.7660 -0.1080
  408TMC3    C2 6141   0.426   4.037   9.851 -1.0719  0.7170 -0.3425
  408TMC3    C3 6142   0.527   3.938   9.837  0.5037 -0.1969 -0.2798
  408TMC3    C4 6143   0.255   3.878   9.817 -0.0001 -0.6990  0.0416
  408TMC3    C5 6144   0.360   3.786   9.804 -0.0132 -0.5770 -0.1681
  408TMC3    C6 6145   0.495   3.807   9.825 -0.1267 -0.0075 -0.0467
  408TMC3     C 6146   0.189   4.101   9.860  0.2142 -0.4371 -0.0415
  408TMC3     O 6147   0.083   4.079   9.805 -0.3330 -0.2536  0.2021
  408TMC3     H 6148   0.448   4.143   9.860 -0.0828  0.4617  0.2582
  408TMC3    H1 6149   0.153   3.852   9.793 -0.0317 -1.2951  0.8284
  408TMC3    H2 6150   0.563   3.724   9.839  1.0711  0.7229 -1.5322
  408TMC3    C7 6151   0.314   3.652   9.793  0.0440  0.9375  0.4326
  408TMC3    C8 6152   0.654   3.976   9.893  0.1406  0.4057 -0.0929
  408TMC3    O1 6153   0.200   3.626   9.829  0.1422 -0.5373  0.2188
  408TMC3    O2 6154   0.731   3.891   9.946  0.1534 -0.6052  0.2073
  409MPD2     C 6155   4.374   4.421  16.592 -0.2899 -0.4483 -0.5099
  409MPD2    C1 6156   4.464   4.432  16.696  0.1498 -0.9504 -0.2652
  409MPD2    C2 6157   4.524   4.555  16.728 -0.5194 -0.3671  0.3543
  409MPD2    C3 6158   4.504   4.657  16.640 -0.4331  0.0792 -0.0091
  409MPD2    C4 6159   4.414   4.641  16.538 -0.0031  0.1214 -0.2427
  409MPD2    C5 6160   4.356   4.525  16.512 -0.2353 -0.7082  0.4930
  409MPD2     H 6161   4.600   4.558  16.805  0.1437  0.8495 -0.3453
  409MPD2    H1 6162   4.397   4.727  16.473  0.3942  1.6424  1.6816
  409MPD2    H2 6163   4.335   4.325  16.562 -0.6136  0.0455 -1.6709
  409MPD2    H3 6164   4.293   4.515  16.425  0.2294  1.5350 -0.0972
  409MPD2     N 6165   4.583   0.036  16.643  0.1107 -0.1947  0.5823
  409MPD2    H5 6166   4.574   0.086  16.556  3.5072 -0.6886 -0.0636
  409MPD2    N1 6167   4.495   4.332  16.785  0.0486 -0.1068  0.5061
  409MPD2    H7 6168   4.557   4.365  16.858  1.3690 -2.2297  0.3315
  410TMC3    C1 6169   4.731   0.190  16.702  0.7172  0.4432  0.5387
  410TMC3    C2 6170   0.116   0.198  16.743  0.3417 -0.5468  0.4964
  410TMC3    C3 6171   0.187   0.308  16.705 -0.0119 -0.3865 -0.5075
  410TMC3    C4 6172   4.667   0.276  16.614 -0.1551  0.3739  0.1597
  410TMC3    C5 6173   0.004   0.390  16.587  0.5631  0.5423 -0.3282
  410TMC3    C6 6174   0.137   0.408  16.626  0.1748  0.0978 -0.3580
  410TMC3     C 6175   4.671   0.068  16.739 -0.4532  0.5443 -0.6314
  410TMC3     O 6176   4.704   0.028  16.849  0.4088  0.0031 -0.1881
  410TMC3     H 6177   0.164   0.135  16.817  1.4831 -0.0670  0.1676
  410TMC3    H1 6178   4.568   0.265  16.571  0.2465  1.3511 -1.0388
  410TMC3    H2 6179   0.182   0.505  16.607  0.9392 -0.1587  0.1067
  410TMC3    C7 6180   4.683   0.486  16.494 -0.0820 -0.4601 -0.4302
  410TMC3    C8 6181   0.318   0.326  16.750 -0.3885 -0.3188 -0.0029
  410TMC3    O1 6182   4.561   0.481  16.503 -0.4285 -0.5454 -0.3510
  410TMC3    O2 6183   0.356   0.430  16.803 -0.2245  0.3653  0.0742
  411MPD2     C 6184   0.342   1.141  14.799  0.3703 -1.0203  0.2181
  411MPD2    C1 6185   0.277   1.218  14.710  0.1564  0.0455 -0.1575
  411MPD2    C2 6186   0.209   1.150  14.606  0.3187  0.4115  0.3074
  411MPD2    C3 6187   0.216   1.012  14.599 -0.0867  0.6542 -0.1673
  411MPD2    C4 6188   0.304   0.944  14.683  0.1190 -0.0815  0.3381
  411MPD2    C5 6189   0.360   1.006  14.786 -0.7283  0.4633  0.5433
  411MPD2     H 6190   0.157   1.210  14.532  0.6611  1.7122  1.1190
  411MPD2    H1 6191   0.318   0.837  14.676  1.6374 -0.0225  2.2546
  411MPD2    H2 6192   0.387   1.189  14.885  2.8531 -2.5737 -0.2179
  411MPD2    H3 6193   0.412   0.951  14.863 -0.9210  0.9637  1.0346
  411MPD2     N 6194   0.140   0.929  14.513 -0.2418 -0.2721  0.4218
  411MPD2    H5 6195   0.166   0.831  14.509  0.1625 -0.1632  0.3469
  411MPD2    N1 6196   0.266   1.357  14.741 -0.4528  0.0241  0.0699
  411MPD2    H7 6197   0.296   1.389  14.832  2.6747  0.9682 -1.2804
  412TMC3    C1 6198   4.696   0.862  14.376 -0.0201  0.3168 -0.1789
  412TMC3    C2 6199   4.562   0.865  14.368 -0.1727 -0.5112  0.4793
  412TMC3    C3 6200   4.513   0.761  14.305 -0.2047 -0.1882 -0.8994
  412TMC3    C4 6201   0.041   0.758  14.339  0.0981 -0.1427 -0.2218
  412TMC3    C5 6202   4.725   0.648  14.275 -0.2090  0.6625  0.2513
  412TMC3    C6 6203   4.586   0.646  14.270  0.3530 -0.2586 -0.4677
  412TMC3     C 6204   0.026   0.973  14.445 -0.2327  0.7959 -0.2405
  412TMC3     O 6205   4.696   1.074  14.449 -0.1607  0.5112  0.3771
  412TMC3     H 6206   4.493   0.942  14.401  1.5957  1.9773 -1.5933
  412TMC3    H1 6207   0.149   0.769  14.340 -0.1731  2.2659  0.2038
  412TMC3    H2 6208   4.547   0.569  14.205 -2.0144  0.7072 -0.2062
  412TMC3    C7 6209   0.054   0.600  14.153  0.4557  0.0252 -0.8281
  412TMC3    C8 6210   4.389   0.777  14.237  0.2806  0.6091  0.9652
  412TMC3    O1 6211   0.164   0.545  14.159  0.4460  0.4506  0.1678
  412TMC3    O2 6212   4.361   0.892  14.205  0.5362 -0.5732  0.2026
  413MPD2     C 6213   2.059   3.711  15.669  0.0675 -0.8871  0.3800
  413MPD2    C1 6214   1.991   3.639  15.572 -0.1410 -0.0593  0.0705
  413MPD2    C2 6215   2.052   3.529  15.516 -0.0275  0.0911 -0.0250
  413MPD2    C3 6216   2.183   3.504  15.539 -0.0162  0.9011  0.0003
  413MPD2    C4 6217   2.240   3.570  15.646  0.2751 -0.1490 -0.1043
  413MPD2    C5 6218   2.174   3.663  15.715  0.0145  0.5068  0.0871
  413MPD2     H 6219   2.007   3.472  15.435  2.0796  1.1625 -1.9804
  413MPD2    H1 6220   2.340   3.548  15.682 -1.2157 -1.9391  2.8812
  413MPD2    H2 6221   2.018   3.791  15.729 -1.4664 -0.6150 -1.0488
  413MPD2    H3 6222   2.217   3.704  15.805  0.6771  0.8205 -0.3769
  413MPD2     N 6223   2.249   3.390  15.479  0.3104  0.0760  0.2485
  413MPD2    H5 6224   2.211   3.363  15.389 -1.0994 -1.0803  1.2033
  413MPD2    N1 6225   1.868   3.693  15.524 -0.1789  0.4820 -0.7036
  413MPD2    H7 6226   1.826   3.777  15.564 -1.6922 -1.1744  1.1898
  414TMC3    C1 6227   2.405   3.213  15.451 -0.3058  0.7723  0.3436
  414TMC3    C2 6228   2.466   3.111  15.518  0.1531  0.6573 -0.5220
  414TMC3    C3 6229   2.528   3.020  15.443 -0.3332 -0.6986 -0.0018
  414TMC3    C4 6230   2.436   3.240  15.317 -0.6675  0.1726  0.5582
  414TMC3    C5 6231   2.512   3.150  15.248  0.4425 -0.8479 -0.0506
  414TMC3    C6 6232   2.554   3.033  15.310  0.2739 -0.0872  0.5918
  414TMC3     C 6233   2.355   3.320  15.534 -0.1592  0.5853  0.2842
  414TMC3     O 6234   2.422   3.332  15.633  0.0964  0.3647  0.2923
  414TMC3     H 6235   2.461   3.107  15.626 -0.6838 -0.3385 -0.5965
  414TMC3    H1 6236   2.408   3.330  15.264  2.7307  0.6652 -0.4593
  414TMC3    H2 6237   2.589   2.951  15.248 -0.3314  1.0059 -1.1856
  414TMC3    C7 6238   2.608   3.216  15.155  0.2696 -0.5314 -0.3460
  414TMC3    C8 6239   2.564   2.894  15.502  0.2729  0.1902 -0.2819
  414TMC3    O1 6240   2.727   3.176  15.161  0.4259 -0.5438  0.2392
  414TMC3    O2 6241   2.478   2.847  15.573  0.5131  0.2589 -0.8097
  415TMC3    C1 6242   2.187   2.194  10.202  0.1407 -0.8003 -0.0881
  415TMC3    C2 6243   2.286   2.250  10.115  0.0649 -0.8751  0.1957
  415TMC3    C3 6244   2.253   2.248   9.985  0.7063  0.3919  0.3458
  415TMC3    C4 6245   2.063   2.151  10.165  0.5583 -0.0033 -0.3880
  415TMC3    C5 6246   2.035   2.139  10.031  0.1869 -0.0475 -0.1282
  415TMC3    C6 6247   2.132   2.190   9.947 -0.6490  0.2785  0.2482
  415TMC3     C 6248   2.221   2.160  10.341 -0.5727  0.2660  0.2043
  415TMC3     O 6249   2.148   2.081  10.402 -0.0201 -0.3458  0.2350
  415TMC3     H 6250   2.389   2.254  10.150 -0.6297  1.4616  1.9733
  415TMC3    H1 6251   1.990   2.127  10.241  0.6542 -3.5026 -1.4273
  415TMC3    H2 6252   2.120   2.195   9.839 -2.3082 -1.7629  0.3556
  415TMC3    C7 6253   1.901   2.102   9.988  0.9362  0.5140 -0.6085
  415TMC3    C8 6254   2.367   2.242   9.896 -0.4827 -0.7429 -0.0175
  415TMC3    O1 6255   1.850   2.169   9.898  0.2367  0.1264 -0.4049
  415TMC3    O2 6256   2.340   2.173   9.798  0.1371  0.1285 -0.0436
  416MPD2     C 6257   3.991   0.808  11.416  0.0967  0.3650 -0.0457
  416MPD2    C1 6258   3.868   0.747  11.376 -0.4476 -0.2073  0.0024
  416MPD2    C2 6259   3.878   0.656  11.273  0.3801 -0.0017  0.1287
  416MPD2    C3 6260   4.002   0.636  11.202 -0.0123 -0.2513  0.6082
  416MPD2    C4 6261   4.111   0.707  11.239 -0.0824 -0.0668 -0.0545
  416MPD2    C5 6262   4.107   0.777  11.359  0.7473 -0.3673 -0.2968
  416MPD2     H 6263   3.791   0.598  11.244 -0.7029  2.1756 -1.0463
  416MPD2    H1 6264   4.204   0.679  11.191  1.3283  1.2244  1.9167
  416MPD2    H2 6265   3.990   0.886  11.492  2.6965  0.0741  0.2794
  416MPD2    H3 6266   4.197   0.825  11.394  1.1276 -3.0967  2.4853
  416MPD2     N 6267   4.003   0.533  11.108  0.1552  0.0389  0.3434
  416MPD2    H5 6268   3.920   0.475  11.108 -0.9169  1.5882 -0.3367
  416MPD2    N1 6269   3.744   0.778  11.444 -0.8807 -0.1673  0.4507
  416MPD2    H7 6270   3.747   0.832  11.530 -0.3124  0.8843 -0.2339
  417TMC3    C1 6271   3.506   0.822  11.480  0.1212 -0.3668  0.8278
  417TMC3    C2 6272   3.534   0.867  11.602  0.3503 -0.9787  0.4447
  417TMC3    C3 6273   3.438   0.956  11.655 -0.1390 -0.4579  1.1426
  417TMC3    C4 6274   3.385   0.847  11.415 -0.0786 -0.4706 -0.0838
  417TMC3    C5 6275   3.293   0.932  11.469  0.0637  0.5400 -0.1765
  417TMC3    C6 6276   3.321   0.987  11.587 -0.6064 -0.0756  0.5117
  417TMC3     C 6277   3.615   0.768  11.397 -0.2701 -0.0102 -0.5862
  417TMC3     O 6278   3.590   0.734  11.284 -0.2827  0.9379 -0.7392
  417TMC3     H 6279   3.614   0.831  11.665 -0.5576 -1.4140  1.3438
  417TMC3    H1 6280   3.373   0.805  11.316 -0.0850  1.0872 -0.7372
  417TMC3    H2 6281   3.267   1.072  11.627  0.5060  0.7252  0.3162
  417TMC3    C7 6282   3.241   1.030  11.376  0.0473  0.4794 -0.1590
  417TMC3    C8 6283   3.438   0.986  11.797  0.2405 -0.2387  0.0780
  417TMC3    O1 6284   3.237   1.147  11.411 -0.1614 -1.0409  0.4278
  417TMC3    O2 6285   3.326   0.984  11.849 -0.4359 -0.2482  0.2944
  418TMC3    C1 6286   3.520   2.292   0.265 -0.6762  0.5535 -0.0838
  418TMC3    C2 6287   3.398   2.256   0.210 -0.1630 -0.4367 -0.3946
  418TMC3    C3 6288   3.287   2.317   0.253  0.1265  0.5922  0.1983
  418TMC3    C4 6289   3.532   2.364   0.381 -0.5753  0.8395  0.5060
  418TMC3    C5 6290   3.419   2.419   0.430  0.1822 -0.0803 -0.0053
  418TMC3    C6 6291   3.303   2.406   0.360  0.3686 -0.1736 -0.5049
  418TMC3     C 6292   3.632   2.217   0.215 -0.4063  0.0650 -0.4948
  418TMC3     O 6293   3.608   2.122   0.139  0.5407 -0.3816 -0.1366
  418TMC3     H 6294   3.394   2.194   0.122  0.3874 -1.8953  0.6069
  418TMC3    H1 6295   3.621   2.355   0.442 -1.8090 -0.3754  2.1212
  418TMC3    H2 6296   3.215   2.462   0.390  0.2330  0.4415 -2.0552
  418TMC3    C7 6297   3.443   2.480   0.554 -0.0129 -0.4647  0.4299
  418TMC3    C8 6298   3.154   2.302   0.196  0.1587 -0.9286 -0.4430
  418TMC3    O1 6299   3.550   2.538   0.571 -0.2673  0.2484 -0.0110
  418TMC3    O2 6300   3.089   2.407   0.196 -0.0137 -0.2920  0.2261
  419MPD2     C 6301   1.640   1.216  12.612 -0.0777  0.0353 -0.5721
  419MPD2    C1 6302   1.510   1.174  12.649  0.3313  0.0029  0.0231
  419MPD2    C2 6303   1.429   1.266  12.720 -0.1883 -0.0737  0.5770
  419MPD2    C3 6304   1.477   1.376  12.772 -1.1228 -0.1715 -0.1565
  419MPD2    C4 6305   1.603   1.411  12.751  0.1975 -0.5136  0.5197
  419MPD2    C5 6306   1.676   1.338  12.662  0.0999 -0.6478  0.4595
  419MPD2     H 6307   1.323   1.249  12.729  0.1296 -1.3954  1.7782
  419MPD2    H1 6308   1.643   1.504  12.789  2.7827 -0.5916 -1.9600
  419MPD2    H2 6309   1.710   1.157  12.554 -0.4371 -2.1101  1.1726
  419MPD2    H3 6310   1.775   1.373  12.635 -0.3163 -0.2213 -0.5046
  419MPD2     N 6311   1.388   1.452  12.855  0.0530 -0.1576  0.5433
  419MPD2    H5 6312   1.295   1.414  12.868 -0.8940  1.7392 -0.7171
  419MPD2    N1 6313   1.446   1.057  12.598 -0.5204  0.4737 -0.1552
  419MPD2    H7 6314   1.346   1.059  12.616 -0.8873 -0.6189 -2.0821
  420TMC3    C1 6315   1.309   1.608  13.001 -0.2798 -0.2466 -0.0249
  420TMC3    C2 6316   1.201   1.624  12.923  0.2146 -0.0277 -0.1769
  420TMC3    C3 6317   1.081   1.582  12.975  0.0802  0.2106  0.5521
  420TMC3    C4 6318   1.298   1.557  13.133 -0.0790 -0.1677 -0.2950
  420TMC3    C5 6319   1.177   1.508  13.169 -0.4581  0.2861  0.4243
  420TMC3    C6 6320   1.062   1.528  13.096 -0.7054  0.2882  0.0229
  420TMC3     C 6321   1.422   1.565  12.927  0.6289 -0.1453 -0.1874
  420TMC3     O 6322   1.525   1.624  12.941  0.0861  0.5346  0.0082
  420TMC3     H 6323   1.208   1.656  12.820  1.3319 -4.1111 -1.3988
  420TMC3    H1 6324   1.381   1.524  13.193 -1.3854 -1.1291  0.9872
  420TMC3    H2 6325   0.960   1.522  13.132 -0.8284 -0.8062 -0.5073
  420TMC3    C7 6326   1.164   1.457  13.306  0.0786 -0.1892 -0.5995
  420TMC3    C8 6327   0.969   1.628  12.886  0.2285  0.1357  0.4881
  420TMC3    O1 6328   1.053   1.410  13.328 -0.0214 -0.9827  0.4128
  420TMC3    O2 6329   0.979   1.745  12.861  0.4235 -0.1299 -0.0580
  421TMC3    C1 6330   2.191   3.108  13.941 -0.3639  0.2891  0.2915
  421TMC3    C2 6331   2.201   3.236  13.998 -0.0036  0.5123 -0.5031
  421TMC3    C3 6332   2.327   3.271  14.039  0.1295  0.2063 -0.3491
  421TMC3    C4 6333   2.288   3.015  13.933  0.2424 -1.0421  0.2600
  421TMC3    C5 6334   2.410   3.057  13.984 -0.2447 -0.0181  0.8687
  421TMC3    C6 6335   2.429   3.184  14.032 -0.4837  0.0002 -0.2232
  421TMC3     C 6336   2.079   3.091  13.847 -0.6089  0.1976  0.1177
  421TMC3     O 6337   1.970   3.132  13.881 -0.1462  0.1448 -0.1389
  421TMC3     H 6338   2.117   3.303  13.990  0.2093  1.0876  2.1480
  421TMC3    H1 6339   2.291   2.929  13.868  2.3407 -0.2358 -0.7024
  421TMC3    H2 6340   2.527   3.216  14.064 -0.3600  0.6458 -1.2321
  421TMC3    C7 6341   2.520   2.958  13.996 -0.3007  0.2382  0.6268
  421TMC3    C8 6342   2.350   3.392  14.112  0.0337 -0.0589  0.8571
  421TMC3    O1 6343   2.629   3.007  13.990 -0.1774  0.1996  0.2117
  421TMC3    O2 6344   2.465   3.435  14.117  0.1719  0.1531 -0.4495
  422TMC3    C1 6345   0.395   4.208  12.212 -0.4989 -0.7645 -0.0722
  422TMC3    C2 6346   0.350   4.314  12.280 -0.1359 -0.7757 -0.1345
  422TMC3    C3 6347   0.222   4.316  12.323  0.1432  0.5399  0.2658
  422TMC3    C4 6348   0.311   4.100  12.192  0.5359 -0.0302  0.2780
  422TMC3    C5 6349   0.193   4.100  12.252 -0.1550  0.4746  1.0112
  422TMC3    C6 6350   0.141   4.204  12.320  0.7726 -0.3290 -0.2402
  422TMC3     C 6351   0.537   4.171  12.216 -0.6424 -0.3018  0.2531
  422TMC3     O 6352   0.611   4.262  12.249  0.0854  1.0598 -0.2183
  422TMC3     H 6353   0.410   4.402  12.298 -1.0859  0.0199 -0.8182
  422TMC3    H1 6354   0.335   4.023  12.119 -0.2272 -0.2093  0.2210
  422TMC3    H2 6355   0.049   4.201  12.377  0.3914  0.5240 -0.8255
  422TMC3    C7 6356   0.114   3.975  12.270 -0.3581 -0.3378 -0.4294
  422TMC3    C8 6357   0.170   4.427  12.401  0.4935 -0.1413  0.2376
  422TMC3    O1 6358   0.170   3.871  12.251 -0.2135 -0.2419 -0.0989
  422TMC3    O2 6359   0.250   4.514  12.446 -0.3062  0.2828  0.1074
  423MPD2     C 6360   1.502   0.306  17.583  0.1836 -0.1430 -0.5253
  423MPD2    C1 6361   1.537   0.199  17.666  0.3368  0.2385  0.2683
  423MPD2    C2 6362   1.543   0.074  17.614 -0.4258  0.0987 -0.1566
  423MPD2    C3 6363   1.517   0.045  17.479 -0.1452 -0.1848  0.0120
  423MPD2    C4 6364   1.479   0.150  17.400 -0.3838 -0.3199 -0.2988
  423MPD2    C5 6365   1.492   0.280  17.446 -0.2748 -0.5496  0.4039
  423MPD2     H 6366   1.543   4.729  17.684  0.6004 -0.9551 -1.4118
  423MPD2    H1 6367   1.459   0.139  17.294  0.5341  2.4795 -0.7626
  423MPD2    H2 6368   1.495   0.410  17.614  0.1134  0.2912 -1.9959
  423MPD2    H3 6369   1.475   0.365  17.381  0.3008  1.6602  3.1028
  423MPD2     N 6370   1.523   4.655  17.419  0.2606  0.2527 -0.1801
  423MPD2    H5 6371   1.513   4.650  17.318  0.4804  2.2172 -0.2827
  423MPD2    N1 6372   1.588   0.223   0.042  0.2932 -0.5744 -0.2059
  423MPD2    H7 6373   1.618   0.139   0.090  0.9830 -0.2692 -0.0991
  424TMC3    C1 6374   1.658   0.346   0.230 -1.0972  0.0762  0.7401
  424TMC3    C2 6375   1.750   0.255   0.260 -0.1715  0.9046 -0.9578
  424TMC3    C3 6376   1.781   0.221   0.395 -0.1703  0.5079 -0.7478
  424TMC3    C4 6377   1.587   0.401   0.327  0.1041  0.0712  0.2702
  424TMC3    C5 6378   1.607   0.361   0.458  0.6563 -0.8607 -0.0621
  424TMC3    C6 6379   1.693   0.261   0.493 -1.1004  0.2167  0.2622
  424TMC3     C 6380   1.591   0.345   0.105 -0.0611  0.7269 -0.0127
  424TMC3     O 6381   1.562   0.464   0.075 -0.3826  0.2238  0.1282
  424TMC3     H 6382   1.821   0.216   0.188  2.2029  1.7610  0.9163
  424TMC3    H1 6383   1.524   0.485   0.301  2.6368  2.0225  0.3856
  424TMC3    H2 6384   1.720   0.238   0.595 -0.2866  0.7279  0.1682
  424TMC3    C7 6385   1.513   0.418   0.551  0.3220 -0.6837  0.6569
  424TMC3    C8 6386   1.852   0.095   0.416  0.1973  0.1115  0.5969
  424TMC3    O1 6387   1.452   0.517   0.511  0.5765  0.0505 -0.0484
  424TMC3    O2 6388   1.794   0.023   0.499  0.1001 -0.0076 -0.3625
  425MPD2     C 6389   0.403   3.656  17.179  0.2286  0.0876  0.6751
  425MPD2    C1 6390   0.425   3.564  17.280  0.8086  0.2024  0.7209
  425MPD2    C2 6391   0.324   3.530  17.368 -0.0477 -0.5747  0.2164
  425MPD2    C3 6392   0.197   3.579  17.346 -0.0983 -0.0231 -0.1237
  425MPD2    C4 6393   0.177   3.684  17.257 -0.2056  0.4115  0.7646
  425MPD2    C5 6394   0.279   3.716  17.170  0.1404  0.2698 -0.4006
  425MPD2     H 6395   0.340   3.440  17.427  0.4897 -0.4627  0.2412
  425MPD2    H1 6396   0.084   3.737  17.245 -1.1690 -1.3674  0.2992
  425MPD2    H2 6397   0.478   3.666  17.102  0.5967 -1.8779  0.7634
  425MPD2    H3 6398   0.266   3.794  17.095  0.4618 -1.9321 -2.7318
  425MPD2     N 6399   0.108   3.554  17.451  0.4026 -0.3883  0.7282
  425MPD2    H5 6400   0.133   3.490  17.525  2.3525 -1.2926 -0.6965
  425MPD2    N1 6401   0.548   3.493  17.287 -0.0472  0.4819 -0.3071
  425MPD2    H7 6402   0.606   3.477  17.206  0.2098  1.5548 -0.3262
  426TMC3    C1 6403   0.684   3.325  17.364 -1.0059  0.3335  0.0552
  426TMC3    C2 6404   0.683   3.273  17.232 -0.2680  0.2946 -0.0402
  426TMC3    C3 6405   0.766   3.171  17.207 -0.3168  0.4508  0.0358
  426TMC3    C4 6406   0.738   3.253  17.467 -0.8373 -0.0303 -0.0868
  426TMC3    C5 6407   0.807   3.140  17.440 -0.6894 -0.3345  0.1654
  426TMC3    C6 6408   0.846   3.110  17.308  0.0070 -0.8829 -0.3898
  426TMC3     C 6409   0.589   3.424  17.396  0.5095 -0.7549 -0.2723
  426TMC3     O 6410   0.558   3.432  17.511 -0.2135  0.0681 -0.6794
  426TMC3     H 6411   0.627   3.319  17.152 -1.0114  0.3691  0.5257
  426TMC3    H1 6412   0.735   3.292  17.568  0.5158  0.7884 -0.3651
  426TMC3    H2 6413   0.891   3.014  17.287 -0.4649 -0.9745 -0.9808
  426TMC3    C7 6414   0.865   3.055  17.549  0.3018 -0.3822  0.5029
  426TMC3    C8 6415   0.749   3.093  17.084  0.5324 -0.3590 -0.3109
  426TMC3    O1 6416   0.941   2.964  17.514  0.1751 -0.0614 -0.6138
  426TMC3    O2 6417   0.859   3.060  17.037 -0.4551 -0.1299 -0.5403
  427MPD2     C 6418   4.164   1.577  14.586  0.1829  0.0875  0.1259
  427MPD2    C1 6419   4.105   1.458  14.555 -0.1093  0.3420 -0.1669
  427MPD2    C2 6420   3.969   1.455  14.544  0.4953 -0.4793  0.0682
  427MPD2    C3 6421   3.892   1.571  14.555  0.5601 -0.4587  0.5386
  427MPD2    C4 6422   3.951   1.690  14.577  0.2342 -0.6524 -0.2880
  427MPD2    C5 6423   4.089   1.695  14.586  0.1636  0.1067 -0.9376
  427MPD2     H 6424   3.924   1.362  14.513  1.1027 -0.2144 -1.5816
  427MPD2    H1 6425   3.891   1.781  14.571  1.2457  0.0380  0.0669
  427MPD2    H2 6426   4.272   1.575  14.598  0.1816  0.3879  0.2012
  427MPD2    H3 6427   4.136   1.793  14.590  0.5832 -0.1217 -0.3378
  427MPD2     N 6428   3.753   1.571  14.562  0.4431 -0.3625  0.1641
  427MPD2    H5 6429   3.711   1.657  14.597  2.4064 -0.0288  1.6938
  427MPD2    N1 6430   4.172   1.331  14.562 -0.0962  0.2684  0.4555
  427MPD2    H7 6431   4.119   1.248  14.537  0.0063  0.2336  0.3550
  428TMC3    C1 6432   4.303   1.160  14.650  0.8131  0.3076 -0.0929
  428TMC3    C2 6433   4.184   1.096  14.675  0.9335  0.0280  0.1562
  428TMC3    C3 6434   4.197   0.971  14.717 -1.2135  0.1049  0.4979
  428TMC3    C4 6435   4.423   1.088  14.653  0.4636  0.3668 -0.0040
  428TMC3    C5 6436   4.428   0.956  14.690 -0.0893 -1.0175 -0.5564
  428TMC3    C6 6437   4.309   0.900  14.730  0.6536  0.6627 -0.0905
  428TMC3     C 6438   4.295   1.299  14.609  0.2167  0.1132 -0.2571
  428TMC3     O 6439   4.396   1.372  14.606  0.0213  0.1232 -0.5671
  428TMC3     H 6440   4.101   1.159  14.703  0.0035 -0.9334 -0.4464
  428TMC3    H1 6441   4.511   1.129  14.605  0.5684  0.3500  0.1732
  428TMC3    H2 6442   4.303   0.793  14.750 -1.5619  0.6573 -0.8282
  428TMC3    C7 6443   4.538   0.914  14.765  0.0028 -0.0192  0.3086
  428TMC3    C8 6444   4.073   0.901  14.732 -0.5351 -0.1020  0.1598
  428TMC3    O1 6445   4.528   0.802  14.810  0.0393 -0.0146  0.1532
  428TMC3    O2 6446   4.072   0.797  14.796 -0.6687 -0.2950  0.1631
  429MPD2     C 6447   0.005   0.661  16.831 -0.1847 -0.4024 -0.2363
  429MPD2    C1 6448   0.108   0.679  16.920  1.0489 -0.2379 -0.5029
  429MPD2    C2 6449   0.164   0.804  16.933  0.4304  0.3969 -0.4461
  429MPD2    C3 6450   0.116   0.909  16.856  0.9594  0.2819  0.2779
  429MPD2    C4 6451   0.013   0.894  16.766  0.1389  0.3678 -0.0348
  429MPD2    C5 6452   4.698   0.768  16.759  0.0478  0.9099 -0.6201
  429MPD2     H 6453   0.253   0.816  16.993  0.2215  3.2746 -0.7253
  429MPD2    H1 6454   4.700   0.974  16.715  2.3434  1.6203 -0.2990
  429MPD2    H2 6455   4.705   0.563  16.806  1.0464 -0.8517 -0.4056
  429MPD2    H3 6456   4.622   0.744  16.685 -0.9184  3.3432 -0.3969
  429MPD2     N 6457   0.182   1.033  16.866 -0.2343  0.4834 -0.3565
  429MPD2    H5 6458   0.261   1.042  16.928 -0.7305  0.2275  0.3160
  429MPD2    N1 6459   0.145   0.587  17.015 -0.0395 -0.3338  0.1534
  429MPD2    H7 6460   0.217   0.608  17.084 -0.7856  2.3902  0.1338
  430TMC3    C1 6461   0.275   1.246  16.786 -0.4066 -0.4742  0.7604
  430TMC3    C2 6462   0.254   1.347  16.702 -0.3747 -0.4252  0.0862
  430TMC3    C3 6463   0.359   1.394  16.630 -1.0421 -0.0816  0.3808
  430TMC3    C4 6464   0.407   1.196  16.818 -0.3069 -0.2724 -1.0495
  430TMC3    C5 6465   0.510   1.260  16.754  0.1035  0.1862  0.5260
  430TMC3    C6 6466   0.485   1.357  16.658 -0.1334  0.4830 -0.5824
  430TMC3     C 6467   0.168   1.142  16.786 -0.1840  0.7185 -0.1593
  430TMC3     O 6468   0.087   1.165  16.694 -0.4153 -0.1652 -0.3010
  430TMC3     H 6469   0.159   1.371  16.654 -0.5352 -0.2430  0.4926
  430TMC3    H1 6470   0.412   1.099  16.866  0.9048 -0.3650 -1.3484
  430TMC3    H2 6471   0.572   1.399  16.610 -0.0873  1.8256  0.6669
  430TMC3    C7 6472   0.621   1.177  16.723 -0.4325  0.0921 -0.5673
  430TMC3    C8 6473   0.334   1.420  16.489  0.5105  0.0567 -0.4856
  430TMC3    O1 6474   0.657   1.164  16.605 -0.3646  0.2634 -0.2990
  430TMC3    O2 6475   0.237   1.368  16.439 -0.5402  0.3390  0.7720
  431MPD2     C 6476   1.001   1.539  12.561  0.2656 -0.2703 -0.1494
  431MPD2    C1 6477   1.136   1.530  12.536 -0.7420  0.3741  0.3543
  431MPD2    C2 6478   1.185   1.405  12.487 -0.5028 -0.1966 -0.1329
  431MPD2    C3 6479   1.103   1.292  12.483  0.3675 -0.2421  0.4000
  431MPD2    C4 6480   0.975   1.305  12.530 -0.0876 -0.7019  0.4408
  431MPD2    C5 6481   0.922   1.424  12.562  0.4250 -1.3227 -0.0898
  431MPD2     H 6482   1.287   1.386  12.458  0.1588 -0.4360  2.3505
  431MPD2    H1 6483   0.909   1.219  12.530  0.2175 -0.9442 -1.0966
  431MPD2    H2 6484   0.959   1.636  12.583  1.1462 -0.3028  1.6171
  431MPD2    H3 6485   0.817   1.427  12.589  0.1063 -1.1928 -1.3349
  431MPD2     N 6486   1.147   1.176  12.422  0.1913  0.7421 -0.0862
  431MPD2    H5 6487   1.241   1.179  12.382  0.0186 -1.9945 -0.7384
  431MPD2    N1 6488   1.204   1.657  12.545  0.8625  0.0545 -0.3089
  431MPD2    H7 6489   1.147   1.739  12.563  0.8250 -0.0783  0.1639
  432TMC3    C1 6490   1.173   0.952  12.360  0.5965  0.4994  0.5259
  432TMC3    C2 6491   1.201   0.929  12.226  0.5984 -0.4567 -0.4031
  432TMC3    C3 6492   1.334   0.894  12.192 -0.0728 -0.5276 -0.0721
  432TMC3    C4 6493   1.264   0.925  12.465  0.0539  0.6617 -0.3765
  432TMC3    C5 6494   1.396   0.902  12.428  0.6224 -0.0270 -0.2239
  432TMC3    C6 6495   1.430   0.878  12.299  0.5146 -0.4769 -0.4786
  432TMC3     C 6496   1.079   1.059  12.398  0.0363 -0.2448  0.6188
  432TMC3     O 6497   0.973   1.018  12.442  0.1320  0.2191  0.7077
  432TMC3     H 6498   1.135   0.949  12.142  0.2523  0.4632  0.0997
  432TMC3    H1 6499   1.239   0.944  12.569  0.7740  0.6447 -0.1956
  432TMC3    H2 6500   1.534   0.862  12.275  1.1796 -0.9294  2.6804
  432TMC3    C7 6501   1.503   0.962  12.512 -0.3264 -1.1433 -0.1672
  432TMC3    C8 6502   1.387   0.898  12.061  0.3634  0.0550 -0.1008
  432TMC3    O1 6503   1.620   0.949  12.487 -0.0947  0.1117 -0.8658
  432TMC3    O2 6504   1.305   0.851  11.982 -0.8752  0.4282  0.0152
  433MPD2     C 6505   0.290   0.309  10.816 -0.5782 -1.1969 -0.0225
  433MPD2    C1 6506   0.204   0.219  10.862  0.5342 -0.2705  0.1000
  433MPD2    C2 6507   0.132   0.239  10.983  0.4854 -0.4394 -0.1693
  433MPD2    C3 6508   0.158   0.350  11.060 -0.3234 -0.3434 -0.2525
  433MPD2    C4 6509   0.242   0.448  11.010 -0.2915  0.1542  0.3622
  433MPD2    C5 6510   0.302   0.427  10.885 -0.5414  0.4497  0.0916
  433MPD2     H 6511   0.069   0.161  11.024  0.4428 -0.5088 -0.3659
  433MPD2    H1 6512   0.265   0.538  11.065  0.4371 -0.0459  0.3805
  433MPD2    H2 6513   0.335   0.306  10.717  1.7920  3.5162  0.9222
  433MPD2    H3 6514   0.362   0.508  10.846 -0.8639  0.9301  0.5914
  433MPD2     N 6515   0.100   0.361  11.189 -0.2345  0.5393 -0.1156
  433MPD2    H5 6516   0.043   0.278  11.204  1.1811 -0.1383  1.4347
  433MPD2    N1 6517   0.205   0.094  10.794 -0.0365  0.1420 -0.0949
  433MPD2    H7 6518   0.286   0.079  10.735  1.3478  2.1528  1.3037
  434TMC3    C1 6519   0.201   4.599  10.780 -0.3726  0.2396 -0.9269
  434TMC3    C2 6520   0.334   4.589  10.823 -0.2544  0.2514 -0.0111
  434TMC3    C3 6521   0.378   4.469  10.867  0.2815  0.1568 -0.2824
  434TMC3    C4 6522   0.122   4.485  10.779  0.7777 -0.2608  0.1378
  434TMC3    C5 6523   0.183   4.363  10.813 -0.8379 -0.0088 -0.1858
  434TMC3    C6 6524   0.309   4.349  10.859  0.7829 -0.3373  0.2121
  434TMC3     C 6525   0.137   4.716  10.833  0.0625 -0.1106  0.3507
  434TMC3     O 6526   0.036   4.699  10.908 -0.0569  0.1458  0.2379
  434TMC3     H 6527   0.392   4.681  10.831  2.0568 -1.2438  0.3171
  434TMC3    H1 6528   0.018   4.484  10.747  1.4756 -0.3603 -2.1283
  434TMC3    H2 6529   0.370   4.261  10.871 -1.4817 -2.1452 -1.5811
  434TMC3    C7 6530   0.121   4.240  10.765 -0.0044  0.1015 -0.5978
  434TMC3    C8 6531   0.501   4.463  10.951  0.1455 -0.4626  0.0841
  434TMC3    O1 6532   0.033   4.250  10.681 -0.6126 -0.3547 -0.2991
  434TMC3    O2 6533   0.497   4.360  11.021 -0.0249 -0.1578 -0.0502
  435MPD2     C 6534   2.667   4.673  15.425 -1.2931 -0.6735  0.0824
  435MPD2    C1 6535   2.616   4.675  15.550  0.3691 -0.6427 -0.1016
  435MPD2    C2 6536   2.696   4.611  15.647 -0.1995  0.6926  0.8864
  435MPD2    C3 6537   2.812   4.545  15.623  0.4878  1.0216 -0.9774
  435MPD2    C4 6538   2.863   4.554  15.497  0.1503 -0.2006  0.4819
  435MPD2    C5 6539   2.788   4.609  15.398  0.1292 -0.3892 -0.6984
  435MPD2     H 6540   2.655   4.607  15.747  2.9090  1.7607  2.2027
  435MPD2    H1 6541   2.963   4.519  15.472 -0.3658 -0.8270 -0.7337
  435MPD2    H2 6542   2.608   4.716  15.344  0.3351 -0.7248 -1.1359
  435MPD2    H3 6543   2.824   4.620  15.297 -0.0771 -0.2598 -0.7582
  435MPD2     N 6544   2.870   4.484  15.740 -0.4276  0.0082  0.2150
  435MPD2    H5 6545   2.819   4.509  15.824  0.5785 -0.5832  1.0031
  435MPD2    N1 6546   2.499   0.003  15.593  0.2493 -0.3583 -0.1295
  435MPD2    H7 6547   2.464   4.724  15.687 -0.3805  0.2125 -0.2544
  436TMC3    C1 6548   2.157   0.163  15.759  0.1030  0.4839 -0.6015
  436TMC3    C2 6549   2.267   0.095  15.706 -0.4285 -0.4963 -0.4945
  436TMC3    C3 6550   2.270   0.069  15.567  0.0171  0.0448 -0.2155
  436TMC3    C4 6551   2.054   0.194  15.675 -0.3421 -0.5374 -0.1014
  436TMC3    C5 6552   2.058   0.153  15.544  0.2232  0.5112  0.3486
  436TMC3    C6 6553   2.163   0.092  15.487 -0.9824 -0.3974  0.1229
  436TMC3     C 6554   2.170   0.233  15.884 -0.0408 -0.4901 -0.1029
  436TMC3     O 6555   2.281   0.273  15.917 -0.0187  0.4559 -0.0219
  436TMC3     H 6556   2.357   0.083  15.764 -0.9917  2.6459  1.0691
  436TMC3    H1 6557   1.963   0.237  15.715  0.2481 -2.3298  3.1674
  436TMC3    H2 6558   2.158   0.054  15.385  0.3819  0.2894 -0.2078
  436TMC3    C7 6559   1.945   0.177  15.467 -0.0814 -0.6999  0.2036
  436TMC3    C8 6560   2.401   0.047  15.505 -0.4876 -0.4276 -0.3238
  436TMC3    O1 6561   1.837   0.181  15.530  0.8679  0.0999 -0.2265
  436TMC3    O2 6562   2.399   0.056  15.381 -0.5837  0.2890 -0.5038
  437TMC3    C1 6563   0.632   1.898  13.019 -0.1481 -0.4310 -0.4094
  437TMC3    C2 6564   0.505   1.859  12.994 -0.3171  0.0483 -0.0972
  437TMC3    C3 6565   0.442   1.938  12.905 -0.5093  0.9306 -0.5686
  437TMC3    C4 6566   0.698   2.003  12.958 -0.4236  0.6357  0.1157
  437TMC3    C5 6567   0.630   2.075  12.866  0.0403 -0.2022  0.4428
  437TMC3    C6 6568   0.497   2.045  12.849  0.1578  0.4220 -0.0695
  437TMC3     C 6569   0.696   1.843  13.133  0.2752  0.2934  0.0007
  437TMC3     O 6570   0.625   1.782  13.214  0.0023 -0.1433  0.1449
  437TMC3     H 6571   0.444   1.796  13.057 -1.8529  0.1992 -1.4060
  437TMC3    H1 6572   0.799   2.033  12.982 -0.7927  0.7173  1.6050
  437TMC3    H2 6573   0.431   2.112  12.795  2.3895  1.9626 -0.8685
  437TMC3    C7 6574   0.677   2.197  12.801 -0.6033 -0.0595  0.1673
  437TMC3    C8 6575   0.294   1.927  12.906 -0.2286 -0.3898  0.0212
  437TMC3    O1 6576   0.595   2.280  12.764 -0.2030 -0.2803  0.8611
  437TMC3    O2 6577   0.228   2.031  12.911  0.4334 -0.7114 -0.6756
  438MPD2     C 6578   3.559   2.493  16.724  0.6803 -0.2932 -0.3802
  438MPD2    C1 6579   3.636   2.379  16.749  0.1854 -0.7156 -0.2640
  438MPD2    C2 6580   3.662   2.349  16.882  0.0217 -0.8828 -0.7443
  438MPD2    C3 6581   3.634   2.436  16.986  0.4327 -0.3442 -0.0485
  438MPD2    C4 6582   3.572   2.554  16.957  0.0005 -0.8576  0.2167
  438MPD2    C5 6583   3.529   2.579  16.828 -0.3024  0.0216 -0.0406
  438MPD2     H 6584   3.715   2.258  16.909  1.5846  0.6738  1.4076
  438MPD2    H1 6585   3.550   2.639  17.020  0.6861  0.2361 -1.0199
  438MPD2    H2 6586   3.522   2.522  16.627 -0.9498  0.9963  0.6284
  438MPD2    H3 6587   3.466   2.666  16.814  0.2645  0.5675  0.7437
  438MPD2     N 6588   3.672   2.413  17.120 -0.3441  0.6565  0.0426
  438MPD2    H5 6589   3.683   2.492  17.182 -1.3231  0.6552  0.2231
  438MPD2    N1 6590   3.670   2.280  16.653 -0.1162  0.1862 -0.3614
  438MPD2    H7 6591   3.727   2.209  16.698 -1.4002 -1.5779 -1.5189
  439TMC3    C1 6592   3.661   2.138  16.468  0.6337 -0.1139 -0.8056
  439TMC3    C2 6593   3.591   2.107  16.352  0.2979  0.6658 -0.1577
  439TMC3    C3 6594   3.622   1.985  16.290 -0.6311  0.4714  0.2590
  439TMC3    C4 6595   3.773   2.069  16.503  0.0384  0.1716 -0.0119
  439TMC3    C5 6596   3.795   1.951  16.441 -0.2764 -0.4977 -0.0765
  439TMC3    C6 6597   3.720   1.906  16.335  0.3421 -0.1155 -0.3121
  439TMC3     C 6598   3.626   2.267  16.530 -0.0270  0.4888 -0.4225
  439TMC3     O 6599   3.553   2.337  16.468 -0.2729 -0.5700  0.4886
  439TMC3     H 6600   3.500   2.161  16.329 -0.9037 -1.9055 -1.3625
  439TMC3    H1 6601   3.842   2.107  16.578  0.6972  0.3702 -0.7218
  439TMC3    H2 6602   3.734   1.810  16.288 -1.6389 -0.3509 -0.4281
  439TMC3    C7 6603   3.906   1.868  16.489  0.3272  0.2085  0.1709
  439TMC3    C8 6604   3.596   1.978  16.148  1.1713 -0.0385 -0.1574
  439TMC3    O1 6605   3.951   1.902  16.599 -0.2542 -0.2010  0.0224
  439TMC3    O2 6606   3.610   1.867  16.099  0.3156  0.4480  0.3956
  440MPD2     C 6607   1.921   2.749  15.400  0.2125  0.1965 -0.5239
  440MPD2    C1 6608   2.046   2.743  15.446 -0.3721  0.2575  0.3105
  440MPD2    C2 6609   2.121   2.629  15.435  0.9723  0.0996 -0.4167
  440MPD2    C3 6610   2.059   2.515  15.379 -0.0613  0.0057 -0.1373
  440MPD2    C4 6611   1.932   2.518  15.334 -0.9863 -0.7559  0.1357
  440MPD2    C5 6612   1.862   2.637  15.343 -0.4757  0.3609  1.0963
  440MPD2     H 6613   2.223   2.630  15.472  1.4488  0.1754 -1.7412
  440MPD2    H1 6614   1.877   2.438  15.285 -1.1501 -0.6774  0.1918
  440MPD2    H2 6615   1.855   2.835  15.400 -0.9493 -0.6809 -0.3815
  440MPD2    H3 6616   1.759   2.641  15.307  0.3019  4.6841 -0.6526
  440MPD2     N 6617   2.130   2.393  15.367  0.0917  0.8557 -0.3120
  440MPD2    H5 6618   2.080   2.310  15.335 -0.2453  0.7022  0.5997
  440MPD2    N1 6619   2.111   2.853  15.501 -0.0202  0.2815  0.1057
  440MPD2    H7 6620   2.198   2.823  15.543  0.0965 -1.5656 -1.4588
  441TMC3    C1 6621   2.312   2.242  15.408 -0.3879  0.1805 -0.0541
  441TMC3    C2 6622   2.447   2.232  15.383 -0.2959 -0.8806 -0.5059
  441TMC3    C3 6623   2.527   2.170  15.477  0.0398 -0.1978 -0.6878
  441TMC3    C4 6624   2.261   2.207  15.531 -0.6130  0.7971  0.1006
  441TMC3    C5 6625   2.345   2.152  15.629  0.4936 -0.6272 -0.1350
  441TMC3    C6 6626   2.481   2.135  15.603  0.1774 -0.5562 -0.6199
  441TMC3     C 6627   2.268   2.377  15.368  0.2191 -0.0733 -0.1803
  441TMC3     O 6628   2.362   2.457  15.375 -0.2883 -0.4807  0.4051
  441TMC3     H 6629   2.481   2.276  15.290 -0.2496 -1.0439 -0.5662
  441TMC3    H1 6630   2.155   2.219  15.548 -0.8677 -0.7429 -0.3795
  441TMC3    H2 6631   2.556   2.092  15.669  1.4471  0.6782 -1.2637
  441TMC3    C7 6632   2.289   2.165  15.760 -0.3237  0.5466 -0.5085
  441TMC3    C8 6633   2.647   2.248  15.486 -0.5732  0.1742  0.1147
  441TMC3    O1 6634   2.177   2.215  15.774 -0.0399 -0.2591 -0.1913
  441TMC3    O2 6635   2.750   2.189  15.520  0.4525  0.5002 -0.1266
  442MPD2     C 6636   0.770   3.376  16.573  0.0124 -0.0867 -0.0796
  442MPD2    C1 6637   0.637   3.345  16.564  0.5846 -0.1298 -0.1105
  442MPD2    C2 6638   0.600   3.231  16.494  0.4918 -0.6474  0.1718
  442MPD2    C3 6639   0.697   3.146  16.445 -0.1234  0.0935  0.4074
  442MPD2    C4 6640   0.832   3.171  16.462 -0.6912  0.1960  0.2447
  442MPD2    C5 6641   0.861   3.293  16.521  0.1925  0.5238 -0.0772
  442MPD2     H 6642   0.496   3.205  16.486 -0.4784  2.7452  1.9279
  442MPD2    H1 6643   0.917   3.109  16.439  0.8368  2.2594  0.2865
  442MPD2    H2 6644   0.806   3.467  16.620  1.8964  0.0196 -1.7155
  442MPD2    H3 6645   0.968   3.311  16.527  0.1992  0.1503  0.7730
  442MPD2     N 6646   0.666   3.024  16.384 -0.0419  0.4199 -0.3848
  442MPD2    H5 6647   0.745   2.967  16.356  0.4240  1.1949 -0.6210
  442MPD2    N1 6648   0.537   3.431  16.615 -0.2363 -0.0524  0.1051
  442MPD2    H7 6649   0.442   3.407  16.587  0.0572  0.6847 -1.5385
  443TMC3    C1 6650   0.427   3.559  16.761  0.3147  0.2452 -0.2079
  443TMC3    C2 6651   0.347   3.628  16.673  0.4934 -0.5724  0.4053
  443TMC3    C3 6652   0.207   3.620  16.697  0.6639 -0.7888  0.6196
  443TMC3    C4 6653   0.384   3.491  16.868  0.3492  0.0541 -0.3784
  443TMC3    C5 6654   0.251   3.500  16.889 -0.3395 -0.2153  0.0855
  443TMC3    C6 6655   0.163   3.559  16.802  0.3935 -0.2929  0.0360
  443TMC3     C 6656   0.556   3.525  16.711 -0.3194 -0.1529  0.6629
  443TMC3     O 6657   0.651   3.556  16.777 -0.0533  0.3317 -0.0051
  443TMC3     H 6658   0.383   3.687  16.589 -0.8359  0.9544  0.9203
  443TMC3    H1 6659   0.446   3.435  16.938 -0.9121 -1.2028 -0.2634
  443TMC3    H2 6660   0.056   3.566  16.818  0.3528  3.1845 -1.8133
  443TMC3    C7 6661   0.194   3.412  16.991 -0.3680 -0.0860 -0.0118
  443TMC3    C8 6662   0.121   3.617  16.584  0.2885 -0.9310  0.5161
  443TMC3    O1 6663   0.268   3.323  17.033  1.0522  0.0932 -0.3869
  443TMC3    O2 6664   0.030   3.536  16.586  0.3833 -0.2249  0.0222
  444MPD2     C 6665   0.554   2.668  17.114 -0.2216 -0.5494 -0.5739
  444MPD2    C1 6666   0.489   2.543  17.099  0.4354  0.5483 -0.1781
  444MPD2    C2 6667   0.557   2.457  17.017  0.7877 -0.5890 -0.5925
  444MPD2    C3 6668   0.674   2.484  16.951 -0.0046 -0.0185 -0.0053
  444MPD2    C4 6669   0.732   2.602  16.971  0.2703 -0.1231 -0.0947
  444MPD2    C5 6670   0.674   2.691  17.049  0.1143 -0.8832 -0.7114
  444MPD2     H 6671   0.520   2.356  17.001  0.8670 -0.6480 -0.3969
  444MPD2    H1 6672   0.822   2.626  16.916 -1.1935  2.1908 -1.4626
  444MPD2    H2 6673   0.521   2.747  17.181  0.8591 -1.9542  1.5967
  444MPD2    H3 6674   0.716   2.791  17.051 -0.4450 -0.6392 -1.1996
  444MPD2     N 6675   0.731   2.385  16.861  0.2872  0.6720 -0.0316
  444MPD2    H5 6676   0.697   2.290  16.871 -1.0380  1.1984  0.4011
  444MPD2    N1 6677   0.384   2.504  17.176 -0.3023  0.3438 -0.1210
  444MPD2    H7 6678   0.364   2.405  17.171 -0.4008  0.5155 -3.4086
  445TMC3    C1 6679   0.875   2.272  16.717  0.3298  0.3079 -0.5476
  445TMC3    C2 6680   0.780   2.198  16.652  0.3733 -0.0599  0.0306
  445TMC3    C3 6681   0.822   2.089  16.586  0.3717 -0.3790 -0.0583
  445TMC3    C4 6682   1.013   2.239  16.729 -0.3586  0.1125 -0.3603
  445TMC3    C5 6683   1.039   2.122  16.658  0.1946  0.8207  0.6178
  445TMC3    C6 6684   0.950   2.050  16.589  0.2782  0.3329  0.1242
  445TMC3     C 6685   0.845   2.392  16.786  0.1438 -0.2449 -0.3914
  445TMC3     O 6686   0.929   2.481  16.778 -0.0787  0.2944  0.0724
  445TMC3     H 6687   0.678   2.231  16.665  1.2165  1.3708  3.1372
  445TMC3    H1 6688   1.081   2.293  16.793  1.1370 -0.8630 -1.1130
  445TMC3    H2 6689   0.980   1.960  16.537 -1.3506 -0.6242  0.8324
  445TMC3    C7 6690   1.179   2.096  16.644 -0.3849 -0.1478 -0.3408
  445TMC3    C8 6691   0.741   2.022  16.477  0.6437 -0.3625 -0.1751
  445TMC3    O1 6692   1.258   2.188  16.656 -0.2604 -0.2339  0.5064
  445TMC3    O2 6693   0.765   1.905  16.456  0.1477 -0.2785  0.2467
  446MPD2     C 6694   0.267   4.081  11.313  0.0999 -0.5485 -0.0906
  446MPD2    C1 6695   0.173   4.156  11.249 -0.2770 -0.7395 -0.2996
  446MPD2    C2 6696   0.195   4.296  11.239 -0.1716 -0.3875 -0.1131
  446MPD2    C3 6697   0.302   4.358  11.309  0.4786 -0.6191 -0.5882
  446MPD2    C4 6698   0.383   4.272  11.386  0.2392 -0.2569  0.1616
  446MPD2    C5 6699   0.371   4.133  11.387 -0.4022 -0.6453 -0.8204
  446MPD2     H 6700   0.124   4.357  11.185  0.4834  0.0270 -0.5027
  446MPD2    H1 6701   0.457   4.326  11.444  1.5784  0.6029 -2.3876
  446MPD2    H2 6702   0.251   3.975  11.324  1.1021 -0.3129  3.6519
  446MPD2    H3 6703   0.443   4.068  11.435  1.3334  0.7212 -1.5494
  446MPD2     N 6704   0.322   4.500  11.301  0.6661 -0.5248 -0.2571
  446MPD2    H5 6705   0.260   4.550  11.238  1.8969  0.1225 -0.9452
  446MPD2    N1 6706   0.047   4.099  11.213 -0.4796  0.7963  0.2973
  446MPD2    H7 6707   4.730   4.166  11.160 -0.5472 -0.0487 -0.7005
  447TMC3    C1 6708   0.414   4.721  11.349 -0.1250  0.4212 -0.0557
  447TMC3    C2 6709   0.412   0.027  11.219 -0.1853  0.3842  0.3692
  447TMC3    C3 6710   0.467   0.145  11.194  0.4196 -0.5648  0.0894
  447TMC3    C4 6711   0.467   0.062  11.445  0.3322  0.0974  0.0712
  447TMC3    C5 6712   0.517   0.185  11.420  0.4471 -0.0569 -0.2452
  447TMC3    C6 6713   0.507   0.232  11.295 -0.4241 -0.0834  0.1830
  447TMC3     C 6714   0.407   4.576  11.380  0.6640 -0.7953 -0.1234
  447TMC3     O 6715   0.444   4.543  11.489 -0.3984 -0.1844 -0.5804
  447TMC3     H 6716   0.392   4.700  11.136  2.1345 -0.2228  0.2766
  447TMC3    H1 6717   0.475   0.013  11.542  2.6615  0.7237  0.2018
  447TMC3    H2 6718   0.561   0.323  11.271 -0.8612  0.0414 -0.3016
  447TMC3    C7 6719   0.655   0.202  11.479 -0.1011 -0.7223  0.0646
  447TMC3    C8 6720   0.514   0.163  11.064 -0.3358  0.0372  0.2686
  447TMC3    O1 6721   0.744   0.231  11.401 -0.0583  0.1271 -0.0432
  447TMC3    O2 6722   0.460   0.095  10.975  0.4314 -0.0768 -0.2129
  448TMC3    C1 6723   3.308   2.941  17.118 -0.1126 -0.1511  0.5949
  448TMC3    C2 6724   3.359   2.952  16.989 -0.2221 -0.0446 -0.4400
  448TMC3    C3 6725   3.497   2.960  16.975  0.5249 -0.1637 -1.1456
  448TMC3    C4 6726   3.386   2.962  17.231 -0.5941  0.5537 -0.2536
  448TMC3    C5 6727   3.517   2.971  17.214  0.2338  0.4928  0.7128
  448TMC3    C6 6728   3.576   2.965  17.086  0.0540 -0.5663 -0.1666
  448TMC3     C 6729   3.170   2.973  17.142  0.7115 -0.2619 -0.4388
  448TMC3     O 6730   3.139   2.957  17.259  0.5223 -0.3309 -0.0117
  448TMC3     H 6731   3.291   2.936  16.906 -1.0967 -0.0615  0.2751
  448TMC3    H1 6732   3.346   2.916  17.321  1.2673  0.0206  0.2935
  448TMC3    H2 6733   3.682   2.980  17.069 -0.0210  0.6443  0.4084
  448TMC3    C7 6734   3.599   2.971  17.332  0.1985 -0.3706 -0.1336
  448TMC3    C8 6735   3.566   2.922  16.853 -0.5407  0.0662  0.5536
  448TMC3    O1 6736   3.715   2.999  17.308 -0.0098 -0.0132  0.2724
  448TMC3    O2 6737   3.683   2.885  16.854 -0.6793 -0.0091  0.2900
  449MPD2     C 6738   4.588   2.469  13.959 -0.6232  0.5080  0.2095
  449MPD2    C1 6739   4.521   2.560  13.879 -0.1500 -0.0283 -0.1267
  449MPD2    C2 6740   4.387   2.588  13.906  0.7205 -0.0862 -0.5518
  449MPD2    C3 6741   4.335   2.543  14.027  0.2753 -0.7513  0.0874
  449MPD2    C4 6742   4.400   2.453  14.106  0.0068 -0.8700 -0.7995
  449MPD2    C5 6743   4.524   2.408  14.065  0.2005  0.3092  0.8619
  449MPD2     H 6744   4.334   2.658  13.843  3.5744  0.4461 -2.3578
  449MPD2    H1 6745   4.358   2.418  14.200 -0.6586 -0.0819 -0.8054
  449MPD2    H2 6746   4.691   2.451  13.933 -1.4641  0.1617 -2.9212
  449MPD2    H3 6747   4.585   2.344  14.126 -0.2105 -2.6436 -1.8213
  449MPD2     N 6748   4.204   2.584  14.046 -0.3449 -0.6809  0.2480
  449MPD2    H5 6749   4.163   2.652  13.982 -1.3445 -1.8749 -0.3745
  449MPD2    N1 6750   4.570   2.609  13.757  0.5021 -0.5237  0.0204
  449MPD2    H7 6751   4.505   2.663  13.701  0.5849 -0.6528 -0.2016
  450TMC3    C1 6752   4.673   2.648  13.552 -0.4878  0.1206  0.0364
  450TMC3    C2 6753   4.685   2.568  13.448  0.6868 -0.6005 -0.4267
  450TMC3    C3 6754   4.612   2.596  13.332 -0.2386  0.2104  0.7173
  450TMC3    C4 6755   4.591   2.759  13.540 -0.4632  0.9959  0.5846
  450TMC3    C5 6756   4.506   2.776  13.432  0.3528 -0.0315  0.3425
  450TMC3    C6 6757   4.519   2.693  13.322 -0.5910  0.3684  1.5223
  450TMC3     C 6758   4.692   2.599  13.696 -0.0708 -0.6777 -0.7201
  450TMC3     O 6759   0.049   2.531  13.723  0.0187  0.4093 -0.0867
  450TMC3     H 6760   0.025   2.495  13.453  1.6443  0.6729  2.6104
  450TMC3    H1 6761   4.588   2.831  13.621 -0.1819 -1.5612  2.8791
  450TMC3    H2 6762   4.455   2.709  13.235 -0.4357 -2.6580  0.8508
  450TMC3    C7 6763   4.371   2.791  13.488 -0.5905  0.0199 -0.6840
  450TMC3    C8 6764   4.640   2.518  13.211  0.4999  0.5691 -0.1132
  450TMC3    O1 6765   4.373   2.737  13.597 -0.6958 -0.2527  0.1827
  450TMC3    O2 6766   4.560   2.543  13.118 -0.1773 -0.1443 -0.1628
  451MPD2     C 6767   0.991   0.622   1.270  0.7961 -0.2172  0.0594
  451MPD2    C1 6768   1.000   0.488   1.281 -0.4435  0.0515  0.5767
  451MPD2    C2 6769   1.126   0.434   1.258  0.0031  0.3236  0.0339
  451MPD2    C3 6770   1.234   0.509   1.212 -0.3408 -0.2089  0.1788
  451MPD2    C4 6771   1.215   0.643   1.202  0.1289 -1.0288 -0.5590
  451MPD2    C5 6772   1.093   0.707   1.229 -0.4277 -0.0218  0.3296
  451MPD2     H 6773   1.149   0.330   1.278  1.3718  0.7137  0.5025
  451MPD2    H1 6774   1.298   0.710   1.184 -0.3404  0.2425  1.9678
  451MPD2    H2 6775   0.899   0.671   1.300  1.6909  2.9596 -2.3394
  451MPD2    H3 6776   1.087   0.815   1.216 -2.3040  0.1220  2.3124
  451MPD2     N 6777   1.367   0.463   1.186 -0.0064 -0.8251 -0.3778
  451MPD2    H5 6778   1.423   0.537   1.145  1.0831 -1.6035 -0.3141
  451MPD2    N1 6779   0.888   0.419   1.323 -0.2949 -0.3059 -0.8282
  451MPD2    H7 6780   0.807   0.479   1.318  0.7203  1.3221  2.2510
  452TMC3    C1 6781   1.533   0.313   1.132  0.3386  0.6530  0.1508
  452TMC3    C2 6782   1.600   0.200   1.177  0.4644 -0.0252  0.1203
  452TMC3    C3 6783   1.733   0.190   1.147  0.0353  0.7918 -0.0573
  452TMC3    C4 6784   1.586   0.396   1.037  0.3764  0.7139 -0.4463
  452TMC3    C5 6785   1.715   0.371   0.994  0.2567 -0.1580 -0.0245
  452TMC3    C6 6786   1.791   0.273   1.058  0.4798  0.6938 -0.0167
  452TMC3     C 6787   1.402   0.334   1.188 -0.0925 -0.9370  0.0087
  452TMC3     O 6788   1.355   0.234   1.238 -0.1542  0.3090 -0.2568
  452TMC3     H 6789   1.552   0.127   1.241  0.5784 -0.3577 -0.1764
  452TMC3    H1 6790   1.529   0.480   1.000  1.6169  2.5414  1.7647
  452TMC3    H2 6791   1.893   0.247   1.032  0.6717  0.9788  0.4538
  452TMC3    C7 6792   1.753   0.435   0.870 -0.0852 -0.0017 -0.4769
  452TMC3    C8 6793   1.787   0.062   1.182 -0.6723 -0.1092 -0.1998
  452TMC3    O1 6794   1.688   0.534   0.841 -0.0678 -0.1963  0.5632
  452TMC3    O2 6795   1.710   4.715   1.208  0.0290 -1.1701  0.5474
  453TMC3    C1 6796   2.417   3.154  11.644 -0.9011 -0.7396  0.7298
  453TMC3    C2 6797   2.351   3.072  11.726 -0.0856  0.2187 -0.6206
  453TMC3    C3 6798   2.271   2.974  11.669 -0.1083  0.4563 -0.7312
  453TMC3    C4 6799   2.418   3.145  11.510 -0.4643  0.5901 -0.0894
  453TMC3    C5 6800   2.339   3.042  11.451 -0.9212 -0.2067 -0.0132
  453TMC3    C6 6801   2.263   2.958  11.532 -0.1813 -0.6933 -0.2399
  453TMC3     C 6802   2.518   3.246  11.691 -0.5816 -0.2864  0.3099
  453TMC3     O 6803   2.614   3.275  11.616  0.2010  0.1571  0.2815
  453TMC3     H 6804   2.358   3.067  11.834 -2.1585  0.7873 -0.4649
  453TMC3    H1 6805   2.460   3.219  11.443  0.8488  0.9719  1.1627
  453TMC3    H2 6806   2.215   2.874  11.483  1.0411 -1.0925 -0.7503
  453TMC3    C7 6807   2.302   3.056  11.310  0.0400 -0.3926 -0.3708
  453TMC3    C8 6808   2.184   2.895  11.758  0.7861 -0.3010  0.5999
  453TMC3    O1 6809   2.344   3.157  11.254 -0.4878  0.4003  0.1452
  453TMC3    O2 6810   2.199   2.917  11.880  0.5249 -0.2601 -0.0030
  454MPD2     C 6811   1.442   2.317  16.330  0.5151 -0.8913 -0.4310
  454MPD2    C1 6812   1.392   2.399  16.226  0.3203 -0.5838 -0.0736
  454MPD2    C2 6813   1.329   2.518  16.258 -0.3003 -0.2813 -0.3348
  454MPD2    C3 6814   1.316   2.558  16.389 -0.0918 -0.2788  0.0050
  454MPD2    C4 6815   1.370   2.484  16.486 -0.1852  0.3336 -0.4515
  454MPD2    C5 6816   1.438   2.369  16.460  0.0896 -1.0881 -0.4567
  454MPD2     H 6817   1.280   2.562  16.172  0.3764  1.8333  0.3599
  454MPD2    H1 6818   1.366   2.508  16.592  0.4614  3.2684 -1.0852
  454MPD2    H2 6819   1.500   2.230  16.301 -0.2834 -1.7571  0.5039
  454MPD2    H3 6820   1.492   2.309  16.532  1.3838  1.2727  0.5310
  454MPD2     N 6821   1.243   2.671  16.423 -0.2227  0.4620  0.2446
  454MPD2    H5 6822   1.217   2.676  16.521  0.1018 -1.8241  0.4602
  454MPD2    N1 6823   1.387   2.357  16.094  0.1475  0.2603  0.3704
  454MPD2    H7 6824   1.329   2.409  16.030  1.5821  0.2197 -0.9555
  455TMC3    C1 6825   1.047   2.757  16.370  0.2212  0.1448  0.0450
  455TMC3    C2 6826   1.018   2.801  16.498  0.0400 -0.8560  0.2779
  455TMC3    C3 6827   0.909   2.745  16.559  0.0211 -0.4698  0.6437
  455TMC3    C4 6828   0.978   2.657  16.304  0.6892 -0.4397 -0.7152
  455TMC3    C5 6829   0.873   2.603  16.373  0.1566 -0.1035  0.0793
  455TMC3    C6 6830   0.832   2.644  16.499  0.3766  0.4136  0.0194
  455TMC3     C 6831   1.179   2.755  16.333 -0.5826 -0.0282  0.2298
  455TMC3     O 6832   1.203   2.775  16.212  0.6152 -0.2298 -0.8324
  455TMC3     H 6833   1.078   2.876  16.548  0.6695 -0.4098 -1.1433
  455TMC3    H1 6834   1.008   2.634  16.202 -2.8259  0.2430 -1.8886
  455TMC3    H2 6835   0.746   2.601  16.549  0.6708  0.6032  0.6865
  455TMC3    C7 6836   0.862   2.462  16.341 -0.5598 -0.0135  0.1301
  455TMC3    C8 6837   0.828   2.837  16.641  0.2809 -0.4950 -0.3530
  455TMC3    O1 6838   0.753   2.408  16.336  0.4901  0.6194 -0.5975
  455TMC3    O2 6839   0.886   2.943  16.670 -0.2941  0.1411 -0.9974
  456MPD2     C 6840   4.214   1.818  16.044 -0.0620  0.4932 -0.2539
  456MPD2    C1 6841   4.310   1.891  16.107  0.2352 -0.6657  0.0159
  456MPD2    C2 6842   4.263   2.007  16.171  0.3451 -0.1296  0.1228
  456MPD2    C3 6843   4.127   2.040  16.170  0.0857 -0.6519 -0.0061
  456MPD2    C4 6844   4.043   1.970  16.088 -0.4480 -0.1903 -0.1731
  456MPD2    C5 6845   4.077   1.856  16.023  0.7490 -0.0703  0.6309
  456MPD2     H 6846   4.333   2.076  16.217  2.2802 -1.7514 -0.3965
  456MPD2    H1 6847   3.940   2.004  16.086 -0.3355  0.0868 -1.0269
  456MPD2    H2 6848   4.247   1.727  15.995  0.5564  0.6484 -0.1218
  456MPD2    H3 6849   4.005   1.798  15.967  0.1333  1.1579  0.1767
  456MPD2     N 6850   4.085   2.142  16.264  0.2831  0.3100 -0.4815
  456MPD2    H5 6851   4.156   2.173  16.330 -0.6191 -1.0102  1.0941
  456MPD2    N1 6852   4.446   1.844  16.116  0.0839  0.2226 -0.6408
  456MPD2    H7 6853   4.459   1.748  16.085  2.8111  0.1957  0.6151
  457TMC3    C1 6854   3.967   2.292  16.379 -0.6210 -0.2850 -0.1927
  457TMC3    C2 6855   3.897   2.405  16.374 -0.6947  0.4229 -0.1420
  457TMC3    C3 6856   3.937   2.497  16.462 -0.4797  0.0472 -0.0945
  457TMC3    C4 6857   4.043   2.251  16.489 -0.9156 -0.2713 -0.6817
  457TMC3    C5 6858   4.081   2.342  16.579 -0.0682  0.1135 -0.0988
  457TMC3    C6 6859   4.025   2.468  16.562  0.3022 -0.1759 -0.4455
  457TMC3     C 6860   3.966   2.208  16.269  0.1817  0.2282  0.5255
  457TMC3     O 6861   3.866   2.197  16.201 -0.3152 -0.3345 -0.4785
  457TMC3     H 6862   3.844   2.428  16.282 -1.0359  1.4328  0.3115
  457TMC3    H1 6863   4.067   2.146  16.502 -1.8579  0.0191  3.4234
  457TMC3    H2 6864   4.076   2.550  16.611 -0.7407 -0.0460  0.4204
  457TMC3    C7 6865   4.077   2.288  16.710  0.3931  0.3701 -0.2066
  457TMC3    C8 6866   3.847   2.596  16.511 -0.0650  0.7536 -0.5519
  457TMC3    O1 6867   4.101   2.171  16.727 -0.2394  0.1729  0.1746
  457TMC3    O2 6868   3.877   2.638  16.622 -0.3508  0.2821 -0.7374
  458MPD2     C 6869   1.060   2.508  12.657  0.4384  0.5580  0.2591
  458MPD2    C1 6870   1.120   2.401  12.720  0.0235 -0.0051 -0.7074
  458MPD2    C2 6871   1.040   2.298  12.773  0.8287 -0.3619 -0.0508
  458MPD2    C3 6872   0.900   2.304  12.762  0.2059  0.5582 -0.0780
  458MPD2    C4 6873   0.841   2.405  12.693 -0.1436  0.5118 -0.0931
  458MPD2    C5 6874   0.924   2.503  12.632  0.0525 -0.5380 -0.5152
  458MPD2     H 6875   1.082   2.211  12.822 -1.2208 -0.5069  1.4793
  458MPD2    H1 6876   0.739   2.423  12.662  0.5668 -0.3591 -3.0105
  458MPD2    H2 6877   1.121   2.590  12.620  1.6500  0.1974  1.4516
  458MPD2    H3 6878   0.868   2.573  12.571 -1.3425 -0.1748  1.1997
  458MPD2     N 6879   0.814   2.195  12.797  0.7680 -0.7320 -0.2665
  458MPD2    H5 6880   0.859   2.107  12.820  2.2951  0.0258 -0.3273
  458MPD2    N1 6881   1.264   2.406  12.733  0.4017  0.2426 -0.8581
  458MPD2    H7 6882   1.305   2.483  12.681  1.3936  2.2954  2.9812
  459TMC3    C1 6883   1.488   2.354  12.797  0.8396 -0.2098  0.7478
  459TMC3    C2 6884   1.533   2.484  12.787  0.2221  0.9867  0.2584
  459TMC3    C3 6885   1.638   2.524  12.861  0.1789  0.2345  0.0026
  459TMC3    C4 6886   1.560   2.268  12.879 -0.1526 -0.0128  0.4751
  459TMC3    C5 6887   1.661   2.308  12.960  0.4271  0.0240  0.6500
  459TMC3    C6 6888   1.698   2.442  12.957  0.6276  0.3042  0.7259
  459TMC3     C 6889   1.346   2.315  12.794 -0.4905  0.8142  0.4346
  459TMC3     O 6890   1.306   2.221  12.864  0.3445  0.2409 -0.4061
  459TMC3     H 6891   1.475   2.556  12.731 -0.2801  0.8003  0.5335
  459TMC3    H1 6892   1.529   2.165  12.886  0.8297 -0.0687  3.6787
  459TMC3    H2 6893   1.789   2.477  13.003  1.0921  0.9154 -0.6703
  459TMC3    C7 6894   1.707   2.225  13.068  0.7326 -0.4490 -0.0240
  459TMC3    C8 6895   1.728   2.610  12.785  0.7704  0.4025  0.4379
  459TMC3    O1 6896   1.696   2.105  13.052 -0.4211  0.5589 -0.5503
  459TMC3    O2 6897   1.833   2.641  12.841  0.2128  0.1254  0.3537
  460MPD2     C 6898   0.805   0.343  10.917  0.8279  0.2580 -0.6632
  460MPD2    C1 6899   0.689   0.268  10.918  0.2276 -0.4282 -0.6831
  460MPD2    C2 6900   0.636   0.234  10.793 -0.1637 -0.0921 -0.4819
  460MPD2    C3 6901   0.700   0.262  10.675  0.8589  0.0479  0.1570
  460MPD2    C4 6902   0.807   0.348  10.680  0.1180 -0.0767  0.3001
  460MPD2    C5 6903   0.861   0.386  10.798  0.2797 -0.1826  0.3480
  460MPD2     H 6904   0.541   0.182  10.795 -0.4665  0.4038 -2.3732
  460MPD2    H1 6905   0.839   0.388  10.584  0.6840 -0.3209  0.3876
  460MPD2    H2 6906   0.861   0.368  11.006  1.2089  0.9496 -1.0891
  460MPD2    H3 6907   0.939   0.461  10.799 -1.5652  1.7489 -1.4092
  460MPD2     N 6908   0.641   0.241  10.551  0.0854  0.7847 -0.3860
  460MPD2    H5 6909   0.676   0.300  10.477  0.8588 -0.0244 -0.6682
  460MPD2    N1 6910   0.626   0.246  11.045 -0.7057  0.4726  0.4667
  460MPD2    H7 6911   0.667   0.282  11.131  0.2961  1.7017 -0.5356
  461TMC3    C1 6912   0.475   0.161  10.410 -0.6626  0.2623  0.5022
  461TMC3    C2 6913   0.429   0.040  10.367  0.2988 -0.0043  0.8139
  461TMC3    C3 6914   0.357   0.044  10.247  0.2130  0.1238 -0.3634
  461TMC3    C4 6915   0.471   0.280  10.348 -0.6093  0.0708 -0.2201
  461TMC3    C5 6916   0.400   0.276  10.229  0.7168  0.0115 -0.0396
  461TMC3    C6 6917   0.335   0.162  10.185  0.5725 -0.2747  0.6538
  461TMC3     C 6918   0.532   0.155  10.537 -0.1757 -0.7369 -0.4856
  461TMC3     O 6919   0.474   0.079  10.613  0.1519  0.2395 -0.2102
  461TMC3     H 6920   0.425   4.695  10.434 -2.4728 -1.3814 -1.0610
  461TMC3    H1 6921   0.521   0.360  10.401  0.6794 -1.0642  0.2819
  461TMC3    H2 6922   0.278   0.170  10.093 -0.3614 -1.8206  1.1109
  461TMC3    C7 6923   0.372   0.400  10.151  0.6039  0.3596  1.0188
  461TMC3    C8 6924   0.293   4.659  10.206 -0.3445 -0.4594 -0.0724
  461TMC3    O1 6925   0.290   0.402  10.061  0.7163  0.1829 -0.4227
  461TMC3    O2 6926   0.335   4.560  10.266  0.0907 -0.2352 -0.0565
  462TMC3    C1 6927   0.670   0.566   0.067  0.6925 -0.9113  0.2873
  462TMC3    C2 6928   0.626   0.564  17.688 -0.4748 -0.6347 -0.4924
  462TMC3    C3 6929   0.544   0.458  17.660 -0.0691  0.2940  0.0167
  462TMC3    C4 6930   0.604   0.498   0.165 -0.0691 -0.8845  0.5605
  462TMC3    C5 6931   0.517   0.401   0.125  0.1954  0.2527 -0.1736
  462TMC3    C6 6932   0.481   0.379  17.748 -0.8183 -0.1982 -0.1961
  462TMC3     C 6933   0.721   0.693   0.110  0.8720  0.6539  1.0541
  462TMC3     O 6934   0.794   0.691   0.210 -0.3495 -0.3706  0.2063
  462TMC3     H 6935   0.677   0.613  17.605  1.7659  2.3065  2.6659
  462TMC3    H1 6936   0.640   0.507   0.267 -2.3350 -1.5443  1.4114
  462TMC3    H2 6937   0.403   0.308  17.723 -0.0792 -1.5746  1.3788
  462TMC3    C7 6938   0.460   0.324   0.223  0.3523 -0.2495 -0.4116
  462TMC3    C8 6939   0.561   0.411  17.527 -0.6495  0.1328 -0.4627
  462TMC3    O1 6940   0.527   0.290   0.320 -0.2754  0.1592  0.1452
  462TMC3    O2 6941   0.561   0.499  17.442  0.1375  0.4769 -0.4291
  463MPD2     C 6942   1.788   3.800   0.953 -0.7745  0.7888  0.4368
  463MPD2    C1 6943   1.710   3.914   0.937  0.5272 -0.1100  0.2804
  463MPD2    C2 6944   1.769   4.038   0.945 -0.4052  0.2001  0.0835
  463MPD2    C3 6945   1.906   4.052   0.943 -0.1906 -0.2007 -0.0743
  463MPD2    C4 6946   1.983   3.939   0.961  0.1883  0.4105  0.2878
  463MPD2    C5 6947   1.925   3.812   0.969 -0.0846 -0.9162 -0.1596
  463MPD2     H 6948   1.705   4.125   0.941 -1.0041 -0.2272  0.3568
  463MPD2    H1 6949   2.092   3.943   0.961  0.2482 -1.0487  1.4034
  463MPD2    H2 6950   1.742   3.702   0.941  0.6915  0.0134  1.1078
  463MPD2    H3 6951   1.994   3.729   0.977 -0.5359 -1.2976 -0.2063
  463MPD2     N 6952   1.976   4.177   0.936  0.3473 -0.4439 -0.6358
  463MPD2    H5 6953   2.077   4.180   0.938  0.3335 -1.0925  0.8166
  463MPD2    N1 6954   1.571   3.912   0.897  0.1761  0.4010 -0.4265
  463MPD2    H7 6955   1.528   4.003   0.881  1.2959  0.8426 -0.9474
  464TMC3    C1 6956   1.357   3.834   0.852  0.4122  0.2661 -0.4497
  464TMC3    C2 6957   1.315   3.950   0.797 -0.2400 -0.1606  0.4262
  464TMC3    C3 6958   1.183   3.977   0.790  0.6133 -0.4967  0.6812
  464TMC3    C4 6959   1.262   3.734   0.883 -0.5442  0.2551 -0.2081
  464TMC3    C5 6960   1.127   3.764   0.864 -0.4511  0.4944 -0.3031
  464TMC3    C6 6961   1.087   3.891   0.834  0.4977 -0.1197 -0.4587
  464TMC3     C 6962   1.499   3.803   0.866  0.1221 -0.1329 -0.1028
  464TMC3     O 6963   1.533   3.686   0.864 -0.7612  0.3232 -0.0721
  464TMC3     H 6964   1.388   4.010   0.743  0.4306 -0.7788  0.6543
  464TMC3    H1 6965   1.300   3.635   0.907  1.9360  0.9876 -1.1471
  464TMC3    H2 6966   0.981   3.917   0.835  0.1421 -1.6058  1.0858
  464TMC3    C7 6967   1.036   3.693   0.951  0.1138  0.4369  0.2855
  464TMC3    C8 6968   1.136   4.108   0.754  0.5017 -0.1052  0.7304
  464TMC3    O1 6969   0.925   3.740   0.965 -0.8719  0.3026  0.1133
  464TMC3    O2 6970   1.024   4.113   0.709 -0.2750  0.4127 -0.7551
  465MPD2     C 6971   3.157   2.667  16.771 -1.2640 -0.0234  0.7191
  465MPD2    C1 6972   3.047   2.713  16.836  0.0921  0.0663  0.8083
  465MPD2    C2 6973   2.966   2.800  16.766 -0.3219  0.0060 -0.6375
  465MPD2    C3 6974   3.002   2.851  16.641  0.0520  0.3562  0.4219
  465MPD2    C4 6975   3.119   2.811  16.580  0.5565 -0.1726  0.1955
  465MPD2    C5 6976   3.193   2.714  16.646 -0.5035  0.4241  0.1389
  465MPD2     H 6977   2.873   2.845  16.798  0.5329  1.1852  0.2163
  465MPD2    H1 6978   3.152   2.856  16.487 -0.5971 -1.3853 -0.7866
  465MPD2    H2 6979   3.218   2.586  16.810 -2.5958 -1.0269  0.7665
  465MPD2    H3 6980   3.281   2.669  16.603  0.2678 -0.6899  2.8893
  465MPD2     N 6981   2.916   2.941  16.577  0.1905  0.3761  0.7538
  465MPD2    H5 6982   2.816   2.932  16.592  0.2117 -1.6638 -0.3555
  465MPD2    N1 6983   3.010   2.661  16.963  0.0516 -0.6785 -0.2563
  465MPD2    H7 6984   2.920   2.687  17.000 -0.4407  0.4884 -2.2619
  466TMC3    C1 6985   2.631   3.189  16.458 -0.0200  0.5884 -0.9147
  466TMC3    C2 6986   2.651   3.317  16.492 -0.0458  0.1990 -0.4859
  466TMC3    C3 6987   2.781   3.356  16.512 -0.4113  0.6424  0.9651
  466TMC3    C4 6988   2.730   3.093  16.466 -0.5855  0.1839 -1.0434
  466TMC3    C5 6989   2.861   3.141  16.466  0.4233 -0.1765 -0.5040
  466TMC3    C6 6990   2.886   3.275  16.493  0.3213  0.4286 -0.1157
  466TMC3     C 6991   2.495   3.146  16.468  0.9010 -0.6504 -0.7704
  466TMC3     O 6992   2.472   3.053  16.546  0.1736  0.0797 -0.8279
  466TMC3     H 6993   2.568   3.387  16.488  0.4488  0.8266  0.3564
  466TMC3    H1 6994   2.715   2.987  16.451 -3.0298 -0.0182  2.6960
  466TMC3    H2 6995   2.981   3.305  16.537  0.7603 -1.3590  0.1293
  466TMC3    C7 6996   2.967   3.049  16.506  0.4546  0.5022  0.1974
  466TMC3    C8 6997   2.790   3.432  16.641 -0.4865  0.2374 -0.0659
  466TMC3    O1 6998   3.084   3.078  16.490 -0.1855 -0.4719 -0.4350
  466TMC3    O2 6999   2.879   3.385  16.714  0.2896 -0.2374  0.1445
  467TMC3    C1 7000   3.598   1.918  13.948  0.0849  0.0009 -0.8266
  467TMC3    C2 7001   3.542   2.007  13.858  0.6805 -0.4022  0.5087
  467TMC3    C3 7002   3.419   1.987  13.800  0.2382  0.4536 -0.3745
  467TMC3    C4 7003   3.526   1.812  13.993  0.6059  0.0687  0.3807
  467TMC3    C5 7004   3.401   1.797  13.940 -0.2681  0.1592  0.1337
  467TMC3    C6 7005   3.343   1.883  13.847 -0.4431 -0.3444 -0.9195
  467TMC3     C 7006   3.737   1.896  13.915  0.1587 -0.9444 -0.3786
  467TMC3     O 7007   3.805   1.993  13.893  0.0192  0.1825  0.1847
  467TMC3     H 7008   3.614   2.071  13.809 -0.3954  1.1740  0.9868
  467TMC3    H1 7009   3.571   1.738  14.058 -1.6334 -0.3850  1.3998
  467TMC3    H2 7010   3.249   1.858  13.800 -1.6057 -2.0336  2.3412
  467TMC3    C7 7011   3.324   1.682  13.995  0.2544 -0.0513 -0.1753
  467TMC3    C8 7012   3.423   2.025  13.659  0.0484 -0.5471 -0.3616
  467TMC3    O1 7013   3.384   1.600  14.062 -0.0063 -0.2501 -0.2927
  467TMC3    O2 7014   3.409   2.144  13.642 -0.6935  0.1257  0.8024
  468MPD2     C 7015   2.145   0.054  10.747 -0.2037  0.5948 -0.2797
  468MPD2    C1 7016   2.285   0.038  10.753  0.1241 -0.1099  1.1022
  468MPD2    C2 7017   2.345   4.652  10.737 -0.9330  0.2495  0.2024
  468MPD2    C3 7018   2.265   4.548  10.699  0.4710  0.2425  0.6027
  468MPD2    C4 7019   2.129   4.565  10.700 -0.2069  0.0035  0.3472
  468MPD2    C5 7020   2.073   4.686  10.719 -0.1389  0.0445 -0.3492
  468MPD2     H 7021   2.448   4.629  10.763 -0.5958  2.6604  1.0264
  468MPD2    H1 7022   2.058   4.486  10.677 -0.8133  0.7123 -0.2291
  468MPD2    H2 7023   2.089   0.147  10.752 -2.3944 -0.7770  0.7981
  468MPD2    H3 7024   1.965   4.693  10.717 -0.1019  0.9433  1.1556
  468MPD2     N 7025   2.318   4.422  10.672  0.5280 -0.3818 -0.5096
  468MPD2    H5 7026   2.252   4.348  10.649 -0.4366  0.1192  0.6496
  468MPD2    N1 7027   2.362   0.149  10.802  0.0136 -0.0728 -0.5178
  468MPD2    H7 7028   2.461   0.130  10.814 -0.3294 -1.5404 -0.0439
  469TMC3    C1 7029   2.415   0.372  10.880  0.5267  0.3745 -0.2823
  469TMC3    C2 7030   2.552   0.358  10.856 -0.0931  0.5867  0.5305
  469TMC3    C3 7031   2.639   0.454  10.904 -0.0785  0.6343 -0.3491
  469TMC3    C4 7032   2.376   0.478  10.952  0.4789 -0.4464 -0.1710
  469TMC3    C5 7033   2.463   0.560  11.018 -0.2637 -0.0723  1.1358
  469TMC3    C6 7034   2.599   0.547  10.994 -0.2506  0.1999  0.3022
  469TMC3     C 7035   2.317   0.273  10.845  0.8080 -0.1730 -0.1339
  469TMC3     O 7036   2.202   0.309  10.866  0.6038  0.3446  0.1380
  469TMC3     H 7037   2.598   0.268  10.818 -0.8031 -0.0243  1.1154
  469TMC3    H1 7038   2.272   0.494  10.975  1.3706  1.5499  2.5424
  469TMC3    H2 7039   2.675   0.615  11.029 -1.1508  2.0697 -1.3792
  469TMC3    C7 7040   2.424   0.692  11.042  0.4082 -0.4360  0.1594
  469TMC3    C8 7041   2.778   0.415  10.916 -0.4287  0.5301 -0.3958
  469TMC3    O1 7042   2.307   0.713  11.011  0.3999  0.5374  0.0088
  469TMC3    O2 7043   2.836   0.369  10.822 -0.0776  0.1147 -0.3511
  470TMC3    C1 7044   4.562   4.354   0.842  0.0188  0.2470 -0.3588
  470TMC3    C2 7045   4.581   4.481   0.815  0.3187  1.0784 -0.0177
  470TMC3    C3 7046   4.601   4.572   0.917 -0.6686  0.0799  0.2891
  470TMC3    C4 7047   4.575   4.312   0.967 -0.2089  0.4807 -0.5600
  470TMC3    C5 7048   4.604   4.401   1.063 -0.4597  0.2901 -0.2959
  470TMC3    C6 7049   4.630   4.534   1.049 -0.7052 -0.2119  0.4576
  470TMC3     C 7050   4.547   4.251   0.742  0.5270 -0.6685  0.5491
  470TMC3     O 7051   4.503   4.145   0.779 -0.5881  0.1450  0.2447
  470TMC3     H 7052   4.563   4.511   0.713 -0.1765 -1.0671 -0.5423
  470TMC3    H1 7053   4.588   4.206   0.982 -1.0814  0.3018 -1.0561
  470TMC3    H2 7054   4.652   4.592   1.138  1.3176 -1.4533  0.7579
  470TMC3    C7 7055   4.586   4.353   1.202  0.0043  0.5282 -0.2269
  470TMC3    C8 7056   4.593   4.713   0.889  0.0304 -0.4265 -0.3409
  470TMC3    O1 7057   4.640   4.420   1.287  0.0367 -0.3768  0.0135
  470TMC3    O2 7058   4.630   0.050   0.981 -0.6935 -0.2642 -0.1806
  471MPD2     C 7059   0.606   1.434  16.060 -0.4307 -0.1461 -0.3474
  471MPD2    C1 7060   0.502   1.356  16.099 -0.1867 -0.2398 -0.4987
  471MPD2    C2 7061   0.439   1.381  16.219 -0.0150  0.6215 -0.1082
  471MPD2    C3 7062   0.480   1.487  16.301  0.1025 -0.5635 -0.2611
  471MPD2    C4 7063   0.587   1.567  16.257 -0.1206  0.2571  0.3649
  471MPD2    C5 7064   0.639   1.547  16.137 -0.0225 -0.5256  0.2953
  471MPD2     H 7065   0.374   1.304  16.258  1.8175 -0.6099  0.5053
  471MPD2    H1 7066   0.625   1.648  16.319  0.7519 -0.8958  1.3437
  471MPD2    H2 7067   0.658   1.426  15.965  2.9717  0.5193  1.4645
  471MPD2    H3 7068   0.719   1.609  16.097 -0.0391 -2.1872 -2.3189
  471MPD2     N 7069   0.430   1.502  16.432 -0.6673 -0.4212  0.0055
  471MPD2    H5 7070   0.480   1.566  16.492  0.1878  0.2094 -1.3849
  471MPD2    N1 7071   0.467   1.239  16.027 -0.1922 -0.3933 -0.2181
  471MPD2    H7 7072   0.398   1.177  16.068 -0.7545 -0.2143 -0.8860
  472TMC3    C1 7073   0.453   1.083  15.846  0.4345 -0.1850 -0.0212
  472TMC3    C2 7074   0.386   1.111  15.732 -0.7122  0.6337  0.4471
  472TMC3    C3 7075   0.278   1.033  15.700  0.4795 -0.3094  0.3329
  472TMC3    C4 7076   0.424   0.984  15.933  0.2956 -0.0589  0.2096
  472TMC3    C5 7077   0.313   0.908  15.895 -0.4927 -0.0787  0.1402
  472TMC3    C6 7078   0.238   0.924  15.776  0.6387 -0.9034 -0.2638
  472TMC3     C 7079   0.511   1.206  15.905 -0.6527 -0.1300  0.4555
  472TMC3     O 7080   0.581   1.269  15.824  0.0964  0.2031  0.0376
  472TMC3     H 7081   0.403   1.209  15.690 -0.5611  0.2302 -0.4178
  472TMC3    H1 7082   0.490   0.963  16.016 -1.1344 -0.7116  1.1771
  472TMC3    H2 7083   0.153   0.860  15.753 -1.1694  1.6315 -0.6324
  472TMC3    C7 7084   0.250   0.829  16.009  0.6351 -0.3133 -0.0763
  472TMC3    C8 7085   0.178   1.092  15.609  0.4536 -0.1698  0.5472
  472TMC3    O1 7086   0.321   0.807  16.109  0.3108  0.0928 -0.5498
  472TMC3    O2 7087   0.209   1.207  15.578 -0.2784 -0.3017 -0.3284
  473MPD2     C 7088   0.470   3.887  13.726  0.5414 -0.0580 -0.3902
  473MPD2    C1 7089   0.421   4.015  13.704  0.1909 -0.4963  0.3153
  473MPD2    C2 7090   0.453   4.111  13.789  0.2432  0.0467 -0.3981
  473MPD2    C3 7091   0.548   4.090  13.890 -0.0364  0.6675  0.4237
  473MPD2    C4 7092   0.592   3.962  13.914 -0.7900  0.0232  1.0186
  473MPD2    C5 7093   0.540   3.860  13.837 -0.4506 -0.1147  0.2141
  473MPD2     H 7094   0.402   4.203  13.764  1.9141  0.8220 -0.8846
  473MPD2    H1 7095   0.653   3.932  13.999  1.1375  0.0103 -0.3565
  473MPD2    H2 7096   0.428   3.810  13.662  2.6496 -1.8770  0.4455
  473MPD2    H3 7097   0.567   3.757  13.861  0.5985 -0.1816 -1.2669
  473MPD2     N 7098   0.583   4.192  13.983  0.0493  0.4282  0.4048
  473MPD2    H5 7099   0.658   4.169  14.047 -2.0924 -1.9518  2.0330
  473MPD2    N1 7100   0.340   4.054  13.596  0.2829 -0.0040  0.7561
  473MPD2    H7 7101   0.288   4.142  13.599  0.7414  0.3365 -1.0402
  474TMC3    C1 7102   0.616   4.410  14.043  0.1330  0.4478 -0.0654
  474TMC3    C2 7103   0.672   4.511  13.978  0.7516  0.5313 -0.2029
  474TMC3    C3 7104   0.694   4.623  14.053 -0.0236  0.3028  0.4563
  474TMC3    C4 7105   0.599   4.406  14.182  0.2618  0.7178 -0.1060
  474TMC3    C5 7106   0.627   4.522  14.252 -0.0491 -0.5468  1.5351
  474TMC3    C6 7107   0.683   4.632  14.192  0.4695  0.3694 -0.2534
  474TMC3     C 7108   0.539   4.322  13.971 -0.1772  0.0023  0.5798
  474TMC3     O 7109   0.455   4.385  13.906 -0.0736  0.3656 -0.0322
  474TMC3     H 7110   0.669   4.501  13.870  1.5945 -0.2849 -0.1449
  474TMC3    H1 7111   0.561   4.317  14.231  0.3431  0.9567  0.3871
  474TMC3    H2 7112   0.728   4.719  14.237  0.9384 -0.3678  0.7095
  474TMC3    C7 7113   0.624   4.517  14.397  0.2469 -0.0811 -0.3017
  474TMC3    C8 7114   0.660   0.014  13.990  0.4094 -0.3816  0.1382
  474TMC3    O1 7115   0.685   4.608  14.449  0.0555  0.2548 -0.1185
  474TMC3    O2 7116   0.673   0.120  14.055  0.0642 -0.2006 -0.8595
  475MPD2     C 7117   2.951   2.649  11.650  0.1021  0.0533  0.4256
  475MPD2    C1 7118   2.930   2.564  11.539 -0.0483  0.4900 -0.5414
  475MPD2    C2 7119   2.822   2.593  11.453  0.5818 -0.2628  0.4698
  475MPD2    C3 7120   2.742   2.700  11.468 -0.2494  0.4256 -0.7806
  475MPD2    C4 7121   2.753   2.775  11.587 -0.1020  0.0788 -0.2118
  475MPD2    C5 7122   2.861   2.751  11.674 -0.3143 -0.2388 -0.3953
  475MPD2     H 7123   2.818   2.546  11.356 -0.1447  0.7296  0.0173
  475MPD2    H1 7124   2.694   2.865  11.594  1.7056  1.1107  1.5566
  475MPD2    H2 7125   3.041   2.640  11.710 -0.1507 -1.4439  0.5886
  475MPD2    H3 7126   2.876   2.811  11.763  2.3349  1.0177 -1.7002
  475MPD2     N 7127   2.652   2.726  11.360 -0.8066 -0.0093 -0.5508
  475MPD2    H5 7128   2.625   2.649  11.301 -0.8301 -0.5971  0.2216
  475MPD2    N1 7129   3.013   2.455  11.509  0.4390  0.4923 -0.3440
  475MPD2    H7 7130   2.985   2.403  11.426 -0.2771  2.1576 -1.1586
  476TMC3    C1 7131   3.165   2.291  11.520  0.0462 -0.6129  0.0550
  476TMC3    C2 7132   3.081   2.242  11.421  0.3434 -1.0730  0.8893
  476TMC3    C3 7133   3.118   2.231  11.288  0.5290  0.4685  0.3349
  476TMC3    C4 7134   3.286   2.325  11.477 -0.9002  0.2166 -0.4557
  476TMC3    C5 7135   3.321   2.325  11.349 -0.7551  0.5957  0.1951
  476TMC3    C6 7136   3.237   2.287  11.251 -0.4867 -0.5253 -0.0720
  476TMC3     C 7137   3.110   2.405  11.592 -0.1495  0.3829 -0.8759
  476TMC3     O 7138   3.191   2.459  11.664  0.0269 -0.0192  0.5856
  476TMC3     H 7139   2.984   2.200  11.448 -1.0483  0.8012 -1.2159
  476TMC3    H1 7140   3.354   2.357  11.555 -0.7083  0.4359 -0.7123
  476TMC3    H2 7141   3.270   2.292  11.148  0.0891  1.0664  0.1786
  476TMC3    C7 7142   3.454   2.369  11.308 -0.3687  0.4300  0.1179
  476TMC3    C8 7143   3.012   2.291  11.210 -1.0163  0.3042  0.5843
  476TMC3    O1 7144   3.498   2.309  11.211  0.4831 -0.0363  0.0935
  476TMC3    O2 7145   2.923   2.353  11.266 -0.2598 -0.1221 -0.7000
  477MPD2     C 7146   1.367   4.207  11.839 -0.0100  0.0212  0.0979
  477MPD2    C1 7147   1.239   4.170  11.878 -0.0744  0.3193 -0.4834
  477MPD2    C2 7148   1.225   4.044  11.938  0.0727  0.1739  0.6757
  477MPD2    C3 7149   1.349   3.973  11.971 -0.1143 -0.2321 -0.3273
  477MPD2    C4 7150   1.472   4.028  11.946 -0.0218 -0.1453  0.5098
  477MPD2    C5 7151   1.475   4.146  11.880  0.3797  0.2584  0.3331
  477MPD2     H 7152   1.126   4.000  11.948  0.2577 -1.1116 -3.0497
  477MPD2    H1 7153   1.570   3.992  11.975 -1.0878 -2.4250  1.2252
  477MPD2    H2 7154   1.381   4.306  11.797 -0.0907 -0.5751 -1.3016
  477MPD2    H3 7155   1.572   4.190  11.860  0.3588 -0.7497 -1.9874
  477MPD2     N 7156   1.332   3.836  12.020  0.3627  0.3623 -0.0502
  477MPD2    H5 7157   1.235   3.814  12.044  0.9274 -0.0127  1.9293
  477MPD2    N1 7158   1.127   4.238  11.818 -0.4282 -0.6453 -0.1092
  477MPD2    H7 7159   1.144   4.324  11.767  0.4435  0.4039  1.9401
  478TMC3    C1 7160   0.900   4.303  11.787  0.1644 -0.1719  0.1637
  478TMC3    C2 7161   0.773   4.312  11.842 -0.1920 -0.4711 -0.3089
  478TMC3    C3 7162   0.681   4.397  11.776 -0.1577 -0.1965  0.1281
  478TMC3    C4 7163   0.931   4.359  11.664  0.0780 -0.7119 -0.2170
  478TMC3    C5 7164   0.835   4.436  11.605  0.9702  0.3972  0.9594
  478TMC3    C6 7165   0.710   4.452  11.657 -0.2030 -0.2703  0.0093
  478TMC3     C 7166   0.995   4.223  11.862  0.2128 -1.0768  0.8694
  478TMC3     O 7167   0.955   4.161  11.958  0.3016  0.1892 -0.5150
  478TMC3     H 7168   0.751   4.279  11.943  0.1065  0.8798  0.2005
  478TMC3    H1 7169   1.026   4.347  11.614 -0.4483  2.3235 -1.9186
  478TMC3    H2 7170   0.647   4.530  11.616 -0.6185 -0.1140  0.9491
  478TMC3    C7 7171   0.876   4.506  11.488 -0.0343 -0.1036 -0.2408
  478TMC3    C8 7172   0.556   4.422  11.859  0.7486 -0.2519  0.0779
  478TMC3    O1 7173   0.994   4.517  11.467 -0.1451 -0.2640 -0.4713
  478TMC3    O2 7174   0.547   4.371  11.970  0.3338 -0.1711 -0.2288
  479MPD2     C 7175   0.017   1.140  14.933 -0.2211  0.1475  0.3098
  479MPD2    C1 7176   4.711   1.019  14.904 -0.5494 -0.2609  0.4465
  479MPD2    C2 7177   4.729   0.923  15.001 -0.3438 -0.0106 -0.2484
  479MPD2    C3 7178   0.049   0.943  15.124  0.3456 -0.7656  0.7845
  479MPD2    C4 7179   0.106   1.066  15.145  0.7503 -0.5547 -0.5223
  479MPD2    C5 7180   0.087   1.166  15.052  0.1715  0.1517 -0.1636
  479MPD2     H 7181   4.684   0.825  14.998 -1.9480  0.6613  2.0118
  479MPD2    H1 7182   0.151   1.098  15.239 -1.1143 -0.0250  0.2048
  479MPD2    H2 7183   0.002   1.224  14.867  3.0129  0.0848 -0.5107
  479MPD2    H3 7184   0.108   1.270  15.076 -0.3269  0.0603  0.6613
  479MPD2     N 7185   0.033   0.858  15.240  0.1304 -0.5946  0.3949
  479MPD2    H5 7186   0.087   0.883  15.322 -0.1740  1.0069  0.1007
  479MPD2    N1 7187   4.621   1.015  14.790  0.3056  0.1045  0.0560
  479MPD2    H7 7188   4.614   1.101  14.736 -1.2005 -0.2110 -0.2590
  480TMC3    C1 7189   4.354   0.634  15.174 -0.3961 -0.3918 -0.6258
  480TMC3    C2 7190   4.281   0.750  15.142 -0.4955  0.2398 -0.9788
  480TMC3    C3 7191   4.359   0.863  15.129 -0.3399  0.1732  0.3987
  480TMC3    C4 7192   4.490   0.636  15.176 -1.2167 -0.2228 -0.4262
  480TMC3    C5 7193   4.557   0.751  15.179  0.0336 -0.2679 -0.3447
  480TMC3    C6 7194   4.487   0.869  15.169 -0.9218  0.2892  0.5795
  480TMC3     C 7195   4.295   0.526  15.250  0.4901 -0.2342  0.3081
  480TMC3     O 7196   4.369   0.439  15.301  0.3362  0.2949 -0.0830
  480TMC3     H 7197   4.173   0.748  15.134 -0.6169 -0.9489  0.8881
  480TMC3    H1 7198   4.545   0.544  15.190 -3.0898 -1.1148  1.0444
  480TMC3    H2 7199   4.539   0.962  15.191  0.8970 -0.6384  0.1397
  480TMC3    C7 7200   4.687   0.745  15.249 -0.6401  0.0451 -0.2095
  480TMC3    C8 7201   4.285   0.980  15.076  0.2027  0.4708  0.8547
  480TMC3    O1 7202   4.703   0.649  15.322 -0.5171  0.0818 -0.2507
  480TMC3    O2 7203   4.169   0.965  15.045 -0.3525 -0.2856 -0.3779
  481MPD2     C 7204   1.661   1.103  14.172  0.3489  0.1698  0.2139
  481MPD2    C1 7205   1.612   0.973  14.163  0.3114  0.3923 -0.5886
  481MPD2    C2 7206   1.611   0.891  14.268  0.5308 -0.6133 -0.2457
  481MPD2    C3 7207   1.665   0.937  14.388  0.2637  0.1576 -0.1727
  481MPD2    C4 7208   1.724   1.064  14.393  0.3210 -0.1724 -0.3236
  481MPD2    C5 7209   1.715   1.144  14.289  0.2236  0.0110  0.0875
  481MPD2     H 7210   1.564   0.794  14.255 -1.0401  0.2964 -1.3275
  481MPD2    H1 7211   1.766   1.104  14.485 -0.5348 -0.8902  0.3796
  481MPD2    H2 7212   1.655   1.172  14.089 -0.2135  0.1427  0.2361
  481MPD2    H3 7213   1.773   1.235  14.300 -0.5830  0.5277  0.0240
  481MPD2     N 7214   1.665   0.859  14.507 -0.1407  0.3408  0.1318
  481MPD2    H5 7215   1.715   0.902  14.585 -1.2160 -0.1387  1.0759
  481MPD2    N1 7216   1.561   0.936  14.037 -0.4388 -0.5498 -0.1503
  481MPD2    H7 7217   1.576   1.001  13.960 -0.8269  1.4601  1.4773
  482TMC3    C1 7218   1.443   0.831  13.861  0.1932 -0.2203 -0.1515
  482TMC3    C2 7219   1.415   0.716  13.798  0.3915  0.1726 -0.6695
  482TMC3    C3 7220   1.315   0.709  13.709 -0.5265  0.1912 -0.4839
  482TMC3    C4 7221   1.377   0.942  13.833 -0.2592  0.0736  0.3053
  482TMC3    C5 7222   1.283   0.944  13.732 -0.5391  0.4558 -0.0561
  482TMC3    C6 7223   1.259   0.826  13.671  0.3051  0.3976 -0.3411
  482TMC3     C 7224   1.508   0.816  13.990  0.0597 -0.1554 -0.1467
  482TMC3     O 7225   1.533   0.706  14.041 -0.7222 -1.0083 -0.1380
  482TMC3     H 7226   1.474   0.627  13.817 -1.5461 -1.0169 -0.2109
  482TMC3    H1 7227   1.388   1.025  13.901 -0.0759 -0.4217  0.8786
  482TMC3    H2 7228   1.185   0.823  13.592 -0.4962  1.6987  0.3635
  482TMC3    C7 7229   1.260   1.065  13.658 -0.1935  0.5153  0.5184
  482TMC3    C8 7230   1.258   0.581  13.686  0.4935  0.1422 -0.7671
  482TMC3    O1 7231   1.186   1.057  13.561 -0.1647 -0.6090 -0.0572
  482TMC3    O2 7232   1.331   0.491  13.710  0.3405  0.4116 -0.4991
  483TMC3    C1 7233   4.266   3.613   1.157  0.5473  0.3989 -0.2073
  483TMC3    C2 7234   4.356   3.709   1.125 -0.9653 -0.8693 -0.0085
  483TMC3    C3 7235   4.467   3.717   1.202 -0.1427 -0.0631  0.4069
  483TMC3    C4 7236   4.280   3.523   1.260  0.0062  0.1232  0.9683
  483TMC3    C5 7237   4.410   3.528   1.331 -0.5613 -0.2556 -0.4377
  483TMC3    C6 7238   4.501   3.627   1.301  0.3447  0.5397 -0.8305
  483TMC3     C 7239   4.159   3.596   1.057 -0.2857 -0.3390  0.1421
  483TMC3     O 7240   4.107   3.694   1.003 -0.0741  0.1453  0.3088
  483TMC3     H 7241   4.328   3.776   1.045 -1.2630  0.1127  0.9114
  483TMC3    H1 7242   4.196   3.462   1.290 -0.1284  0.2182  0.7786
  483TMC3    H2 7243   4.598   3.629   1.348 -0.7937 -1.4099  1.6223
  483TMC3    C7 7244   4.465   3.422   1.412 -0.6835 -0.5449  0.5398
  483TMC3    C8 7245   4.557   3.822   1.159  0.0644 -0.3450 -0.8511
  483TMC3    O1 7246   4.585   3.428   1.437 -0.2727  0.6437  0.6589
  483TMC3    O2 7247   4.539   3.851   1.045  0.1057  0.3220 -0.6584
  484MPD2     C 7248   1.705   2.741  12.448  0.1211 -0.4321 -0.1155
  484MPD2    C1 7249   1.769   2.701  12.560 -0.5173  0.4270 -0.6810
  484MPD2    C2 7250   1.905   2.727  12.569  0.0979 -0.3484 -0.0937
  484MPD2    C3 7251   1.981   2.786  12.459 -0.3401  0.0060  0.7301
  484MPD2    C4 7252   1.907   2.810  12.344 -0.0752  0.2423 -0.0131
  484MPD2    C5 7253   1.768   2.786  12.339 -0.3633 -0.6092 -0.9787
  484MPD2     H 7254   1.958   2.707  12.662 -3.4105 -1.1592  1.7531
  484MPD2    H1 7255   1.947   2.852  12.252  1.9490  0.6090  1.0287
  484MPD2    H2 7256   1.598   2.747  12.431  0.4211  2.8693 -0.8485
  484MPD2    H3 7257   1.713   2.823  12.253 -1.8182  0.7134  0.5279
  484MPD2     N 7258   2.126   2.820  12.462 -0.0747  0.2892  0.1537
  484MPD2    H5 7259   2.163   2.833  12.369  0.8962 -0.2793  0.4552
  484MPD2    N1 7260   1.685   2.637  12.653  0.7134 -0.2495 -0.1070
  484MPD2    H7 7261   1.591   2.607  12.629  0.7993 -0.0487 -0.7039
  485TMC3    C1 7262   2.344   2.869  12.543  0.1938 -0.4394 -0.4467
  485TMC3    C2 7263   2.436   2.856  12.646 -0.6281  0.7174  0.8020
  485TMC3    C3 7264   2.565   2.868  12.625 -0.1506  0.2600 -0.3734
  485TMC3    C4 7265   2.391   2.899  12.417 -0.4291  0.7108 -0.0221
  485TMC3    C5 7266   2.523   2.903  12.396 -0.0882  0.2831 -0.0398
  485TMC3    C6 7267   2.607   2.892  12.500 -0.2916 -0.1607  0.1686
  485TMC3     C 7268   2.205   2.837  12.578  0.5472 -0.2760 -0.2886
  485TMC3     O 7269   2.175   2.821  12.699  0.3510 -0.1069  0.3704
  485TMC3     H 7270   2.405   2.833  12.747  0.2317 -1.3339  0.6005
  485TMC3    H1 7271   2.332   2.923  12.329 -0.9578  1.8231  0.6420
  485TMC3    H2 7272   2.715   2.891  12.486 -0.4506 -1.9080 -0.9323
  485TMC3    C7 7273   2.573   2.825  12.286 -0.5952  0.5546  0.1753
  485TMC3    C8 7274   2.646   2.768  12.690  0.4981 -0.0983  0.8172
  485TMC3    O1 7275   2.660   2.745  12.317 -0.9869 -0.1588  0.6757
  485TMC3    O2 7276   2.634   2.750  12.811 -0.2735  0.2999 -0.5788
  486MPD2     C 7277   4.185   1.479  12.874  0.4592 -0.3541  0.0563
  486MPD2    C1 7278   4.081   1.438  12.795 -0.7306  0.4716  0.4958
  486MPD2    C2 7279   3.971   1.510  12.783 -0.0455  0.4651 -0.7160
  486MPD2    C3 7280   3.966   1.634  12.850  0.9869  0.8409 -0.4033
  486MPD2    C4 7281   4.085   1.685  12.907 -0.1756  0.4958 -0.2715
  486MPD2    C5 7282   4.189   1.601  12.928 -0.0922  0.1098  0.4054
  486MPD2     H 7283   3.877   1.473  12.745  0.8484 -0.3160 -2.1870
  486MPD2    H1 7284   4.096   1.788  12.937  0.6528  0.3878 -0.1952
  486MPD2    H2 7285   4.275   1.420  12.882  1.3725  0.6525 -2.8939
  486MPD2    H3 7286   4.271   1.621  12.996 -0.5394 -0.3799  1.0960
  486MPD2     N 7287   3.843   1.710  12.853 -0.0104 -0.4097 -0.6801
  486MPD2    H5 7288   3.763   1.658  12.820 -1.2866  0.1425  1.5466
  486MPD2    N1 7289   4.089   1.308  12.724  0.5245 -0.3316 -0.0528
  486MPD2    H7 7290   4.169   1.251  12.750  0.3671 -1.7657 -2.7670
  487TMC3    C1 7291   4.064   1.132  12.575 -0.0025  0.2333  0.0555
  487TMC3    C2 7292   3.979   1.040  12.522  0.0699 -0.1152  0.1958
  487TMC3    C3 7293   4.038   0.920  12.481  0.3302 -1.1458 -0.0699
  487TMC3    C4 7294   4.198   1.099  12.600  0.8695 -0.6269  0.0934
  487TMC3    C5 7295   4.231   0.974  12.599 -0.1564  0.3903  0.9652
  487TMC3    C6 7296   4.162   0.883  12.521  0.5470  0.3113 -0.5508
  487TMC3     C 7297   4.014   1.253  12.625 -0.0873  0.0368  0.2004
  487TMC3     O 7298   3.910   1.288  12.572  0.2457 -0.5024 -0.3978
  487TMC3     H 7299   3.873   1.058  12.515 -0.1385 -1.0019  1.1510
  487TMC3    H1 7300   4.271   1.161  12.650  0.5875  1.1891 -1.7373
  487TMC3    H2 7301   4.184   0.777  12.521 -2.1455 -0.2541  0.7792
  487TMC3    C7 7302   4.267   0.931  12.731  0.0247 -0.3171 -0.2381
  487TMC3    C8 7303   3.954   0.806  12.469  0.6349  0.0978 -0.3565
  487TMC3    O1 7304   4.305   1.018  12.809 -0.7551 -0.0559 -1.0114
  487TMC3    O2 7305   3.997   0.727  12.391 -0.0423  0.0901 -0.2469
  488MPD2     C 7306   0.077   2.560  16.377 -0.6773 -0.1657  1.3065
  488MPD2    C1 7307   0.094   2.687  16.415  0.5535  0.7125  0.0222
  488MPD2    C2 7308   0.078   2.719  16.548  0.2308 -0.7269 -0.1045
  488MPD2    C3 7309   0.059   2.623  16.646 -0.1593 -0.9888 -0.1873
  488MPD2    C4 7310   0.037   2.496  16.597  0.0118 -0.1528  0.0172
  488MPD2    C5 7311   0.050   2.465  16.465  0.1108 -0.0964 -0.4315
  488MPD2     H 7312   0.101   2.822  16.572  0.5296 -1.3560  2.3712
  488MPD2    H1 7313   0.026   2.413  16.665 -2.4199 -1.0943 -1.5298
  488MPD2    H2 7314   0.100   2.519  16.279 -0.0285  0.4277  1.2151
  488MPD2    H3 7315   0.039   2.361  16.438  0.2843 -0.2636  0.1433
  488MPD2     N 7316   0.052   2.657  16.787 -0.2513 -0.2371  0.0506
  488MPD2    H5 7317   0.044   2.756  16.807  1.3960  0.4712 -2.8696
  488MPD2    N1 7318   0.131   2.787  16.327  0.1297  0.5574 -0.0620
  488MPD2    H7 7319   0.136   2.873  16.381 -2.4465 -0.9495  2.5150
  489TMC3    C1 7320   4.719   2.629  17.008 -0.1539  0.2416 -0.2830
  489TMC3    C2 7321   0.057   2.725  17.060  0.1260  0.6706 -0.3062
  489TMC3    C3 7322   0.007   2.793  17.165  0.1320 -0.2533  0.3246
  489TMC3    C4 7323   4.610   2.572  17.077 -0.4835  0.5754 -0.0070
  489TMC3    C5 7324   4.568   2.633  17.192 -0.1619 -0.2031 -0.0846
  489TMC3    C6 7325   4.637   2.742  17.231 -0.1662  0.6734  0.5181
  489TMC3     C 7326   0.025   2.569  16.889  0.2606 -0.5390  0.5788
  489TMC3     O 7327   0.011   2.450  16.887  0.3129  0.2660  0.6299
  489TMC3     H 7328   0.153   2.739  17.012 -0.0040  0.3938 -0.6406
  489TMC3    H1 7329   4.563   2.482  17.039  1.8117 -0.3315 -0.7165
  489TMC3    H2 7330   4.620   2.792  17.326  1.5011  1.9257  0.1508
  489TMC3    C7 7331   4.479   2.566  17.283 -0.3391  0.2586 -0.2014
  489TMC3    C8 7332   0.036   2.933  17.157 -0.3762  0.6285  0.3440
  489TMC3    O1 7333   4.433   2.460  17.248 -0.3000 -0.0056 -0.0782
  489TMC3    O2 7334   0.137   2.953  17.093  0.2112  0.2032  0.7591
  490MPD2     C 7335   0.724   2.291  17.267 -0.0594  0.2257 -0.3923
  490MPD2    C1 7336   0.724   2.164  17.216  0.4353 -0.5929  0.0823
  490MPD2    C2 7337   0.836   2.115  17.142 -0.4351 -0.1260  0.0546
  490MPD2    C3 7338   0.941   2.194  17.123  0.3682  0.0250 -0.4683
  490MPD2    C4 7339   0.937   2.321  17.173 -0.4255  0.0194  0.7354
  490MPD2    C5 7340   0.832   2.365  17.239 -0.2718 -0.1891 -0.9139
  490MPD2     H 7341   0.830   2.013  17.106  2.5509 -0.6000  0.9156
  490MPD2    H1 7342   1.018   2.393  17.172 -1.7619  1.5256  1.7995
  490MPD2    H2 7343   0.650   2.337  17.332  1.1616  1.6864 -0.0403
  490MPD2    H3 7344   0.841   2.470  17.267  0.4694 -0.5686  0.2281
  490MPD2     N 7345   1.065   2.156  17.072 -0.4062 -0.5935  0.2333
  490MPD2    H5 7346   1.134   2.230  17.065 -0.6585 -0.3651  0.1854
  490MPD2    N1 7347   0.612   2.076  17.225 -0.3333 -0.6409  0.1720
  490MPD2    H7 7348   0.629   1.979  17.202  0.3958 -0.6144  0.5999
  491TMC3    C1 7349   0.390   2.000  17.258 -0.7653  0.5263  0.3925
  491TMC3    C2 7350   0.422   1.894  17.337 -0.7185  0.3687  0.2203
  491TMC3    C3 7351   0.341   1.785  17.331 -0.3140  0.4431 -0.2120
  491TMC3    C4 7352   0.284   2.006  17.175 -0.4773 -0.4396  0.4971
  491TMC3    C5 7353   0.213   1.889  17.162 -0.1503  0.1693  0.1309
  491TMC3    C6 7354   0.242   1.777  17.236 -0.3126 -0.4131 -0.4343
  491TMC3     C 7355   0.481   2.110  17.244  0.2711 -0.7937 -0.5484
  491TMC3     O 7356   0.434   2.222  17.242 -0.0457  0.4836  0.8949
  491TMC3     H 7357   0.515   1.893  17.393 -0.0173 -0.8240 -0.9646
  491TMC3    H1 7358   0.282   2.089  17.104  0.6922 -0.3797  0.5402
  491TMC3    H2 7359   0.177   1.691  17.231  0.3885 -1.0850  1.9931
  491TMC3    C7 7360   0.140   1.859  17.038 -0.2187 -0.3240  1.1558
  491TMC3    C8 7361   0.358   1.665  17.416  0.3862  0.3846  0.0123
  491TMC3    O1 7362   0.125   1.742  17.008 -0.2985  0.4609 -0.0849
  491TMC3    O2 7363   0.293   1.566  17.385 -0.5866 -0.3504 -0.4243
  492MPD2     C 7364   0.616   2.351  11.520 -0.3219  0.1573  0.1315
  492MPD2    C1 7365   0.494   2.341  11.462  0.8073 -0.0856  0.6107
  492MPD2    C2 7366   0.389   2.301  11.535  0.9375  0.1174 -0.4780
  492MPD2    C3 7367   0.400   2.276  11.674 -0.0292 -0.3640 -0.2248
  492MPD2    C4 7368   0.524   2.281  11.725 -0.0842 -0.2794 -0.2274
  492MPD2    C5 7369   0.633   2.316  11.649  0.0565  0.2328 -0.6230
  492MPD2     H 7370   0.292   2.292  11.489  0.0180 -0.2375  1.5440
  492MPD2    H1 7371   0.540   2.259  11.830 -0.5296  0.1039 -0.0829
  492MPD2    H2 7372   0.698   2.395  11.463 -1.3486  1.2291 -0.5071
  492MPD2    H3 7373   0.732   2.316  11.691 -1.0980  1.3166  2.0921
  492MPD2     N 7374   0.290   2.226  11.754  0.0609  0.4499  0.2051
  492MPD2    H5 7375   0.307   2.190  11.847 -0.4188  2.8848  1.2206
  492MPD2    N1 7376   0.494   2.384  11.325  0.0500 -0.0194  0.7891
  492MPD2    H7 7377   0.583   2.412  11.285 -0.3557  0.8827  0.5170
  493TMC3    C1 7378   0.403   2.446  11.115 -0.1146  0.1146 -0.5225
  493TMC3    C2 7379   0.522   2.517  11.099 -0.2480  0.0550  0.7194
  493TMC3    C3 7380   0.531   2.571  10.975  0.4770  0.3601  0.0128
  493TMC3    C4 7381   0.317   2.411  11.014  0.0854  0.2810 -0.0562
  493TMC3    C5 7382   0.341   2.456  10.891  0.0088 -0.2549  0.1198
  493TMC3    C6 7383   0.448   2.539  10.869  0.2701 -0.8148 -0.1309
  493TMC3     C 7384   0.387   2.377  11.243 -0.0300 -0.3440 -0.1384
  493TMC3     O 7385   0.279   2.316  11.254  0.2794 -0.1672  0.0114
  493TMC3     H 7386   0.574   2.553  11.187  0.9446 -0.6502  0.3088
  493TMC3    H1 7387   0.239   2.336  11.028  0.5712 -0.5897 -2.0301
  493TMC3    H2 7388   0.479   2.576  10.772 -0.8619 -0.2063 -0.2506
  493TMC3    C7 7389   0.240   2.437  10.787 -0.1501 -0.5268  0.1304
  493TMC3    C8 7390   0.665   2.624  10.955  1.0502 -0.2222  0.2280
  493TMC3    O1 7391   0.152   2.361  10.816  0.2600  0.1267  0.2765
  493TMC3    O2 7392   0.743   2.590  11.044  0.5163 -0.5078  0.2865
  494TMC3    C1 7393   0.727   3.907  17.339  0.0874  0.3054  0.5746
  494TMC3    C2 7394   0.740   3.773  17.351 -0.3493 -0.6290 -0.9420
  494TMC3    C3 7395   0.827   3.707  17.269 -0.7057  0.4741 -0.2231
  494TMC3    C4 7396   0.800   3.982  17.246 -0.6534 -0.4027 -0.3138
  494TMC3    C5 7397   0.902   3.915  17.185  0.3803 -0.2644  1.0581
  494TMC3    C6 7398   0.911   3.777  17.177 -0.7004 -0.0389  0.4514
  494TMC3     C 7399   0.710   3.966  17.468 -1.0592 -0.3976 -0.0043
  494TMC3     O 7400   0.670   4.083  17.477 -0.5545 -0.0949 -0.2147
  494TMC3     H 7401   0.673   3.725  17.421 -0.8925  1.2873 -0.1460
  494TMC3    H1 7402   0.801   4.089  17.264  1.0879 -0.7090  1.4856
  494TMC3    H2 7403   0.999   3.728  17.138 -2.6421 -2.0040 -1.4150
  494TMC3    C7 7404   1.016   3.989  17.125  0.3805  0.0573 -1.3334
  494TMC3    C8 7405   0.893   3.613  17.360  0.2929 -0.1044  0.1356
  494TMC3    O1 7406   1.072   3.939  17.026  0.2091 -0.5913  0.0872
  494TMC3    O2 7407   0.864   3.638  17.478 -0.1973 -0.6163  0.2061
  495TMC3    C1 7408   0.170   1.577  14.712  0.7002 -0.1992  0.0334
  495TMC3    C2 7409   0.127   1.670  14.619  0.2110  0.0462 -0.3025
  495TMC3    C3 7410   4.733   1.698  14.635  0.5457 -0.8137 -0.1892
  495TMC3    C4 7411   0.107   1.553  14.828  0.0254  0.7720 -0.3824
  495TMC3    C5 7412   4.715   1.583  14.839 -0.5029  0.0585 -0.0549
  495TMC3    C6 7413   4.650   1.667  14.744  0.0151  0.2193 -0.3934
  495TMC3     C 7414   0.215   1.453  14.646 -0.3329  0.2758  0.4571
  495TMC3     O 7415   0.201   1.450  14.525  0.3717 -0.1365  0.4475
  495TMC3     H 7416   0.190   1.695  14.534  1.7472 -2.7270  0.0231
  495TMC3    H1 7417   0.148   1.483  14.900 -2.2789  0.1307  0.2965
  495TMC3    H2 7418   4.543   1.683  14.745 -0.1948 -1.1344 -1.4793
  495TMC3    C7 7419   4.642   1.515  14.937  0.0727 -0.0170 -0.1870
  495TMC3    C8 7420   4.652   1.681  14.508  0.3772 -0.3442  0.1562
  495TMC3    O1 7421   4.705   1.474  15.033 -0.3901 -0.0535  0.1861
  495TMC3    O2 7422   4.547   1.745  14.502  0.1515 -0.7225 -0.9185
  496MPD2     C 7423   1.906   1.591  15.797  0.1766 -0.2542 -0.3227
  496MPD2    C1 7424   1.876   1.523  15.683  0.6398  0.4268  0.8126
  496MPD2    C2 7425   1.747   1.509  15.637  0.1711  0.0531 -0.0941
  496MPD2    C3 7426   1.644   1.553  15.720 -1.0409 -0.8114 -0.0423
  496MPD2    C4 7427   1.676   1.637  15.822 -0.3121 -0.8656  0.5348
  496MPD2    C5 7428   1.804   1.651  15.867 -0.4182 -0.2141  0.5293
  496MPD2     H 7429   1.721   1.452  15.549  0.8313  0.8564 -0.8073
  496MPD2    H1 7430   1.594   1.679  15.880 -1.4761 -0.6754 -1.2227
  496MPD2    H2 7431   2.007   1.608  15.831 -0.3112 -0.0939  1.0530
  496MPD2    H3 7432   1.815   1.705  15.961 -0.8318 -0.1513  0.5436
  496MPD2     N 7433   1.510   1.534  15.687  0.7523  0.6767  0.6408
  496MPD2    H5 7434   1.444   1.590  15.740  1.3110  2.8766 -0.9931
  496MPD2    N1 7435   1.983   1.461  15.614  0.3921  0.0644 -0.2636
  496MPD2    H7 7436   2.072   1.475  15.662  0.3936 -1.6302  0.2317
  497TMC3    C1 7437   1.528   1.316  15.580 -0.0070 -0.0626 -0.2362
  497TMC3    C2 7438   1.538   1.282  15.444  0.4476 -0.4586 -0.1677
  497TMC3    C3 7439   1.610   1.170  15.419 -0.0410 -0.9009 -0.3019
  497TMC3    C4 7440   1.588   1.256  15.683 -0.4312 -0.1736 -0.5192
  497TMC3    C5 7441   1.643   1.134  15.647  0.2660 -0.0908  0.5783
  497TMC3    C6 7442   1.660   1.085  15.517  0.4674  0.6569  0.1564
  497TMC3     C 7443   1.463   1.451  15.592 -0.3486 -0.0359 -0.6746
  497TMC3     O 7444   1.356   1.474  15.532  0.2437  0.4150  0.4832
  497TMC3     H 7445   1.490   1.341  15.367 -1.4519 -2.1675 -0.3019
  497TMC3    H1 7446   1.566   1.291  15.783  1.1733 -0.0799 -0.2133
  497TMC3    H2 7447   1.730   1.005  15.499  0.4145  0.1818  2.0458
  497TMC3    C7 7448   1.701   1.052  15.753 -0.2121  0.4056 -0.3390
  497TMC3    C8 7449   1.677   1.153  15.289 -0.0356 -0.4505 -0.2005
  497TMC3    O1 7450   1.709   0.931  15.723  0.1585  0.1459  0.3634
  497TMC3    O2 7451   1.750   1.057  15.275 -0.6475  0.2453  0.3858
  498MPD2     C 7452   2.845   2.369   9.726 -0.0687  0.0161  0.8657
  498MPD2    C1 7453   2.828   2.404   9.860  0.2156 -0.0954 -0.1252
  498MPD2    C2 7454   2.706   2.385   9.927 -0.3165  0.7909 -0.2941
  498MPD2    C3 7455   2.604   2.325   9.860  0.4325  0.3464  0.0869
  498MPD2    C4 7456   2.627   2.276   9.731  0.1750  0.6740 -0.5845
  498MPD2    C5 7457   2.742   2.308   9.661  0.7758 -0.2617 -0.6868
  498MPD2     H 7458   2.688   2.428  10.025 -0.1641  0.8328 -0.2836
  498MPD2    H1 7459   2.541   2.226   9.687  0.8852 -0.3021 -0.8596
  498MPD2    H2 7460   2.946   2.364   9.685 -0.4468 -4.1895  0.4757
  498MPD2    H3 7461   2.748   2.287   9.555  1.5061  0.6943 -0.8296
  498MPD2     N 7462   2.477   2.318   9.930 -0.0300 -0.0582  0.1718
  498MPD2    H5 7463   2.469   2.360  10.022 -0.6960 -1.6991  0.8686
  498MPD2    N1 7464   2.924   2.470   9.935 -0.4351 -0.2401  0.3720
  498MPD2    H7 7465   2.896   2.487  10.031 -0.4255 -1.1973  0.5479
  499TMC3    C1 7466   3.119   2.577   9.993 -0.7796 -0.7315 -0.2588
  499TMC3    C2 7467   3.155   2.501  10.097 -0.1315  0.2196  0.3841
  499TMC3    C3 7468   3.210   2.569  10.200  0.2236  0.5955 -0.1880
  499TMC3    C4 7469   3.155   2.706   9.975  0.1554  0.2295  0.8461
  499TMC3    C5 7470   3.226   2.764  10.079 -0.7442  0.5487  0.4027
  499TMC3    C6 7471   3.250   2.697  10.194 -0.8053  0.1289 -0.6922
  499TMC3     C 7472   3.045   2.516   9.885 -0.2659 -0.5762 -0.6030
  499TMC3     O 7473   3.076   2.549   9.770 -0.8492 -0.2241  0.3727
  499TMC3     H 7474   3.122   2.399  10.116  0.4901  0.1225  0.9302
  499TMC3    H1 7475   3.130   2.753   9.881 -2.7566 -0.5340  1.2582
  499TMC3    H2 7476   3.326   2.735  10.262 -1.7519 -0.3268  0.6006
  499TMC3    C7 7477   3.265   2.910  10.059 -0.6392  0.1194 -0.2333
  499TMC3    C8 7478   3.245   2.489  10.324 -0.6426 -0.6445  0.0543
  499TMC3    O1 7479   3.273   2.963   9.946  0.3723  0.1507 -0.2074
  499TMC3    O2 7480   3.260   2.367  10.313  0.0617  0.3118  0.5978
  500MPD2     C 7481   4.363   3.315  11.319  0.2425  0.3287  0.1227
  500MPD2    C1 7482   4.444   3.379  11.226 -0.2160  0.5843  0.2803
  500MPD2    C2 7483   4.388   3.440  11.113 -0.1016 -0.6442 -0.1226
  500MPD2    C3 7484   4.249   3.434  11.097 -0.3396  0.0765  0.1094
  500MPD2    C4 7485   4.175   3.356  11.189  0.0120 -0.1586 -0.0494
  500MPD2    C5 7486   4.230   3.292  11.293  0.9544  0.0260  0.4503
  500MPD2     H 7487   4.451   3.492  11.042  0.6751 -1.6703 -0.1976
  500MPD2    H1 7488   4.067   3.346  11.184 -0.0373  1.2405 -2.0488
  500MPD2    H2 7489   4.391   3.280  11.417 -3.3870  1.3659  1.5329
  500MPD2    H3 7490   4.167   3.246  11.369  2.8779  0.7497  2.4739
  500MPD2     N 7491   4.179   3.496  10.990 -0.5231  0.0076  0.2343
  500MPD2    H5 7492   4.081   3.469  10.981 -0.1124 -1.1952 -0.6716
  500MPD2    N1 7493   4.580   3.399  11.251  0.5226 -0.2629  0.9825
  500MPD2    H7 7494   4.634   3.437  11.174 -0.3613  0.3233  0.6615
  501TMC3    C1 7495   0.054   3.434  11.347  0.4684 -0.2678  0.3579
  501TMC3    C2 7496   0.057   3.532  11.245  0.1548 -0.7868 -0.8118
  501TMC3    C3 7497   0.175   3.593  11.229 -0.1166  0.4536  0.4196
  501TMC3    C4 7498   0.167   3.390  11.407  1.1348  0.0082 -0.5375
  501TMC3    C5 7499   0.277   3.464  11.391 -0.4547 -0.0258  0.0318
  501TMC3    C6 7500   0.287   3.575  11.308 -0.2957  0.8020  0.5688
  501TMC3     C 7501   4.661   3.370  11.366 -0.0502  0.4066 -0.1446
  501TMC3     O 7502   4.633   3.314  11.469 -0.1320  0.2959 -0.4574
  501TMC3     H 7503   4.710   3.588  11.210 -0.5607 -1.8574 -0.7741
  501TMC3    H1 7504   0.159   3.305  11.473  1.0169 -1.0260 -1.8832
  501TMC3    H2 7505   0.382   3.625  11.296  0.4625 -1.1006 -1.5819
  501TMC3    C7 7506   0.381   3.432  11.481  0.6310  1.0852  0.2732
  501TMC3    C8 7507   0.185   3.698  11.140 -0.0832  0.5569 -1.0992
  501TMC3    O1 7508   0.385   3.325  11.535 -0.1538  0.0454  0.5084
  501TMC3    O2 7509   0.278   3.774  11.163 -0.7648  0.0284  0.4565
  502TMC3    C1 7510   4.163   2.442  14.885 -0.9409 -0.6449  0.1764
  502TMC3    C2 7511   4.133   2.574  14.909  0.0213 -0.0823 -0.5507
  502TMC3    C3 7512   3.995   2.606  14.904  0.5412  0.0556  0.2539
  502TMC3    C4 7513   4.071   2.349  14.862 -0.0646  0.5358  0.7887
  502TMC3    C5 7514   3.940   2.384  14.864  0.2027  0.2546  0.1279
  502TMC3    C6 7515   3.900   2.512  14.881 -0.2230  0.4106 -0.1853
  502TMC3     C 7516   4.285   2.395  14.942  0.7327 -0.2827 -0.1040
  502TMC3     O 7517   4.374   2.475  14.932  0.2231 -0.2013 -0.2526
  502TMC3     H 7518   4.208   2.645  14.941  0.3318 -1.2782  1.4220
  502TMC3    H1 7519   4.100   2.245  14.849 -0.0876  0.6867 -0.4456
  502TMC3    H2 7520   3.800   2.533  14.916 -1.2350 -1.5152 -1.9307
  502TMC3    C7 7521   3.862   2.279  14.932 -0.3935  0.6095 -0.5678
  502TMC3    C8 7522   3.957   2.744  14.915  0.7443  0.0039 -0.3238
  502TMC3    O1 7523   3.925   2.187  14.987 -0.0840  0.0913  0.0849
  502TMC3    O2 7524   4.032   2.823  14.966  0.0110  0.1737 -0.0009
  503MPD2     C 7525   1.528   2.798  16.703 -0.5156  0.1918  0.1748
  503MPD2    C1 7526   1.562   2.861  16.826 -0.2021 -0.9751 -0.0115
  503MPD2    C2 7527   1.640   2.807  16.922  0.0202  0.1956 -0.2718
  503MPD2    C3 7528   1.699   2.689  16.899 -0.3919 -0.4531 -0.1849
  503MPD2    C4 7529   1.667   2.622  16.780  0.5799  0.3621  0.5041
  503MPD2    C5 7530   1.583   2.672  16.686  0.1298 -0.3180  0.1444
  503MPD2     H 7531   1.660   2.859  17.015 -1.2089  0.9199 -0.4112
  503MPD2    H1 7532   1.696   2.520  16.757  0.7750  0.5685 -0.1450
  503MPD2    H2 7533   1.478   2.844  16.619 -0.4206 -0.1842 -0.0836
  503MPD2    H3 7534   1.561   2.605  16.604 -1.4771 -1.0458  1.1788
  503MPD2     N 7535   1.773   2.628  17.005 -0.6230 -0.4826  0.3464
  503MPD2    H5 7536   1.784   2.667  17.098 -1.7680 -0.2979  0.4035
  503MPD2    N1 7537   1.524   2.998  16.850 -0.0912  0.2007 -0.5457
  503MPD2    H7 7538   1.511   3.025  16.947  3.9510  1.6639 -0.4254
  504TMC3    C1 7539   1.881   2.459  17.111  0.1082  0.9741  0.0703
  504TMC3    C2 7540   1.852   2.520  17.226  0.1273  0.0984 -0.2449
  504TMC3    C3 7541   1.948   2.512  17.326 -0.7745 -1.1057  1.1455
  504TMC3    C4 7542   2.001   2.397  17.089 -0.3056  0.0414  0.2865
  504TMC3    C5 7543   2.094   2.395  17.194 -0.2402 -0.1043  0.3833
  504TMC3    C6 7544   2.076   2.467  17.310  0.9089  0.2206  0.1504
  504TMC3     C 7545   1.811   2.496  16.991  0.4566  0.5287  0.1952
  504TMC3     O 7546   1.839   2.430  16.890 -0.2415  0.4152  0.2510
  504TMC3     H 7547   1.748   2.538  17.252 -0.6329  1.4328 -4.0935
  504TMC3    H1 7548   2.017   2.348  16.993  2.3794  0.0386  0.7317
  504TMC3    H2 7549   2.152   2.488  17.385  0.3516  1.3008  0.4062
  504TMC3    C7 7550   2.229   2.358  17.151  0.9174  0.4199  0.4478
  504TMC3    C8 7551   1.895   2.551  17.457 -0.0487  0.0198 -0.2613
  504TMC3    O1 7552   2.253   2.345  17.031 -0.1981 -0.4840 -0.4760
  504TMC3    O2 7553   1.814   2.644  17.463 -0.1174  0.1908 -0.1719
  505MPD2     C 7554   1.546   1.984  10.943 -1.3508  0.3049  0.0367
  505MPD2    C1 7555   1.603   1.868  10.892 -0.4708 -0.9834 -0.2096
  505MPD2    C2 7556   1.729   1.837  10.931  0.1378 -0.2871 -0.1197
  505MPD2    C3 7557   1.797   1.916  11.022 -0.0366  0.1738  0.4909
  505MPD2    C4 7558   1.732   2.020  11.086  0.4829  0.0400 -1.5164
  505MPD2    C5 7559   1.606   2.059  11.043  0.2434 -0.1630  0.1814
  505MPD2     H 7560   1.785   1.754  10.889  1.6283  0.7844 -0.2352
  505MPD2    H1 7561   1.780   2.083  11.160 -0.0041  0.4580 -1.5516
  505MPD2    H2 7562   1.451   2.023  10.908  0.6348  2.8007 -2.6154
  505MPD2    H3 7563   1.563   2.155  11.068  1.0712  0.2756 -0.0778
  505MPD2     N 7564   1.918   1.860  11.065  0.6441  0.4947  0.3200
  505MPD2    H5 7565   1.943   1.773  11.020  1.7323  0.2892  1.3098
  505MPD2    N1 7566   1.530   1.782  10.801  0.9796  0.0280 -0.5651
  505MPD2    H7 7567   1.442   1.821  10.768  1.2146 -1.2212 -2.7040
  506TMC3    C1 7568   1.480   1.589  10.669 -0.0166  0.0203 -0.0494
  506TMC3    C2 7569   1.422   1.661  10.569  0.3235  0.8803 -0.1865
  506TMC3    C3 7570   1.430   1.616  10.442  0.2332 -0.1241  0.3270
  506TMC3    C4 7571   1.538   1.469  10.639  0.5759  0.1882  0.1260
  506TMC3    C5 7572   1.552   1.422  10.513  0.0154  0.2649 -0.7096
  506TMC3    C6 7573   1.505   1.502  10.414  0.2199  0.1845  0.2400
  506TMC3     C 7574   1.566   1.651  10.768  0.5343 -0.2946 -0.3760
  506TMC3     O 7575   1.668   1.586  10.798  0.2927  0.3226  0.2367
  506TMC3     H 7576   1.381   1.760  10.587  0.1725  0.7012  0.4511
  506TMC3    H1 7577   1.561   1.403  10.722  0.9547  1.5525  1.1050
  506TMC3    H2 7578   1.499   1.478  10.309 -0.1436 -1.4375  0.6313
  506TMC3    C7 7579   1.692   1.380  10.483 -0.2368 -0.5078 -0.5640
  506TMC3    C8 7580   1.400   1.707  10.331  0.7254  0.1031 -0.2409
  506TMC3    O1 7581   1.713   1.341  10.371  0.6789  0.4995  0.2802
  506TMC3    O2 7582   1.305   1.692  10.254  0.2382 -0.1284 -0.1919
  507TMC3    C1 7583   2.131   2.640  15.006 -0.1712  0.2223  0.1116
  507TMC3    C2 7584   2.260   2.637  14.966 -0.8976  0.3305 -0.5872
  507TMC3    C3 7585   2.325   2.757  14.969 -0.7881 -0.1212 -0.1699
  507TMC3    C4 7586   2.069   2.754  15.060 -0.0483 -0.0127  0.3333
  507TMC3    C5 7587   2.151   2.850  15.098  1.1671  0.1109 -0.4588
  507TMC3    C6 7588   2.274   2.863  15.043 -0.2599  0.2184  0.2433
  507TMC3     C 7589   2.056   2.515  14.994 -0.2976  0.9771  0.4964
  507TMC3     O 7590   2.120   2.410  15.008  0.5434 -0.0262 -0.7709
  507TMC3     H 7591   2.288   2.553  14.904 -0.0352  1.5274 -1.8292
  507TMC3    H1 7592   1.967   2.749  15.098  0.8069 -1.7920  2.4173
  507TMC3    H2 7593   2.330   2.955  15.056 -1.4586  0.6428  2.2773
  507TMC3    C7 7594   2.076   2.969  15.060 -0.1095  0.6673 -0.3892
  507TMC3    C8 7595   2.358   2.798  14.834 -0.3535  0.0539 -0.5495
  507TMC3    O1 7596   2.130   3.032  14.971  0.0512 -0.2587  0.5667
  507TMC3    O2 7597   2.404   2.711  14.763  0.8119  0.1449 -0.1327
  508MPD2     C 7598   2.993   0.109  15.723 -0.0813 -0.4269 -0.2611
  508MPD2    C1 7599   3.057   0.212  15.800  0.0627  1.0885 -0.2132
  508MPD2    C2 7600   3.088   0.327  15.745 -0.7348  0.0987 -0.1891
  508MPD2    C3 7601   3.061   0.354  15.609  0.2354  0.0027  0.2972
  508MPD2    C4 7602   2.994   0.255  15.535  0.1581  0.3452 -0.0950
  508MPD2    C5 7603   2.958   0.138  15.592 -0.0678  0.0061 -0.1826
  508MPD2     H 7604   3.132   0.402  15.810  0.8272 -1.2420  0.3198
  508MPD2    H1 7605   2.949   0.291  15.444 -0.3273 -0.6052 -0.2318
  508MPD2    H2 7606   2.971   0.009  15.761  0.9966 -0.4960  0.1782
  508MPD2    H3 7607   2.905   0.060  15.538 -0.2732 -1.4877  2.1878
  508MPD2     N 7608   3.107   0.464  15.549 -0.1954 -0.0850  0.9152
  508MPD2    H5 7609   3.178   0.518  15.597 -0.0151  0.5027 -0.0066
  508MPD2    N1 7610   3.071   0.186  15.937 -0.3585  0.6902 -0.5801
  508MPD2    H7 7611   3.051   0.090  15.965 -0.9374  0.9620 -0.0843
  509TMC3    C1 7612   3.139   0.840  15.302 -0.5426 -0.6711  0.2889
  509TMC3    C2 7613   3.277   0.847  15.311  0.6950 -0.4613  0.3340
  509TMC3    C3 7614   3.349   0.739  15.353  0.0762 -0.4704 -0.8710
  509TMC3    C4 7615   3.075   0.725  15.346  0.2343  0.1797  0.1400
  509TMC3    C5 7616   3.152   0.626  15.387 -0.1268  0.7447 -0.8625
  509TMC3    C6 7617   3.289   0.629  15.391  0.6764 -0.6821  0.0178
  509TMC3     C 7618   3.064   0.957  15.275 -0.2493  0.1074 -0.1972
  509TMC3     O 7619   2.960   0.963  15.340  0.8676 -0.4538  0.1302
  509TMC3     H 7620   3.326   0.935  15.270  0.6663 -0.4272  0.3732
  509TMC3    H1 7621   2.971   0.716  15.316  0.4249  0.5937 -0.6438
  509TMC3    H2 7622   3.341   0.550  15.443 -0.8077 -1.0122  1.0111
  509TMC3    C7 7623   3.085   0.500  15.417 -0.5560 -0.2783 -0.3986
  509TMC3    C8 7624   3.486   0.730  15.369  0.4624 -0.4275 -0.0059
  509TMC3    O1 7625   2.989   0.475  15.343 -0.2109 -0.4438 -0.0212
  509TMC3    O2 7626   3.541   0.627  15.403  0.5209  0.3257 -0.7803
  510MPD2     C 7627   1.293   1.870  14.491  0.1533  0.5679  0.5457
  510MPD2    C1 7628   1.365   1.772  14.562  0.4981  0.4719 -0.5874
  510MPD2    C2 7629   1.498   1.760  14.532 -0.2099  0.1787 -0.0126
  510MPD2    C3 7630   1.554   1.851  14.446  0.3015 -0.0344 -0.1446
  510MPD2    C4 7631   1.484   1.948  14.383 -0.6169 -0.2848 -0.9805
  510MPD2    C5 7632   1.353   1.953  14.400  0.0528 -0.0988  0.3735
  510MPD2     H 7633   1.553   1.679  14.580  1.0384  0.1441 -1.4924
  510MPD2    H1 7634   1.526   2.006  14.302 -0.5210 -1.1746 -1.5664
  510MPD2    H2 7635   1.185   1.876  14.491  0.0043 -2.1025  1.7124
  510MPD2    H3 7636   1.292   2.013  14.332  0.8858 -0.0786 -0.3472
  510MPD2     N 7637   1.693   1.834  14.426  0.4277 -0.0420 -0.0930
  510MPD2    H5 7638   1.739   1.754  14.468 -0.3740  0.2338  1.2981
  510MPD2    N1 7639   1.295   1.674  14.632  0.2289  0.1641  0.5435
  510MPD2    H7 7640   1.340   1.596  14.679  1.2603  0.8916  0.7467
  511TMC3    C1 7641   1.119   1.574  14.750 -0.3732 -0.9879  0.8339
  511TMC3    C2 7642   1.053   1.610  14.865 -0.2735 -0.4328 -0.5781
  511TMC3    C3 7643   1.014   1.495  14.940 -0.0555 -0.2753  0.5668
  511TMC3    C4 7644   1.120   1.453  14.698  0.5733  0.2667  0.1407
  511TMC3    C5 7645   1.078   1.344  14.775 -1.0454 -0.5330 -1.1610
  511TMC3    C6 7646   1.033   1.364  14.898 -0.4353  0.1549 -0.2104
  511TMC3     C 7647   1.160   1.685  14.672 -0.4056  0.2219 -0.1067
  511TMC3     O 7648   1.085   1.782  14.673  0.2683  0.4485  0.1758
  511TMC3     H 7649   1.045   1.709  14.910 -0.6801 -1.2571  1.1963
  511TMC3    H1 7650   1.172   1.442  14.603  1.4881  0.6793  0.5956
  511TMC3    H2 7651   0.970   1.288  14.943  1.7250 -2.0793 -0.9301
  511TMC3    C7 7652   1.041   1.225  14.698 -0.5607  0.4636 -0.5210
  511TMC3    C8 7653   0.973   1.519  15.079 -0.7842 -0.0789 -0.1174
  511TMC3    O1 7654   1.064   1.221  14.582  0.1264 -0.1416 -0.7393
  511TMC3    O2 7655   0.927   1.633  15.103  0.3594 -0.1481 -0.7233
  512TMC3    C1 7656   0.201   1.200  13.389  0.3063  0.4789 -0.0562
  512TMC3    C2 7657   0.329   1.156  13.371  0.0448 -0.6659  0.5023
  512TMC3    C3 7658   0.361   1.022  13.378  0.8447  0.6190 -1.1995
  512TMC3    C4 7659   0.101   1.105  13.407 -0.2218 -0.0340  0.1794
  512TMC3    C5 7660   0.132   0.971  13.402 -1.0541 -0.0710  0.4025
  512TMC3    C6 7661   0.261   0.931  13.385  0.6518 -0.1725  0.0126
  512TMC3     C 7662   0.173   1.335  13.377 -0.0905 -0.3892  0.3577
  512TMC3     O 7663   0.262   1.400  13.329 -0.0477  0.0665  0.0729
  512TMC3     H 7664   0.398   1.230  13.331 -1.9034  0.4402 -0.7632
  512TMC3    H1 7665   4.737   1.136  13.395  0.1010  2.2757  3.4073
  512TMC3    H2 7666   0.285   0.826  13.390 -0.4436 -0.5378 -2.1048
  512TMC3    C7 7667   0.028   0.894  13.348 -0.0897  0.2686  0.0835
  512TMC3    C8 7668   0.496   0.997  13.412 -0.1167 -0.0705 -0.5933
  512TMC3    O1 7669   4.659   0.946  13.344  0.2904 -0.1492  0.3144
  512TMC3    O2 7670   0.543   0.886  13.401  0.3035 -0.1283  0.3954
  513MPD2     C 7671   2.063   1.647  13.274  0.0306  0.1794  0.5725
  513MPD2    C1 7672   2.033   1.508  13.264 -0.1071  0.5869  0.7054
  513MPD2    C2 7673   2.049   1.429  13.368 -0.6059 -0.3001 -0.3187
  513MPD2    C3 7674   2.093   1.480  13.491 -0.2367  0.6620 -0.2612
  513MPD2    C4 7675   2.114   1.618  13.499 -0.5623  0.3451  0.0841
  513MPD2    C5 7676   2.109   1.693  13.391 -0.0245 -0.8256 -0.1978
  513MPD2     H 7677   2.035   1.322  13.359 -1.1935 -0.2945  0.5725
  513MPD2    H1 7678   2.155   1.661  13.590  0.4329 -0.1723 -0.1149
  513MPD2    H2 7679   2.044   1.716  13.192  0.9921  0.5890  0.6893
  513MPD2    H3 7680   2.120   1.801  13.397 -0.6938 -0.8945  1.9758
  513MPD2     N 7681   2.129   1.389  13.587  0.3754  0.0760  0.1643
  513MPD2    H5 7682   2.112   1.292  13.565 -1.4183  0.8763 -1.9739
  513MPD2    N1 7683   1.978   1.468  13.142 -0.5004  0.0791  0.4457
  513MPD2    H7 7684   1.970   1.537  13.069  0.1832  0.3846  0.6529
  514TMC3    C1 7685   1.887   1.320  12.982  0.4085 -0.5684 -0.4300
  514TMC3    C2 7686   1.947   1.406  12.895  0.2253 -0.7589  0.0760
  514TMC3    C3 7687   2.005   1.356  12.781 -0.1410 -0.0655  0.0507
  514TMC3    C4 7688   1.882   1.185  12.949 -0.5988  0.4619 -0.0935
  514TMC3    C5 7689   1.957   1.137  12.844 -0.4617  0.2014  0.0869
  514TMC3    C6 7690   2.024   1.224  12.762  0.2955 -0.2155 -0.3798
  514TMC3     C 7691   1.937   1.339  13.116  0.0579  0.6367  0.4016
  514TMC3     O 7692   1.929   1.242  13.194 -0.7270 -1.0606 -0.1761
  514TMC3     H 7693   1.930   1.513  12.903  1.7168 -0.5556  0.4570
  514TMC3    H1 7694   1.826   1.120  13.016  3.2914 -1.1404  1.6227
  514TMC3    H2 7695   2.076   1.188  12.674 -0.5192  0.9746 -1.3609
  514TMC3    C7 7696   2.037   1.021  12.887  0.1736  0.5218  0.5930
  514TMC3    C8 7697   2.041   1.450  12.671 -0.5018 -0.0106 -0.0767
  514TMC3    O1 7698   2.092   0.953  12.799 -0.0017  0.6132 -0.0396
  514TMC3    O2 7699   2.030   1.565  12.710 -0.7897 -0.0957 -0.4592
  515MPD2     C 7700   0.298   3.237  14.386 -1.3791 -0.1120 -0.3493
  515MPD2    C1 7701   0.242   3.111  14.413  0.0737 -0.5052  0.0460
  515MPD2    C2 7702   0.296   3.035  14.517  0.2326  0.0967  0.2860
  515MPD2    C3 7703   0.400   3.089  14.593  1.0083 -0.0573  0.3182
  515MPD2    C4 7704   0.466   3.206  14.545 -0.3593 -0.6525 -0.3135
  515MPD2    C5 7705   0.411   3.279  14.442  0.4430  0.6224  0.1683
  515MPD2     H 7706   0.244   2.942  14.537  0.5394  0.2165  1.6309
  515MPD2    H1 7707   0.549   3.249  14.599 -0.4343 -0.1487 -0.5971
  515MPD2    H2 7708   0.259   3.294  14.302  0.6310  0.3572 -0.9890
  515MPD2    H3 7709   0.452   3.373  14.406 -1.8305  1.1681 -0.9874
  515MPD2     N 7710   0.458   3.033  14.704  0.9477  0.6433 -0.0954
  515MPD2    H5 7711   0.540   3.080  14.742  0.7637  0.3562  0.6522
  515MPD2    N1 7712   0.127   3.059  14.347 -0.4844 -0.4066  0.6232
  515MPD2    H7 7713   0.109   2.960  14.361 -1.3221 -0.6055 -1.9098
  516TMC3    C1 7714   4.680   3.053  14.210 -0.3434 -0.2036  0.3365
  516TMC3    C2 7715   4.597   3.097  14.111 -0.1586 -0.5738 -0.5120
  516TMC3    C3 7716   4.472   3.053  14.104  0.6397  0.1674  0.1998
  516TMC3    C4 7717   4.627   2.961  14.301 -0.1081  0.2872  0.1371
  516TMC3    C5 7718   4.505   2.915  14.288 -0.6558 -0.2238  0.3532
  516TMC3    C6 7719   4.418   2.965  14.192 -0.3666 -0.7931  0.4231
  516TMC3     C 7720   0.050   3.130  14.257  0.3166  0.0408  0.5341
  516TMC3     O 7721   0.052   3.247  14.226 -0.1764 -0.1423  0.1116
  516TMC3     H 7722   4.639   3.173  14.048  1.5648  0.5726  1.9991
  516TMC3    H1 7723   4.681   2.928  14.389  1.2194 -0.0940 -0.8238
  516TMC3    H2 7724   4.317   2.933  14.170 -0.3376 -1.3349  1.1145
  516TMC3    C7 7725   4.490   2.785  14.353  0.8177 -0.3142 -0.4381
  516TMC3    C8 7726   4.390   3.099  13.996 -0.2849 -0.3640  0.1244
  516TMC3    O1 7727   4.591   2.734  14.398 -0.1862  0.0383  0.2241
  516TMC3    O2 7728   4.272   3.134  14.031  0.1271  0.6011 -0.4347
  517MPD2     C 7729   0.320   3.619   0.318 -0.0341 -0.2506  0.0822
  517MPD2    C1 7730   0.215   3.708   0.285 -0.1146 -1.0939 -0.2488
  517MPD2    C2 7731   0.198   3.827   0.346  0.1545  0.0584  0.0435
  517MPD2    C3 7732   0.286   3.852   0.449  0.1259 -0.0219  0.6314
  517MPD2    C4 7733   0.387   3.762   0.486  0.1556 -0.4152  0.1054
  517MPD2    C5 7734   0.404   3.643   0.421 -0.2256  0.6475 -0.3377
  517MPD2     H 7735   0.120   3.899   0.325 -0.1725 -0.1002  0.7056
  517MPD2    H1 7736   0.447   3.784   0.574 -1.7298 -0.7940  1.4882
  517MPD2    H2 7737   0.337   3.525   0.267 -1.2448 -0.0143 -0.7353
  517MPD2    H3 7738   0.495   3.585   0.436 -2.3820 -2.4093  0.8054
  517MPD2     N 7739   0.266   3.976   0.519  0.6386  0.0474  0.1114
  517MPD2    H5 7740   0.311   3.985   0.609 -1.8045  2.3661  1.0921
  517MPD2    N1 7741   0.113   3.664   0.197 -0.2352 -0.1985  0.2486
  517MPD2    H7 7742   0.036   3.724   0.169  0.1070 -0.0342 -0.3362
  518TMC3    C1 7743   4.713   3.520   0.069 -0.1644 -0.0945 -0.1270
  518TMC3    C2 7744   4.664   3.400   0.071 -0.3145 -0.2453  0.2999
  518TMC3    C3 7745   4.624   3.349  17.703  0.5906 -0.4209 -0.2954
  518TMC3    C4 7746   4.729   3.588  17.706 -0.0204  0.2340 -0.1075
  518TMC3    C5 7747   4.666   3.546  17.586 -0.0743 -0.6897  0.6557
  518TMC3    C6 7748   4.633   3.420  17.587  0.4358  0.6207  0.8370
  518TMC3     C 7749   0.079   3.532   0.179 -0.4423  0.2249 -0.1835
  518TMC3     O 7750   0.130   3.435   0.227  0.5959 -0.6051  0.0117
  518TMC3     H 7751   4.665   3.348   0.166  0.6144  0.1339  0.4897
  518TMC3    H1 7752   0.061   3.670  17.698  0.3580  0.2262  3.5061
  518TMC3    H2 7753   4.605   3.366  17.497  0.1667 -1.2155  2.0205
  518TMC3    C7 7754   4.716   3.599  17.462 -0.6980  0.0382  0.2501
  518TMC3    C8 7755   4.643   3.210  17.686  0.1846 -0.7428 -0.4101
  518TMC3    O1 7756   4.642   3.668  17.392 -0.1556  0.0958  0.0922
  518TMC3    O2 7757   4.651   3.169  17.573 -0.3211 -0.1455 -0.2581
  519MPD2     C 7758   1.212   2.828  14.245 -0.0195  0.0150  0.0667
  519MPD2    C1 7759   1.162   2.797  14.122  0.2442 -0.7408  0.5024
  519MPD2    C2 7760   1.204   2.673  14.074 -0.9592  0.3293 -0.4584
  519MPD2    C3 7761   1.304   2.596  14.134  0.6770  0.5272 -0.0627
  519MPD2    C4 7762   1.356   2.636  14.249 -0.1087 -0.5898 -0.4351
  519MPD2    C5 7763   1.308   2.752  14.310  0.1896 -0.2045 -0.9844
  519MPD2     H 7764   1.154   2.627  13.989 -2.0804 -0.8610  0.8623
  519MPD2    H1 7765   1.420   2.559  14.291  1.8059  0.1436 -2.0102
  519MPD2    H2 7766   1.182   2.917  14.299 -0.7794  0.0731 -0.4469
  519MPD2    H3 7767   1.364   2.779  14.398 -1.8113 -3.4921  1.3121
  519MPD2     N 7768   1.370   2.483  14.068 -0.1125 -0.5267 -0.6559
  519MPD2    H5 7769   1.442   2.436  14.122 -2.0987 -0.5290  2.0228
  519MPD2    N1 7770   1.077   2.886  14.058  0.0397 -0.0253  0.1715
  519MPD2    H7 7771   1.039   2.965  14.108 -0.2383 -0.1105  0.0947
  520TMC3    C1 7772   1.449   2.352  13.884 -0.6091  0.0634 -0.6475
  520TMC3    C2 7773   1.426   2.359  13.753 -0.0571  0.4905 -0.2463
  520TMC3    C3 7774   1.518   2.420  13.663  0.7291  0.2406  0.0926
  520TMC3    C4 7775   1.565   2.403  13.929  0.0256 -0.2746  0.2095
  520TMC3    C5 7776   1.657   2.454  13.841  0.1816 -0.0409 -0.1509
  520TMC3    C6 7777   1.638   2.466  13.706  0.3451 -0.3467  0.2382
  520TMC3     C 7778   1.339   2.418  13.949 -0.6352  0.3797  0.0488
  520TMC3     O 7779   1.256   2.456  13.866  0.0846  0.2269  0.6536
  520TMC3     H 7780   1.344   2.301  13.713  0.0726  0.1726 -0.0486
  520TMC3    H1 7781   1.596   2.384  14.031 -1.0691  0.2735  0.6578
  520TMC3    H2 7782   1.713   2.504  13.637  0.2221  2.4625  1.6262
  520TMC3    C7 7783   1.791   2.426  13.884 -0.1956 -0.5118 -0.5110
  520TMC3    C8 7784   1.459   2.495  13.552 -0.3261  0.4262 -0.6740
  520TMC3    O1 7785   1.814   2.325  13.947  0.5558 -0.2166  0.0836
  520TMC3    O2 7786   1.535   2.541  13.462  0.1246 -0.0693 -0.5120
  521MPD2     C 7787   2.192   0.787  17.217  0.0838 -0.1570  0.2472
  521MPD2    C1 7788   2.243   0.657  17.218 -0.2040 -0.0839 -0.0168
  521MPD2    C2 7789   2.379   0.641  17.190 -0.3485 -0.0377  0.3625
  521MPD2    C3 7790   2.456   0.751  17.167  0.1637  0.4023  0.3441
  521MPD2    C4 7791   2.403   0.877  17.165 -0.6882 -0.1932 -0.2041
  521MPD2    C5 7792   2.272   0.891  17.191  0.5343 -0.1645  0.2046
  521MPD2     H 7793   2.432   0.546  17.190  0.0029  0.1556  0.1003
  521MPD2    H1 7794   2.457   0.970  17.152 -0.1154 -0.4851  0.0589
  521MPD2    H2 7795   2.090   0.813  17.242  0.3993  0.9469  0.3902
  521MPD2    H3 7796   2.231   0.991  17.196 -1.1093 -0.9154  2.0253
  521MPD2     N 7797   2.595   0.724  17.155 -0.1241  0.1755  0.7455
  521MPD2    H5 7798   2.613   0.624  17.163 -2.9408 -0.4763 -0.8556
  521MPD2    N1 7799   2.153   0.548  17.230  0.4791 -0.0583 -0.0401
  521MPD2    H7 7800   2.061   0.578  17.260 -1.2021 -2.4223 -2.7543
  522TMC3    C1 7801   2.834   0.752  17.138  0.3808 -0.1920 -0.8620
  522TMC3    C2 7802   2.844   0.615  17.147 -0.4182 -0.0094  0.1616
  522TMC3    C3 7803   2.967   0.562  17.114 -0.0897  0.0030 -0.4302
  522TMC3    C4 7804   2.928   0.835  17.090 -0.4030  0.1307 -0.3797
  522TMC3    C5 7805   3.044   0.777  17.041  0.2340  0.0964  0.3576
  522TMC3    C6 7806   3.066   0.645  17.060  0.0587  0.1462 -0.1706
  522TMC3     C 7807   2.701   0.812  17.139  0.5601 -0.8273  0.1751
  522TMC3     O 7808   2.689   0.935  17.133 -0.1687  0.2621  0.0978
  522TMC3     H 7809   2.766   0.553  17.187  0.8252 -1.0008  1.0392
  522TMC3    H1 7810   2.918   0.943  17.093 -1.9623  0.0158 -1.5358
  522TMC3    H2 7811   3.150   0.592  17.017  0.8002  1.6184 -0.5388
  522TMC3    C7 7812   3.089   0.831  16.916  0.3024 -0.9711  0.1797
  522TMC3    C8 7813   2.963   0.425  17.083 -0.4911 -0.6186  0.9300
  522TMC3    O1 7814   3.191   0.795  16.865 -0.6397  0.1175  0.3423
  522TMC3    O2 7815   2.898   0.353  17.160 -0.0428 -0.6525 -0.2893
  523MPD2     C 7816   0.526   0.733  10.240  0.2970 -1.1955 -0.4006
  523MPD2    C1 7817   0.429   0.640  10.192 -0.0683 -0.4336 -0.5677
  523MPD2    C2 7818   0.310   0.690  10.145 -1.1550 -0.4391  0.1457
  523MPD2    C3 7819   0.292   0.826  10.136 -0.0435  0.2194 -0.1722
  523MPD2    C4 7820   0.387   0.917  10.193 -0.2971  0.2866 -0.8772
  523MPD2    C5 7821   0.508   0.868  10.237 -1.2526  0.4988 -0.4990
  523MPD2     H 7822   0.223   0.626  10.134 -2.0401  1.0010 -1.2780
  523MPD2    H1 7823   0.368   1.023  10.202  0.6649  0.2040  1.9148
  523MPD2    H2 7824   0.615   0.699  10.292  0.2321 -0.7910 -0.0277
  523MPD2    H3 7825   0.577   0.934  10.287 -0.1360 -2.7231  2.1884
  523MPD2     N 7826   0.171   0.884  10.087  0.2502 -0.2507  0.2505
  523MPD2    H5 7827   0.156   0.982  10.110 -0.5896 -0.3358  0.0676
  523MPD2    N1 7828   0.444   0.505  10.209  0.5063  0.9845  0.8071
  523MPD2    H7 7829   0.501   0.477  10.288  0.8111  0.5692  0.4386
  524TMC3    C1 7830   4.714   0.891   9.953 -0.0310 -0.0787 -0.0174
  524TMC3    C2 7831   4.674   0.884   9.825 -0.2453 -0.0666  0.2030
  524TMC3    C3 7832   4.584   0.967   9.777 -0.4645  0.6376  0.2123
  524TMC3    C4 7833   4.643   0.979  10.039 -0.4458  0.2071  0.3102
  524TMC3    C5 7834   4.553   1.060   9.985 -0.4892  0.3872  0.1869
  524TMC3    C6 7835   4.525   1.062   9.853  0.4791  0.3165 -0.5137
  524TMC3     C 7836   0.096   0.824   9.985 -0.1557 -0.1890 -1.0598
  524TMC3     O 7837   0.112   0.717   9.922  0.0663  0.3976  0.0073
  524TMC3     H 7838   4.736   0.825   9.758  1.6484  1.1007  0.9347
  524TMC3    H1 7839   4.645   0.979  10.147 -0.6686  1.3093  0.3101
  524TMC3    H2 7840   4.458   1.134   9.806  0.2509  0.2056 -0.3595
  524TMC3    C7 7841   4.478   1.150  10.077  0.2629  0.7463  0.4186
  524TMC3    C8 7842   4.528   0.946   9.641 -0.3433  0.5953  0.3393
  524TMC3    O1 7843   4.474   1.118  10.195  0.2453  0.7754  0.1786
  524TMC3    O2 7844   4.448   1.028   9.594 -0.1605 -0.3874 -0.0352
  525MPD2     C 7845   2.734   2.582  14.460 -0.2713  1.1264  1.0707
  525MPD2    C1 7846   2.872   2.586  14.452 -0.2331 -0.4758 -0.2313
  525MPD2    C2 7847   2.922   2.714  14.446  0.0096  0.7279 -0.5314
  525MPD2    C3 7848   2.841   2.830  14.424 -1.0635 -0.7476 -0.1118
  525MPD2    C4 7849   2.708   2.817  14.426 -0.1063 -0.0642 -0.0346
  525MPD2    C5 7850   2.649   2.694  14.436  0.0780 -0.5137 -0.2658
  525MPD2     H 7851   3.028   2.733  14.456 -0.2030  2.0301 -0.7104
  525MPD2    H1 7852   2.642   2.901  14.404 -0.6200 -0.8526 -1.5018
  525MPD2    H2 7853   2.676   2.493  14.484 -0.0030  0.8136  0.5760
  525MPD2    H3 7854   2.542   2.681  14.428 -0.2772  1.0051  2.1010
  525MPD2     N 7855   2.893   2.960  14.416  0.0256 -0.1928 -0.0109
  525MPD2    H5 7856   2.823   3.034  14.413  1.0452  0.7418 -1.3398
  525MPD2    N1 7857   2.955   2.474  14.471  0.0983 -0.2912 -0.3828
  525MPD2    H7 7858   3.053   2.496  14.485 -0.2738  0.0623  1.7643
  526TMC3    C1 7859   3.020   2.253  14.502  0.0587 -1.5542 -0.3444
  526TMC3    C2 7860   2.978   2.153  14.581 -0.1201 -0.3529 -0.0777
  526TMC3    C3 7861   3.068   2.079  14.652  0.1831 -0.6868  0.0805
  526TMC3    C4 7862   3.153   2.290  14.491  0.2064 -0.4594  0.4996
  526TMC3    C5 7863   3.244   2.220  14.564 -0.1208 -0.0606 -0.1753
  526TMC3    C6 7864   3.203   2.110  14.642  0.0259 -0.3375  0.0141
  526TMC3     C 7865   2.913   2.341  14.464 -0.3327  0.6824 -0.2248
  526TMC3     O 7866   2.801   2.287  14.439 -0.3704 -0.0718 -0.4645
  526TMC3     H 7867   2.872   2.133  14.590 -0.3714  0.3093 -1.5419
  526TMC3    H1 7868   3.185   2.376  14.433 -2.6128  0.8290  0.8558
  526TMC3    H2 7869   3.264   2.063  14.717  0.2465 -2.6687 -1.6433
  526TMC3    C7 7870   3.387   2.250  14.545 -0.0167 -0.2951 -0.4995
  526TMC3    C8 7871   3.031   2.008  14.779 -0.4407 -0.6565 -0.5287
  526TMC3    O1 7872   3.415   2.368  14.565  0.2100 -0.7481 -0.0454
  526TMC3    O2 7873   3.121   1.944  14.834  1.1631 -0.2880  0.4865
  527MPD2     C 7874   1.130   0.349   0.881 -0.1748  0.1155 -0.5557
  527MPD2    C1 7875   1.198   0.225   0.863  0.0351  0.7984 -0.2797
  527MPD2    C2 7876   1.314   0.227   0.788  0.2874 -0.1543  0.9033
  527MPD2    C3 7877   1.364   0.345   0.735 -0.1818 -0.2438  0.8621
  527MPD2    C4 7878   1.305   0.463   0.760  0.2994 -0.4587  0.1377
  527MPD2    C5 7879   1.191   0.466   0.837 -0.7436  0.0647  0.0715
  527MPD2     H 7880   1.362   0.133   0.762 -2.1076 -1.1719  0.1383
  527MPD2    H1 7881   1.346   0.560   0.735 -1.2382  0.2014  0.1330
  527MPD2    H2 7882   1.041   0.358   0.941  0.7325 -1.3596  1.0085
  527MPD2    H3 7883   1.153   0.562   0.871  1.9431  1.7155 -1.6443
  527MPD2     N 7884   1.469   0.325   0.645  0.0461 -0.3907  0.4409
  527MPD2    H5 7885   1.507   0.231   0.643 -0.1673 -0.4651 -0.2530
  527MPD2    N1 7886   1.147   0.099   0.913 -0.4989 -0.2796 -0.4379
  527MPD2    H7 7887   1.207   0.018   0.907 -0.5932 -0.4880  1.5454
  528TMC3    C1 7888   0.989   4.681   0.984  0.1384  0.4790 -0.1977
  528TMC3    C2 7889   1.084   4.590   1.026 -0.4200  0.5959  0.7367
  528TMC3    C3 7890   1.054   4.458   1.009  0.1092 -0.2135  0.2258
  528TMC3    C4 7891   0.883   4.631   0.905  0.4488  0.0267 -0.0135
  528TMC3    C5 7892   0.857   4.499   0.891 -0.0435 -0.1383 -0.4239
  528TMC3    C6 7893   0.938   4.408   0.953  0.0615 -0.1136  0.1329
  528TMC3     C 7894   1.018   0.079   0.964  0.3461 -0.4084  0.2009
  528TMC3     O 7895   0.916   0.148   0.962 -0.0855  0.0823  0.0812
  528TMC3     H 7896   1.176   4.616   1.078  0.5879 -1.3751 -0.0454
  528TMC3    H1 7897   0.806   4.701   0.871  1.4119  0.7401 -0.7348
  528TMC3    H2 7898   0.918   4.304   0.933  1.4004 -0.3548  0.0502
  528TMC3    C7 7899   0.772   4.444   0.783 -0.4358 -1.1082 -0.2394
  528TMC3    C8 7900   1.138   4.361   1.075  0.5442 -0.4789  0.1354
  528TMC3    O1 7901   0.769   4.324   0.779  0.1512  0.1516 -0.3490
  528TMC3    O2 7902   1.247   4.403   1.111  0.5985  0.4031  0.2880
  529MPD2     C 7903   3.759   2.865   1.123  0.1304  0.0515  0.7164
  529MPD2    C1 7904   3.704   2.756   1.060  0.2301 -0.2583  0.4328
  529MPD2    C2 7905   3.613   2.780   0.956 -0.2389 -0.4723  0.4491
  529MPD2    C3 7906   3.582   2.907   0.917 -0.3683 -0.4551  0.1645
  529MPD2    C4 7907   3.640   3.016   0.982  0.3489 -0.5929 -0.4010
  529MPD2    C5 7908   3.731   2.997   1.079  0.6611 -0.2995 -0.6697
  529MPD2     H 7909   3.575   2.692   0.904 -1.4416 -1.5761  3.1873
  529MPD2    H1 7910   3.611   3.112   0.941  1.8511 -0.2849 -0.7182
  529MPD2    H2 7911   3.817   2.858   1.214 -1.9617 -0.0885  2.0433
  529MPD2    H3 7912   3.770   3.085   1.128 -1.3351  0.4571 -0.4712
  529MPD2     N 7913   3.509   2.931   0.799  0.1051  0.1954 -0.0091
  529MPD2    H5 7914   3.510   3.023   0.756 -0.1059 -0.1525 -0.7555
  529MPD2    N1 7915   3.738   2.619   1.090 -0.5581  0.1450 -0.3234
  529MPD2    H7 7916   3.717   2.547   1.022  0.2461 -0.8535  0.4874
  530TMC3    C1 7917   3.838   2.446   1.209  0.2755  0.4488 -0.5201
  530TMC3    C2 7918   3.939   2.418   1.299 -0.5037 -0.2105 -0.0674
  530TMC3    C3 7919   4.015   2.307   1.270  0.1335  0.2890 -0.1987
  530TMC3    C4 7920   3.796   2.362   1.110 -0.3137 -0.1452 -0.4973
  530TMC3    C5 7921   3.856   2.246   1.105 -0.3702  0.6096 -0.4077
  530TMC3    C6 7922   3.974   2.222   1.174 -0.4884 -0.3274 -0.5361
  530TMC3     C 7923   3.791   2.581   1.210 -0.0280  0.5521  0.9222
  530TMC3     O 7924   3.822   2.655   1.301  0.2359 -0.1935  0.2151
  530TMC3     H 7925   3.975   2.484   1.378 -3.1237 -0.4602  1.3376
  530TMC3    H1 7926   3.723   2.390   1.035 -1.7771 -1.4254  0.4592
  530TMC3    H2 7927   4.013   2.120   1.169  0.2611 -0.1527  2.0364
  530TMC3    C7 7928   3.797   2.145   1.023 -0.3991  0.4284  0.2125
  530TMC3    C8 7929   4.114   2.271   1.360 -0.0087  0.0295 -0.4987
  530TMC3    O1 7930   3.858   2.044   1.004  0.3063 -0.4499 -0.4052
  530TMC3    O2 7931   4.101   2.319   1.476 -0.1631  0.1975 -0.0911
  531MPD2     C 7932   2.311   0.807  13.266  0.0115  0.0077  0.6109
  531MPD2    C1 7933   2.229   0.903  13.314  0.3768 -0.4445  0.6943
  531MPD2    C2 7934   2.148   0.975  13.230 -1.2384  0.0014  0.1939
  531MPD2    C3 7935   2.133   0.934  13.098 -0.7356  0.1199 -0.4108
  531MPD2    C4 7936   2.213   0.841  13.051  0.2135 -0.3061  0.5016
  531MPD2    C5 7937   2.301   0.772  13.134  0.4751  0.0041 -0.7240
  531MPD2     H 7938   2.084   1.052  13.272 -1.3614  1.4232 -2.5768
  531MPD2    H1 7939   2.224   0.816  12.946 -1.2806  0.9120  0.0596
  531MPD2    H2 7940   2.374   0.760  13.342  2.7477 -0.9200 -2.2324
  531MPD2    H3 7941   2.365   0.692  13.100  1.1760 -1.0834  3.1184
  531MPD2     N 7942   2.045   1.012  13.026  0.0825  0.5989  0.6534
  531MPD2    H5 7943   1.998   1.086  13.077  0.3948  1.9749 -1.0514
  531MPD2    N1 7944   2.231   0.935  13.456  0.5884  0.2687 -0.1763
  531MPD2    H7 7945   2.288   0.875  13.515 -0.3048  1.7654  2.2193
  532TMC3    C1 7946   2.216   1.069  13.655  0.2015 -0.1068  0.0449
  532TMC3    C2 7947   2.154   1.180  13.701 -0.3116 -0.3049 -0.2410
  532TMC3    C3 7948   2.221   1.287  13.761  0.4999 -0.4375  0.3732
  532TMC3    C4 7949   2.351   1.054  13.680  0.1240  0.0354 -0.1611
  532TMC3    C5 7950   2.415   1.146  13.751  0.6110 -0.4081 -0.2313
  532TMC3    C6 7951   2.352   1.262  13.786 -0.2059 -0.1601 -0.3782
  532TMC3     C 7952   2.163   1.038  13.526  0.1996  0.1027 -0.0541
  532TMC3     O 7953   2.077   1.111  13.481  0.4197  0.6626  0.0611
  532TMC3     H 7954   2.047   1.189  13.692 -0.4573 -1.5470  0.1426
  532TMC3    H1 7955   2.399   0.960  13.656 -1.0929 -0.8504  0.8682
  532TMC3    H2 7956   2.413   1.338  13.832 -0.3935 -0.7853  0.8994
  532TMC3    C7 7957   2.550   1.128  13.798  0.6450  0.6852 -0.0576
  532TMC3    C8 7958   2.194   1.415  13.698  0.2052 -0.2258 -0.8888
  532TMC3    O1 7959   2.591   1.206  13.885 -0.0220  0.2759  0.0468
  532TMC3    O2 7960   2.275   1.504  13.728  0.7893  0.4807 -0.8575
  533TMC3    C1 7961   3.054   3.131  14.386 -0.2438  0.6325 -0.3602
  533TMC3    C2 7962   3.179   3.163  14.343 -0.2313 -0.2869 -0.4300
  533TMC3    C3 7963   3.235   3.269  14.414 -0.0393  0.4687  0.2495
  533TMC3    C4 7964   2.994   3.201  14.491  0.8061  0.0557 -0.5374
  533TMC3    C5 7965   3.052   3.312  14.549  0.7847 -0.0171  0.4446
  533TMC3    C6 7966   3.171   3.345  14.507  0.1063  1.3600 -0.4716
  533TMC3     C 7967   3.029   2.986  14.402  0.7498 -0.4024  0.1974
  533TMC3     O 7968   3.131   2.916  14.387 -0.2502  0.2547 -0.3729
  533TMC3     H 7969   3.235   3.101  14.274  2.1850 -0.3972  1.6437
  533TMC3    H1 7970   2.900   3.166  14.532  1.0116  0.9645  0.7051
  533TMC3    H2 7971   3.220   3.434  14.545  0.9018  0.0839  1.4813
  533TMC3    C7 7972   3.045   3.310  14.697 -0.3590 -0.0809 -0.2324
  533TMC3    C8 7973   3.377   3.297  14.407 -0.2960  0.8197 -0.4000
  533TMC3    O1 7974   3.104   3.401  14.754  0.0898 -0.0692  0.5034
  533TMC3    O2 7975   3.416   3.323  14.518  0.1571 -0.3360 -0.1069
  534MPD2     C 7976   0.875   3.508   1.133  0.0984  0.5354  0.4149
  534MPD2    C1 7977   0.991   3.474   1.052 -0.6478  0.4429 -0.2435
  534MPD2    C2 7978   1.030   3.344   1.044  0.2216  0.3158  0.3981
  534MPD2    C3 7979   0.943   3.247   1.098 -0.1650  0.7999 -0.5781
  534MPD2    C4 7980   0.836   3.281   1.176 -0.5343  0.5701  0.1563
  534MPD2    C5 7981   0.801   3.414   1.197 -0.1919 -0.2671 -0.2377
  534MPD2     H 7982   1.117   3.310   0.989  0.2796  0.2448  0.5333
  534MPD2    H1 7983   0.772   3.203   1.217  0.7339 -0.8137 -0.4774
  534MPD2    H2 7984   0.844   3.611   1.144 -0.1367  0.2735  2.2361
  534MPD2    H3 7985   0.710   3.442   1.248  0.5825 -0.1793  1.1165
  534MPD2     N 7986   0.965   3.102   1.078  0.1182  0.0052 -0.2078
  534MPD2    H5 7987   0.894   3.036   1.110  0.8530 -0.3625  0.6702
  534MPD2    N1 7988   1.068   3.566   0.983 -0.5086 -0.3795  0.7927
  534MPD2    H7 7989   1.164   3.535   0.968 -0.5369  0.4083 -0.9910
  535TMC3    C1 7990   0.995   2.911   0.947  0.0690  0.0876  1.1017
  535TMC3    C2 7991   0.917   2.850   1.040  0.3932 -0.0266  0.2870
  535TMC3    C3 7992   0.873   2.728   0.996  0.0250 -0.2698  0.2875
  535TMC3    C4 7993   1.040   2.856   0.825  0.1537  0.1271 -0.8048
  535TMC3    C5 7994   0.976   2.739   0.788  0.3996  0.2188  0.5790
  535TMC3    C6 7995   0.887   2.679   0.869 -0.6693 -0.8900 -0.0277
  535TMC3     C 7996   1.033   3.051   0.977 -0.2568  0.0603  0.8121
  535TMC3     O 7997   1.089   3.105   0.881  0.1355  0.0547  0.0348
  535TMC3     H 7998   0.889   2.893   1.135 -0.7483  0.7315 -0.4005
  535TMC3    H1 7999   1.103   2.908   0.753 -2.1746  2.3727 -1.2190
  535TMC3    H2 8000   0.841   2.585   0.840 -1.6575  0.4919 -2.9613
  535TMC3    C7 8001   1.011   2.666   0.673  0.5194  0.0744  0.3026
  535TMC3    C8 8002   0.772   2.652   1.077  0.2814 -0.1512  0.1509
  535TMC3    O1 8003   1.128   2.663   0.637 -0.0406  0.2237  0.1661
  535TMC3    O2 8004   0.698   2.590   1.009 -0.0873  0.0116 -0.2046
  536MPD2     C 8005   4.662   1.350  15.880  0.1412 -0.2581  0.2183
  536MPD2    C1 8006   4.562   1.403  15.957 -0.3571 -0.8637  0.6318
  536MPD2    C2 8007   4.459   1.468  15.894 -0.7905  0.3789 -1.1332
  536MPD2    C3 8008   4.462   1.490  15.752 -0.2086  0.0511  0.1191
  536MPD2    C4 8009   4.571   1.440  15.683 -0.2289 -0.2677  0.0375
  536MPD2    C5 8010   4.671   1.367  15.745  0.2345  0.3610  0.0941
  536MPD2     H 8011   4.377   1.502  15.956 -0.8434 -1.3175 -0.2528
  536MPD2    H1 8012   4.580   1.461  15.577 -1.0000  2.0006  0.4205
  536MPD2    H2 8013   0.003   1.302  15.936 -0.6657 -0.4362  1.2260
  536MPD2    H3 8014   0.013   1.327  15.685  1.2922 -0.7618  2.2816
  536MPD2     N 8015   4.368   1.559  15.684 -0.5772 -0.3207 -0.0519
  536MPD2    H5 8016   4.394   1.581  15.588  0.5261  0.2991  0.3904
  536MPD2    N1 8017   4.572   1.387  16.096  0.0091  0.0656 -0.2481
  536MPD2    H7 8018   4.647   1.328  16.131 -0.3356  0.0262  0.4091
  537TMC3    C1 8019   4.544   1.441  16.324 -0.3667 -0.0839 -1.0453
  537TMC3    C2 8020   4.573   1.545  16.404  0.1836 -0.2975  0.0684
  537TMC3    C3 8021   4.613   1.508  16.532  0.6186  0.1532  0.3603
  537TMC3    C4 8022   4.542   1.312  16.362 -0.8469 -0.6070 -0.1976
  537TMC3    C5 8023   4.585   1.279  16.489  0.0770  0.1088 -0.3791
  537TMC3    C6 8024   4.618   1.381  16.576  0.0413  0.5170 -0.0032
  537TMC3     C 8025   4.501   1.467  16.185 -1.0924  0.4957 -0.2778
  537TMC3     O 8026   4.440   1.572  16.168  0.2489 -0.0717  0.1529
  537TMC3     H 8027   4.568   1.641  16.354  0.5023 -0.5478 -0.4439
  537TMC3    H1 8028   4.512   1.231  16.297 -0.2878 -1.0290  0.0738
  537TMC3    H2 8029   4.634   1.348  16.678  3.0814 -0.0044 -0.6435
  537TMC3    C7 8030   4.490   1.194  16.554 -0.7151 -0.2507 -0.2560
  537TMC3    C8 8031   4.648   1.614  16.634  0.2737 -0.4950 -0.5924
  537TMC3    O1 8032   4.422   1.247  16.640  0.2615  0.0935 -0.1839
  537TMC3    O2 8033   4.684   1.571  16.741 -0.7121 -0.0713  0.2694
  538TMC3    C1 8034   0.708   0.613  11.203 -0.7610 -0.2012 -0.2855
  538TMC3    C2 8035   0.834   0.659  11.232  0.3931 -0.2070 -0.1598
  538TMC3    C3 8036   0.891   0.731  11.134  0.6175 -0.4117 -0.2692
  538TMC3    C4 8037   0.652   0.627  11.081 -0.3755 -0.1257 -0.2924
  538TMC3    C5 8038   0.720   0.701  10.984 -0.0188 -0.0479 -0.1665
  538TMC3    C6 8039   0.842   0.757  11.008 -0.3329 -0.0279  0.1935
  538TMC3     C 8040   0.609   0.590  11.312  0.5972 -0.1671  0.6053
  538TMC3     O 8041   0.490   0.602  11.282  0.0978  0.1303  0.3621
  538TMC3     H 8042   0.878   0.644  11.330 -0.7965 -2.3719  0.0340
  538TMC3    H1 8043   0.560   0.571  11.074  0.3101 -1.3395  0.3431
  538TMC3    H2 8044   0.885   0.818  10.930 -2.1409  1.2662  0.2327
  538TMC3    C7 8045   0.649   0.704  10.858 -0.4483 -0.0489  0.5387
  538TMC3    C8 8046   1.038   0.757  11.151 -0.3073 -0.3579  0.2360
  538TMC3    O1 8047   0.575   0.603  10.841  0.4867  0.0550  0.3957
  538TMC3    O2 8048   1.090   0.744  11.262  0.7072 -0.3277 -0.8092
  539MPD2     C 8049   0.344   4.580  11.993 -0.1595  0.3825 -0.5339
  539MPD2    C1 8050   0.372   4.580  11.856  0.1908  0.6938  0.4106
  539MPD2    C2 8051   0.300   4.672  11.781  0.1972 -0.6038 -0.2127
  539MPD2    C3 8052   0.214   0.027  11.838 -0.0301  0.4634 -0.5226
  539MPD2    C4 8053   0.196   0.027  11.971 -0.3026 -0.7137 -0.3037
  539MPD2    C5 8054   0.258   4.673  12.051  0.0508  0.1940 -0.0774
  539MPD2     H 8055   0.317   4.663  11.674 -1.2924  1.9418 -0.6619
  539MPD2    H1 8056   0.118   0.096  12.004  2.1447  1.3918  1.0520
  539MPD2    H2 8057   0.392   4.515  12.065 -1.7019  0.5882  0.6579
  539MPD2    H3 8058   0.258   4.679  12.159 -2.7238  0.9357 -0.1383
  539MPD2     N 8059   0.137   0.122  11.765  0.2012  0.0370 -0.3659
  539MPD2    H5 8060   0.092   0.189  11.826  2.1749  0.6129  0.4833
  539MPD2    N1 8061   0.465   4.503  11.789  0.3515  0.1822  0.0069
  539MPD2    H7 8062   0.486   4.525  11.692 -2.7454 -1.5203 -1.0614
  540TMC3    C1 8063   0.069   0.251  11.577  0.3060  0.6090  0.2052
  540TMC3    C2 8064   0.094   0.285  11.446 -0.2561  0.1301  0.1539
  540TMC3    C3 8065   0.084   0.418  11.415  0.2433 -0.3604  0.0963
  540TMC3    C4 8066   0.026   0.346  11.664 -0.1744  0.4067  0.3573
  540TMC3    C5 8067   0.034   0.483  11.633 -0.4127  0.0022  0.0763
  540TMC3    C6 8068   0.059   0.523  11.499  0.4143 -0.8434 -0.1325
  540TMC3     C 8069   0.120   0.127  11.625  0.6974 -0.0952 -0.7500
  540TMC3     O 8070   0.154   0.045  11.541 -0.2633  0.4642  0.3019
  540TMC3     H 8071   0.135   0.209  11.381  0.5104 -0.9098  1.8564
  540TMC3    H1 8072   4.732   0.319  11.764 -2.1567 -0.6555 -0.5893
  540TMC3    H2 8073   0.040   0.622  11.460  0.2010 -1.1038 -0.6897
  540TMC3    C7 8074   4.704   0.580  11.718 -0.2933  0.9837  0.3818
  540TMC3    C8 8075   0.119   0.458  11.284  0.1370  0.3810 -0.7863
  540TMC3    O1 8076   4.627   0.538  11.805  0.0106 -0.0687 -0.4389
  540TMC3    O2 8077   0.168   0.571  11.271  0.3786 -0.1864  0.1358
  541MPD2     C 8078   3.554   1.159  13.269  0.3829  0.2158 -0.2165
  541MPD2    C1 8079   3.574   1.052  13.188 -0.1820 -0.6672  0.0886
  541MPD2    C2 8080   3.534   1.060  13.048 -0.1248  0.0043  0.7347
  541MPD2    C3 8081   3.467   1.167  13.005  1.0673 -0.9254  0.3908
  541MPD2    C4 8082   3.441   1.274  13.086 -0.3219  0.2097  0.1499
  541MPD2    C5 8083   3.489   1.261  13.219 -0.9529  0.4692  0.2951
  541MPD2     H 8084   3.551   0.973  12.986 -0.9644  0.5053 -0.1999
  541MPD2    H1 8085   3.396   1.366  13.053 -1.2850  0.1264  1.2325
  541MPD2    H2 8086   3.583   1.153  13.374 -1.5040  0.5052  0.3154
  541MPD2    H3 8087   3.486   1.346  13.287  1.7269 -0.4455  1.5416
  541MPD2     N 8088   3.405   1.180  12.878 -0.3002 -0.1753 -0.4883
  541MPD2    H5 8089   3.355   1.266  12.859 -0.0634 -0.5137 -2.6565
  541MPD2    N1 8090   3.643   0.950  13.250  0.3265 -0.4478 -0.3495
  541MPD2    H7 8091   3.674   0.947  13.346  0.3261 -2.3731 -0.3995
  542TMC3    C1 8092   3.324   1.122  12.668 -0.4572 -0.1572  0.0742
  542TMC3    C2 8093   3.361   1.070  12.541  0.3714 -0.1057 -0.0021
  542TMC3    C3 8094   3.282   1.103  12.435 -0.4715  0.2156  0.9136
  542TMC3    C4 8095   3.206   1.184  12.689 -0.2735 -0.0150 -0.3141
  542TMC3    C5 8096   3.119   1.203  12.583  0.1336  0.3978 -0.6840
  542TMC3    C6 8097   3.164   1.171  12.459 -0.6127 -0.0417 -0.4936
  542TMC3     C 8098   3.410   1.087  12.780 -0.0335 -0.4661  0.4575
  542TMC3     O 8099   3.488   0.990  12.765  0.2514 -0.0126  0.3232
  542TMC3     H 8100   3.452   1.013  12.528 -0.0767 -1.0172  0.8426
  542TMC3    H1 8101   3.167   1.190  12.791 -1.9544 -1.1812 -0.8831
  542TMC3    H2 8102   3.091   1.195  12.382 -1.3011  2.7407  1.0441
  542TMC3    C7 8103   3.003   1.297  12.601  0.0636 -0.1663  0.3375
  542TMC3    C8 8104   3.337   1.102  12.303  0.6820  0.2076 -0.4374
  542TMC3    O1 8105   2.944   1.334  12.501  0.2690 -0.2234  0.2033
  542TMC3    O2 8106   3.256   1.110  12.214  0.4914  0.0155 -0.8243
  543TMC3    C1 8107   3.718   2.293  17.320  0.1047 -0.1015  0.4923
  543TMC3    C2 8108   3.766   2.179  17.370  0.1271 -0.3205 -1.0093
  543TMC3    C3 8109   3.719   2.137  17.495  0.9882 -0.2057  0.1522
  543TMC3    C4 8110   3.629   2.370  17.390 -0.8302  0.1840  0.0875
  543TMC3    C5 8111   3.593   2.335  17.517 -0.5989  0.4015  0.3129
  543TMC3    C6 8112   3.626   2.211  17.570 -0.2860 -0.2912 -0.4037
  543TMC3     C 8113   3.714   2.290  17.174  0.1670 -0.1973  0.0494
  543TMC3     O 8114   3.728   2.183  17.118  0.0897  0.1396 -0.3368
  543TMC3     H 8115   3.818   2.115  17.300 -1.2489  1.0122 -3.2389
  543TMC3    H1 8116   3.589   2.463  17.350  0.8656  0.7139 -0.3540
  543TMC3    H2 8117   3.582   2.174  17.662 -3.4375  2.3532 -0.8581
  543TMC3    C7 8118   3.509   2.413  17.608 -0.8053  0.5362  0.1402
  543TMC3    C8 8119   3.735   1.992  17.522  0.1343  0.0504 -0.7584
  543TMC3    O1 8120   3.510   2.380  17.723  0.3930 -0.0704  0.4853
  543TMC3    O2 8121   3.795   1.929  17.435 -0.3245 -0.5425  0.0714
  544MPD2     C 8122   3.585   1.545  17.732 -0.0679  0.1076 -0.3313
  544MPD2    C1 8123   3.669   1.573  17.630 -0.2214 -0.1811  0.7215
  544MPD2    C2 8124   3.703   1.701  17.594  0.5354  1.1834 -0.1239
  544MPD2    C3 8125   3.657   1.807  17.673 -0.3864  0.5801  0.2080
  544MPD2    C4 8126   3.576   1.777   0.027  0.3906 -0.3929  0.0218
  544MPD2    C5 8127   3.541   1.647   0.059 -0.4084 -0.1607 -0.2966
  544MPD2     H 8128   3.774   1.714  17.513 -1.1955  1.5055 -1.5939
  544MPD2    H1 8129   3.544   1.850   0.101  2.0842  1.7311 -1.3266
  544MPD2    H2 8130   3.547   1.444  17.742  1.6731 -0.3210  1.8475
  544MPD2    H3 8131   3.454   1.630   0.121 -0.4424  0.4518 -0.1807
  544MPD2     N 8132   3.675   1.947  17.642  0.0392 -0.3492  0.2128
  544MPD2    H5 8133   3.633   2.015  17.705  1.4274  1.7336 -1.1118
  544MPD2    N1 8134   3.697   1.463  17.546  0.0763 -0.7191  0.0948
  544MPD2    H7 8135   3.651   1.377  17.577 -1.6563  0.2309  0.1453
  545TMC3    C1 8136   3.740   1.351  17.336 -0.1468 -0.4286  0.1256
  545TMC3    C2 8137   3.781   1.365  17.208  0.2377 -0.8318 -0.2230
  545TMC3    C3 8138   3.719   1.296  17.107 -0.4868 -0.3115  0.2822
  545TMC3    C4 8139   3.645   1.261  17.371  0.0024 -0.1847 -0.9778
  545TMC3    C5 8140   3.585   1.186  17.267 -0.2157 -0.6574  0.8512
  545TMC3    C6 8141   3.621   1.204  17.138  0.1413 -0.0498 -0.5590
  545TMC3     C 8142   3.776   1.459  17.429 -0.7225 -0.1904 -0.9919
  545TMC3     O 8143   3.855   1.540  17.387 -0.2674  0.6643 -0.4036
  545TMC3     H 8144   3.857   1.437  17.179  0.6855 -1.9471 -1.7952
  545TMC3    H1 8145   3.612   1.232  17.470 -0.3091 -0.1988 -1.0843
  545TMC3    H2 8146   3.556   1.164  17.061 -0.9012 -1.1391  0.9102
  545TMC3    C7 8147   3.510   1.077  17.316 -0.4624  0.8400  0.2337
  545TMC3    C8 8148   3.756   1.322  16.968 -0.6100  0.3141 -0.0205
  545TMC3    O1 8149   3.448   1.082  17.424  0.5558  0.0674 -0.2906
  545TMC3    O2 8150   3.785   1.435  16.933  0.0545 -0.1267  0.0330
  546MPD2     C 8151   4.697   1.730  17.483  1.2818 -0.0791  0.3706
  546MPD2    C1 8152   4.665   1.783  17.366  0.2674 -0.0677  0.0971
  546MPD2    C2 8153   4.694   1.918  17.347  0.2620 -0.4532  0.7340
  546MPD2    C3 8154   0.024   1.990  17.451 -0.4483  0.8537  0.2611
  546MPD2    C4 8155   0.051   1.937  17.576  0.1826  0.5328 -0.1764
  546MPD2    C5 8156   0.014   1.811  17.592  0.5168  0.1748  0.3506
  546MPD2     H 8157   4.666   1.962  17.252  1.2762 -2.0081 -0.2836
  546MPD2    H1 8158   0.092   1.988  17.662  1.1768 -0.0894 -0.2716
  546MPD2    H2 8159   4.687   1.624  17.507 -0.4735 -0.7432 -3.3188
  546MPD2    H3 8160   0.027   1.770  17.691 -0.2933 -4.7178 -1.5429
  546MPD2     N 8161   0.061   2.122  17.437  0.4870  0.4311 -0.4162
  546MPD2    H5 8162   0.111   2.166  17.513  1.7629  0.0856 -1.0557
  546MPD2    N1 8163   4.617   1.692  17.271 -0.3843 -0.2266  0.0234
  546MPD2    H7 8164   4.626   1.595  17.298 -0.1836 -0.2146  0.0041
  547TMC3    C1 8165   4.509   1.625  17.072 -0.7750 -0.0848 -0.1893
  547TMC3    C2 8166   4.437   1.658  16.958 -0.1517 -0.1291 -0.2690
  547TMC3    C3 8167   4.404   1.559  16.872 -0.6800  0.9020  0.9301
  547TMC3    C4 8168   4.556   1.499  17.107  0.4006 -0.1935 -0.2605
  547TMC3    C5 8169   4.511   1.407  17.019 -0.4021 -0.5883 -0.4544
  547TMC3    C6 8170   4.442   1.431  16.900  0.5915 -0.0783 -1.1569
  547TMC3     C 8171   4.539   1.732  17.169 -0.3342  0.6068 -0.7151
  547TMC3     O 8172   4.502   1.844  17.142  0.4526  0.2927 -0.1250
  547TMC3     H 8173   4.405   1.761  16.951 -2.9376 -0.8434  1.6804
  547TMC3    H1 8174   4.605   1.460  17.195  1.7465 -0.4707 -1.1219
  547TMC3    H2 8175   4.385   1.355  16.847  2.6159 -1.6818 -1.0204
  547TMC3    C7 8176   4.493   1.276  17.084  0.0361  0.4591 -0.4976
  547TMC3    C8 8177   4.312   1.597  16.767  0.0138 -0.6846  0.0319
  547TMC3    O1 8178   4.520   1.268  17.203 -0.5002 -0.9167  0.6966
  547TMC3    O2 8179   4.281   1.717  16.759  0.3211 -0.0091  0.1460
  548MPD2     C 8180   4.146   3.121  12.796 -0.4651 -0.0453  0.4609
  548MPD2    C1 8181   4.092   3.000  12.772 -0.2676 -0.0448 -0.2012
  548MPD2    C2 8182   4.172   2.886  12.781  0.4868 -0.0123  0.8291
  548MPD2    C3 8183   4.307   2.896  12.812 -0.2935 -0.5656  0.8986
  548MPD2    C4 8184   4.355   3.024  12.833  0.2715 -0.3900 -0.6671
  548MPD2    C5 8185   4.278   3.137  12.831  0.0432  0.4853 -0.4539
  548MPD2     H 8186   4.130   2.787  12.766  1.2916  0.1659 -2.6669
  548MPD2    H1 8187   4.460   3.033  12.856  0.4539 -3.6552 -0.1741
  548MPD2    H2 8188   4.091   3.214  12.808 -1.0380 -0.2001 -1.0172
  548MPD2    H3 8189   4.311   3.236  12.861  0.8269 -0.2051  1.0123
  548MPD2     N 8190   4.385   2.777  12.799 -0.7674 -0.0539  0.5002
  548MPD2    H5 8191   4.329   2.698  12.768  1.9703 -2.2605  1.1806
  548MPD2    N1 8192   3.951   3.002  12.742  0.1291 -0.3149  0.0894
  548MPD2    H7 8193   3.911   3.095  12.737 -1.3594 -0.9369  0.1624
  549TMC3    C1 8194   3.735   2.923  12.702  0.2108  0.1161  0.2150
  549TMC3    C2 8195   3.712   3.031  12.622 -0.4465  0.1659  0.3869
  549TMC3    C3 8196   3.579   3.067  12.610  0.1214 -0.1262  0.2245
  549TMC3    C4 8197   3.633   2.836  12.745  0.5990  0.3713  0.5997
  549TMC3    C5 8198   3.502   2.872  12.708 -0.0541  0.0317  0.1904
  549TMC3    C6 8199   3.470   2.995  12.653  0.4851 -0.1042 -0.3005
  549TMC3     C 8200   3.871   2.893  12.735  0.2813 -0.1837  0.4785
  549TMC3     O 8201   3.900   2.776  12.768  0.1117 -0.1294 -0.3877
  549TMC3     H 8202   3.792   3.072  12.561 -1.3825  0.3484 -0.6993
  549TMC3    H1 8203   3.659   2.764  12.822 -1.6730 -0.6107  0.4387
  549TMC3    H2 8204   3.370   3.033  12.637  0.5491 -0.3227 -1.2031
  549TMC3    C7 8205   3.395   2.799  12.762  0.8446 -0.1258 -0.1208
  549TMC3    C8 8206   3.554   3.191  12.536 -0.7679 -0.1829 -0.0429
  549TMC3    O1 8207   3.289   2.861  12.786 -0.3506 -0.2304 -0.1052
  549TMC3    O2 8208   3.440   3.210  12.501  0.2077 -0.4413  0.1947
  550TMC3    C1 8209   2.679   1.174  12.564 -0.0847 -0.5817  0.0565
  550TMC3    C2 8210   2.592   1.213  12.664  0.1690  0.1232  0.8320
  550TMC3    C3 8211   2.518   1.330  12.642 -0.0326 -0.1593 -0.4349
  550TMC3    C4 8212   2.670   1.214  12.434 -0.8452 -0.1813 -0.9212
  550TMC3    C5 8213   2.598   1.327  12.421 -0.0455 -0.9109  0.3608
  550TMC3    C6 8214   2.518   1.382  12.516  0.3623  0.2675 -0.1066
  550TMC3     C 8215   2.759   1.051  12.599  0.1778  0.3828 -0.6779
  550TMC3     O 8216   2.743   0.999  12.710  0.4620  0.4701 -0.0601
  550TMC3     H 8217   2.599   1.181  12.767 -0.2710  1.6269  1.3194
  550TMC3    H1 8218   2.730   1.179  12.351  1.5855  0.4349  0.5717
  550TMC3    H2 8219   2.453   1.466  12.494  1.4916  1.2802  0.4322
  550TMC3    C7 8220   2.569   1.381  12.291 -0.8549  0.4798  0.5013
  550TMC3    C8 8221   2.417   1.376  12.740 -0.2137  0.0351  0.6625
  550TMC3    O1 8222   2.485   1.465  12.273  0.1334 -0.0195 -0.4200
  550TMC3    O2 8223   2.387   1.494  12.730 -0.4182  0.4759 -0.2354
  551TMC3    C1 8224   0.478   3.578  13.288 -0.3744  0.5693 -0.6495
  551TMC3    C2 8225   0.566   3.590  13.185  0.1634 -0.1136 -0.2136
  551TMC3    C3 8226   0.699   3.610  13.223  0.3632 -1.0574 -0.2890
  551TMC3    C4 8227   0.509   3.591  13.419 -0.3778 -0.1109 -0.5790
  551TMC3    C5 8228   0.637   3.617  13.452 -0.4063  0.6762 -0.5884
  551TMC3    C6 8229   0.736   3.624  13.353  0.0879  0.5600  0.2416
  551TMC3     C 8230   0.337   3.569  13.257  0.8412 -0.4599  0.1347
  551TMC3     O 8231   0.257   3.592  13.353  0.4410 -0.4420  0.2547
  551TMC3     H 8232   0.540   3.596  13.080  0.0018  1.9484 -0.0642
  551TMC3    H1 8233   0.436   3.581  13.499 -0.1652  1.1843 -0.2359
  551TMC3    H2 8234   0.843   3.629  13.369 -0.1703  0.2270  2.0451
  551TMC3    C7 8235   0.673   3.632  13.586 -0.0352  0.2638 -0.5697
  551TMC3    C8 8236   0.790   3.633  13.112 -0.3119 -0.0528 -0.4378
  551TMC3    O1 8237   0.612   3.573  13.677 -0.3183  0.2275  0.0069
  551TMC3    O2 8238   0.775   3.578  13.004 -0.1346  0.2858 -0.0362
  552MPD2     C 8239   2.683   0.965  14.162 -0.3117  0.5264  0.2335
  552MPD2    C1 8240   2.699   0.830  14.149 -0.4618 -0.6662  0.4888
  552MPD2    C2 8241   2.799   0.770  14.225  0.4420  0.2942 -0.2572
  552MPD2    C3 8242   2.888   0.843  14.291  1.3927  0.9303 -0.1998
  552MPD2    C4 8243   2.861   0.979  14.318 -0.0591  0.5314  0.4744
  552MPD2    C5 8244   2.755   1.037  14.254  0.1298 -0.6109  0.7227
  552MPD2     H 8245   2.805   0.662  14.228  0.1640  0.2813 -0.1294
  552MPD2    H1 8246   2.929   1.034  14.382  1.5104 -0.1420 -0.6326
  552MPD2    H2 8247   2.597   1.009  14.114  0.3566  2.2948  0.6801
  552MPD2    H3 8248   2.715   1.135  14.281  2.2105  0.7924 -1.3171
  552MPD2     N 8249   3.001   0.784  14.344 -0.4527  0.0306  0.2794
  552MPD2    H5 8250   3.061   0.849  14.394  0.6949 -1.0739  0.3357
  552MPD2    N1 8251   2.613   0.734  14.078  0.7226 -0.2719  0.1517
  552MPD2    H7 8252   2.654   0.644  14.059  0.9208  0.1077 -1.2244
  553TMC3    C1 8253   2.449   0.662  13.932 -0.4998  0.1453 -0.1745
  553TMC3    C2 8254   2.393   0.698  13.810 -1.2784  0.0407  0.6506
  553TMC3    C3 8255   2.365   0.599  13.721  0.0115 -0.1765 -0.0162
  553TMC3    C4 8256   2.494   0.538  13.961  0.6555 -0.2489  0.8365
  553TMC3    C5 8257   2.468   0.441  13.865  0.2359 -0.8656 -0.1142
  553TMC3    C6 8258   2.393   0.464  13.755 -0.6716 -0.0995 -0.1407
  553TMC3     C 8259   2.505   0.768  14.005 -0.1489 -0.5254 -0.1445
  553TMC3     O 8260   2.456   0.880  13.998  0.4085  0.7280 -0.2292
  553TMC3     H 8261   2.377   0.802  13.787  1.6870  0.2552 -0.4296
  553TMC3    H1 8262   2.546   0.513  14.053 -1.1096 -2.0714  1.3423
  553TMC3    H2 8263   2.376   0.382  13.685 -0.8839 -0.8740  0.8131
  553TMC3    C7 8264   2.511   0.305  13.891 -0.0348 -0.2436 -0.2951
  553TMC3    C8 8265   2.368   0.634  13.580  0.0280 -0.4660 -0.4853
  553TMC3    O1 8266   2.446   0.215  13.842  0.0440  0.5591 -0.6501
  553TMC3    O2 8267   2.417   0.743  13.555  0.1016  0.1911 -0.5829
  554TMC3    C1 8268   4.258   0.159  11.601  0.1557 -0.4908  0.3935
  554TMC3    C2 8269   4.177   0.057  11.560 -0.4836 -0.1116  0.1350
  554TMC3    C3 8270   4.109   0.069  11.445  0.6065  0.2004 -0.6017
  554TMC3    C4 8271   4.269   0.272  11.530 -0.4476  0.6397 -0.9076
  554TMC3    C5 8272   4.213   0.278  11.402 -0.2989 -0.0559 -0.6165
  554TMC3    C6 8273   4.133   0.173  11.360  0.1445  0.6474 -0.6735
  554TMC3     C 8274   4.344   0.147  11.725  0.4761 -0.1824 -0.1317
  554TMC3     O 8275   4.363   0.245  11.800  0.2095 -0.1558  0.1672
  554TMC3     H 8276   4.174   4.706  11.620 -1.4987  1.2261  2.0635
  554TMC3    H1 8277   4.334   0.354  11.561  0.4098 -0.1327 -0.6549
  554TMC3    H2 8278   4.100   0.173  11.257 -3.2000  0.3843  0.4240
  554TMC3    C7 8279   4.298   0.340  11.299  0.1178 -0.0804  0.1936
  554TMC3    C8 8280   4.087   4.697  11.369 -0.2898  0.2113 -0.2686
  554TMC3    O1 8281   4.277   0.306  11.179 -0.8604 -1.0847 -0.2607
  554TMC3    O2 8282   4.146   4.685  11.268  0.3007 -0.1323 -0.5195
  555TMC3    C1 8283   3.691   4.112  15.242 -0.4914  0.3655 -0.3405
  555TMC3    C2 8284   3.711   4.174  15.361 -0.1846 -0.7532 -0.4164
  555TMC3    C3 8285   3.713   4.089  15.474 -0.4745  0.8416 -0.2073
  555TMC3    C4 8286   3.684   3.980  15.226  0.3802  0.1428  1.0531
  555TMC3    C5 8287   3.703   3.900  15.337 -0.7675 -0.0855  0.3732
  555TMC3    C6 8288   3.717   3.951  15.467 -0.9783 -0.3871  0.6227
  555TMC3     C 8289   3.616   4.189  15.145 -0.0585  0.0440  0.6327
  555TMC3     O 8290   3.539   4.123  15.072  0.2680 -0.0744 -0.0589
  555TMC3     H 8291   3.696   4.281  15.372  0.6276 -0.3927 -2.6122
  555TMC3    H1 8292   3.660   3.943  15.127 -0.6116  0.5599  1.1450
  555TMC3    H2 8293   3.724   3.891  15.557 -1.3868 -0.7907  0.3820
  555TMC3    C7 8294   3.663   3.760  15.330  0.1121 -0.3802  0.4605
  555TMC3    C8 8295   3.743   4.159  15.593  0.5909 -0.2881  0.7002
  555TMC3    O1 8296   3.659   3.701  15.440 -0.7787 -0.3020 -0.8080
  555TMC3    O2 8297   3.695   4.270  15.610  0.3333  0.6687 -0.4767
  556MPD2     C 8298   1.200   1.386  11.037 -0.3177 -0.0164  0.5215
  556MPD2    C1 8299   1.273   1.272  11.047 -0.5869  0.6667  0.1389
  556MPD2    C2 8300   1.322   1.212  10.926  0.2970  0.6370 -0.4243
  556MPD2    C3 8301   1.281   1.250  10.807  0.1678 -0.1457 -0.4865
  556MPD2    C4 8302   1.202   1.364  10.798  0.9727  0.0577 -0.0619
  556MPD2    C5 8303   1.176   1.435  10.915 -0.1112  0.4240  0.1980
  556MPD2     H 8304   1.386   1.125  10.939 -1.0538 -0.0471  1.8057
  556MPD2    H1 8305   1.165   1.410  10.707 -1.7256 -0.5964  0.7221
  556MPD2    H2 8306   1.170   1.447  11.121  1.3895  1.5041  0.0216
  556MPD2    H3 8307   1.117   1.525  10.908  0.4179  0.7413 -0.1053
  556MPD2     N 8308   1.328   1.172  10.694  0.2297 -0.3594  0.1827
  556MPD2    H5 8309   1.366   1.083  10.723 -1.2809 -0.6011  1.4239
  556MPD2    N1 8310   1.322   1.221  11.171 -0.0202  0.4828  0.1306
  556MPD2    H7 8311   1.396   1.152  11.167 -0.3704  0.0836  0.5529
  557TMC3    C1 8312   1.380   1.111  10.479 -0.1432  0.2386 -0.1940
  557TMC3    C2 8313   1.297   1.081  10.377  0.4562  0.3006 -0.7014
  557TMC3    C3 8314   1.284   0.954  10.336  0.1608  0.2581 -0.7842
  557TMC3    C4 8315   1.433   1.007  10.544  0.3810  0.5920 -0.2142
  557TMC3    C5 8316   1.415   0.874  10.509 -0.5450  0.5885 -0.1769
  557TMC3    C6 8317   1.347   0.849  10.395  0.0270  0.3811  0.1793
  557TMC3     C 8318   1.319   1.213  10.566 -0.1568  0.4497  0.2358
  557TMC3     O 8319   1.256   1.305  10.519  0.1840 -0.1878 -0.1552
  557TMC3     H 8320   1.248   1.165  10.328 -0.5859  0.9166  1.3485
  557TMC3    H1 8321   1.512   1.034  10.614  2.2457 -2.1754 -1.2147
  557TMC3    H2 8322   1.319   0.747  10.370 -1.7490  1.5292 -2.4672
  557TMC3    C7 8323   1.412   0.783  10.619  0.7058 -0.2757 -0.1600
  557TMC3    C8 8324   1.223   0.945  10.203 -0.5575 -0.4420  0.0770
  557TMC3    O1 8325   1.336   0.689  10.614  0.1333  0.5205  0.0022
  557TMC3    O2 8326   1.142   1.032  10.172 -0.2958  0.0312 -0.1906
  558TMC3    C1 8327   4.137   3.626  10.799 -0.6794  0.1296 -0.2491
  558TMC3    C2 8328   4.009   3.636  10.853  0.0080  0.2140 -0.1208
  558TMC3    C3 8329   3.912   3.689  10.770 -0.9356 -0.6042 -0.2081
  558TMC3    C4 8330   4.170   3.667  10.672 -0.0091  0.2082 -0.1822
  558TMC3    C5 8331   4.066   3.713  10.596 -0.2444  0.3411  1.3891
  558TMC3    C6 8332   3.933   3.723  10.639 -0.0779 -0.2410  0.1504
  558TMC3     C 8333   4.235   3.575  10.892  0.0834 -0.2144  0.5050
  558TMC3     O 8334   4.349   3.607  10.869 -0.0340 -0.0973  0.2299
  558TMC3     H 8335   3.989   3.608  10.956  0.5066  1.0416  0.2111
  558TMC3    H1 8336   4.270   3.644  10.636 -0.0699 -2.8574  1.5813
  558TMC3    H2 8337   3.851   3.772  10.587 -0.6302 -1.3816 -0.0541
  558TMC3    C7 8338   4.108   3.761  10.462 -0.0101 -0.3312 -0.3488
  558TMC3    C8 8339   3.775   3.659  10.805  0.1212 -0.3764  0.1478
  558TMC3    O1 8340   4.226   3.768  10.431 -0.2171  0.0828  0.3555
  558TMC3    O2 8341   3.689   3.649  10.720 -0.0533 -0.0175  0.3003
  559MPD2     C 8342   3.997   4.058  10.608 -0.0676 -0.2627 -0.1665
  559MPD2    C1 8343   3.950   4.048  10.738  0.1863  0.7669 -0.3752
  559MPD2    C2 8344   4.035   4.039  10.845  0.0440  0.4451  0.6179
  559MPD2    C3 8345   4.176   4.037  10.828  0.1719 -0.0619  0.0492
  559MPD2    C4 8346   4.229   4.043  10.695 -0.5789 -0.9871 -0.2182
  559MPD2    C5 8347   4.133   4.061  10.592 -0.4660  0.0114 -0.2309
  559MPD2     H 8348   4.002   4.032  10.948  0.2121 -0.8881  0.5803
  559MPD2    H1 8349   4.333   4.040  10.663 -0.2027  1.3079  0.8236
  559MPD2    H2 8350   3.934   4.086  10.524 -0.9146 -0.1858  0.4840
  559MPD2    H3 8351   4.172   4.081  10.493 -2.2882 -1.4628 -1.2331
  559MPD2     N 8352   4.251   4.032  10.947 -0.3466 -0.7261 -0.6439
  559MPD2    H5 8353   4.197   4.022  11.032 -0.3959 -2.6397 -0.8998
  559MPD2    N1 8354   3.804   4.050  10.744 -0.4447 -0.3021 -0.3337
  559MPD2    H7 8355   3.755   4.052  10.655 -1.8101  1.0552  0.4589
  560TMC3    C1 8356   4.444   3.962  11.059  0.3626  0.3915 -0.0809
  560TMC3    C2 8357   4.361   3.879  11.131 -0.4612  0.1015  0.2990
  560TMC3    C3 8358   4.408   3.842  11.250 -0.4725  0.2765  0.3821
  560TMC3    C4 8359   4.566   4.004  11.089  0.1958  0.4212  0.7278
  560TMC3    C5 8360   4.610   3.955  11.210  0.6096  0.0837 -0.1265
  560TMC3    C6 8361   4.533   3.868  11.292 -0.6109  0.1599  0.2372
  560TMC3     C 8362   4.382   4.028  10.940 -0.0861  0.5595  0.1131
  560TMC3     O 8363   4.461   4.067  10.851  1.0539  0.2800  0.1649
  560TMC3     H 8364   4.271   3.835  11.089  0.5053 -0.5632 -1.0872
  560TMC3    H1 8365   4.633   4.064  11.028 -0.8953  0.5722 -0.3220
  560TMC3    H2 8366   4.567   3.846  11.393 -0.5840 -2.4247 -0.3339
  560TMC3    C7 8367   0.005   3.974  11.249 -0.3901  0.4745  0.0624
  560TMC3    C8 8368   4.332   3.751  11.328  0.9726  0.4002  0.6343
  560TMC3    O1 8369   0.052   3.891  11.324 -0.4091 -0.6970 -0.4124
  560TMC3    O2 8370   4.216   3.720  11.291  0.4707  0.4592  0.3630
  561TMC3    C1 8371   1.892   3.218  10.974  0.0619  0.7119  0.8618
  561TMC3    C2 8372   1.832   3.156  11.084 -0.6461  0.1970  0.8825
  561TMC3    C3 8373   1.833   3.204  11.211  0.3705 -0.5427 -0.1490
  561TMC3    C4 8374   1.958   3.341  11.002  0.0099  0.5881 -0.1228
  561TMC3    C5 8375   1.962   3.389  11.137  0.4592  0.0200  0.0489
  561TMC3    C6 8376   1.899   3.324  11.239 -0.1426 -0.3314  0.3812
  561TMC3     C 8377   1.854   3.177  10.843 -0.2059  0.3982 -0.1607
  561TMC3     O 8378   1.785   3.073  10.836 -0.4692 -0.1876 -0.3668
  561TMC3     H 8379   1.774   3.067  11.062 -3.1167  1.6189  1.5465
  561TMC3    H1 8380   2.000   3.398  10.920  1.7525  1.3163  1.2886
  561TMC3    H2 8381   1.901   3.362  11.341  0.6266 -0.8666  0.5688
  561TMC3    C7 8382   2.034   3.506  11.182  0.7281  0.3890  0.0280
  561TMC3    C8 8383   1.782   3.127  11.322  0.3084 -0.1317 -0.3687
  561TMC3    O1 8384   2.028   3.537  11.295 -0.0283  0.4242  0.3883
  561TMC3    O2 8385   1.765   3.008  11.300 -0.1384  0.9806 -0.2554
  562TMC3    C1 8386   3.615   4.032  16.198 -0.6169  0.0678 -0.5922
  562TMC3    C2 8387   3.566   4.150  16.152  0.7777  0.6061 -0.3971
  562TMC3    C3 8388   3.533   4.174  16.018 -0.3831 -0.2847  0.1488
  562TMC3    C4 8389   3.637   3.935  16.103  0.1988 -0.2192 -0.5666
  562TMC3    C5 8390   3.590   3.954  15.976 -0.3575 -0.1832  0.3892
  562TMC3    C6 8391   3.547   4.076  15.929  0.2349  0.0259  0.3552
  562TMC3     C 8392   3.667   4.017  16.336  0.1574 -0.2511  0.1017
  562TMC3     O 8393   3.744   3.923  16.358  0.4043  0.2894 -0.4084
  562TMC3     H 8394   3.548   4.230  16.223  0.8312  0.5883 -0.3639
  562TMC3    H1 8395   3.690   3.853  16.148 -0.2770  1.8435  3.7127
  562TMC3    H2 8396   3.544   4.096  15.822 -1.9386 -1.3739  0.1342
  562TMC3    C7 8397   3.605   3.842  15.880 -0.5462  0.2273 -0.6946
  562TMC3    C8 8398   3.476   4.301  15.975 -0.0025 -0.8050  0.7116
  562TMC3    O1 8399   3.604   3.872  15.763  0.0448 -0.4174  0.6335
  562TMC3    O2 8400   3.440   4.375  16.057  0.5274  0.9136 -0.4396
  563MPD2     C 8401   1.094   0.944  15.427 -0.3485  1.0775  0.2003
  563MPD2    C1 8402   1.124   0.936  15.557  1.0501 -0.0713  0.0014
  563MPD2    C2 8403   1.249   0.907  15.598 -0.4083  0.3721 -0.4125
  563MPD2    C3 8404   1.344   0.881  15.502  0.2256 -0.0657 -0.0349
  563MPD2    C4 8405   1.320   0.908  15.369  0.5029  0.2116 -0.0720
  563MPD2    C5 8406   1.194   0.933  15.331 -0.0121 -0.2360  0.1342
  563MPD2     H 8407   1.271   0.882  15.701 -1.6541  3.7903  0.6853
  563MPD2    H1 8408   1.381   0.881  15.283  1.1689 -0.5183  0.6194
  563MPD2    H2 8409   0.992   0.967  15.396 -0.9434 -3.0821 -1.0409
  563MPD2    H3 8410   1.156   0.943  15.230  2.5102 -1.4507 -0.9448
  563MPD2     N 8411   1.461   0.816  15.550 -0.3174  0.7550 -0.0470
  563MPD2    H5 8412   1.480   0.813  15.650 -0.4031 -0.1370 -0.0602
  563MPD2    N1 8413   1.013   0.943  15.651 -0.4601 -0.1940 -0.0615
  563MPD2    H7 8414   0.919   0.927  15.617  0.2811 -2.1532 -1.1698
  564TMC3    C1 8415   0.909   0.907  15.852 -0.4748  0.5353  0.3305
  564TMC3    C2 8416   0.840   0.817  15.778 -0.3794  0.2221  0.0494
  564TMC3    C3 8417   0.795   0.703  15.842  0.3924  0.4211  0.1759
  564TMC3    C4 8418   0.931   0.883  15.985 -0.2551 -0.1442 -0.4183
  564TMC3    C5 8419   0.884   0.766  16.046 -1.0356  0.0050 -0.5329
  564TMC3    C6 8420   0.825   0.677  15.969  0.2684 -0.0518 -0.0748
  564TMC3     C 8421   1.027   0.960  15.786  0.1206 -0.2866 -0.3035
  564TMC3     O 8422   1.127   0.986  15.856 -0.2664  0.2398  0.6833
  564TMC3     H 8423   0.822   0.817  15.671  0.5899 -2.7396 -0.1221
  564TMC3    H1 8424   0.985   0.964  16.033  2.0097 -1.5587 -0.5912
  564TMC3    H2 8425   0.800   0.584  16.019 -2.7908  1.4365  1.1857
  564TMC3    C7 8426   0.957   0.713  16.162 -0.4279 -0.0028  0.3075
  564TMC3    C8 8427   0.744   0.588  15.769 -0.2242  0.3718  0.7007
  564TMC3    O1 8428   0.956   0.591  16.176 -0.3259  0.3335 -0.5858
  564TMC3    O2 8429   0.716   0.491  15.838  0.7029  0.2954 -0.4545
  565TMC3    C1 8430   1.034   2.705   9.958 -0.2822  0.3383  0.3721
  565TMC3    C2 8431   1.005   2.628  10.065  0.4377  0.5229 -0.1427
  565TMC3    C3 8432   0.960   2.501  10.034 -0.2695 -0.1816 -0.0350
  565TMC3    C4 8433   1.018   2.668   9.828 -0.0638  0.3351  0.2553
  565TMC3    C5 8434   0.966   2.546   9.809 -0.0328 -0.2370  0.5098
  565TMC3    C6 8435   0.921   2.467   9.911  0.0384 -0.2844 -0.4199
  565TMC3     C 8436   1.088   2.835   9.974  0.3279 -0.9712 -0.0412
  565TMC3     O 8437   1.080   2.920   9.883 -0.0618  0.2257  0.4947
  565TMC3     H 8438   1.016   2.662  10.168  0.7676 -0.0083 -0.0014
  565TMC3    H1 8439   1.060   2.724   9.746  0.3712 -0.4779 -0.0778
  565TMC3    H2 8440   0.912   2.361   9.891 -0.1026 -1.2801  4.9449
  565TMC3    C7 8441   0.944   2.505   9.676  0.4912 -0.1707 -0.2655
  565TMC3    C8 8442   0.944   2.406  10.148  0.0667  0.1559 -0.0390
  565TMC3    O1 8443   1.011   2.557   9.588  0.0990 -0.1153  0.4624
  565TMC3    O2 8444   1.012   2.437  10.247  0.2223 -0.0811 -0.5476
  566MPD2     C 8445   2.498   4.158  14.327  0.1961  0.0278 -0.1930
  566MPD2    C1 8446   2.588   4.101  14.239  0.1150  0.8223 -0.6041
  566MPD2    C2 8447   2.547   4.007  14.151  0.6415 -0.0089  0.0084
  566MPD2    C3 8448   2.413   3.964  14.151  0.0113 -1.1181 -0.2276
  566MPD2    C4 8449   2.324   4.019  14.246  0.2153  0.1010 -0.1829
  566MPD2    C5 8450   2.373   4.106  14.334  0.8434  0.4168  0.1145
  566MPD2     H 8451   2.624   3.980  14.079  0.8832 -0.7951  0.5616
  566MPD2    H1 8452   2.224   3.977  14.249  0.5558 -0.5125  2.0149
  566MPD2    H2 8453   2.527   4.234  14.399 -0.6796  0.2911 -0.1297
  566MPD2    H3 8454   2.302   4.138  14.410  0.0060  0.0962 -0.5281
  566MPD2     N 8455   2.370   3.858  14.067 -0.2068 -0.2342 -0.7721
  566MPD2    H5 8456   2.271   3.838  14.056 -0.2146 -1.1801  1.1165
  566MPD2    N1 8457   2.728   4.130  14.245 -0.2891  0.0968  0.1507
  566MPD2    H7 8458   2.788   4.070  14.190  2.2153  2.3024  0.4554
  567TMC3    C1 8459   2.914   4.259  14.256  0.1337  0.4272 -0.0743
  567TMC3    C2 8460   2.916   4.279  14.123  0.2271  0.1049  0.6034
  567TMC3    C3 8461   3.034   4.296  14.055  0.3370 -0.2968 -0.0056
  567TMC3    C4 8462   3.024   4.249  14.332  0.2752 -0.1189  0.0073
  567TMC3    C5 8463   3.140   4.269  14.262 -0.6699 -0.1290  0.1581
  567TMC3    C6 8464   3.149   4.290  14.127 -0.0798  0.6233  0.6466
  567TMC3     C 8465   2.780   4.235  14.318  0.6150 -0.3698  0.1604
  567TMC3     O 8466   2.731   4.329  14.380 -1.0072  0.8518  0.4154
  567TMC3     H 8467   2.824   4.282  14.067  0.1110  1.8854  0.9008
  567TMC3    H1 8468   3.010   4.218  14.435  0.2020 -0.2071 -0.0294
  567TMC3    H2 8469   3.245   4.316  14.083 -0.9835 -1.0899 -2.3283
  567TMC3    C7 8470   3.270   4.232  14.323  0.5713  0.5313 -0.3211
  567TMC3    C8 8471   3.030   4.320  13.906 -0.4642  0.1380  0.5479
  567TMC3    O1 8472   3.371   4.282  14.279 -0.1890  0.5068 -0.6041
  567TMC3    O2 8473   2.918   4.295  13.861 -0.4076  0.1675  0.1640
  568MPD2     C 8474   0.597   3.985  15.655 -0.3868  0.2134  0.1906
  568MPD2    C1 8475   0.572   4.058  15.773  0.1227 -0.4667 -0.1144
  568MPD2    C2 8476   0.510   4.178  15.760  0.0357 -0.1327 -0.4024
  568MPD2    C3 8477   0.462   4.227  15.641 -0.9130 -0.2393  0.4954
  568MPD2    C4 8478   0.481   4.147  15.534 -0.1845  0.0657  0.1545
  568MPD2    C5 8479   0.552   4.029  15.537 -0.2060 -0.0915 -0.1918
  568MPD2     H 8480   0.499   4.236  15.850 -2.1541 -2.4607  0.8181
  568MPD2    H1 8481   0.436   4.169  15.438  1.1383 -0.3646 -0.5641
  568MPD2    H2 8482   0.651   3.891  15.654 -0.8698 -0.0694  0.5018
  568MPD2    H3 8483   0.570   3.976  15.444 -1.6422 -0.5055 -0.2323
  568MPD2     N 8484   0.398   4.357  15.637  0.1978  0.4197 -0.9471
  568MPD2    H5 8485   0.406   4.414  15.721 -1.2604 -0.8900  0.0768
  568MPD2    N1 8486   0.616   3.995  15.894 -0.3730 -0.0624 -0.2843
  568MPD2    H7 8487   0.672   3.911  15.880  0.0880 -0.0405  1.3417
  569TMC3    C1 8488   0.274   4.535  15.575  0.6541  0.0315  0.3079
  569TMC3    C2 8489   0.262   4.559  15.713  0.3220 -0.0894  0.0395
  569TMC3    C3 8490   0.284   4.687  15.759  0.0126 -0.3823  0.3742
  569TMC3    C4 8491   0.314   4.640  15.497  0.2890 -0.1731 -0.3927
  569TMC3    C5 8492   0.346   0.018  15.549 -0.8660 -0.2764  0.2201
  569TMC3    C6 8493   0.327   0.051  15.684  0.2246 -0.0506  0.1091
  569TMC3     C 8494   0.331   4.409  15.533  0.6889 -0.3542  0.2822
  569TMC3     O 8495   0.316   4.379  15.417  0.0302  0.2555  0.0614
  569TMC3     H 8496   0.240   4.480  15.784  2.4903 -1.9245 -1.3558
  569TMC3    H1 8497   0.316   4.630  15.389  2.7480 -0.1189 -0.3566
  569TMC3    H2 8498   0.346   0.145  15.735 -0.8603  0.9649 -1.3310
  569TMC3    C7 8499   0.413   0.111  15.464  0.0121  0.1337 -0.2628
  569TMC3    C8 8500   0.270   4.716  15.900  0.6757 -0.0327  0.6963
  569TMC3    O1 8501   0.358   0.121  15.355  0.0121  0.2063  0.1645
  569TMC3    O2 8502   0.175   4.670  15.961 -0.6133  0.5916  0.3091
  570TMC3    C1 8503   0.154   2.908  16.121 -0.3431 -0.3689  0.4830
  570TMC3    C2 8504   0.162   2.906  15.982  0.4973  0.2637 -0.3496
  570TMC3    C3 8505   0.166   3.029  15.920  0.2883  0.4722 -0.2145
  570TMC3    C4 8506   0.130   3.024  16.196 -0.7990 -0.5388 -0.1207
  570TMC3    C5 8507   0.136   3.142  16.129 -0.9084 -0.6714  0.1354
  570TMC3    C6 8508   0.148   3.143  15.992  0.5354 -0.1255  0.5431
  570TMC3     C 8509   0.161   2.782  16.191 -0.5664 -0.4729 -0.1685
  570TMC3     O 8510   0.190   2.684  16.120  0.6657  0.0598  0.0180
  570TMC3     H 8511   0.187   2.814  15.932  0.3241  0.6777 -1.1919
  570TMC3    H1 8512   0.121   3.029  16.304  0.1892  2.7806 -0.1954
  570TMC3    H2 8513   0.156   3.238  15.940 -0.2321 -0.2203  0.2556
  570TMC3    C7 8514   0.114   3.268  16.210  0.2264 -0.7068  0.0106
  570TMC3    C8 8515   0.194   3.054  15.771  0.7479  0.2554  0.2405
  570TMC3    O1 8516   0.094   3.258  16.329 -0.0769  0.7428  0.1935
  570TMC3    O2 8517   0.222   3.170  15.741 -0.0915 -0.1416  0.0142
  571MPD2     C 8518   2.674   4.123  17.554  0.6654 -0.6494  1.1941
  571MPD2    C1 8519   2.633   4.254  17.576 -0.6937 -0.8014  0.3347
  571MPD2    C2 8520   2.736   4.344  17.597  0.1911 -0.2823  0.5396
  571MPD2    C3 8521   2.871   4.308  17.596  0.0633 -0.1394  0.2589
  571MPD2    C4 8522   2.911   4.181  17.568 -0.4074 -0.0166 -0.3589
  571MPD2    C5 8523   2.805   4.093  17.553 -0.7239 -0.5024  0.5630
  571MPD2     H 8524   2.731   4.450  17.620  0.6704 -0.3204  0.8218
  571MPD2    H1 8525   3.017   4.156  17.562 -0.1303  0.9115  0.7430
  571MPD2    H2 8526   2.603   4.044  17.534  1.0948 -0.8850  0.5936
  571MPD2    H3 8527   2.828   3.988  17.538 -2.9392 -0.9350  0.0268
  571MPD2     N 8528   2.979   4.394  17.623  0.2107 -0.7572  0.4216
  571MPD2    H5 8529   3.068   4.346  17.616  0.7892  0.5563 -1.2849
  571MPD2    N1 8530   2.493   4.290  17.594 -1.0409 -0.7235  0.0398
  571MPD2    H7 8531   2.419   4.221  17.588 -1.5274 -0.2620  0.5772
  572TMC3    C1 8532   3.106   4.587  17.707  0.3390  0.3709 -0.0050
  572TMC3    C2 8533   3.168   4.517   0.051 -0.6255  0.2025 -0.0058
  572TMC3    C3 8534   3.232   4.585   0.157 -0.4396 -0.1022 -0.5998
  572TMC3    C4 8535   3.116   4.720  17.706  0.1197  0.3373  0.9151
  572TMC3    C5 8536   3.188   0.041   0.044  0.2220 -0.3799  0.1677
  572TMC3    C6 8537   3.257   4.723   0.147  0.0884 -0.6539 -0.7667
  572TMC3     C 8538   2.978   4.529  17.672 -0.0688  0.3727  0.0539
  572TMC3     O 8539   2.885   4.601  17.693 -0.1982  0.0360 -0.1507
  572TMC3     H 8540   3.144   4.413   0.073  0.3018 -0.0745 -0.2725
  572TMC3    H1 8541   3.056   0.028  17.629  0.0991 -1.2509 -0.0504
  572TMC3    H2 8542   3.314   0.055   0.205 -0.1010 -0.0193 -1.3414
  572TMC3    C7 8543   3.164   0.183   0.038  0.1846 -0.1751 -0.0340
  572TMC3    C8 8544   3.258   4.513   0.281 -0.1606  0.0316  0.3018
  572TMC3    O1 8545   3.053   0.216  17.752  0.1704 -0.3566  0.3941
  572TMC3    O2 8546   3.226   4.394   0.277 -0.3752 -0.3410 -0.3605
  573MPD2     C 8547   3.559   4.577  17.712  0.0561  0.2798  0.0955
  573MPD2    C1 8548   3.663   4.666  17.700 -0.3887  0.3313  0.0358
  573MPD2    C2 8549   3.694   4.715  17.577  0.6719  0.0175 -0.1110
  573MPD2    C3 8550   3.618   4.681  17.466  0.6292 -0.1382 -0.1770
  573MPD2    C4 8551   3.512   4.595  17.478 -0.1538 -0.7182  0.3473
  573MPD2    C5 8552   3.482   4.550  17.603 -0.7142  0.1313  0.5086
  573MPD2     H 8553   3.778   0.042  17.556  0.2917  0.4470 -0.2969
  573MPD2    H1 8554   3.448   4.576  17.392 -0.7282 -0.2777  0.6787
  573MPD2    H2 8555   3.528   4.544   0.056 -0.6885  1.5327  0.2776
  573MPD2    H3 8556   3.391   4.495  17.624 -0.5930 -0.5133 -0.6389
  573MPD2     N 8557   3.644   4.726  17.337  0.4033 -0.4609  0.0731
  573MPD2    H5 8558   3.590   4.690  17.260  0.8426  0.3121 -0.5966
  573MPD2    N1 8559   3.739   4.706   0.061  0.1929  0.4057 -0.4092
  573MPD2    H7 8560   3.713   4.668   0.151  0.9941 -0.9923 -0.7605
  574TMC3    C1 8561   3.724   0.127  17.162 -0.3418  0.4414 -0.3978
  574TMC3    C2 8562   3.597   0.177  17.147  0.1897  0.7943  0.6792
  574TMC3    C3 8563   3.583   0.288  17.066  0.8492  0.9719  0.1455
  574TMC3    C4 8564   3.828   0.189  17.107 -0.6992 -0.5755  0.2935
  574TMC3    C5 8565   3.813   0.295  17.031  0.3950  0.1777  0.1482
  574TMC3    C6 8566   3.693   0.351  17.009  0.1514 -0.0575  0.2503
  574TMC3     C 8567   3.744   0.075  17.296  0.1372  0.3980 -0.7509
  574TMC3     O 8568   3.851   0.104  17.349  0.3164 -0.6468  0.3764
  574TMC3     H 8569   3.509   0.130  17.189 -0.4512 -0.7208 -2.3020
  574TMC3    H1 8570   3.925   0.142  17.124 -1.3732 -1.7012  1.0356
  574TMC3    H2 8571   3.688   0.430  16.935  2.2329 -1.8782 -1.8409
  574TMC3    C7 8572   3.928   0.353  16.964  0.1529  0.0334 -0.0326
  574TMC3    C8 8573   3.479   0.376  17.108  0.0979 -0.7723  0.1648
  574TMC3    O1 8574   3.913   0.423  16.863 -0.3595 -0.2548  0.8834
  574TMC3    O2 8575   3.385   0.329  17.162  0.4676  0.6045  0.3297
  575TMC3    C1 8576   1.114   2.123  10.947 -0.5628 -0.1739 -0.0742
  575TMC3    C2 8577   1.051   2.010  11.004  0.1191  0.0142 -0.0139
  575TMC3    C3 8578   0.952   1.949  10.937 -0.4677 -0.2597 -0.9116
  575TMC3    C4 8579   1.084   2.162  10.820 -0.3971 -1.0016 -0.3708
  575TMC3    C5 8580   0.984   2.095  10.753  0.8736  0.3150  0.5743
  575TMC3    C6 8581   0.919   1.984  10.808  0.8763  0.2070  0.4949
  575TMC3     C 8582   1.225   2.187  11.022  0.0379 -0.0633  0.5341
  575TMC3     O 8583   1.316   2.244  10.957 -0.1214 -0.3146  0.3346
  575TMC3     H 8584   1.062   1.980  11.107 -0.7118  1.7878  0.5978
  575TMC3    H1 8585   1.146   2.239  10.776 -1.9300  0.8025  0.6091
  575TMC3    H2 8586   0.843   1.930  10.752 -1.5074  0.9358  2.9808
  575TMC3    C7 8587   0.948   2.139  10.620 -0.0933 -0.3660 -0.7492
  575TMC3    C8 8588   0.857   1.854  11.001  0.0085 -0.2230  0.3706
  575TMC3    O1 8589   1.034   2.199  10.556 -0.0140 -0.1089  0.0276
  575TMC3    O2 8590   0.773   1.811  10.925  0.3729 -0.5886  0.5046
  576MPD2     C 8591   0.971   3.416  12.487 -0.3042 -0.0032  0.1280
  576MPD2    C1 8592   1.042   3.533  12.476 -0.3688  0.1493  0.7568
  576MPD2    C2 8593   0.988   3.646  12.529  0.9140 -0.3115 -0.4276
  576MPD2    C3 8594   0.874   3.643  12.607 -0.1199 -0.3861  0.6578
  576MPD2    C4 8595   0.816   3.521  12.629 -0.7926 -0.1460  0.1275
  576MPD2    C5 8596   0.860   3.405  12.564  0.5191  0.2075 -0.0344
  576MPD2     H 8597   1.041   3.741  12.522 -0.6137  0.5247 -0.6409
  576MPD2    H1 8598   0.738   3.515  12.704 -1.8963  1.3152 -0.9140
  576MPD2    H2 8599   0.997   3.321  12.441  1.0109  0.3231  0.2060
  576MPD2    H3 8600   0.802   3.314  12.565  2.2420 -0.8581  1.6142
  576MPD2     N 8601   0.818   3.758  12.678 -0.3181  0.4377 -0.2022
  576MPD2    H5 8602   0.865   3.848  12.673  1.2544 -0.3628  0.0651
  576MPD2    N1 8603   1.153   3.538  12.393 -0.1002 -0.2950  0.4518
  576MPD2    H7 8604   1.180   3.633  12.370 -2.5795 -0.1113 -1.7072
  577TMC3    C1 8605   1.288   3.468  12.212 -0.3238  0.0075  0.0602
  577TMC3    C2 8606   1.371   3.362  12.160 -0.5480 -0.3825 -0.1668
  577TMC3    C3 8607   1.473   3.390  12.075  0.6678  0.1992 -0.2094
  577TMC3    C4 8608   1.303   3.595  12.160 -0.2812 -0.7767 -0.1083
  577TMC3    C5 8609   1.401   3.614  12.068 -0.5194  0.2554 -0.4507
  577TMC3    C6 8610   1.478   3.509  12.024  0.3036 -0.1291 -0.2639
  577TMC3     C 8611   1.208   3.430  12.324  0.1503 -0.0084  0.4234
  577TMC3     O 8612   1.191   3.308  12.342 -0.3803 -0.4800 -0.0158
  577TMC3     H 8613   1.359   3.264  12.206  2.0846 -0.4293  0.4434
  577TMC3    H1 8614   1.253   3.683  12.200 -0.4915  0.8899 -3.9592
  577TMC3    H2 8615   1.568   3.527  11.966 -0.3649  2.5726 -0.4409
  577TMC3    C7 8616   1.430   3.743  12.019  0.2578  0.5966  0.1090
  577TMC3    C8 8617   1.533   3.276  12.006  0.3344 -0.4502  0.3216
  577TMC3    O1 8618   1.531   3.748  11.953  0.3786  0.2875  0.5429
  577TMC3    O2 8619   1.544   3.177  12.077 -0.1180 -0.3789  0.5957
  578MPD2     C 8620   4.154   2.721   1.322 -0.0700 -0.0634 -0.1096
  578MPD2    C1 8621   4.174   2.646   1.205  0.0373  1.1622 -0.3062
  578MPD2    C2 8622   4.281   2.556   1.208  0.2122  0.4192  0.0042
  578MPD2    C3 8623   4.366   2.539   1.319  0.4332  0.8625 -0.0855
  578MPD2    C4 8624   4.337   2.610   1.432  0.0019  0.6391 -0.3540
  578MPD2    C5 8625   4.234   2.701   1.431  0.5228  0.2904  0.3489
  578MPD2     H 8626   4.307   2.496   1.121 -2.3795 -2.9000  1.4976
  578MPD2    H1 8627   4.404   2.601   1.517 -2.5211 -0.0682  1.5380
  578MPD2    H2 8628   4.064   2.782   1.316  0.3436  0.7416  1.7635
  578MPD2    H3 8629   4.211   2.742   1.529 -0.7129 -1.3902  0.7568
  578MPD2     N 8630   4.482   2.456   1.300 -0.6260  0.2499 -0.0298
  578MPD2    H5 8631   4.496   2.427   1.204 -0.4453 -0.6057  0.2488
  578MPD2    N1 8632   4.091   2.675   1.098  0.1326  0.0146 -0.1445
  578MPD2    H7 8633   4.027   2.754   1.107  1.4992  1.2967 -1.5403
  579TMC3    C1 8634   4.677   2.334   1.345  0.1008 -0.3467 -0.4784
  579TMC3    C2 8635   0.053   2.348   1.424  0.2206 -0.0161 -0.4889
  579TMC3    C3 8636   0.168   2.327   1.364  0.2126 -0.7178 -0.9759
  579TMC3    C4 8637   4.692   2.308   1.208  0.6130  0.0140  0.2228
  579TMC3    C5 8638   0.076   2.279   1.156 -0.6389  0.6158  0.2350
  579TMC3    C6 8639   0.192   2.288   1.232 -0.2793 -1.0686 -0.2601
  579TMC3     C 8640   4.566   2.414   1.397  0.5830 -0.2152 -0.6668
  579TMC3     O 8641   4.561   2.429   1.517  0.1808 -0.3410  0.2471
  579TMC3     H 8642   0.051   2.375   1.529 -1.1162 -1.9985  0.0138
  579TMC3    H1 8643   4.604   2.315   1.145 -0.1490 -0.5260  1.2153
  579TMC3    H2 8644   0.292   2.264   1.199 -0.1279 -0.4254 -0.2774
  579TMC3    C7 8645   0.089   2.214   1.033 -0.6409 -0.4701  0.2479
  579TMC3    C8 8646   0.281   2.389   1.436  0.1194  0.5989 -0.0531
  579TMC3    O1 8647   0.194   2.162   1.009 -0.1707 -0.1912  0.0329
  579TMC3    O2 8648   0.272   2.415   1.559  0.3732  0.1115  0.6617
  580TMC3    C1 8649   2.949   2.598  12.305  0.7854 -0.3207  0.5241
  580TMC3    C2 8650   2.981   2.704  12.390 -0.1003  0.2338 -0.1635
  580TMC3    C3 8651   3.087   2.688  12.469  0.5250 -0.0257 -0.4894
  580TMC3    C4 8652   3.012   2.478  12.323 -0.4995 -0.2518 -0.2490
  580TMC3    C5 8653   3.106   2.461  12.419  0.0754 -0.1801  0.0078
  580TMC3    C6 8654   3.143   2.569  12.493  0.2318 -0.3096 -0.1235
  580TMC3     C 8655   2.941   2.636  12.165 -0.3264  0.4246 -0.0793
  580TMC3     O 8656   3.027   2.587  12.089  0.4348  0.1770 -0.4811
  580TMC3     H 8657   2.927   2.797  12.381 -0.4302 -0.1276 -1.8816
  580TMC3    H1 8658   2.991   2.404  12.246  0.9549  0.8079 -1.6561
  580TMC3    H2 8659   3.208   2.561  12.579  1.1963 -0.6358 -0.8843
  580TMC3    C7 8660   3.174   2.338  12.445  1.0199  0.5851  0.4292
  580TMC3    C8 8661   3.179   2.789  12.455 -0.2265 -0.0999 -0.5056
  580TMC3    O1 8662   3.276   2.337  12.514  0.1447  0.3569  1.3105
  580TMC3    O2 8663   3.134   2.895  12.416 -0.3767  0.1307 -0.2490
  581MPD2     C 8664   2.055   2.071  14.681 -0.0067 -0.4764 -0.0071
  581MPD2    C1 8665   1.950   2.040  14.767  0.0473  0.2137  0.5343
  581MPD2    C2 8666   1.822   2.088  14.741  0.3060 -0.4330  0.1142
  581MPD2    C3 8667   1.804   2.182  14.636  0.4929  0.8038  0.1112
  581MPD2    C4 8668   1.908   2.214  14.558  0.0896  0.4491 -0.0752
  581MPD2    C5 8669   2.030   2.163  14.585 -0.0745  0.1598 -0.0871
  581MPD2     H 8670   1.737   2.081  14.807  0.2122 -0.0170  0.0400
  581MPD2    H1 8671   1.907   2.280  14.472 -1.9869  0.3509 -0.1146
  581MPD2    H2 8672   2.156   2.037  14.697 -0.3031 -0.1891  2.5263
  581MPD2    H3 8673   2.110   2.204  14.524 -0.1375  1.6847  0.8512
  581MPD2     N 8674   1.672   2.243  14.626 -0.7042 -0.1153  0.0008
  581MPD2    H5 8675   1.600   2.193  14.676 -0.2193 -2.1640 -1.3348
  581MPD2    N1 8676   1.974   1.957  14.883  0.1565  0.1760  0.3610
  581MPD2    H7 8677   2.073   1.937  14.896  0.3094  0.2656 -0.6783
  582TMC3    C1 8678   1.914   1.827  15.076 -0.0770  0.8363 -0.2785
  582TMC3    C2 8679   2.018   1.855  15.167 -0.3025  0.2855 -0.2919
  582TMC3    C3 8680   2.045   1.772  15.271  0.2172  0.0489 -0.3609
  582TMC3    C4 8681   1.822   1.733  15.117  0.3547 -0.9656  0.8928
  582TMC3    C5 8682   1.847   1.650  15.223 -0.7489 -0.4303  0.0311
  582TMC3    C6 8683   1.961   1.673  15.300 -0.6049 -0.6322 -0.0300
  582TMC3     C 8684   1.870   1.927  14.973  0.0416 -0.5309 -0.1232
  582TMC3     O 8685   1.746   1.938  14.977  0.3629  0.7808 -0.1641
  582TMC3     H 8686   2.084   1.939  15.152  0.6637 -0.4729 -0.2317
  582TMC3    H1 8687   1.729   1.721  15.063 -1.0053 -0.4320  3.1172
  582TMC3    H2 8688   1.966   1.619  15.394 -2.7966  1.1946  1.1490
  582TMC3    C7 8689   1.728   1.654  15.304  0.4733  0.2041  0.5267
  582TMC3    C8 8690   2.097   1.832  15.388 -0.2538 -0.1609 -0.6590
  582TMC3    O1 8691   1.663   1.553  15.333  0.1237 -0.1902  0.2409
  582TMC3    O2 8692   2.061   1.949  15.414 -0.1279 -0.7828  0.4498
  583MPD2     C 8693   1.712   4.212  16.061  0.8391  0.2926 -0.9448
  583MPD2    C1 8694   1.698   4.156  16.184  0.6823 -0.6088 -0.3641
  583MPD2    C2 8695   1.584   4.186  16.260  0.4473  0.4490 -0.6382
  583MPD2    C3 8696   1.486   4.265  16.215 -0.1159  1.2691 -0.3257
  583MPD2    C4 8697   1.496   4.306  16.084  0.7594  0.1793 -0.3438
  583MPD2    C5 8698   1.608   4.280  16.005  0.1357 -0.3479 -0.5555
  583MPD2     H 8699   1.577   4.147  16.361 -0.8350 -1.2920 -1.4095
  583MPD2    H1 8700   1.426   4.376  16.040  0.5738  0.0634 -0.2313
  583MPD2    H2 8701   1.795   4.186  15.996 -0.1427  1.4872 -2.6994
  583MPD2    H3 8702   1.626   4.331  15.911 -0.5651 -1.6182 -1.3819
  583MPD2     N 8703   1.383   4.317  16.309  0.3802 -0.3944  0.6643
  583MPD2    H5 8704   1.393   4.278  16.402  0.2218  0.5655  1.0891
  583MPD2    N1 8705   1.810   4.089  16.235 -0.8485 -0.0950 -0.0643
  583MPD2    H7 8706   1.892   4.091  16.176  0.1067 -0.5245  1.2426
  584TMC3    C1 8707   1.262   4.481  16.424  0.1164 -0.6151 -0.1417
  584TMC3    C2 8708   1.283   4.611  16.447 -0.3901 -0.9374  0.0928
  584TMC3    C3 8709   1.263   4.654  16.576  0.7544  0.5708 -0.6951
  584TMC3    C4 8710   1.240   4.392  16.524  0.7249  0.2441  0.3364
  584TMC3    C5 8711   1.234   4.441  16.653 -1.0104 -0.5097  1.1793
  584TMC3    C6 8712   1.249   4.572  16.682  0.1559  0.3661 -0.5916
  584TMC3     C 8713   1.299   4.427  16.293 -0.0892  0.5538  0.3261
  584TMC3     O 8714   1.267   4.491  16.193 -0.4771  0.3083  0.6659
  584TMC3     H 8715   1.303   4.684  16.370 -0.2244  1.1396  2.0930
  584TMC3    H1 8716   1.235   4.285  16.506 -0.1248  0.4432 -0.6882
  584TMC3    H2 8717   1.230   4.617  16.779 -0.8296  0.1674 -0.7015
  584TMC3    C7 8718   1.217   4.336  16.755  0.1387 -0.6191 -0.1535
  584TMC3    C8 8719   1.317   0.049  16.600 -0.4940 -0.6753  0.1417
  584TMC3    O1 8720   1.141   4.241  16.725  0.4929  0.2949  0.0100
  584TMC3    O2 8721   1.290   0.143  16.523  0.2745  0.6263  0.0820
  585MPD2     C 8722   1.482   2.577  17.365  0.1169  0.2987 -0.0783
  585MPD2    C1 8723   1.533   2.450  17.407  0.2632 -0.7052  0.3536
  585MPD2    C2 8724   1.547   2.352  17.310  0.3979  0.2740 -0.9436
  585MPD2    C3 8725   1.513   2.378  17.175 -0.1130 -0.1465 -0.0853
  585MPD2    C4 8726   1.465   2.503  17.144  0.3085  0.8389 -0.4269
  585MPD2    C5 8727   1.450   2.601  17.234  0.6494 -0.7289 -1.0316
  585MPD2     H 8728   1.579   2.252  17.335 -1.6861 -0.1805 -0.0818
  585MPD2    H1 8729   1.437   2.530  17.043 -3.1794  0.6318  0.4819
  585MPD2    H2 8730   1.463   2.662  17.430  1.1365 -0.0564  0.6954
  585MPD2    H3 8731   1.411   2.700  17.210  1.0441 -0.5463 -0.9308
  585MPD2     N 8732   1.505   2.282  17.072  0.1179  0.7991  0.4928
  585MPD2    H5 8733   1.474   2.313  16.981 -0.0438 -0.4757  0.1121
  585MPD2    N1 8734   1.545   2.434  17.542  0.3860 -0.9508 -0.1610
  585MPD2    H7 8735   1.507   2.506  17.603  1.8232  1.0434 -1.6294
  586TMC3    C1 8736   1.449   2.064  17.013 -0.4550  0.1928 -0.1267
  586TMC3    C2 8737   1.491   1.933  17.028 -0.0339  0.2461  0.4200
  586TMC3    C3 8738   1.393   1.837  17.031  0.0215 -0.4630 -0.8628
  586TMC3    C4 8739   1.317   2.094  16.995 -0.2591  0.9687  0.2985
  586TMC3    C5 8740   1.222   1.996  17.000  0.2996 -0.3914 -0.6283
  586TMC3    C6 8741   1.258   1.866  17.017  0.6380  0.4606  0.3141
  586TMC3     C 8742   1.532   2.149  17.088  0.0530 -0.2945  0.3681
  586TMC3     O 8743   1.596   2.092  17.174 -0.7747 -0.0140 -0.6728
  586TMC3     H 8744   1.592   1.899  17.047  0.8067  2.0435 -0.8048
  586TMC3    H1 8745   1.295   2.196  16.965 -1.5550  0.8812  0.9470
  586TMC3    H2 8746   1.180   1.792  17.028  1.4056 -0.5084 -0.6491
  586TMC3    C7 8747   1.083   2.026  17.022  0.0874 -0.5661  0.1459
  586TMC3    C8 8748   1.402   1.769  17.167 -0.1174  0.2389 -0.3250
  586TMC3    O1 8749   1.003   1.937  16.991  0.4811  0.2633 -0.0816
  586TMC3    O2 8750   1.326   1.681  17.197  0.5751  0.1928  0.7025
  587TMC3    C1 8751   3.253   1.561  16.115 -0.0329  0.0576 -0.1123
  587TMC3    C2 8752   3.285   1.641  16.223 -0.0545  0.4065  0.3996
  587TMC3    C3 8753   3.411   1.618  16.277 -0.6907  0.1064 -0.6186
  587TMC3    C4 8754   3.350   1.482  16.050 -0.6192 -0.0629  0.5277
  587TMC3    C5 8755   3.472   1.481  16.108  0.3189  0.4164  0.4203
  587TMC3    C6 8756   3.508   1.544  16.220 -0.7826 -0.0542  0.7677
  587TMC3     C 8757   3.117   1.549  16.063 -0.4295  0.3576 -0.8417
  587TMC3     O 8758   3.103   1.510  15.949 -0.2596 -0.5059 -0.1027
  587TMC3     H 8759   3.217   1.719  16.254  1.2873  1.7403 -0.0170
  587TMC3    H1 8760   3.326   1.421  15.964  0.9629 -0.0792  0.0980
  587TMC3    H2 8761   3.583   1.502  16.285 -2.3631 -1.1161  1.9124
  587TMC3    C7 8762   3.551   1.364  16.078 -0.8344 -0.4471 -1.0351
  587TMC3    C8 8763   3.442   1.688  16.394 -0.1581  0.0861 -0.1327
  587TMC3    O1 8764   3.479   1.267  16.043  0.6583 -0.6963  0.7035
  587TMC3    O2 8765   3.541   1.645  16.455  0.0855  0.1183 -0.6830
  588TMC3    C1 8766   0.656   4.524  10.120 -0.5542  0.1527  0.1541
  588TMC3    C2 8767   0.588   4.409  10.118 -0.2899  0.5777  0.4574
  588TMC3    C3 8768   0.603   4.319  10.221  0.9078  0.0547  1.1064
  588TMC3    C4 8769   0.747   4.548  10.220  0.3568  0.1421 -0.2485
  588TMC3    C5 8770   0.782   4.447  10.301  0.1380  0.6678 -0.1519
  588TMC3    C6 8771   0.705   4.333  10.315 -0.4523  0.1551  0.8185
  588TMC3     C 8772   0.618   4.637  10.044  1.2022 -0.3897 -1.0202
  588TMC3     O 8773   0.564   4.616   9.934  0.7444  0.3887  0.1706
  588TMC3     H 8774   0.525   4.393  10.032 -0.0722  2.3321 -0.0341
  588TMC3    H1 8775   0.817   4.627  10.194 -0.4322  1.7425  2.4965
  588TMC3    H2 8776   0.726   4.267  10.399 -3.6676 -1.2237  0.5206
  588TMC3    C7 8777   0.917   4.447  10.358 -0.5260 -0.2607 -0.5575
  588TMC3    C8 8778   0.532   4.192  10.204 -0.6364 -0.6045 -0.0515
  588TMC3    O1 8779   0.938   4.365  10.447 -0.1898  0.1078 -0.1010
  588TMC3    O2 8780   0.436   4.196  10.132 -0.6151 -0.6966 -0.3151
  589TMC3    C1 8781   4.242   0.798   0.994  0.2472 -0.3801 -0.0979
  589TMC3    C2 8782   4.308   0.799   1.111  0.0068 -0.0639  0.0843
  589TMC3    C3 8783   4.424   0.729   1.108 -0.9156  0.3540  0.1708
  589TMC3    C4 8784   4.280   0.745   0.872 -0.1133 -0.0486  0.0279
  589TMC3    C5 8785   4.392   0.671   0.874 -0.1688  0.6662 -0.1853
  589TMC3    C6 8786   4.469   0.671   0.987  0.1938  0.5407  0.5581
  589TMC3     C 8787   4.132   0.891   0.974  0.4832 -0.4454  0.2796
  589TMC3     O 8788   4.124   0.930   0.860 -0.0488  0.4711 -0.2922
  589TMC3     H 8789   4.288   0.862   1.197 -1.3395 -0.4723  0.0681
  589TMC3    H1 8790   4.204   0.725   0.797 -0.0319  2.2500 -0.6435
  589TMC3    H2 8791   4.572   0.636   0.978 -0.0026 -0.2487  1.3468
  589TMC3    C7 8792   4.424   0.597   0.755 -0.6470 -0.3755  0.1398
  589TMC3    C8 8793   4.506   0.736   1.229 -0.0271  0.1997 -0.0107
  589TMC3    O1 8794   4.364   0.618   0.652 -0.2787 -0.1895 -0.1731
  589TMC3    O2 8795   4.491   0.828   1.309  0.0953  0.1124 -0.1006
  590MPD2     C 8796   3.691   4.513  16.400  0.5360  0.1909 -0.5017
  590MPD2    C1 8797   3.645   4.590  16.293  0.0079 -0.7021  0.6784
  590MPD2    C2 8798   3.729   4.618  16.184 -0.1410 -0.2544  0.1425
  590MPD2    C3 8799   3.856   4.559  16.177  0.2612 -0.7652 -0.3815
  590MPD2    C4 8800   3.904   4.480  16.281 -0.0440  0.8091 -0.1124
  590MPD2    C5 8801   3.818   4.461  16.389 -0.3451 -0.8385 -0.0966
  590MPD2     H 8802   3.699   4.682  16.102 -1.5354  1.2387  1.8042
  590MPD2    H1 8803   4.005   4.443  16.293 -0.9148 -2.1855 -2.0646
  590MPD2    H2 8804   3.631   4.507  16.490  2.0737  0.7742  0.5504
  590MPD2    H3 8805   3.866   4.400  16.465 -1.0491 -1.3165 -0.0310
  590MPD2     N 8806   3.933   4.585  16.055  0.2280  0.2275  0.5772
  590MPD2    H5 8807   3.898   4.658  15.994 -0.8257 -0.8024 -0.0330
  590MPD2    N1 8808   3.515   4.636  16.302  0.0174  0.0921  0.7575
  590MPD2    H7 8809   3.464   4.618  16.388  3.1143 -1.9698  2.1579
  591TMC3    C1 8810   4.115   4.591  15.903 -0.2218  0.3459  0.5786
  591TMC3    C2 8811   4.245   4.565  15.872  0.2786 -0.1819  0.1836
  591TMC3    C3 8812   4.301   4.642  15.773 -0.0434 -0.6489 -0.3181
  591TMC3    C4 8813   4.044   4.690  15.842 -0.4540  0.0504  0.9105
  591TMC3    C5 8814   4.108   0.021  15.747 -0.8691  0.5867 -0.1010
  591TMC3    C6 8815   4.237   0.004  15.711  0.9241  0.0654 -0.0059
  591TMC3     C 8816   4.054   4.533  16.016 -0.0052 -0.5397 -0.3798
  591TMC3     O 8817   4.121   4.452  16.074 -0.2899 -0.0930 -0.2218
  591TMC3     H 8818   4.304   4.486  15.916 -1.2165 -0.8850  0.9229
  591TMC3    H1 8819   3.943   4.722  15.866 -0.5764  0.0552  0.3861
  591TMC3    H2 8820   4.282   0.044  15.621  0.8489  0.5096  0.1533
  591TMC3    C7 8821   4.017   0.098  15.661 -0.5929 -0.2024 -0.2321
  591TMC3    C8 8822   4.429   4.595  15.732  0.8476 -0.2557  0.0524
  591TMC3    O1 8823   3.894   0.088  15.680  0.7294 -0.1865  0.0077
  591TMC3    O2 8824   4.432   4.473  15.723 -0.3323  0.3169 -0.6377
  592MPD2     C 8825   4.384   2.188  11.585 -0.6971  0.8090  0.2123
  592MPD2    C1 8826   4.388   2.228  11.717  1.0774  0.0032 -0.1322
  592MPD2    C2 8827   4.292   2.183  11.807  0.7271 -0.5160 -0.8232
  592MPD2    C3 8828   4.208   2.084  11.766 -0.8343  0.1347 -0.9911
  592MPD2    C4 8829   4.209   2.045  11.635  0.3581  0.0604 -0.3730
  592MPD2    C5 8830   4.297   2.096  11.541 -0.6981  0.4290  0.3277
  592MPD2     H 8831   4.283   2.218  11.909  0.5232 -0.0209 -1.0085
  592MPD2    H1 8832   4.154   1.956  11.604  0.1486  0.2138 -0.4413
  592MPD2    H2 8833   4.438   2.237  11.506  1.2181 -0.3926  0.7735
  592MPD2    H3 8834   4.298   2.077  11.434 -1.0415  3.2660 -0.1779
  592MPD2     N 8835   4.143   2.013  11.875  0.1161  0.0074  0.6075
  592MPD2    H5 8836   4.151   2.055  11.967  0.9160 -0.3760  0.7155
  592MPD2    N1 8837   4.494   2.316  11.751 -0.5443 -0.1112  0.4728
  592MPD2    H7 8838   4.548   2.338  11.668 -1.3083 -2.5790 -0.6572
  593TMC3    C1 8839   4.619   2.466  11.894 -0.1738  0.0797  0.1245
  593TMC3    C2 8840   4.629   2.514  12.019 -0.8166 -0.5012 -0.3789
  593TMC3    C3 8841   0.003   2.575  12.048 -0.0028 -0.3078  0.8841
  593TMC3    C4 8842   4.704   2.499  11.787 -0.2463  0.1190  0.0841
  593TMC3    C5 8843   0.070   2.579  11.818 -0.1089 -0.2188 -1.0676
  593TMC3    C6 8844   0.085   2.613  11.948 -0.2395  0.4376 -0.3970
  593TMC3     C 8845   4.514   2.368  11.876 -0.1981 -0.1295  0.2240
  593TMC3     O 8846   4.460   2.335  11.980  0.1112 -0.0687  0.2931
  593TMC3     H 8847   4.549   2.497  12.090 -0.9410  0.6557 -0.2402
  593TMC3    H1 8848   4.692   2.462  11.686 -0.0665 -1.1916  0.5423
  593TMC3    H2 8849   0.175   2.668  11.975 -0.3097 -0.0336  0.8102
  593TMC3    C7 8850   0.186   2.601  11.727 -0.0577 -0.1003  0.2356
  593TMC3    C8 8851   4.731   2.661  12.168 -0.1325 -0.4563  0.1220
  593TMC3    O1 8852   0.287   2.649  11.771 -0.1118  0.2322  0.4069
  593TMC3    O2 8853   4.625   2.656  12.225  0.2548  0.5175 -0.2609
  594MPD2     C 8854   3.829   0.841  14.247  0.0091  0.0049  0.2834
  594MPD2    C1 8855   3.704   0.896  14.273 -0.1765 -0.5747  0.2087
  594MPD2    C2 8856   3.693   1.033  14.253 -0.1175  0.1863 -0.5844
  594MPD2    C3 8857   3.787   1.109  14.184 -0.3247  0.1481 -0.1393
  594MPD2    C4 8858   3.897   1.042  14.135  0.3861 -0.4257 -0.6682
  594MPD2    C5 8859   3.921   0.912  14.177 -0.1028 -1.3302  0.3864
  594MPD2     H 8860   3.606   1.088  14.288  0.0345  0.2848 -0.3588
  594MPD2    H1 8861   3.985   1.083  14.086  1.2415  1.7568  2.7600
  594MPD2    H2 8862   3.844   0.733  14.250 -3.4357 -0.4756 -0.3638
  594MPD2    H3 8863   4.008   0.858  14.141  0.9985 -0.1791  1.3346
  594MPD2     N 8864   3.770   1.256  14.175  0.9202 -0.4047 -0.2344
  594MPD2    H5 8865   3.697   1.295  14.233  2.0390  0.5612  0.5400
  594MPD2    N1 8866   3.610   0.806  14.322  0.3289 -0.6939  0.6253
  594MPD2    H7 8867   3.628   0.711  14.353  0.3718 -0.8482  0.1416
  595TMC3    C1 8868   4.080   1.597  14.206 -0.4534 -0.0037 -0.5300
  595TMC3    C2 8869   4.039   1.478  14.161  0.5178  0.0388 -0.2092
  595TMC3    C3 8870   3.906   1.457  14.157  1.0206  0.5254 -0.1125
  595TMC3    C4 8871   4.001   1.702  14.244 -0.4748 -0.2252  0.5859
  595TMC3    C5 8872   3.864   1.677  14.217  0.3921  0.1780  0.0816
  595TMC3    C6 8873   3.817   1.555  14.173 -0.1440  0.1729 -0.0112
  595TMC3     C 8874   4.227   1.618  14.234 -0.2547  0.6091  0.0509
  595TMC3     O 8875   4.258   1.715  14.303  0.6328  0.0608  0.5110
  595TMC3     H 8876   4.107   1.393  14.169 -1.4467 -1.7496 -2.5689
  595TMC3    H1 8877   4.031   1.795  14.291  0.7931  0.9191 -2.4803
  595TMC3    H2 8878   3.711   1.533  14.166 -0.3608  1.1745 -0.0008
  595TMC3    C7 8879   3.774   1.775  14.276  0.1297 -0.2037  0.3300
  595TMC3    C8 8880   3.869   1.327  14.107  0.2439  0.4107  0.1618
  595TMC3    O1 8881   3.660   1.745  14.288  0.0934  0.1248  0.2467
  595TMC3    O2 8882   3.930   1.298  14.008  0.4490 -0.5542 -0.5170
  596MPD2     C 8883   2.937   3.976  16.701 -0.1965 -0.0127 -0.0762
  596MPD2    C1 8884   2.805   3.926  16.709  0.8330  0.5007 -0.1264
  596MPD2    C2 8885   2.749   3.874  16.594 -0.2344 -0.1841  0.1013
  596MPD2    C3 8886   2.819   3.865  16.474  0.0100 -0.0915 -0.4053
  596MPD2    C4 8887   2.949   3.917  16.469  0.1640 -0.6591  0.2565
  596MPD2    C5 8888   3.004   3.978  16.578 -0.2771  0.6233 -0.5038
  596MPD2     H 8889   2.647   3.839  16.602 -0.2075 -0.0963  0.8224
  596MPD2    H1 8890   2.994   3.908  16.370  0.4470 -0.9714  0.4143
  596MPD2    H2 8891   2.987   4.016  16.788 -3.0985 -1.3788  2.2150
  596MPD2    H3 8892   3.108   4.008  16.591 -0.3258  0.2473  0.7459
  596MPD2     N 8893   2.757   3.821  16.360 -0.0273  0.1252  0.4965
  596MPD2    H5 8894   2.805   3.832  16.272  1.1475 -1.1991  0.9728
  596MPD2    N1 8895   2.730   3.921  16.827 -0.7122  0.4621 -0.4324
  596MPD2    H7 8896   2.636   3.881  16.820 -0.5353  0.3818 -2.5893
  597TMC3    C1 8897   2.669   3.940  17.038 -0.5837  0.1612 -0.4481
  597TMC3    C2 8898   2.717   3.890  17.151  0.1359 -0.2299  0.5902
  597TMC3    C3 8899   2.628   3.885  17.256 -0.8191 -0.2659  0.5425
  597TMC3    C4 8900   2.557   4.013  17.022 -0.3075 -0.3491  0.7226
  597TMC3    C5 8901   2.482   4.034  17.135 -0.0181  0.3076  0.0654
  597TMC3    C6 8902   2.517   3.968  17.255  0.2533  0.5052 -0.5707
  597TMC3     C 8903   2.772   3.962  16.948  0.1230  0.0893 -0.0062
  597TMC3     O 8904   2.890   3.982  16.983  0.2732 -0.0693 -0.0961
  597TMC3     H 8905   2.795   3.815  17.146 -0.8827 -1.2508  0.0300
  597TMC3    H1 8906   2.538   4.066  16.930 -2.3581 -2.4989 -0.0789
  597TMC3    H2 8907   2.450   3.969  17.340 -0.6031 -0.2685 -1.2427
  597TMC3    C7 8908   2.351   4.097  17.129 -0.1434  0.3785 -0.1425
  597TMC3    C8 8909   2.652   3.794  17.366  0.5332  0.1274 -0.0980
  597TMC3    O1 8910   2.275   4.070  17.221 -0.7229  0.4107 -0.7274
  597TMC3    O2 8911   2.763   3.750  17.369 -0.2679  0.7442  0.5719
  598TMC3    C1 8912   0.966   0.439  15.287 -0.1796 -0.5772  0.6243
  598TMC3    C2 8913   0.887   0.326  15.291 -0.0861  0.0725  0.4814
  598TMC3    C3 8914   0.851   0.278  15.167  0.8707 -0.1889 -0.1183
  598TMC3    C4 8915   0.988   0.513  15.172 -0.2980 -0.3041 -1.2290
  598TMC3    C5 8916   0.932   0.468  15.055 -0.5251 -0.5489  0.6594
  598TMC3    C6 8917   0.862   0.353  15.052  0.9944  0.5044 -0.8003
  598TMC3     C 8918   1.002   0.503  15.410 -0.2406  0.3728  0.1580
  598TMC3     O 8919   1.008   0.627  15.410  0.4538  0.1170 -0.2193
  598TMC3     H 8920   0.867   0.282  15.388 -1.9056  1.3757  0.7054
  598TMC3    H1 8921   1.053   0.600  15.173 -0.4664 -0.2022  1.6040
  598TMC3    H2 8922   0.836   0.316  14.953 -1.1481 -1.2007  0.4216
  598TMC3    C7 8923   0.945   0.539  14.931 -0.5182  0.1846  0.3000
  598TMC3    C8 8924   0.762   0.154  15.158 -0.3352  0.0174 -1.1781
  598TMC3    O1 8925   0.934   0.470  14.827 -0.3808  0.5520  0.1607
  598TMC3    O2 8926   0.695   0.135  15.055  0.3789  0.1840 -0.0231
  599MPD2     C 8927   0.770   2.335  15.627  0.8051 -0.2120 -0.0518
  599MPD2    C1 8928   0.856   2.388  15.727  0.0406 -0.3230 -0.8390
  599MPD2    C2 8929   0.801   2.458  15.833  0.5018 -0.3889 -0.4143
  599MPD2    C3 8930   0.665   2.462  15.856  0.1913 -0.0165  0.4464
  599MPD2    C4 8931   0.585   2.388  15.769 -0.8204  0.1753 -0.4210
  599MPD2    C5 8932   0.634   2.340  15.651 -0.0237  0.8973  0.3807
  599MPD2     H 8933   0.857   2.509  15.910 -2.5865  2.0930  0.2102
  599MPD2    H1 8934   0.480   2.374  15.791 -1.7041  5.0426 -1.4220
  599MPD2    H2 8935   0.803   2.291  15.533 -0.0921 -0.9403 -0.0176
  599MPD2    H3 8936   0.563   2.294  15.584 -0.2452 -1.1568  2.0292
  599MPD2     N 8937   0.604   2.539  15.957 -0.1602  0.3669  0.0419
  599MPD2    H5 8938   0.503   2.553  15.951 -0.0016  1.9877  1.0363
  599MPD2    N1 8939   0.989   2.353  15.718  0.0967 -0.2657  0.0145
  599MPD2    H7 8940   1.004   2.290  15.639  0.3465  2.4565 -2.1358
  600TMC3    C1 8941   0.580   2.681  16.139  0.3412  0.2291 -0.7567
  600TMC3    C2 8942   0.511   2.589  16.217 -0.4083  0.1747 -0.0352
  600TMC3    C3 8943   0.461   2.625  16.341  0.2472 -0.1031  1.0633
  600TMC3    C4 8944   0.609   2.801  16.205  0.2361 -0.4619  0.0284
  600TMC3    C5 8945   0.552   2.833  16.329 -0.2740  0.3604  0.1174
  600TMC3    C6 8946   0.474   2.748  16.396 -0.4690 -0.3374  0.3770
  600TMC3     C 8947   0.664   2.625  16.036 -0.6149 -0.3074  0.2328
  600TMC3     O 8948   0.778   2.667  16.048 -0.2124 -0.3159  0.2872
  600TMC3     H 8949   0.498   2.485  16.192  0.1093  0.6529 -2.3603
  600TMC3    H1 8950   0.666   2.880  16.158 -0.6322 -0.6613 -1.3571
  600TMC3    H2 8951   0.426   2.774  16.490 -0.4515 -1.9054  0.8199
  600TMC3    C7 8952   0.539   2.965  16.372 -0.2848  0.2387  0.4080
  600TMC3    C8 8953   0.457   2.528  16.448 -0.2560 -0.4741 -0.2008
  600TMC3    O1 8954   0.430   2.994  16.422 -0.0480  0.4308 -0.0799
  600TMC3    O2 8955   0.512   2.562  16.553  0.4731  0.0043  0.0365
  601MPD2     C 8956   3.297   0.672   0.115  0.4224 -0.2825  0.5810
  601MPD2    C1 8957   3.169   0.622   0.092 -0.1796  0.9074 -0.8713
  601MPD2    C2 8958   3.158   0.485   0.075 -0.6940 -0.2165 -0.0189
  601MPD2    C3 8959   3.270   0.402   0.080 -0.1943  0.2671  0.5645
  601MPD2    C4 8960   3.398   0.466   0.089  0.0986  0.7030  0.7185
  601MPD2    C5 8961   3.407   0.600   0.100 -0.1770 -0.8881 -0.1461
  601MPD2     H 8962   3.059   0.449   0.050 -0.8758  1.4727 -1.7260
  601MPD2    H1 8963   3.495   0.418   0.097 -0.2600  0.3283  3.0073
  601MPD2    H2 8964   3.300   0.780   0.126  2.0884  0.0883 -3.3067
  601MPD2    H3 8965   3.505   0.643   0.113 -0.4091 -0.4763  0.2438
  601MPD2     N 8966   3.273   0.262   0.069  0.1747  0.2823  0.2886
  601MPD2    H5 8967   3.369   0.230   0.071  1.4959  3.9785 -2.7436
  601MPD2    N1 8968   3.053   0.707   0.097 -0.6556 -0.2395  0.5147
  601MPD2    H7 8969   3.067   0.802   0.129 -2.9684  1.3812 -3.1665
  602TMC3    C1 8970   2.841   0.787   0.052  0.3869  0.1780  0.0547
  602TMC3    C2 8971   2.899   0.889  17.744 -0.2984  0.0471  0.5057
  602TMC3    C3 8972   2.815   0.987  17.703  0.3548  0.3873 -0.2975
  602TMC3    C4 8973   2.700   0.761   0.049  0.1062 -0.1951 -0.0635
  602TMC3    C5 8974   2.616   0.860   0.003 -0.1443  0.1485  0.5085
  602TMC3    C6 8975   2.679   0.975  17.711  0.5472 -0.6150  0.5726
  602TMC3     C 8976   2.917   0.670   0.081 -0.1528  0.3957  0.3467
  602TMC3     O 8977   2.859   0.569   0.126  0.5038  0.1133  0.0781
  602TMC3     H 8978   3.005   0.915  17.751 -0.7607  1.7453  1.1752
  602TMC3    H1 8979   2.665   0.668   0.093 -0.7305  0.5376  0.8440
  602TMC3    H2 8980   2.619   1.065  17.719  1.5227  0.1929 -1.1100
  602TMC3    C7 8981   2.483   0.841  17.717  0.0567  0.0207  0.7132
  602TMC3    C8 8982   2.877   1.097  17.631 -0.3325  0.7199 -0.0579
  602TMC3    O1 8983   2.425   0.742   0.003 -0.0421 -0.9426  0.5146
  602TMC3    O2 8984   2.997   1.120  17.648  0.1571 -0.1563  0.7929
  603TMC3    C1 8985   0.269   1.966  11.399  0.5122 -0.5087 -0.6660
  603TMC3    C2 8986   0.306   1.930  11.526  0.2095 -0.4764 -0.0672
  603TMC3    C3 8987   0.446   1.940  11.550  0.0328  0.1667  0.2819
  603TMC3    C4 8988   0.356   2.016  11.306 -0.5893 -0.4134 -0.3781
  603TMC3    C5 8989   0.485   2.019  11.337  0.4624 -0.5240 -0.7910
  603TMC3    C6 8990   0.536   1.981  11.458 -0.3448 -0.5727  0.0095
  603TMC3     C 8991   0.129   1.988  11.378  0.3130 -0.2677  0.0007
  603TMC3     O 8992   0.054   1.902  11.412 -0.5260  0.4258  0.4219
  603TMC3     H 8993   0.238   1.892  11.601  1.7409 -2.3943  0.3545
  603TMC3    H1 8994   0.319   2.061  11.215 -1.1534  1.0743  0.5806
  603TMC3    H2 8995   0.639   2.009  11.479  0.3829 -1.7693 -1.9610
  603TMC3    C7 8996   0.582   2.077  11.244 -0.0200  0.5273 -0.7791
  603TMC3    C8 8997   0.484   1.895  11.682  0.3234  0.2073  0.3496
  603TMC3    O1 8998   0.691   2.119  11.291  0.4367 -0.3528 -0.1935
  603TMC3    O2 8999   0.411   1.815  11.739  0.2225 -0.1071 -0.0380
  604MPD2     C 9000   2.053   0.347  16.360 -0.2511  0.0347  0.0137
  604MPD2    C1 9001   1.963   0.254  16.311  0.3717  0.0169  0.3836
  604MPD2    C2 9002   1.959   0.217  16.180  0.6253 -0.1445 -0.1422
  604MPD2    C3 9003   2.052   0.267  16.091 -0.3119  0.3632  0.1251
  604MPD2    C4 9004   2.131   0.373  16.138  1.5945  0.2110  0.9658
  604MPD2    C5 9005   2.131   0.410  16.267 -0.7337  0.2796 -0.3464
  604MPD2     H 9006   1.889   0.139  16.152 -0.4583  0.8197 -0.1656
  604MPD2    H1 9007   2.199   0.427  16.072 -0.1081  0.2469 -0.7464
  604MPD2    H2 9008   2.053   0.385  16.461  0.3307  0.3134 -0.0917
  604MPD2    H3 9009   2.195   0.488  16.306  0.0302 -0.1271 -0.7948
  604MPD2     N 9010   2.059   0.215  15.962 -0.2919 -0.1411 -0.1302
  604MPD2    H5 9011   1.991   0.157  15.914 -0.9608 -1.1804  2.0879
  604MPD2    N1 9012   1.865   0.207  16.401 -0.3073  0.9928 -0.0924
  604MPD2    H7 9013   1.866   0.254  16.491  0.9693 -0.9878  0.9308
  605TMC3    C1 9014   1.650   0.194  16.466 -0.1784 -0.9777  0.5045
  605TMC3    C2 9015   1.711   0.232  16.580  0.1348  0.2767 -0.0177
  605TMC3    C3 9016   1.677   0.352  16.647 -0.1232 -0.7531 -0.0354
  605TMC3    C4 9017   1.545   0.266  16.423 -0.1720 -0.2084 -0.2271
  605TMC3    C5 9018   1.511   0.386  16.478  0.0948  0.4875  0.6831
  605TMC3    C6 9019   1.578   0.436  16.598 -0.0675  0.4293  0.6992
  605TMC3     C 9020   1.741   0.147  16.366 -0.0493 -0.0903  0.2764
  605TMC3     O 9021   1.701   0.121  16.253 -0.4277 -0.6682 -0.3303
  605TMC3     H 9022   1.777   0.159  16.627  0.6331 -0.6044 -2.0787
  605TMC3    H1 9023   1.494   0.248  16.329 -0.8531  2.2987 -0.3348
  605TMC3    H2 9024   1.560   0.534  16.641 -1.6116  0.8340 -0.8747
  605TMC3    C7 9025   1.409   0.469  16.415 -0.0428 -0.0768 -0.6439
  605TMC3    C8 9026   1.803   0.419  16.687 -0.0971 -1.0539 -0.2366
  605TMC3    O1 9027   1.359   0.432  16.311  0.3633  0.0784  0.2366
  605TMC3    O2 9028   1.909   0.370  16.651 -0.0066 -0.6949 -0.3088
  606TMC3    C1 9029   2.100   2.832   0.259 -0.6607  0.6487 -0.3155
  606TMC3    C2 9030   2.191   2.834   0.366 -0.3129  0.1317 -0.0718
  606TMC3    C3 9031   2.319   2.828   0.325 -0.3190  0.1436  0.4690
  606TMC3    C4 9032   2.129   2.833   0.124 -0.1809 -0.3170  0.3161
  606TMC3    C5 9033   2.262   2.813   0.094  0.4660  0.3381 -0.3765
  606TMC3    C6 9034   2.360   2.810   0.194  0.6088  0.2889 -0.2791
  606TMC3     C 9035   1.974   2.883   0.295 -0.1896  0.4907 -0.9054
  606TMC3     O 9036   1.949   2.908   0.412  0.5212  0.3248  0.7913
  606TMC3     H 9037   2.159   2.829   0.470 -2.1069 -0.9528 -0.6815
  606TMC3    H1 9038   2.054   2.804   0.051  0.0037 -0.3476  0.1400
  606TMC3    H2 9039   2.465   2.793   0.176  0.3276 -1.3773 -0.3291
  606TMC3    C7 9040   2.310   2.773  17.720 -0.0399  0.3452  0.3031
  606TMC3    C8 9041   2.402   2.913   0.409 -0.7844  0.3525 -0.2530
  606TMC3    O1 9042   2.414   2.716  17.716 -0.3833  0.6619 -0.1572
  606TMC3    O2 9043   2.346   2.993   0.482 -0.2602  0.2886 -0.1312
  607MPD2     C 9044   4.347   1.687  11.913 -0.1124  0.2295 -0.1483
  607MPD2    C1 9045   4.396   1.779  12.002  0.1453  0.3454 -0.0176
  607MPD2    C2 9046   4.387   1.754  12.136  0.1450  0.2943 -0.1560
  607MPD2    C3 9047   4.317   1.643  12.179 -0.1772  0.8397 -0.4199
  607MPD2    C4 9048   4.264   1.557  12.089 -1.3771  0.3139  0.3085
  607MPD2    C5 9049   4.283   1.575  11.955  0.1930 -0.0335  0.0701
  607MPD2     H 9050   4.432   1.816  12.213 -0.7425  0.2654  0.3909
  607MPD2    H1 9051   4.206   1.471  12.120 -3.2449  1.5034  0.1315
  607MPD2    H2 9052   4.357   1.697  11.806 -0.9936  0.0649 -0.2515
  607MPD2    H3 9053   4.244   1.504  11.883  1.6824 -1.4729  0.6559
  607MPD2     N 9054   4.310   1.624  12.321  0.4405 -0.0514 -0.7917
  607MPD2    H5 9055   4.357   1.692  12.380  0.2258 -1.4674  1.0199
  607MPD2    N1 9056   4.495   1.877  11.977  0.0108 -0.0311  0.0906
  607MPD2    H7 9057   4.524   1.927  12.061 -0.4738  1.3700 -0.5746
  608TMC3    C1 9058   4.650   2.018  11.882 -0.6249  0.4336 -0.3633
  608TMC3    C2 9059   4.690   2.044  12.010 -0.2811 -0.0445 -0.0109
  608TMC3    C3 9060   0.037   2.145  12.031  0.1474 -0.9785  0.5045
  608TMC3    C4 9061   4.713   2.078  11.781 -0.3350 -0.4415  0.3177
  608TMC3    C5 9062   0.077   2.161  11.807 -0.3649 -0.0630  0.0738
  608TMC3    C6 9063   0.107   2.210  11.931 -0.1231 -0.1465  0.5386
  608TMC3     C 9064   4.556   1.913  11.859 -0.4788 -0.8587  0.2623
  608TMC3     O 9065   4.528   1.875  11.749  0.2111  0.2763  0.0945
  608TMC3     H 9066   4.663   1.974  12.089 -2.2225  2.6188  1.6487
  608TMC3    H1 9067   4.702   2.038  11.681  1.7337  0.9568 -0.4804
  608TMC3    H2 9068   0.149   2.309  11.949 -0.9074  0.2567  0.1602
  608TMC3    C7 9069   0.161   2.198  11.704  0.2772  0.5384  0.5469
  608TMC3    C8 9070   0.058   2.199  12.158 -0.1629  0.2338  0.2862
  608TMC3    O1 9071   0.103   2.230  11.599 -0.8225 -0.5103 -0.7669
  608TMC3    O2 9072   0.168   2.245  12.178 -0.0482 -0.3482 -0.0487
  609TMC3    C1 9073   3.200   0.859   9.387  0.4153  0.0301 -0.4049
  609TMC3    C2 9074   3.132   0.762   9.320  0.2354  0.9629  0.1468
  609TMC3    C3 9075   3.195   0.684   9.237  0.7182  0.0888  0.1710
  609TMC3    C4 9076   3.330   0.895   9.349 -0.2660 -0.1579  0.4235
  609TMC3    C5 9077   3.389   0.817   9.258  0.6233  0.0758  0.3951
  609TMC3    C6 9078   3.329   0.710   9.200  0.0810 -0.1840 -0.0587
  609TMC3     C 9079   3.106   0.946   9.448 -0.1305  0.2469  0.3904
  609TMC3     O 9080   3.036   0.899   9.538  0.2106 -0.1024 -0.5021
  609TMC3     H 9081   3.031   0.741   9.353 -0.0755 -0.4833 -1.7414
  609TMC3    H1 9082   3.381   0.983   9.388  1.1775 -1.0871  0.6047
  609TMC3    H2 9083   3.384   0.648   9.129  0.5511  2.5889 -2.1357
  609TMC3    C7 9084   3.533   0.814   9.288  0.1073  0.1221 -0.6227
  609TMC3    C8 9085   3.128   0.560   9.199  0.9763 -0.5619 -0.1998
  609TMC3    O1 9086   3.563   0.816   9.404 -0.3471 -0.2005  0.1486
  609TMC3    O2 9087   3.008   0.560   9.213 -0.5146  0.0741  0.3751
  610TMC3    C1 9088   0.657   2.216  12.320  1.0292  0.1539 -0.6294
  610TMC3    C2 9089   0.558   2.198  12.237 -0.1028 -0.5169  0.1545
  610TMC3    C3 9090   0.497   2.073  12.255  0.2341 -0.8458  0.0314
  610TMC3    C4 9091   0.704   2.134  12.425  0.0882  0.4408 -0.3328
  610TMC3    C5 9092   0.632   2.023  12.444 -0.0668 -0.1198  0.2241
  610TMC3    C6 9093   0.525   1.989  12.361 -0.1084  0.1642  0.4817
  610TMC3     C 9094   0.742   2.332  12.282 -0.9837  0.1817 -0.2877
  610TMC3     O 9095   0.682   2.422  12.219 -0.0458 -0.3269  0.3612
  610TMC3     H 9096   0.524   2.263  12.157  2.5824  0.9837  0.2455
  610TMC3    H1 9097   0.777   2.153  12.502  0.2447 -0.5623 -0.2275
  610TMC3    H2 9098   0.476   1.893  12.372 -1.8848  0.9415 -0.7502
  610TMC3    C7 9099   0.680   1.926  12.533  0.2045 -0.5272  0.1952
  610TMC3    C8 9100   0.393   2.034  12.163 -0.3751 -1.4033  0.3672
  610TMC3    O1 9101   0.782   1.950  12.602  0.3988 -0.5954  0.6063
  610TMC3    O2 9102   0.397   2.075  12.042  0.0507 -0.2070 -0.5008
  611MPD2     C 9103   4.389   2.257  10.141 -0.0215 -0.6031 -0.2284
  611MPD2    C1 9104   4.434   2.176  10.244  0.5747  0.0967 -0.1151
  611MPD2    C2 9105   4.575   2.160  10.264  0.9860 -0.0309 -0.2690
  611MPD2    C3 9106   4.665   2.241  10.189 -0.8456  0.0296  0.7408
  611MPD2    C4 9107   4.609   2.329  10.101  0.4244  0.1298 -0.0204
  611MPD2    C5 9108   4.480   2.337  10.071  0.0277 -0.3182  0.4806
  611MPD2     H 9109   4.609   2.099  10.346  0.6759  1.9155  1.3117
  611MPD2    H1 9110   4.665   2.394  10.034 -1.2731  1.3328 -0.2880
  611MPD2    H2 9111   4.285   2.257  10.112  0.5305  1.1585 -2.1679
  611MPD2    H3 9112   4.451   2.420  10.008  0.8954 -0.2634  0.1491
  611MPD2     N 9113   0.063   2.245  10.204 -0.1575  0.0169 -0.3784
  611MPD2    H5 9114   0.117   2.310  10.148  2.6212 -1.4505  0.6235
  611MPD2    N1 9115   4.334   2.102  10.315  0.0526  0.6909 -0.7202
  611MPD2    H7 9116   4.236   2.122  10.297 -0.1419  1.5590  1.2107
  612TMC3    C1 9117   0.272   2.229  10.305  0.2290 -0.1640  0.0929
  612TMC3    C2 9118   0.335   2.217  10.426  0.4846  0.2841  0.0432
  612TMC3    C3 9119   0.456   2.285  10.437  0.4367  0.2451  0.4423
  612TMC3    C4 9120   0.323   2.304  10.206  0.2241 -0.0550  0.7399
  612TMC3    C5 9121   0.440   2.377  10.225  0.3552 -0.2748  0.3809
  612TMC3    C6 9122   0.512   2.371  10.340  0.3341 -0.5083  0.1857
  612TMC3     C 9123   0.137   2.179  10.306 -0.0137 -0.5255 -0.1579
  612TMC3     O 9124   0.102   2.108  10.399  0.1049  0.0416 -0.0354
  612TMC3     H 9125   0.288   2.173  10.513  2.3441 -0.4618  0.6678
  612TMC3    H1 9126   0.269   2.301  10.112  1.2042  0.9217  0.1486
  612TMC3    H2 9127   0.607   2.421  10.359  0.9825 -1.4345 -0.5991
  612TMC3    C7 9128   0.469   2.479  10.126  0.2825 -0.6740 -1.0317
  612TMC3    C8 9129   0.515   2.318  10.567 -0.5676 -0.1313  0.7031
  612TMC3    O1 9130   0.404   2.470  10.028  0.0057  0.0675 -0.0575
  612TMC3    O2 9131   0.550   2.432  10.580  0.4514  0.1275 -0.2817
  613MPD2     C 9132   3.990   3.379  16.803 -0.5252  0.3712  0.1260
  613MPD2    C1 9133   3.941   3.435  16.687 -0.0484  0.1765 -0.4941
  613MPD2    C2 9134   3.881   3.344  16.595 -1.0349  0.0436 -0.4914
  613MPD2    C3 9135   3.867   3.207  16.617 -0.1283  0.4441  0.5882
  613MPD2    C4 9136   3.907   3.166  16.744 -0.3331 -0.2205 -0.2943
  613MPD2    C5 9137   3.968   3.248  16.835  0.0197 -0.1344 -0.1539
  613MPD2     H 9138   3.848   3.376  16.497  0.1758 -3.1486 -1.9414
  613MPD2    H1 9139   3.898   3.063  16.777 -1.5625 -0.7967 -2.4599
  613MPD2    H2 9140   4.043   3.446  16.870 -2.6025  2.0967  0.0668
  613MPD2    H3 9141   4.021   3.208  16.920  0.3793 -0.1978 -0.4071
  613MPD2     N 9142   3.793   3.120  16.533  0.1777  0.3259 -0.0254
  613MPD2    H5 9143   3.807   3.020  16.549 -1.4735 -0.4549 -3.5734
  613MPD2    N1 9144   3.971   3.568  16.654  0.5514 -0.4010 -0.0279
  613MPD2    H7 9145   4.058   3.603  16.693  0.3495  1.9024 -1.6344
  614TMC3    C1 9146   4.053   3.680  16.466 -0.1467 -0.1935 -0.0985
  614TMC3    C2 9147   4.140   3.582  16.417 -0.0867  0.1344 -0.4251
  614TMC3    C3 9148   4.191   3.609  16.288  0.3615  0.0320  0.0588
  614TMC3    C4 9149   4.017   3.784  16.392  0.3437  0.6273 -0.0946
  614TMC3    C5 9150   4.069   3.804  16.265  0.3697 -0.2007  1.3609
  614TMC3    C6 9151   4.165   3.722  16.214 -0.4055 -0.4224 -0.1376
  614TMC3     C 9152   3.937   3.627  16.534  0.4622 -0.4263  0.1873
  614TMC3     O 9153   3.835   3.598  16.467 -0.3058 -0.1904  0.0930
  614TMC3     H 9154   4.163   3.491  16.472  0.9112  0.3340 -0.5117
  614TMC3    H1 9155   3.943   3.850  16.436  2.0296  1.4200  1.5427
  614TMC3    H2 9156   4.212   3.756  16.123 -0.5693 -0.2272 -0.1470
  614TMC3    C7 9157   4.044   3.932  16.214 -0.2612 -0.5965 -0.8466
  614TMC3    C8 9158   4.203   3.482  16.213  0.4002  0.7927 -0.7034
  614TMC3    O1 9159   4.029   4.018  16.301  0.4784  0.1758  1.0829
  614TMC3    O2 9160   4.210   3.379  16.279 -0.1198 -0.0966 -0.2310
  615MPD2     C 9161   2.957   0.748  15.778 -0.0479 -0.2655  0.2713
  615MPD2    C1 9162   2.939   0.788  15.646 -0.7499  0.6728 -0.4643
  615MPD2    C2 9163   2.852   0.712  15.568 -0.3185 -0.3178  0.0286
  615MPD2    C3 9164   2.803   0.592  15.612  0.1213 -0.6392 -0.0951
  615MPD2    C4 9165   2.824   0.555  15.743  0.1992  0.0901 -0.4955
  615MPD2    C5 9166   2.906   0.626  15.822 -0.2997 -0.2791  0.2025
  615MPD2     H 9167   2.828   0.749  15.469 -2.7188 -0.6387  0.4766
  615MPD2    H1 9168   2.783   0.465  15.787  0.0493 -0.5584 -1.9663
  615MPD2    H2 9169   3.017   0.802  15.850 -1.4971  0.0500  1.2668
  615MPD2    H3 9170   2.913   0.599  15.926 -1.8584 -0.3387  0.2798
  615MPD2     N 9171   2.721   0.518  15.527  0.8798  0.1504 -0.4536
  615MPD2    H5 9172   2.735   0.542  15.430 -0.5482 -0.7241 -0.8706
  615MPD2    N1 9173   2.988   0.911  15.604  0.0020 -0.1873 -0.5725
  615MPD2    H7 9174   2.960   0.943  15.511  0.2923  2.4612  0.2627
  616TMC3    C1 9175   3.126   1.108  15.598  0.9050  0.7349  0.1617
  616TMC3    C2 9176   3.242   1.168  15.638  0.6059  0.4129 -0.3978
  616TMC3    C3 9177   3.252   1.302  15.610 -0.6963  0.1357  0.6633
  616TMC3    C4 9178   3.026   1.180  15.545  0.4859 -0.5380  0.1568
  616TMC3    C5 9179   3.037   1.311  15.533  0.5980 -0.2271  0.0636
  616TMC3    C6 9180   3.153   1.379  15.567 -0.1090  0.1725 -0.0252
  616TMC3     C 9181   3.098   0.981  15.656 -0.9160 -0.5889 -0.2421
  616TMC3     O 9182   3.186   0.933  15.726  0.3492  0.2960 -0.9810
  616TMC3     H 9183   3.312   1.111  15.699 -0.1327 -0.0789 -0.0071
  616TMC3    H1 9184   2.931   1.127  15.539  0.6487 -0.8548  0.3911
  616TMC3    H2 9185   3.163   1.486  15.560 -1.7804  0.3631  0.6051
  616TMC3    C7 9186   2.916   1.386  15.531 -0.2147  0.5526 -0.5804
  616TMC3    C8 9187   3.381   1.366  15.623 -0.1480  0.6011  0.0342
  616TMC3    O1 9188   2.826   1.342  15.466 -0.2036  0.5174  0.2944
  616TMC3    O2 9189   3.387   1.486  15.641  0.1819 -0.1239  0.5780
  617MPD2     C 9190   0.931   3.330  13.589  0.0432  0.1245 -0.5892
  617MPD2    C1 9191   0.999   3.353  13.704  0.3606 -0.3351  0.0288
  617MPD2    C2 9192   0.933   3.342  13.826 -0.4791 -0.4865  0.1545
  617MPD2    C3 9193   0.795   3.310  13.829 -0.8845 -0.2744  0.4935
  617MPD2    C4 9194   0.728   3.294  13.707  0.3478  0.9101 -0.6780
  617MPD2    C5 9195   0.796   3.311  13.591 -0.2438 -0.3339  0.2400
  617MPD2     H 9196   0.988   3.357  13.918 -0.4839 -2.6115  0.4866
  617MPD2    H1 9197   0.624   3.262  13.700  1.0238 -1.4831  0.1198
  617MPD2    H2 9198   0.977   3.334  13.491  0.7159  0.2791 -0.2638
  617MPD2    H3 9199   0.735   3.300  13.503  1.8209 -3.0270 -0.8528
  617MPD2     N 9200   0.712   3.304  13.948 -0.7836 -0.4948 -0.2453
  617MPD2    H5 9201   0.612   3.294  13.937 -1.0938  2.3618 -0.1029
  617MPD2    N1 9202   1.140   3.374  13.685  0.7074  0.6188 -0.1356
  617MPD2    H7 9203   1.167   3.359  13.588 -0.4182  1.8737 -0.6438
  618TMC3    C1 9204   1.367   3.380  13.732  0.1292  0.3105 -0.3812
  618TMC3    C2 9205   1.391   3.266  13.664 -0.0384  0.2813 -0.1450
  618TMC3    C3 9206   1.521   3.236  13.636  0.1105  0.6249 -0.3277
  618TMC3    C4 9207   1.469   3.467  13.766 -0.1583 -0.2382  0.1798
  618TMC3    C5 9208   1.596   3.425  13.739  0.4354  0.3988  0.9193
  618TMC3    C6 9209   1.625   3.310  13.678 -0.1458 -0.1609  0.4274
  618TMC3     C 9210   1.230   3.406  13.781  0.6782  0.2806  0.2911
  618TMC3     O 9211   1.219   3.428  13.900 -0.4184 -0.0691 -0.1317
  618TMC3     H 9212   1.307   3.210  13.625  0.6754  1.0339 -2.7401
  618TMC3    H1 9213   1.446   3.557  13.821  1.5676  2.6838 -3.8558
  618TMC3    H2 9214   1.726   3.273  13.671  0.3241  1.0439  0.8206
  618TMC3    C7 9215   1.701   3.492  13.818 -0.8506 -0.6014  0.0622
  618TMC3    C8 9216   1.528   3.145  13.524 -0.7182  0.8127 -0.0467
  618TMC3    O1 9217   1.671   3.556  13.918  0.4072  0.4920 -0.2587
  618TMC3    O2 9218   1.442   3.057  13.511 -0.4224 -0.2896  0.4337
  619MPD2     C 9219   2.955   0.032  13.655 -0.5733  0.2393  0.0515
  619MPD2    C1 9220   2.897   0.092  13.549  0.0061 -0.1234  0.1078
  619MPD2    C2 9221   2.775   0.044  13.509  0.2868 -0.9455 -0.4515
  619MPD2    C3 9222   2.703   4.693  13.579 -0.2428 -0.8503 -0.1524
  619MPD2    C4 9223   2.762   4.628  13.681 -0.6392 -0.0241  0.2049
  619MPD2    C5 9224   2.893   4.662  13.716  0.7296 -0.5965 -1.1633
  619MPD2     H 9225   2.744   0.077  13.411  1.0905  0.7640 -0.1301
  619MPD2    H1 9226   2.720   4.535  13.719 -0.8246  0.1739  0.4824
  619MPD2    H2 9227   3.053   0.055  13.696 -0.2504  2.5713 -2.0617
  619MPD2    H3 9228   2.953   4.601  13.782 -0.8594  0.6334  1.4515
  619MPD2     N 9229   2.567   4.670  13.547 -0.5010  0.1707 -0.3001
  619MPD2    H5 9230   2.522   4.593  13.595  0.5454 -1.6566 -2.1922
  619MPD2    N1 9231   2.954   0.204  13.477 -0.5865  0.1485  0.3997
  619MPD2    H7 9232   2.896   0.241  13.402 -1.4565 -0.0546  0.9765
  620TMC3    C1 9233   3.087   0.399  13.426  0.5628  0.0224 -1.0644
  620TMC3    C2 9234   2.992   0.435  13.337  0.2180 -0.4792  0.6248
  620TMC3    C3 9235   2.954   0.565  13.334  0.2482 -0.3232 -0.4045
  620TMC3    C4 9236   3.160   0.498  13.494 -0.1324  0.0374 -0.5855
  620TMC3    C5 9237   3.123   0.629  13.480  0.1658  0.0467 -0.5534
  620TMC3    C6 9238   3.021   0.668  13.395  0.0625 -0.1453 -0.7652
  620TMC3     C 9239   3.072   0.273  13.502  0.5610  0.5199  0.3953
  620TMC3     O 9240   3.142   0.260  13.601 -0.6044  0.0554 -0.3396
  620TMC3     H 9241   2.925   0.361  13.296 -1.4494  1.1401  0.4507
  620TMC3    H1 9242   3.231   0.466  13.569 -1.1853  3.3853  1.8287
  620TMC3    H2 9243   2.993   0.771  13.377  0.1025 -0.1557 -0.8928
  620TMC3    C7 9244   3.098   0.686  13.613 -0.1363 -0.1988 -0.2670
  620TMC3    C8 9245   2.815   0.583  13.343 -0.1040 -0.1935 -0.0509
  620TMC3    O1 9246   3.167   0.663  13.711 -0.5418  0.1369 -0.3250
  620TMC3    O2 9247   2.780   0.664  13.427 -0.5267  0.7183  0.2836
  621MPD2     C 9248   2.625   0.298  10.423  0.3494  0.1545 -0.2391
  621MPD2    C1 9249   2.619   0.247  10.290  0.2140  0.1207 -0.3418
  621MPD2    C2 9250   2.700   0.299  10.188 -0.1575  0.5914 -0.2770
  621MPD2    C3 9251   2.767   0.418  10.216 -0.2470  0.5481  0.1488
  621MPD2    C4 9252   2.780   0.463  10.349 -0.4507  0.4067  0.2394
  621MPD2    C5 9253   2.713   0.401  10.449 -0.5043  0.1902 -0.3254
  621MPD2     H 9254   2.711   0.260  10.087 -0.5746 -1.5523  0.4977
  621MPD2    H1 9255   2.850   0.541  10.379  0.6927 -0.0504 -1.2153
  621MPD2    H2 9256   2.566   0.256  10.503 -1.0777  3.6760  0.5498
  621MPD2    H3 9257   2.752   0.432  10.545  1.1120  1.6966 -1.4575
  621MPD2     N 9258   2.833   0.483  10.111 -0.2956 -0.2839 -0.4800
  621MPD2    H5 9259   2.849   0.435  10.023  1.5522 -0.6878  0.0818
  621MPD2    N1 9260   2.527   0.149  10.250 -0.0736  0.3904  0.1602
  621MPD2    H7 9261   2.527   0.132  10.150  1.0915  0.2649  0.1756
  622TMC3    C1 9262   2.362   4.715  10.273 -0.0252  0.5168  0.4460
  622TMC3    C2 9263   2.248   4.676  10.339  0.5036  0.1295 -0.0102
  622TMC3    C3 9264   2.165   4.592  10.263 -0.7449 -0.5158 -0.0887
  622TMC3    C4 9265   2.397   4.680  10.140 -0.1634  0.4942 -0.8393
  622TMC3    C5 9266   2.313   4.593  10.075 -0.5196  0.6208 -0.2212
  622TMC3    C6 9267   2.202   4.550  10.133  0.2225  0.1398 -0.0017
  622TMC3     C 9268   2.434   0.084  10.330 -0.6806  0.2719 -0.6542
  622TMC3     O 9269   2.433   0.081  10.451 -0.7425  0.1686  0.2297
  622TMC3     H 9270   2.228   4.707  10.441  2.2390  1.2619 -0.0220
  622TMC3    H1 9271   2.486   4.711  10.087 -1.3830  2.2688 -1.8707
  622TMC3    H2 9272   2.130   4.494  10.074  0.2461 -0.2958  0.3848
  622TMC3    C7 9273   2.314   4.572   9.930 -0.2204 -0.6567 -0.0230
  622TMC3    C8 9274   2.025   4.607  10.283 -0.1551  0.2143  0.1646
  622TMC3    O1 9275   2.272   4.464   9.897 -0.3598 -0.0316  0.2269
  622TMC3    O2 9276   1.954   4.531  10.225  0.3389 -0.5413  0.4826
  623MPD2     C 9277   2.062   0.983  15.674 -0.2185  0.0913 -0.1379
  623MPD2    C1 9278   2.073   0.849  15.703 -0.5505  0.2869 -0.2472
  623MPD2    C2 9279   2.143   0.812  15.815  0.5681  0.5497 -0.0076
  623MPD2    C3 9280   2.198   0.904  15.901  0.2278  0.1089  0.8816
  623MPD2    C4 9281   2.184   1.036  15.867 -0.1953  0.2215 -0.3254
  623MPD2    C5 9282   2.124   1.078  15.752  0.2296  0.1347  0.2831
  623MPD2     H 9283   2.172   0.710  15.836  0.2310  0.4719  0.0709
  623MPD2    H1 9284   2.217   1.111  15.938  2.3201 -1.1386 -0.0548
  623MPD2    H2 9285   1.998   1.017  15.593  0.2874  0.7613 -0.2537
  623MPD2    H3 9286   2.112   1.182  15.724 -2.0589 -0.4725 -0.9506
  623MPD2     N 9287   2.273   0.860  16.014 -0.0943 -0.0376  0.1520
  623MPD2    H5 9288   2.260   0.763  16.041  1.2911  0.0518  1.1648
  623MPD2    N1 9289   1.993   0.760  15.625 -0.5416 -0.2719  0.5958
  623MPD2    H7 9290   1.949   0.794  15.539 -3.4389 -1.0928  1.7358
  624TMC3    C1 9291   2.509   0.877  16.421  0.8682  0.7724 -0.5295
  624TMC3    C2 9292   2.412   0.799  16.479  0.3793 -0.0207  0.2831
  624TMC3    C3 9293   2.297   0.775  16.414  0.2733  0.0074 -0.7375
  624TMC3    C4 9294   2.497   0.924  16.292  0.1220  0.0707  0.5628
  624TMC3    C5 9295   2.378   0.894  16.235 -0.0486 -0.2581  0.8567
  624TMC3    C6 9296   2.271   0.824  16.288  0.9532  0.2588  0.2920
  624TMC3     C 9297   2.637   0.868  16.485  0.2395  0.3802  0.4197
  624TMC3     O 9298   2.643   0.799  16.586 -0.2175  0.7523  0.2753
  624TMC3     H 9299   2.427   0.743  16.571  0.6810 -2.2644 -1.1241
  624TMC3    H1 9300   2.571   0.982  16.239 -0.4745 -1.6317 -2.0893
  624TMC3    H2 9301   2.171   0.813  16.246 -0.1158 -1.7013  3.3234
  624TMC3    C7 9302   2.348   0.947  16.102 -0.4871 -0.2155  1.3436
  624TMC3    C8 9303   2.178   0.734  16.491 -0.0697 -0.1082  0.4950
  624TMC3    O1 9304   2.376   1.066  16.087  0.0394 -0.0537  0.2759
  624TMC3    O2 9305   2.085   0.686  16.433  0.8708 -0.2700 -0.6254
  625MPD2     C 9306   2.270   1.491   0.314 -0.4589 -0.0350 -0.5180
  625MPD2    C1 9307   2.289   1.626   0.316  0.1531 -0.0344  0.1539
  625MPD2    C2 9308   2.409   1.677   0.360 -0.4160 -0.0708  0.1606
  625MPD2    C3 9309   2.520   1.601   0.384 -0.3168 -0.5373  0.0037
  625MPD2    C4 9310   2.496   1.465   0.379  0.3636 -0.2147  0.0171
  625MPD2    C5 9311   2.370   1.415   0.364  0.0414 -0.5591 -0.0093
  625MPD2     H 9312   2.418   1.785   0.365 -0.8242 -0.0084 -0.4823
  625MPD2    H1 9313   2.570   1.389   0.403  0.9618 -0.0067 -1.1518
  625MPD2    H2 9314   2.180   1.445   0.276  0.3679 -0.4525 -1.9823
  625MPD2    H3 9315   2.349   1.309   0.370  1.6812 -0.7495  2.1752
  625MPD2     N 9316   2.646   1.654   0.416  0.3639 -0.0126  0.0123
  625MPD2    H5 9317   2.651   1.753   0.439  0.6016  0.6716 -3.0229
  625MPD2    N1 9318   2.180   1.712   0.295 -0.5438  0.3286 -0.2759
  625MPD2    H7 9319   2.199   1.811   0.280  1.1850 -0.0613 -0.6477
  626TMC3    C1 9320   1.965   1.805   0.287  0.2827 -0.2262  0.5568
  626TMC3    C2 9321   2.034   1.911   0.239 -0.1751 -0.0616  0.0069
  626TMC3    C3 9322   2.002   2.032   0.294  0.6271  0.2070  0.9620
  626TMC3    C4 9323   1.874   1.812   0.384  0.5203  0.1289  0.7366
  626TMC3    C5 9324   1.855   1.928   0.450 -0.1632 -0.0342  0.0693
  626TMC3    C6 9325   1.916   2.042   0.403  0.0244 -0.7065  0.0855
  626TMC3     C 9326   2.046   1.683   0.291 -0.0909  0.3440  0.1534
  626TMC3     O 9327   1.991   1.589   0.351 -0.2128  0.1513  0.6304
  626TMC3     H 9328   2.095   1.906   0.150  0.5328  1.7221  0.3957
  626TMC3    H1 9329   1.830   1.720   0.421  0.3524  1.4777  3.8562
  626TMC3    H2 9330   1.903   2.137   0.453 -0.2052 -0.5716 -0.2299
  626TMC3    C7 9331   1.869   1.924   0.599  0.2747 -1.2821  0.0533
  626TMC3    C8 9332   1.986   2.137   0.189  0.3047 -0.2599 -0.5943
  626TMC3    O1 9333   1.945   2.009   0.650 -0.0022 -0.3969  0.1935
  626TMC3    O2 9334   2.039   2.109   0.084  0.2194  0.0217  0.7221
  627MPD2     C 9335   1.060   2.182  14.241  0.0921  0.0534 -0.1514
  627MPD2    C1 9336   1.027   2.170  14.373 -0.1238  1.4392 -0.2230
  627MPD2    C2 9337   0.911   2.101  14.413  0.0135 -0.2100 -0.5512
  627MPD2    C3 9338   0.847   2.034  14.313  0.5403  0.8069 -0.3395
  627MPD2    C4 9339   0.883   2.037  14.178  0.1599 -0.5783 -0.3106
  627MPD2    C5 9340   0.988   2.116  14.148 -0.3832  0.8275 -0.5630
  627MPD2     H 9341   0.876   2.100  14.515  1.5629 -0.0283 -0.0244
  627MPD2    H1 9342   0.823   1.987  14.102  1.3094 -1.0895 -0.8707
  627MPD2    H2 9343   1.148   2.233  14.203 -0.5020  0.7160 -0.6397
  627MPD2    H3 9344   1.018   2.114  14.043  2.1890 -1.7692  0.2359
  627MPD2     N 9345   0.739   1.948  14.346 -0.3234  0.3725 -0.0504
  627MPD2    H5 9346   0.727   1.935  14.446  0.3895 -0.6335 -0.1043
  627MPD2    N1 9347   1.106   2.229  14.477 -0.8832  0.0120  0.8669
  627MPD2    H7 9348   1.078   2.237  14.574 -2.0574  1.6151  0.3901
  628TMC3    C1 9349   1.287   2.326  14.574  0.1699  0.2568  0.8547
  628TMC3    C2 9350   1.423   2.291  14.573  0.0332 -0.7972  0.8233
  628TMC3    C3 9351   1.511   2.392  14.581  0.0573  0.4720  0.4026
  628TMC3    C4 9352   1.246   2.455  14.598  0.0629 -0.0425 -0.5153
  628TMC3    C5 9353   1.336   2.553  14.611  0.3850 -0.1998 -0.9595
  628TMC3    C6 9354   1.472   2.524  14.611  0.1108 -0.4886  0.2890
  628TMC3     C 9355   1.236   2.270  14.451 -0.4263  0.9669 -0.0858
  628TMC3     O 9356   1.313   2.272  14.357 -0.3115 -0.2104 -0.0972
  628TMC3     H 9357   1.447   2.189  14.544 -1.1116 -0.4035 -1.5138
  628TMC3    H1 9358   1.139   2.470  14.609  0.1006  0.9648 -1.4443
  628TMC3    H2 9359   1.539   2.606  14.588  0.1255 -0.6675 -0.2856
  628TMC3    C7 9360   1.288   2.678  14.655 -0.4845  0.6058  0.0740
  628TMC3    C8 9361   1.647   2.360  14.561  0.3213 -0.1800 -0.1153
  628TMC3    O1 9362   1.364   2.725  14.741 -0.1369  0.1534  0.2590
  628TMC3    O2 9363   1.727   2.445  14.520 -0.0082  0.5227  0.2198
  629MPD2     C 9364   3.901   1.338  15.607  0.5528  0.1852  0.5340
  629MPD2    C1 9365   3.846   1.209  15.636  0.1701 -0.6412  0.1300
  629MPD2    C2 9366   3.707   1.197  15.644 -0.0618 -1.4580 -0.3424
  629MPD2    C3 9367   3.623   1.302  15.616  0.8752  0.5169 -0.6859
  629MPD2    C4 9368   3.676   1.430  15.586 -0.3422  0.0490 -0.6855
  629MPD2    C5 9369   3.815   1.446  15.588  0.3482 -0.2784  0.2524
  629MPD2     H 9370   3.666   1.097  15.651 -2.6070 -0.3260  0.9293
  629MPD2    H1 9371   3.614   1.514  15.554 -2.3127  0.0012  2.9455
  629MPD2    H2 9372   4.008   1.355  15.605  0.5751 -0.2070 -1.8123
  629MPD2    H3 9373   3.854   1.546  15.572 -0.2345 -0.1715 -0.4831
  629MPD2     N 9374   3.484   1.276  15.609  0.2437 -0.3022 -0.7344
  629MPD2    H5 9375   3.461   1.179  15.592 -0.8260 -0.1868  0.0892
  629MPD2    N1 9376   3.938   1.105  15.640  0.2395  0.6745  0.2467
  629MPD2    H7 9377   4.035   1.129  15.619 -0.0326  0.3706 -1.3372
  630TMC3    C1 9378   4.006   0.872  15.645  0.5012  0.1352 -0.0964
  630TMC3    C2 9379   4.126   0.916  15.582 -0.3978 -1.0341  0.3292
  630TMC3    C3 9380   4.213   0.814  15.552  0.3974 -0.5037  0.2471
  630TMC3    C4 9381   3.969   0.738  15.656  0.0024 -0.1366 -0.2335
  630TMC3    C5 9382   4.067   0.647  15.625 -0.1224 -0.0355 -0.0079
  630TMC3    C6 9383   4.182   0.682  15.563  0.0939 -0.2559  0.0886
  630TMC3     C 9384   3.905   0.974  15.670 -0.6120 -0.7315 -0.4183
  630TMC3     O 9385   3.801   0.932  15.718  0.2205 -0.5158 -0.2512
  630TMC3     H 9386   4.154   1.020  15.570  0.8932 -1.5840 -1.4953
  630TMC3    H1 9387   3.885   0.714  15.720 -0.7767  0.9763 -0.8484
  630TMC3    H2 9388   4.251   0.608  15.525 -0.5660 -1.4630  1.2236
  630TMC3    C7 9389   4.077   0.536  15.719  0.1574  0.4432  0.0804
  630TMC3    C8 9390   4.347   0.848  15.511  0.3771  0.2927  0.0027
  630TMC3    O1 9391   4.191   0.533  15.768  0.0051 -0.5287  0.6417
  630TMC3    O2 9392   4.434   0.761  15.517  0.0171  0.7944 -0.3646
  631MPD2     C 9393   1.911   0.766  15.232 -0.0938 -0.4106  0.6904
  631MPD2    C1 9394   2.032   0.812  15.281  0.0509  0.6522 -0.8936
  631MPD2    C2 9395   2.132   0.728  15.326 -0.4132  0.9448  0.0181
  631MPD2    C3 9396   2.111   0.595  15.319  0.0287  0.3171  0.1391
  631MPD2    C4 9397   1.993   0.540  15.270  0.3141  0.1483 -0.9427
  631MPD2    C5 9398   1.898   0.633  15.237 -0.3356 -0.2892 -0.6378
  631MPD2     H 9399   2.224   0.767  15.368 -1.0675  1.5579  0.8900
  631MPD2    H1 9400   1.977   0.434  15.255 -1.1202 -0.1454  2.6746
  631MPD2    H2 9401   1.835   0.836  15.201  0.0522 -0.9584 -0.9322
  631MPD2    H3 9402   1.801   0.595  15.207 -0.2997 -0.4966 -0.4892
  631MPD2     N 9403   2.224   0.518  15.337 -0.0031 -0.6980  0.2491
  631MPD2    H5 9404   2.308   0.567  15.365 -0.6200 -0.5498  1.8161
  631MPD2    N1 9405   2.049   0.955  15.290 -0.8212 -0.0536 -0.4524
  631MPD2    H7 9406   1.966   1.002  15.256 -1.4700 -0.7813  0.1038
  632TMC3    C1 9407   2.165   1.159  15.299 -0.3412 -0.6109  0.5766
  632TMC3    C2 9408   2.069   1.206  15.383  0.3228 -0.2054 -0.2119
  632TMC3    C3 9409   2.091   1.322  15.450 -0.4259 -0.4112 -0.0694
  632TMC3    C4 9410   2.280   1.230  15.282  0.0230 -0.9913  0.5998
  632TMC3    C5 9411   2.292   1.353  15.341  0.3264 -0.8896 -0.1510
  632TMC3    C6 9412   2.200   1.400  15.426  0.1043 -0.1974 -0.3083
  632TMC3     C 9413   2.168   1.014  15.279 -0.0941  0.2897  0.4422
  632TMC3     O 9414   2.277   0.963  15.257  0.1239  0.0146 -0.6153
  632TMC3     H 9415   1.981   1.146  15.403  0.8864 -0.8091  0.4559
  632TMC3    H1 9416   2.364   1.192  15.226 -0.5174 -0.1694 -0.7650
  632TMC3    H2 9417   2.214   1.491  15.485  2.6607 -0.1433 -1.0030
  632TMC3    C7 9418   2.387   1.445  15.284  0.1448 -0.6380  0.5834
  632TMC3    C8 9419   1.969   1.369  15.513  0.6460  0.0103  0.3875
  632TMC3    O1 9420   2.402   1.548  15.345 -0.4920 -0.0578  0.1819
  632TMC3    O2 9421   1.870   1.332  15.453  0.7301 -0.1888 -0.3873
  633MPD2     C 9422   1.762   3.649  17.176  0.1093 -0.6962  0.0358
  633MPD2    C1 9423   1.806   3.628  17.046  0.8138  0.1787  0.3250
  633MPD2    C2 9424   1.820   3.499  17.004  0.5016 -0.3264  0.1467
  633MPD2    C3 9425   1.798   3.390  17.089  0.5309 -0.0392 -0.4840
  633MPD2    C4 9426   1.757   3.410  17.220  0.2475 -0.4474 -0.6870
  633MPD2    C5 9427   1.748   3.540  17.267  0.8368  0.5872 -0.4624
  633MPD2     H 9428   1.859   3.479  16.904 -0.8560 -2.8666  0.1033
  633MPD2    H1 9429   1.747   3.324  17.285  1.1427  0.2778  0.4293
  633MPD2    H2 9430   1.741   3.748  17.216  1.7904 -0.7732  1.0776
  633MPD2    H3 9431   1.719   3.553  17.370  1.2893  0.2126 -0.2867
  633MPD2     N 9432   1.825   3.256  17.052  0.5517 -0.1608 -0.4075
  633MPD2    H5 9433   1.819   3.177  17.115  0.8096 -1.2167 -1.7102
  633MPD2    N1 9434   1.857   3.737  16.961  0.3101 -0.8970  0.1348
  633MPD2    H7 9435   1.908   3.703  16.881  0.4782 -1.0422  0.3019
  634TMC3    C1 9436   1.963   3.932  16.908 -0.2652  0.7323  0.2481
  634TMC3    C2 9437   2.081   3.870  16.913 -0.1004  0.1343  0.6333
  634TMC3    C3 9438   2.182   3.924  16.849  0.8680 -0.0341 -0.1104
  634TMC3    C4 9439   1.935   4.051  16.849  0.7159  0.0688 -0.3009
  634TMC3    C5 9440   2.043   4.111  16.784 -0.7503 -0.3825  0.1276
  634TMC3    C6 9441   2.168   4.042  16.784 -0.2245  0.0597 -0.3974
  634TMC3     C 9442   1.850   3.870  16.982 -0.0968  0.7985  0.2514
  634TMC3     O 9443   1.773   3.936  17.052  0.3661  0.2104  0.0591
  634TMC3     H 9444   2.092   3.773  16.961  0.0939 -1.7182 -3.1809
  634TMC3    H1 9445   1.841   4.099  16.871  0.0468 -0.7495 -1.3490
  634TMC3    H2 9446   2.245   4.092  16.728  0.7117 -0.6100  0.2944
  634TMC3    C7 9447   2.026   4.207  16.678 -0.4239 -0.0109 -0.2398
  634TMC3    C8 9448   2.317   3.863  16.835 -0.0016  0.7220  0.2640
  634TMC3    O1 9449   2.116   4.217  16.594  0.4168 -0.3587 -0.0142
  634TMC3    O2 9450   2.390   3.913  16.749 -0.4940  0.1887  0.4614
  635TMC3    C1 9451   2.312   4.424  17.664  0.4378  0.1745 -0.5117
  635TMC3    C2 9452   2.267   4.310  17.723 -0.2043 -0.1442  0.2910
  635TMC3    C3 9453   2.157   4.328   0.048 -0.1080 -1.0483 -0.0559
  635TMC3    C4 9454   2.255   4.546  17.673 -0.1463 -0.1802 -0.4608
  635TMC3    C5 9455   2.143   4.561  17.753 -0.3996  0.3334 -0.0219
  635TMC3    C6 9456   2.098   4.448   0.066 -0.5634 -0.4261  1.3847
  635TMC3     C 9457   2.449   4.419  17.611 -0.2071 -0.0380 -0.1006
  635TMC3     O 9458   2.505   4.524  17.579  0.3927  0.3709 -0.2289
  635TMC3     H 9459   2.297   4.207  17.713  0.2679  0.0019  0.1919
  635TMC3    H1 9460   2.302   4.628  17.620 -0.5208  0.3989  0.1028
  635TMC3    H2 9461   2.010   4.462   0.128 -1.5378  0.1288 -0.1235
  635TMC3    C7 9462   2.053   4.670  17.739  0.0787 -0.2896 -0.2026
  635TMC3    C8 9463   2.107   4.218   0.123 -0.6528  0.0947 -0.3334
  635TMC3    O1 9464   1.935   4.649   0.014 -0.0441  0.4012  1.1414
  635TMC3    O2 9465   2.177   4.124   0.144 -0.3247  0.0246  0.0826
  636MPD2     C 9466   3.601   3.575  15.750 -0.1973 -0.0259 -0.3416
  636MPD2    C1 9467   3.605   3.595  15.886  0.0758  0.2816  0.3714
  636MPD2    C2 9468   3.600   3.475  15.963 -0.5175 -0.1168 -0.0484
  636MPD2    C3 9469   3.598   3.348  15.910 -0.6413  0.3305  0.2496
  636MPD2    C4 9470   3.596   3.335  15.769  0.3138 -0.4770  0.3059
  636MPD2    C5 9471   3.584   3.450  15.695  0.9787 -0.7648  0.5443
  636MPD2     H 9472   3.605   3.481  16.072 -0.9997 -1.9201  0.0755
  636MPD2    H1 9473   3.600   3.237  15.724 -1.6295 -0.6380  0.4582
  636MPD2    H2 9474   3.619   3.661  15.686 -3.1975 -0.5022 -1.8224
  636MPD2    H3 9475   3.580   3.443  15.587 -2.6097 -1.5149  0.7268
  636MPD2     N 9476   3.602   3.243  16.006 -0.2461  0.1804 -0.5301
  636MPD2    H5 9477   3.598   3.276  16.102 -1.6778 -0.1402 -0.4737
  636MPD2    N1 9478   3.602   3.719  15.944 -0.4724  0.1293  0.2324
  636MPD2    H7 9479   3.580   3.727  16.042 -4.3858 -0.4801 -0.6102
  637TMC3    C1 9480   3.633   3.031  16.100 -0.0513  0.0207  0.3511
  637TMC3    C2 9481   3.611   3.086  16.220 -0.0502 -0.1630 -0.5430
  637TMC3    C3 9482   3.696   3.048  16.318  0.2233 -0.5903 -0.8155
  637TMC3    C4 9483   3.735   2.946  16.084  0.1839 -0.2008 -0.1220
  637TMC3    C5 9484   3.825   2.923  16.179 -0.1520 -0.3124  0.1104
  637TMC3    C6 9485   3.800   2.958  16.300 -0.3739 -0.3107 -0.2808
  637TMC3     C 9486   3.614   3.108  15.976 -0.0466  0.2389  0.5453
  637TMC3     O 9487   3.645   3.063  15.868  0.5872 -0.3468 -0.8951
  637TMC3     H 9488   3.534   3.159  16.241  0.0277  0.3869 -2.1713
  637TMC3    H1 9489   3.735   2.898  15.986 -0.9623 -0.6498  0.0984
  637TMC3    H2 9490   3.864   2.916  16.377 -1.1554 -1.1468 -0.0925
  637TMC3    C7 9491   3.946   2.998  16.150 -0.2053  0.6262 -0.1309
  637TMC3    C8 9492   3.724   3.156  16.417 -0.3230 -0.2315  0.6437
  637TMC3    O1 9493   4.015   3.028  16.245 -0.0901 -0.0142  0.2349
  637TMC3    O2 9494   3.664   3.264  16.405 -0.9478  0.2428  0.3049
  638MPD2     C 9495   3.090   3.213  14.978  0.1644 -0.1671  0.1870
  638MPD2    C1 9496   3.051   3.133  14.871  0.1212 -0.0378  0.2452
  638MPD2    C2 9497   3.029   3.000  14.892 -0.1592  0.1102 -0.4835
  638MPD2    C3 9498   3.049   2.941  15.012  0.2536  0.3793  0.1938
  638MPD2    C4 9499   3.088   3.014  15.124 -0.0751 -0.0694 -0.1655
  638MPD2    C5 9500   3.113   3.149  15.101 -0.0969 -0.1130 -0.3062
  638MPD2     H 9501   2.989   2.945  14.808 -0.3921  1.1703 -1.0693
  638MPD2    H1 9502   3.105   2.975  15.223 -2.0693  0.7794  0.5090
  638MPD2    H2 9503   3.123   3.315  14.965  3.7228 -1.3535  0.0303
  638MPD2    H3 9504   3.146   3.210  15.184 -0.4298 -0.4654  0.0884
  638MPD2     N 9505   3.027   2.800  15.005 -0.1098 -0.1301  0.6998
  638MPD2    H5 9506   3.010   2.758  14.915 -0.7774 -1.4719  1.4450
  638MPD2    N1 9507   3.032   3.184  14.741 -0.4580 -0.0652  0.1190
  638MPD2    H7 9508   3.008   3.114  14.672 -0.1084 -1.3692  1.3142
  639TMC3    C1 9509   3.033   2.579  15.089  0.3311  0.3265 -0.3398
  639TMC3    C2 9510   2.912   2.537  15.039  0.0983  0.4844  0.0630
  639TMC3    C3 9511   2.879   2.404  15.051 -0.5458 -0.8158  0.0780
  639TMC3    C4 9512   3.115   2.480  15.148  0.1469 -0.2255  0.6099
  639TMC3    C5 9513   3.071   2.350  15.158 -0.0123  0.0164 -0.6133
  639TMC3    C6 9514   2.953   2.307  15.108  0.1074  0.3953 -0.8246
  639TMC3     C 9515   3.045   2.720  15.117  0.1931 -0.1334 -0.1703
  639TMC3     O 9516   3.095   2.753  15.224 -0.3330 -0.4826 -0.0317
  639TMC3     H 9517   2.843   2.600  14.984 -3.3234 -1.1116  2.5271
  639TMC3    H1 9518   3.205   2.514  15.198 -0.4336 -1.0394  2.1899
  639TMC3    H2 9519   2.933   2.202  15.090 -0.2533  0.4906 -0.9872
  639TMC3    C7 9520   3.175   2.245  15.152  0.2017  0.1969  0.3338
  639TMC3    C8 9521   2.808   2.361  14.931 -0.0907  0.6841  0.1928
  639TMC3    O1 9522   3.140   2.133  15.191 -0.6698 -0.4629  0.0465
  639TMC3    O2 9523   2.876   2.319  14.840 -0.1505  1.0458 -0.2342
  640MPD2     C 9524   3.370   1.557  10.337  0.7341  0.3753  0.2175
  640MPD2    C1 9525   3.431   1.660  10.275  0.2088  0.2495  0.5601
  640MPD2    C2 9526   3.380   1.792  10.283 -0.3126  0.2331 -1.1260
  640MPD2    C3 9527   3.254   1.809  10.342 -0.0531  0.0710  0.8427
  640MPD2    C4 9528   3.196   1.703  10.404  0.0803 -0.2976 -0.1637
  640MPD2    C5 9529   3.259   1.581  10.406  0.0073  0.6797 -0.2398
  640MPD2     H 9530   3.432   1.881  10.249  2.3352 -0.3757  1.3822
  640MPD2    H1 9531   3.099   1.696  10.453  0.1889  0.1163  0.1067
  640MPD2    H2 9532   3.397   1.452  10.339  0.4159  0.2567 -1.7911
  640MPD2    H3 9533   3.208   1.499  10.455 -0.0898  0.5598 -0.5395
  640MPD2     N 9534   3.188   1.929  10.335  0.6777  0.3783 -0.1405
  640MPD2    H5 9535   3.100   1.938  10.386  0.3632 -0.3341 -0.5466
  640MPD2    N1 9536   3.551   1.630  10.208 -0.3926 -0.6054 -0.0967
  640MPD2    H7 9537   3.580   1.533  10.203  0.3669 -0.3822  0.0991
  641TMC3    C1 9538   3.757   1.668  10.075 -0.2449 -0.0084 -0.7013
  641TMC3    C2 9539   3.800   1.540  10.098 -0.5390 -0.5391 -0.0819
  641TMC3    C3 9540   3.899   1.494  10.007  0.2000 -0.1560  0.0428
  641TMC3    C4 9541   3.797   1.747   9.964 -0.5384 -0.7549 -0.2502
  641TMC3    C5 9542   3.879   1.685   9.876 -0.3505  0.0761 -0.0377
  641TMC3    C6 9543   3.935   1.561   9.894  0.0374 -0.5297  0.0045
  641TMC3     C 9544   3.630   1.720  10.135  0.3111  0.3191 -0.0378
  641TMC3     O 9545   3.623   1.843  10.117 -0.1674 -0.2277 -0.0655
  641TMC3     H 9546   3.775   1.490  10.191  0.1665 -2.0935 -0.7247
  641TMC3    H1 9547   3.758   1.846   9.945 -0.3615 -0.5786  0.3157
  641TMC3    H2 9548   3.999   1.524   9.815  0.5576  0.9785 -0.2865
  641TMC3    C7 9549   3.925   1.777   9.767 -0.5866  0.7918 -0.3544
  641TMC3    C8 9550   3.948   1.351  10.005 -0.3582 -0.4498  0.5077
  641TMC3    O1 9551   3.862   1.879   9.732  0.1538 -0.4263  0.0370
  641TMC3    O2 9552   3.987   1.317   9.891  0.1435 -0.6648  0.5974
  642TMC3    C1 9553   4.571   2.646  12.715 -0.2217 -0.3907  0.6227
  642TMC3    C2 9554   4.705   2.658  12.674  0.0567  1.0342 -0.2271
  642TMC3    C3 9555   0.007   2.578  12.571 -0.5547 -0.3362  0.2009
  642TMC3    C4 9556   4.484   2.562  12.644  0.6302  0.4183  0.8015
  642TMC3    C5 9557   4.536   2.486  12.541 -0.6155 -0.1680 -0.3869
  642TMC3    C6 9558   4.667   2.497  12.500 -0.1739  0.1359 -0.5297
  642TMC3     C 9559   4.515   2.758  12.794  0.3762  0.4927  0.9253
  642TMC3     O 9560   4.589   2.843  12.841 -0.2889  0.2363 -0.1413
  642TMC3     H 9561   0.036   2.709  12.740  0.8893 -0.5861  0.1510
  642TMC3    H1 9562   4.391   2.537  12.693  0.5395 -1.2971 -0.2439
  642TMC3    H2 9563   4.702   2.439  12.415 -1.5221 -1.2057 -0.1760
  642TMC3    C7 9564   4.459   2.377  12.494  0.2320  0.1104  0.3873
  642TMC3    C8 9565   0.153   2.581  12.539 -0.3411  0.9210 -0.6214
  642TMC3    O1 9566   4.464   2.341  12.377  0.2546  0.2850 -0.4171
  642TMC3    O2 9567   0.180   2.513  12.445 -0.3677 -0.2855  0.5272
  643TMC3    C1 9568   4.165   0.945  17.662  0.3597 -0.6318 -0.2836
  643TMC3    C2 9569   4.063   0.980  17.573  0.7160  0.2157  0.5309
  643TMC3    C3 9570   4.042   0.904  17.462 -0.1226  0.3303  0.4945
  643TMC3    C4 9571   4.265   0.866  17.622 -0.2117  0.2697 -0.3682
  643TMC3    C5 9572   4.248   0.812  17.498  0.4835 -0.5103 -0.3203
  643TMC3    C6 9573   4.129   0.810  17.433 -0.1196  0.1018  0.5033
  643TMC3     C 9574   4.174   1.013   0.034  0.1168 -0.6066  0.4796
  643TMC3     O 9575   4.125   1.126   0.029  0.2065 -0.3736 -0.1073
  643TMC3     H 9576   3.987   1.056  17.590 -0.9649 -1.4518  0.3736
  643TMC3    H1 9577   4.360   0.860  17.675 -0.2721 -0.0265 -0.2917
  643TMC3    H2 9578   4.125   0.762  17.336  1.1817  2.2416 -0.6040
  643TMC3    C7 9579   4.352   0.861  17.408 -0.3108  0.5920  0.0913
  643TMC3    C8 9580   4.010   0.976  17.338 -0.0796  0.2919 -0.5562
  643TMC3    O1 9581   4.408   0.961  17.435 -0.3016  0.3619  0.3658
  643TMC3    O2 9582   3.971   0.918  17.241 -0.0980  0.4732  0.5122
  644MPD2     C 9583   4.058   2.458   9.482 -0.3083 -0.9642  0.4911
  644MPD2    C1 9584   4.055   2.432   9.617  0.0951 -0.1921 -0.1022
  644MPD2    C2 9585   3.963   2.497   9.700 -0.3828 -0.2587  0.3360
  644MPD2    C3 9586   3.887   2.602   9.651  0.6847 -0.2969  0.1675
  644MPD2    C4 9587   3.890   2.623   9.512 -0.5245 -0.8401  0.4261
  644MPD2    C5 9588   3.973   2.552   9.430  0.3587  0.7063 -0.8683
  644MPD2     H 9589   3.971   2.476   9.806 -0.5098  0.0279  0.4011
  644MPD2    H1 9590   3.832   2.699   9.463 -0.6308 -0.2293  1.4941
  644MPD2    H2 9591   4.130   2.411   9.416  0.5149 -0.8053  1.2812
  644MPD2    H3 9592   3.980   2.572   9.324  0.2416  1.0462 -0.8118
  644MPD2     N 9593   3.811   2.687   9.737  0.0246  0.8522  0.2988
  644MPD2    H5 9594   3.812   2.658   9.834 -0.5678  0.8119  0.2952
  644MPD2    N1 9595   4.130   2.317   9.665 -0.5561  0.3470  0.1158
  644MPD2    H7 9596   4.171   2.263   9.589 -2.6917 -2.6495  1.0669
  645TMC3    C1 9597   3.666   2.866   9.806 -0.2240  0.1846 -0.2658
  645TMC3    C2 9598   3.658   2.798   9.931 -0.4859 -0.5383 -0.0700
  645TMC3    C3 9599   3.670   2.872  10.047 -0.9728  0.8377  0.4356
  645TMC3    C4 9600   3.653   3.004   9.804  0.4773 -0.2573 -0.2384
  645TMC3    C5 9601   3.669   3.076   9.920  0.0673 -0.4423  0.5130
  645TMC3    C6 9602   3.677   3.013  10.042  0.1225 -0.1689 -0.3879
  645TMC3     C 9603   3.750   2.805   9.700 -0.5159  0.5754  0.4981
  645TMC3     O 9604   3.766   2.868   9.598 -0.6082  0.2852  0.3935
  645TMC3     H 9605   3.647   2.690   9.939  0.3977 -0.6097  0.1595
  645TMC3    H1 9606   3.654   3.061   9.712  2.3067 -0.0032 -0.0592
  645TMC3    H2 9607   3.659   3.073  10.131  1.8424 -1.1327  0.6185
  645TMC3    C7 9608   3.736   3.202   9.904  0.4076  0.6956 -0.5110
  645TMC3    C8 9609   3.650   2.793  10.172  0.2398 -0.8176 -0.1970
  645TMC3    O1 9610   3.721   3.256   9.798  0.0045  0.2798  0.2813
  645TMC3    O2 9611   3.599   2.678  10.164  0.0316  0.3551  0.2944
  646MPD2     C 9612   3.339   1.991  14.236  0.2346 -0.0791 -0.1999
  646MPD2    C1 9613   3.260   1.916  14.321 -0.6121 -0.3631  0.0881
  646MPD2    C2 9614   3.124   1.940  14.321  1.3108  0.1268 -0.4805
  646MPD2    C3 9615   3.065   2.034  14.239 -0.1703 -0.8660 -0.1238
  646MPD2    C4 9616   3.144   2.116  14.167 -0.2614 -0.3488 -0.1183
  646MPD2    C5 9617   3.284   2.099  14.168  0.0623  0.6554 -0.6813
  646MPD2     H 9618   3.051   1.876  14.371 -0.1503  2.4869  0.4276
  646MPD2    H1 9619   3.098   2.199  14.115  0.3272  0.4024  0.5714
  646MPD2    H2 9620   3.447   1.982  14.237  0.4294  2.5512  1.2698
  646MPD2    H3 9621   3.350   2.167  14.115 -0.9162  1.6682 -0.6041
  646MPD2     N 9622   2.922   2.039  14.237  0.2399  0.1020 -0.0481
  646MPD2    H5 9623   2.868   1.977  14.297 -1.2823  0.8879 -0.5843
  646MPD2    N1 9624   3.320   1.814  14.398 -0.4188  0.1318  0.5884
  646MPD2    H7 9625   3.420   1.801  14.385  0.0225  3.0407  1.1738
  647TMC3    C1 9626   3.341   1.634  14.561 -0.3302  0.7898  0.0915
  647TMC3    C2 9627   3.290   1.574  14.674 -0.5004 -0.1703  0.1131
  647TMC3    C3 9628   3.366   1.474  14.736  0.0338  0.4468 -0.3698
  647TMC3    C4 9629   3.464   1.599  14.517  0.2104 -0.1198 -0.3777
  647TMC3    C5 9630   3.534   1.496  14.578  0.0760  0.2247  0.1611
  647TMC3    C6 9631   3.483   1.433  14.685 -0.0882  0.1629  0.2435
  647TMC3     C 9632   3.256   1.729  14.493 -0.4431 -0.4997 -0.2329
  647TMC3     O 9633   3.138   1.721  14.529  0.2110  0.1286  0.5094
  647TMC3     H 9634   3.189   1.601  14.704 -0.6928 -0.6586 -0.0951
  647TMC3    H1 9635   3.501   1.652  14.430 -1.1800  1.6735  0.1208
  647TMC3    H2 9636   3.536   1.344  14.717  1.9621  0.9678 -0.9578
  647TMC3    C7 9637   3.669   1.463  14.541 -0.1384  0.6308 -0.3194
  647TMC3    C8 9638   3.317   1.381  14.839  0.7374 -0.4567  0.5227
  647TMC3    O1 9639   3.691   1.344  14.508 -0.5102  0.6507 -0.2024
  647TMC3    O2 9640   3.353   1.263  14.838 -0.1318 -0.3834 -0.1838
  648TMC3    C1 9641   2.613   3.702  16.218 -0.0229  0.1291  0.3354
  648TMC3    C2 9642   2.580   3.573  16.198 -0.5431 -0.1701  0.6416
  648TMC3    C3 9643   2.559   3.531  16.072 -0.4637 -0.0706 -0.7661
  648TMC3    C4 9644   2.590   3.794  16.120 -0.1469  0.5026 -0.3366
  648TMC3    C5 9645   2.539   3.748  16.002  0.2258  0.1547  0.0027
  648TMC3    C6 9646   2.542   3.616  15.969  0.1373 -0.1174 -0.1228
  648TMC3     C 9647   2.643   3.744  16.353 -0.5541  0.4639  0.3864
  648TMC3     O 9648   2.595   3.674  16.444 -0.6241 -0.2619  0.2484
  648TMC3     H 9649   2.585   3.494  16.273 -2.4931  1.1019  2.1051
  648TMC3    H1 9650   2.598   3.899  16.148  1.6380 -0.2972  2.1237
  648TMC3    H2 9651   2.511   3.581  15.871 -0.2039  2.7099 -1.0388
  648TMC3    C7 9652   2.506   3.843  15.893  0.5638 -1.1952  0.2953
  648TMC3    C8 9653   2.569   3.394  16.049  0.6898  1.2865 -0.3874
  648TMC3    O1 9654   2.503   3.797  15.778  0.1941 -0.3170 -0.6176
  648TMC3    O2 9655   2.536   3.318  16.142  0.3148  0.6659 -0.0327
  649TMC3    C1 9656   1.425   0.396  12.703 -0.0921 -0.1719 -0.1629
  649TMC3    C2 9657   1.553   0.418  12.659  0.4195  0.1509  0.2788
  649TMC3    C3 9658   1.657   0.384  12.738 -0.5943 -0.2281 -0.2933
  649TMC3    C4 9659   1.395   0.329  12.820 -0.2320 -0.6063 -0.1058
  649TMC3    C5 9660   1.498   0.290  12.892  0.6103  0.2930  0.2701
  649TMC3    C6 9661   1.628   0.321  12.858  0.4335 -0.0883  0.3987
  649TMC3     C 9662   1.317   0.459  12.640  0.1639  0.1337  0.1717
  649TMC3     O 9663   1.223   0.503  12.706 -0.1984 -0.6608 -0.0113
  649TMC3     H 9664   1.565   0.488  12.578 -1.7279 -2.1186 -1.9981
  649TMC3    H1 9665   1.293   0.314  12.852 -0.7989  0.4330 -1.4021
  649TMC3    H2 9666   1.706   0.296  12.929 -0.0990  1.0973  1.3996
  649TMC3    C7 9667   1.477   0.198  12.993  0.0346  0.9196 -0.2132
  649TMC3    C8 9668   1.785   0.442  12.720 -0.1836 -0.0248  0.1226
  649TMC3    O1 9669   1.366   0.196  13.047  0.2599  0.4625 -0.0115
  649TMC3    O2 9670   1.793   0.555  12.673 -0.2793 -0.1311  0.4134
  650TMC3    C1 9671   3.672   1.864  12.890  0.0595 -0.2975 -0.2852
  650TMC3    C2 9672   3.629   1.975  12.952  0.1271 -0.1696  0.0323
  650TMC3    C3 9673   3.495   2.007  12.941  0.3525 -0.3509 -0.8430
  650TMC3    C4 9674   3.593   1.777  12.820  0.0222 -0.2357  0.1146
  650TMC3    C5 9675   3.459   1.816  12.811  0.1055 -0.5286  1.1205
  650TMC3    C6 9676   3.409   1.925  12.876 -0.6259  0.2142  0.1153
  650TMC3     C 9677   3.813   1.834  12.910  0.3140  0.6852  0.1196
  650TMC3     O 9678   3.893   1.922  12.936 -0.0893 -0.5115 -0.0666
  650TMC3     H 9679   3.701   2.049  12.988  0.2166  0.2072 -0.9385
  650TMC3    H1 9680   3.630   1.694  12.761  1.2476  0.6952 -0.4211
  650TMC3    H2 9681   3.306   1.933  12.907 -0.0415 -0.6623  2.2756
  650TMC3    C7 9682   3.407   1.788  12.680  0.0238  0.4569 -0.1642
  650TMC3    C8 9683   3.473   2.151  12.920  0.2897 -0.9607  0.4599
  650TMC3    O1 9684   3.411   1.679  12.626 -0.1023  0.3675 -0.1307
  650TMC3    O2 9685   3.563   2.224  12.937 -0.4223 -0.0896  0.2841
  651MPD2     C 9686   2.927   4.087  10.318  0.0238 -0.0417  0.0990
  651MPD2    C1 9687   2.911   4.102  10.453 -0.3568 -0.0686 -0.2771
  651MPD2    C2 9688   3.024   4.138  10.527  0.3566  0.1165 -0.0371
  651MPD2    C3 9689   3.151   4.166  10.467  0.1036  0.0969 -0.8683
  651MPD2    C4 9690   3.159   4.150  10.325  0.1525 -0.8590 -0.3273
  651MPD2    C5 9691   3.045   4.113  10.257  0.3273 -0.4945  0.4434
  651MPD2     H 9692   3.015   4.150  10.635  1.0035 -1.9240  0.2500
  651MPD2    H1 9693   3.253   4.157  10.270  1.3391  0.5537  1.8942
  651MPD2    H2 9694   2.844   4.067  10.252 -0.7036  0.1001  0.9619
  651MPD2    H3 9695   3.039   4.112  10.148  5.3021 -2.1441  0.1876
  651MPD2     N 9696   3.257   4.196  10.549  0.3341  0.0360  0.0769
  651MPD2    H5 9697   3.227   4.206  10.646  1.3653 -0.3642  0.4468
  651MPD2    N1 9698   2.787   4.087  10.520  0.1030 -0.0322  0.2380
  651MPD2    H7 9699   2.781   4.132  10.611  1.8506  1.4477 -0.3752
  652TMC3    C1 9700   3.593   4.124  10.817  0.2108 -0.6350  0.5811
  652TMC3    C2 9701   3.558   4.120  10.681  0.3912  0.3035 -0.0122
  652TMC3    C3 9702   3.471   4.216  10.637  0.2792  0.4297  0.8413
  652TMC3    C4 9703   3.543   4.218  10.903  0.2598 -0.1286  0.0417
  652TMC3    C5 9704   3.473   4.320  10.855 -0.2473 -0.8201  0.2117
  652TMC3    C6 9705   3.428   4.321  10.724 -0.8226  0.2619 -0.0972
  652TMC3     C 9706   3.730   4.078  10.854 -0.1450  0.5392 -0.0526
  652TMC3     O 9707   3.767   4.075  10.968 -0.1344 -0.2018  0.3423
  652TMC3     H 9708   3.595   4.038  10.621 -1.2160 -0.8594  0.6025
  652TMC3    H1 9709   3.575   4.210  11.006 -2.4630  2.6953  1.0904
  652TMC3    H2 9710   3.351   4.388  10.688  0.5694  1.6073 -0.5766
  652TMC3    C7 9711   3.503   4.444  10.919  0.3047  0.3696 -0.2387
  652TMC3    C8 9712   3.388   4.178  10.522  0.0622  1.1013 -0.9490
  652TMC3    O1 9713   3.539   4.432  11.033  0.2468  0.6066 -1.0359
  652TMC3    O2 9714   3.439   4.105  10.438 -0.0539 -0.4297  0.3133
  653MPD2     C 9715   1.457   3.784  17.460 -0.0077 -0.0544 -1.0533
  653MPD2    C1 9716   1.473   3.838  17.334 -0.1871  0.0128 -0.1702
  653MPD2    C2 9717   1.441   3.763  17.225  0.3257 -0.7459  0.0084
  653MPD2    C3 9718   1.400   3.634  17.232 -0.1733 -0.3686  1.1189
  653MPD2    C4 9719   1.386   3.577  17.354  0.1086 -0.3071  0.5699
  653MPD2    C5 9720   1.417   3.651  17.469 -0.6727 -0.6536  0.6930
  653MPD2     H 9721   1.459   3.811  17.129 -0.0871  1.6276  1.1116
  653MPD2    H1 9722   1.358   3.473  17.366 -1.4257  0.0392  0.0021
  653MPD2    H2 9723   1.490   3.840  17.547 -2.5444 -1.0460  0.5278
  653MPD2    H3 9724   1.395   3.599  17.561  1.3401 -0.5397  1.2329
  653MPD2     N 9725   1.398   3.558  17.116 -0.0116  0.0590  0.0454
  653MPD2    H5 9726   1.419   3.598  17.025  2.2250  1.4402  1.1710
  653MPD2    N1 9727   1.513   3.974  17.308 -0.5123  0.0907  0.5566
  653MPD2    H7 9728   1.507   4.005  17.211  0.3396 -0.4207  0.3407
  654TMC3    C1 9729   1.413   3.370  16.967 -0.6532  0.2108 -0.3458
  654TMC3    C2 9730   1.346   3.448  16.880  0.8861 -0.6013  0.5958
  654TMC3    C3 9731   1.347   3.414  16.745  0.5368 -0.2075  0.4761
  654TMC3    C4 9732   1.455   3.248  16.931 -0.1987 -0.3065 -0.1903
  654TMC3    C5 9733   1.442   3.215  16.802 -0.9929 -0.1537  0.3247
  654TMC3    C6 9734   1.397   3.295  16.702  0.7394 -0.1111  0.6233
  654TMC3     C 9735   1.420   3.422  17.105  0.5518 -0.0962 -0.3666
  654TMC3     O 9736   1.445   3.338  17.189 -0.1288  0.4195  0.1556
  654TMC3     H 9737   1.301   3.544  16.905  0.1529 -0.9091  0.4368
  654TMC3    H1 9738   1.523   3.196  16.997  2.5989  1.0115 -2.0485
  654TMC3    H2 9739   1.391   3.252  16.602 -0.7069  1.2615  0.1228
  654TMC3    C7 9740   1.481   3.083  16.752 -0.3628  0.4476 -0.0184
  654TMC3    C8 9741   1.290   3.511  16.645 -1.0586 -0.8076  0.0133
  654TMC3    O1 9742   1.481   3.066  16.631  0.3504  0.5185 -0.2162
  654TMC3    O2 9743   1.251   3.616  16.694 -0.2022  0.0222  0.5694
  655MPD2     C 9744   3.240   3.769  15.852  0.5948  1.0807 -0.2152
  655MPD2    C1 9745   3.211   3.879  15.771  0.2906  0.0905  0.2671
  655MPD2    C2 9746   3.220   3.863  15.637 -0.1736  0.2775  0.1121
  655MPD2    C3 9747   3.269   3.748  15.577 -0.1849 -0.1023 -0.4045
  655MPD2    C4 9748   3.291   3.637  15.657  0.0561  0.2115  0.1644
  655MPD2    C5 9749   3.271   3.652  15.795  0.1121  1.0824 -0.3344
  655MPD2     H 9750   3.210   3.946  15.568  2.6979  0.4020 -0.1613
  655MPD2    H1 9751   3.333   3.543  15.623  3.0271  1.7506 -0.4455
  655MPD2    H2 9752   3.228   3.755  15.959  1.5498 -1.9648 -0.4857
  655MPD2    H3 9753   3.294   3.561  15.851 -1.9674  0.7427 -0.0399
  655MPD2     N 9754   3.295   3.724  15.441 -0.2056  0.2760  0.5113
  655MPD2    H5 9755   3.311   3.626  15.420 -1.2987  0.1433  0.2855
  655MPD2    N1 9756   3.184   4.000  15.832  0.4484 -0.4846 -0.2444
  655MPD2    H7 9757   3.174   4.079  15.768  1.9456  0.2492  0.4204
  656TMC3    C1 9758   3.082   4.138  15.980  0.2111  0.9794  0.4603
  656TMC3    C2 9759   2.985   4.141  16.074 -0.0950 -0.5420  0.2217
  656TMC3    C3 9760   2.884   4.228  16.058 -0.0082  0.3265 -0.4929
  656TMC3    C4 9761   3.076   4.226  15.868  0.7710  0.6318 -0.4325
  656TMC3    C5 9762   2.977   4.322  15.865  0.4294 -0.0908  0.6008
  656TMC3    C6 9763   2.874   4.318  15.953 -0.1983  0.0154 -0.3595
  656TMC3     C 9764   3.154   4.016  15.967 -0.0006  0.4548  0.5569
  656TMC3     O 9765   3.136   3.937  16.061  0.2297 -0.6637  0.3952
  656TMC3     H 9766   2.989   4.081  16.164  1.6948  1.1205  1.2573
  656TMC3    H1 9767   3.151   4.220  15.789  2.3459  1.2723  0.9953
  656TMC3    H2 9768   2.777   4.361  15.931  0.5242  1.1284 -1.3867
  656TMC3    C7 9769   2.963   4.383  15.735 -0.8204 -0.2398  0.2723
  656TMC3    C8 9770   2.763   4.213  16.146  0.2956 -0.1610 -0.0550
  656TMC3    O1 9771   3.012   4.337  15.634  0.8272 -0.0500 -0.3479
  656TMC3    O2 9772   2.747   4.100  16.192  0.1745 -1.1360 -0.4252
  657TMC3    C1 9773   2.128   3.033  15.640  0.1111 -0.6009 -0.5530
  657TMC3    C2 9774   2.225   2.964  15.700 -0.0556 -0.5246  0.0935
  657TMC3    C3 9775   2.281   3.012  15.818  0.3177  0.2802  0.2543
  657TMC3    C4 9776   2.086   3.154  15.687  0.1090 -0.3394 -0.5135
  657TMC3    C5 9777   2.131   3.194  15.809  0.1302  0.0277  0.2873
  657TMC3    C6 9778   2.221   3.120  15.875 -0.5134  0.3347 -0.2996
  657TMC3     C 9779   2.063   2.978  15.527  0.1203  0.8143 -0.7303
  657TMC3     O 9780   1.986   3.042  15.458 -0.2328 -0.2321 -0.0278
  657TMC3     H 9781   2.268   2.869  15.671  1.4135  0.1030  0.2396
  657TMC3    H1 9782   2.011   3.208  15.630  1.0180  1.5850  0.1014
  657TMC3    H2 9783   2.270   3.145  15.968  1.5261 -1.2347 -0.9356
  657TMC3    C7 9784   2.095   3.320  15.869 -0.5024 -0.5478 -0.4138
  657TMC3    C8 9785   2.339   2.906  15.902  0.4638 -0.3190  0.1824
  657TMC3    O1 9786   2.168   3.356  15.965 -0.0018 -0.0507  0.2956
  657TMC3    O2 9787   2.327   2.927  16.022  0.0289  0.2691  0.0990
  658MPD2     C 9788   3.536   4.071  14.722  0.3105  0.4749 -0.6488
  658MPD2    C1 9789   3.415   4.004  14.731  0.0905  0.4274 -0.6184
  658MPD2    C2 9790   3.318   4.041  14.634  0.0070  0.9208  0.5301
  658MPD2    C3 9791   3.347   4.135  14.535 -0.0638 -0.4585  0.0308
  658MPD2    C4 9792   3.465   4.202  14.543  0.1921 -0.2060  0.3808
  658MPD2    C5 9793   3.565   4.165  14.627 -0.5810  0.3662  0.6390
  658MPD2     H 9794   3.217   4.001  14.638  0.7690 -1.0087  0.5235
  658MPD2    H1 9795   3.476   4.300  14.498  2.3805 -0.4116  0.4954
  658MPD2    H2 9796   3.609   4.055  14.799 -0.7354  1.3424  0.5237
  658MPD2    H3 9797   3.662   4.213  14.628 -0.1805 -0.4227 -0.0460
  658MPD2     N 9798   3.251   4.163  14.443  0.2894 -0.5156 -0.3085
  658MPD2    H5 9799   3.167   4.106  14.446  0.2420 -0.2247  4.1841
  658MPD2    N1 9800   3.389   3.918  14.843 -0.3703  0.6631 -0.4365
  658MPD2    H7 9801   3.460   3.919  14.916 -1.2948  0.8995  0.4666
  659TMC3    C1 9802   3.285   3.760  14.979  0.4362  0.0536 -0.8254
  659TMC3    C2 9803   3.328   3.808  15.105  0.2082 -0.1816 -0.5738
  659TMC3    C3 9804   3.267   3.758  15.214 -1.4029  0.3217 -0.1154
  659TMC3    C4 9805   3.206   3.643  14.964 -0.5744  0.3435  0.0146
  659TMC3    C5 9806   3.151   3.603  15.079 -0.3814  0.1761 -0.1339
  659TMC3    C6 9807   3.182   3.656  15.201 -0.8780  0.0531 -0.6551
  659TMC3     C 9808   3.276   3.844  14.864 -0.0622 -0.1410  0.4451
  659TMC3     O 9809   3.178   3.832  14.792 -0.4912 -0.2410 -0.1843
  659TMC3     H 9810   3.381   3.901  15.126  0.3707  0.0941 -2.2381
  659TMC3    H1 9811   3.193   3.592  14.869 -0.3328  2.0752 -0.9359
  659TMC3    H2 9812   3.127   3.632  15.290 -3.2321  0.3168 -2.0433
  659TMC3    C7 9813   3.015   3.538  15.084 -0.1624  0.9052  0.0379
  659TMC3    C8 9814   3.277   3.821  15.343 -0.1491  0.2088  0.5167
  659TMC3    O1 9815   2.990   3.486  15.188 -0.0653 -0.5834  0.4803
  659TMC3    O2 9816   3.275   3.943  15.349  0.0572 -0.4489 -0.3879
  660MPD2     C 9817   1.230   2.862  12.739 -0.4159 -0.3525  0.1015
  660MPD2    C1 9818   1.097   2.884  12.775  0.2330 -0.3540  0.3158
  660MPD2    C2 9819   1.041   2.826  12.890  0.4975  0.1627  0.3173
  660MPD2    C3 9820   1.107   2.720  12.943  0.1089  0.3377  0.1956
  660MPD2    C4 9821   1.243   2.707  12.922 -0.3385 -0.2650  0.2701
  660MPD2    C5 9822   1.304   2.780  12.826 -0.0198  0.0343 -0.9936
  660MPD2     H 9823   0.935   2.841  12.908  0.9874  3.6477  0.1824
  660MPD2    H1 9824   1.307   2.647  12.985  0.2821 -1.0301 -1.0855
  660MPD2    H2 9825   1.279   2.908  12.654 -1.5254  1.7522  0.6301
  660MPD2    H3 9826   1.411   2.781  12.812  0.1699 -0.6264  0.4338
  660MPD2     N 9827   1.036   2.613  13.016 -0.4150 -0.0532 -0.0484
  660MPD2    H5 9828   1.103   2.540  13.039  0.4249  0.6677 -0.2114
  660MPD2    N1 9829   1.018   2.959  12.682  0.3778  0.0325 -0.8729
  660MPD2    H7 9830   1.059   2.976  12.590  1.9196 -1.3357 -0.4458
  661TMC3    C1 9831   0.810   3.017  12.581  0.0468 -0.3424 -0.2501
  661TMC3    C2 9832   0.865   2.994  12.462  0.8582  0.3523  0.4237
  661TMC3    C3 9833   0.793   3.035  12.351  0.1523 -0.0817 -0.0489
  661TMC3    C4 9834   0.687   3.085  12.600 -0.1339 -0.6750  0.0592
  661TMC3    C5 9835   0.615   3.108  12.489  0.0058 -0.1188  0.2364
  661TMC3    C6 9836   0.666   3.095  12.363 -0.0330 -0.4295  0.1646
  661TMC3     C 9837   0.886   3.000  12.698  0.0028 -0.0176 -0.6062
  661TMC3     O 9838   0.834   3.032  12.809 -0.3516  0.0454 -0.4927
  661TMC3     H 9839   0.962   2.949  12.444  1.0132  1.4291 -1.3695
  661TMC3    H1 9840   0.643   3.110  12.696  2.6691 -0.6985  1.3280
  661TMC3    H2 9841   0.604   3.118  12.277 -0.7315  0.4085  0.8936
  661TMC3    C7 9842   0.470   3.111  12.502  0.1985 -0.1770 -0.1680
  661TMC3    C8 9843   0.869   3.060  12.228 -0.2458 -0.5693  0.1459
  661TMC3    O1 9844   0.425   3.130  12.615  0.5065  0.0712 -0.1007
  661TMC3    O2 9845   0.837   3.167  12.170 -0.5280  0.4079 -0.0869
  662MPD2     C 9846   1.528   1.782  17.666 -0.2041 -0.0668 -0.2743
  662MPD2    C1 9847   1.458   1.693  17.594 -0.1899  0.3647 -0.8094
  662MPD2    C2 9848   1.435   1.704  17.463  0.2827  0.1678 -0.1375
  662MPD2    C3 9849   1.490   1.815  17.397 -0.2143  0.8689  0.3633
  662MPD2    C4 9850   1.551   1.916  17.471 -0.2546 -0.5472 -0.7403
  662MPD2    C5 9851   1.571   1.900  17.606 -0.0699 -0.0605  0.9130
  662MPD2     H 9852   1.376   1.628  17.412  0.4563  0.9568 -1.4995
  662MPD2    H1 9853   1.591   2.004  17.421 -0.1853  0.5669  1.2940
  662MPD2    H2 9854   1.556   1.772   0.016  0.3110 -0.1642 -0.4182
  662MPD2    H3 9855   1.624   1.978  17.659  0.8107 -0.8808  1.2443
  662MPD2     N 9856   1.476   1.842  17.259  0.1002 -0.3815  0.3071
  662MPD2    H5 9857   1.501   1.934  17.224  1.3343 -1.0319 -0.4683
  662MPD2    N1 9858   1.409   1.578  17.654  0.2796 -0.3469 -0.4868
  662MPD2    H7 9859   1.375   1.497  17.604 -0.0754 -0.5838  0.1400
  663TMC3    C1 9860   1.278   1.469   0.051  0.5876  0.3494 -0.2029
  663TMC3    C2 9861   1.265   1.424   0.180 -0.2925 -0.0200  0.0313
  663TMC3    C3 9862   1.179   1.324   0.203 -0.1445  0.3905 -0.4843
  663TMC3    C4 9863   1.210   1.421  17.699  0.4949 -0.5065  0.3032
  663TMC3    C5 9864   1.121   1.320  17.722  0.1595  0.7389  0.1831
  663TMC3    C6 9865   1.093   1.281   0.099  0.3313  0.3713 -0.1668
  663TMC3     C 9866   1.381   1.564   0.033  0.0858 -0.0220  0.2893
  663TMC3     O 9867   1.403   1.638   0.130  0.5167 -0.5621 -0.1757
  663TMC3     H 9868   1.334   1.455   0.258 -0.7326  0.1218  0.3640
  663TMC3    H1 9869   1.195   1.479  17.608  0.2649 -0.4038  0.4055
  663TMC3    H2 9870   1.018   1.204   0.114  0.8936 -0.3116 -0.8398
  663TMC3    C7 9871   1.026   1.281  17.616 -0.0638  0.3719  0.0982
  663TMC3    C8 9872   1.236   1.226   0.291  0.3097  0.0596  0.1214
  663TMC3    O1 9873   1.018   1.367  17.527  0.1387 -0.1462 -0.4418
  663TMC3    O2 9874   1.344   1.246   0.342  0.1433  0.0277  0.3600
  664MPD2     C 9875   3.916   4.674  16.755  0.4055  0.2299  0.2604
  664MPD2    C1 9876   4.032   4.720  16.794  0.1430  0.2308  0.1243
  664MPD2    C2 9877   4.082   4.709  16.923 -0.0389 -0.3945  0.0259
  664MPD2    C3 9878   4.006   4.647  17.019  0.0376 -0.3376  0.2339
  664MPD2    C4 9879   3.882   4.600  16.982  0.5232 -0.2504  0.2808
  664MPD2    C5 9880   3.836   4.625  16.855  0.0172 -0.1795  0.1741
  664MPD2     H 9881   4.184   4.738  16.947  0.1475  0.4099 -1.7642
  664MPD2    H1 9882   3.808   4.544  17.038 -0.2453  2.8131  2.3304
  664MPD2    H2 9883   3.870   4.680  16.657  1.8018  2.0416 -0.2880
  664MPD2    H3 9884   3.733   4.597  16.834  0.0495 -0.0601 -0.1423
  664MPD2     N 9885   4.046   4.634  17.152  0.2239  0.1423  0.1744
  664MPD2    H5 9886   4.138   4.669  17.178  0.3662  0.8031 -1.1978
  664MPD2    N1 9887   4.110   0.060  16.702  0.6687 -0.9520 -0.3506
  664MPD2    H7 9888   4.192   0.103  16.744 -0.9956  0.2484  1.6742
  665TMC3    C1 9889   4.023   4.587  17.383  0.7755 -0.9370  0.4726
  665TMC3    C2 9890   3.987   4.490  17.469  0.1565  0.5123 -0.2950
  665TMC3    C3 9891   4.030   4.514  17.596  0.0535  0.2417  0.2986
  665TMC3    C4 9892   4.086   4.705  17.407  0.0749 -0.5798  0.2576
  665TMC3    C5 9893   4.134   4.722  17.532  0.3900 -0.5594 -0.0355
  665TMC3    C6 9894   4.106   4.621  17.628 -0.0872  0.0841  0.1096
  665TMC3     C 9895   3.969   4.568  17.248  0.4454 -0.3430 -0.3519
  665TMC3     O 9896   3.876   4.494  17.229  0.0490  0.2548  0.5914
  665TMC3     H 9897   3.923   4.406  17.443 -1.2125  1.3332  0.4473
  665TMC3    H1 9898   4.085   0.051  17.340  1.5175 -1.0729 -0.3882
  665TMC3    H2 9899   4.137   4.638  17.730 -0.6912  0.2558  0.2627
  665TMC3    C7 9900   4.181   0.117  17.561  0.1984 -0.0012  0.0635
  665TMC3    C8 9901   3.965   4.449  17.707 -0.6023  0.7170  0.1800
  665TMC3    O1 9902   4.216   0.183  17.465  0.0286  0.0528 -0.5408
  665TMC3    O2 9903   3.976   4.507   0.055  0.3823  0.3253  0.7729
  666TMC3    C1 9904   2.958   0.662  10.030  0.1292  0.0463 -0.1452
  666TMC3    C2 9905   3.074   0.593  10.028  0.5429 -0.4389  0.1626
  666TMC3    C3 9906   3.181   0.660   9.968  0.1726 -0.0787 -0.5785
  666TMC3    C4 9907   2.937   0.794   9.991  0.1167  0.6661 -0.5245
  666TMC3    C5 9908   3.048   0.854   9.940 -0.1998 -0.2244  1.1590
  666TMC3    C6 9909   3.169   0.790   9.922 -0.0862 -0.1236  0.4086
  666TMC3     C 9910   2.872   0.612  10.135 -0.0460  0.3841 -0.0315
  666TMC3     O 9911   2.801   0.693  10.189 -0.2207 -0.6715  0.4442
  666TMC3     H 9912   3.084   0.495  10.073  1.7646  1.3470  3.7759
  666TMC3    H1 9913   2.839   0.838  10.005  0.5380  1.2361  0.6757
  666TMC3    H2 9914   3.257   0.840   9.883 -0.7284 -0.2361 -1.1679
  666TMC3    C7 9915   3.036   0.990   9.903 -0.5486 -0.1005  0.7177
  666TMC3    C8 9916   3.307   0.590   9.955  0.6953 -0.0612  0.0439
  666TMC3    O1 9917   2.918   1.022   9.883  0.2832  0.4128 -0.3824
  666TMC3    O2 9918   3.319   0.482  10.010 -0.2361 -0.3305 -0.4279
  667MPD2     C 9919   0.203   0.253  15.010 -0.1061  0.6485  0.6076
  667MPD2    C1 9920   0.116   0.276  15.115  0.7065 -0.0288 -0.2235
  667MPD2    C2 9921   4.732   0.219  15.106  0.0066 -0.0442 -0.2660
  667MPD2    C3 9922   4.701   0.115  15.019 -0.0297 -0.7331 -0.4091
  667MPD2    C4 9923   0.051   0.096  14.914 -0.4221  0.4788  0.1115
  667MPD2    C5 9924   0.178   0.160  14.913 -0.4307  0.2894  0.0694
  667MPD2     H 9925   4.660   0.259  15.177  0.7169  0.4992  0.1570
  667MPD2    H1 9926   0.017   0.032  14.834 -0.9162  1.7825 -0.7280
  667MPD2    H2 9927   0.304   0.290  15.022  0.7364 -1.6508  0.6986
  667MPD2    H3 9928   0.252   0.122  14.844 -0.0488  2.0344 -0.4765
  667MPD2     N 9929   4.586   0.042  15.019 -0.3727 -0.0672 -0.2612
  667MPD2    H5 9930   4.587   4.694  14.965 -0.3755  0.2546 -0.7761
  667MPD2    N1 9931   0.146   0.363  15.225 -0.3173  0.5809 -0.0770
  667MPD2    H7 9932   0.076   0.377  15.297 -1.0307  4.7541 -1.5881
  668TMC3    C1 9933   0.257   0.532  15.344  0.9937 -0.4317  0.3543
  668TMC3    C2 9934   0.306   0.663  15.337 -1.1915  0.6042 -0.0500
  668TMC3    C3 9935   0.360   0.715  15.449 -0.5591 -0.6731  0.1489
  668TMC3    C4 9936   0.248   0.464  15.465  0.2661 -0.4041 -0.9328
  668TMC3    C5 9937   0.294   0.527  15.574  0.4651  0.1424  0.1755
  668TMC3    C6 9938   0.363   0.648  15.564  0.5558 -0.3008 -0.7040
  668TMC3     C 9939   0.253   0.453  15.222 -0.1049  0.4177  0.1762
  668TMC3     O 9940   0.318   0.495  15.125  0.0606  0.4515  0.1959
  668TMC3     H 9941   0.302   0.715  15.242  0.3621  2.3732  0.8465
  668TMC3    H1 9942   0.229   0.357  15.471  0.8971 -0.4945 -0.6333
  668TMC3    H2 9943   0.417   0.686  15.651  0.5681 -1.7065 -0.1025
  668TMC3    C7 9944   0.281   0.464  15.705  0.8788  0.3759 -0.8884
  668TMC3    C8 9945   0.450   0.831  15.439 -0.6990  0.2744 -0.5775
  668TMC3    O1 9946   0.357   0.505  15.795 -0.2638 -0.6965  0.4136
  668TMC3    O2 9947   0.497   0.867  15.544  0.0234  0.3400  0.6985
  669TMC3    C1 9948   3.354   0.537  14.483 -0.5038 -0.1051  0.1955
  669TMC3    C2 9949   3.224   0.534  14.438  0.3823 -0.0031  0.2766
  669TMC3    C3 9950   3.182   0.641  14.366 -1.2056 -0.2405  0.7074
  669TMC3    C4 9951   3.439   0.632  14.451 -0.3480 -0.0757 -0.7951
  669TMC3    C5 9952   3.389   0.735  14.366  0.5998 -0.5024 -0.0610
  669TMC3    C6 9953   3.258   0.744  14.326 -0.7666 -0.0894 -1.1609
  669TMC3     C 9954   3.389   0.417  14.552  0.1539  0.1969  0.7745
  669TMC3     O 9955   3.297   0.346  14.593  0.2083 -0.4755  0.5995
  669TMC3     H 9956   3.153   0.459  14.469  1.4570 -0.8476  0.7133
  669TMC3    H1 9957   3.532   0.646  14.505 -0.5270 -1.6012 -0.0967
  669TMC3    H2 9958   3.219   0.826  14.268  2.1792  2.5499  0.6345
  669TMC3    C7 9959   3.478   0.838  14.318  0.2930 -0.8179 -0.1041
  669TMC3    C8 9960   3.038   0.656  14.329  0.2573  0.3154  0.4844
  669TMC3    O1 9961   3.429   0.930  14.257 -0.4250 -0.4918  0.3913
  669TMC3    O2 9962   2.967   0.555  14.329 -0.2477  0.8110 -0.1317
  670MPD2     C 9963   1.070   3.092  13.105 -0.1419  0.1336 -0.8098
  670MPD2    C1 9964   1.151   3.112  13.211 -0.3024  0.1645  0.9559
  670MPD2    C2 9965   1.102   3.086  13.342  0.4065 -0.6350  0.6693
  670MPD2    C3 9966   0.980   3.034  13.359  0.0388 -0.3907  0.0455
  670MPD2    C4 9967   0.898   3.018  13.248 -0.3136  0.0553 -0.6503
  670MPD2    C5 9968   0.940   3.048  13.123  0.2481  0.0693 -0.2703
  670MPD2     H 9969   1.169   3.095  13.426 -0.1666  1.9762  0.8555
  670MPD2    H1 9970   0.801   2.973  13.266  0.2157 -0.4380  0.9093
  670MPD2    H2 9971   1.097   3.118  13.004  0.0830  1.5493 -0.3877
  670MPD2    H3 9972   0.871   3.030  13.041  0.7280 -0.4217 -0.5657
  670MPD2     N 9973   0.945   2.994  13.487  0.1566 -0.0408  0.0045
  670MPD2    H5 9974   1.024   2.983  13.550 -0.7106 -1.1803  0.8832
  670MPD2    N1 9975   1.278   3.172  13.202 -0.6344 -0.4226  0.1346
  670MPD2    H7 9976   1.317   3.209  13.287 -1.9013  1.3198 -0.0470
  671TMC3    C1 9977   0.805   2.993  13.684  0.2811  0.4735  0.1249
  671TMC3    C2 9978   0.916   2.997  13.771  0.2025 -0.2578 -0.1428
  671TMC3    C3 9979   0.914   2.960  13.901 -0.2891  0.5668 -0.6684
  671TMC3    C4 9980   0.698   2.924  13.736 -1.2727 -0.0441  0.2457
  671TMC3    C5 9981   0.701   2.865  13.863  0.0184  0.2562 -0.0809
  671TMC3    C6 9982   0.804   2.890  13.954 -0.6590  0.2814 -0.1121
  671TMC3     C 9983   0.816   2.980  13.541 -0.3258  0.0212  0.7512
  671TMC3     O 9984   0.709   2.988  13.486 -0.0966 -0.1190 -0.4828
  671TMC3     H 9985   1.004   3.046  13.732 -0.9054  0.4789 -1.7613
  671TMC3    H1 9986   0.611   2.906  13.675  0.2002 -2.8043 -1.0301
  671TMC3    H2 9987   0.814   2.841  14.050 -0.0975 -1.2483 -0.9562
  671TMC3    C7 9988   0.674   2.724  13.849 -0.0437  0.3140  0.0448
  671TMC3    C8 9989   1.031   2.886  13.923 -0.4923  0.0195  0.4230
  671TMC3    O1 9990   0.571   2.695  13.791 -0.0291  0.6408 -0.0814
  671TMC3    O2 9991   1.068   2.813  13.832  0.2988 -0.6312 -0.8316
  672MPD2     C 9992   1.268   3.882   0.407  0.2199  0.0194 -0.4448
  672MPD2    C1 9993   1.355   3.780   0.430  0.0532  0.5746 -0.1938
  672MPD2    C2 9994   1.472   3.815   0.489 -0.2666 -0.4022 -0.2201
  672MPD2    C3 9995   1.509   3.948   0.510 -0.3913 -0.3210  0.1143
  672MPD2    C4 9996   1.420   4.046   0.474 -0.5523  0.3984 -1.1352
  672MPD2    C5 9997   1.299   4.010   0.424 -0.0451  0.6502  0.2397
  672MPD2     H 9998   1.545   3.736   0.502  1.6214  1.3473 -0.2842
  672MPD2    H1 9999   1.439   4.153   0.477  1.4777 -0.0658  1.5426
  672MPD2    H210000   1.171   3.850   0.370  1.1118  0.2421 -3.0289
  672MPD2    H310001   1.223   4.086   0.404 -0.2363  0.7679  1.4571
  672MPD2     N10002   1.637   3.992   0.557  0.2876  0.7275  0.2984
  672MPD2    H510003   1.647   4.093   0.566 -0.6753  0.9389 -0.9953
  672MPD2    N110004   1.337   3.642   0.404 -0.0512  0.3704  0.1740
  672MPD2    H710005   1.412   3.583   0.438  0.3801  0.9416  0.2146
  673TMC3    C110006   1.244   3.452   0.300  0.1393  0.0050  0.4416
  673TMC3    C210007   1.244   3.355   0.405 -0.0606  0.1230 -0.0382
  673TMC3    C310008   1.209   3.223   0.382  0.1062 -0.2214  0.5482
  673TMC3    C410009   1.205   3.407   0.181  0.3299 -0.2463 -0.3466
  673TMC3    C510010   1.181   3.271   0.158  0.2884  0.2449 -0.8797
  673TMC3    C610011   1.172   3.180   0.261 -1.2946  0.5238  0.2775
  673TMC3     C10012   1.246   3.595   0.314 -0.1539 -0.1959 -0.1314
  673TMC3     O10013   1.170   3.658   0.240  0.3291 -0.4366 -0.3261
  673TMC3     H10014   1.252   3.399   0.504 -1.0227  3.5016 -1.4500
  673TMC3    H110015   1.196   3.471   0.094 -0.4487  0.8258  0.5236
  673TMC3    H210016   1.159   3.073   0.248 -1.6751  0.2208  3.1312
  673TMC3    C710017   1.175   3.213   0.024 -0.1129  0.6300  0.2909
  673TMC3    C810018   1.255   3.120   0.477  0.1294 -0.4181  0.4693
  673TMC3    O110019   1.228   3.104   0.009 -0.7311 -0.0380 -0.3767
  673TMC3    O210020   1.193   3.013   0.477  0.2884  0.7398 -0.1808
  674MPD2     C10021   1.416   1.884   0.722  0.3394  0.8533 -0.3452
  674MPD2    C110022   1.349   1.828   0.616  0.1126  0.2912  0.2892
  674MPD2    C210023   1.373   1.869   0.488  0.4272 -0.4044  0.1110
  674MPD2    C310024   1.467   1.965   0.464  0.0567 -0.4598 -0.4143
  674MPD2    C410025   1.545   2.013   0.568 -0.3065  0.4857 -0.0119
  674MPD2    C510026   1.520   1.972   0.696  0.7013 -0.1604 -0.2046
  674MPD2     H10027   1.306   1.831   0.412 -2.0668 -0.1192  2.1472
  674MPD2    H110028   1.606   2.102   0.567 -0.9599  0.9585  1.6540
  674MPD2    H210029   1.397   1.852   0.823  1.9784  0.1168 -0.2753
  674MPD2    H310030   1.578   2.012   0.778 -0.5204 -2.5851  1.8387
  674MPD2     N10031   1.469   2.018   0.333 -0.2388 -0.2455  0.2392
  674MPD2    H510032   1.399   1.989   0.266  2.8070  1.6754 -3.7856
  674MPD2    N110033   1.250   1.736   0.659  0.0709 -0.2480  0.4970
  674MPD2    H710034   1.237   1.735   0.760  3.0849 -3.1389  0.8504
  675TMC3    C110035   1.071   1.596   0.652  0.1333  0.1493  0.2304
  675TMC3    C210036   1.035   1.473   0.605  0.0267  0.2113  0.4788
  675TMC3    C310037   0.921   1.415   0.653 -0.1714  0.2928  0.3758
  675TMC3    C410038   1.000   1.668   0.748 -0.2848  0.3967  0.3667
  675TMC3    C510039   0.894   1.606   0.799  0.4684  0.6283  0.1435
  675TMC3    C610040   0.857   1.480   0.757  0.0980  0.2172  0.9819
  675TMC3     C10041   1.175   1.660   0.574 -0.5205  0.5786  0.3830
  675TMC3     O10042   1.182   1.638   0.453 -0.0512 -0.1277 -0.3039
  675TMC3     H10043   1.073   1.437   0.511  1.3673  2.0338  0.3334
  675TMC3    H110044   1.035   1.765   0.779 -2.0262  0.9688  0.5743
  675TMC3    H210045   0.769   1.427   0.791 -0.4964 -1.1210 -2.7354
  675TMC3    C710046   0.834   1.654   0.926 -0.0503 -0.2123 -0.4772
  675TMC3    C810047   0.922   1.269   0.677 -0.0520  0.4455  0.5230
  675TMC3    O110048   0.734   1.592   0.962  0.1107  0.0137  0.3023
  675TMC3    O210049   0.818   1.211   0.703  0.0335 -0.0488  0.1909
  676MPD2     C10050   3.786   1.623  11.278  0.1889 -0.0893 -0.4022
  676MPD2    C110051   3.747   1.514  11.353  0.4883 -0.7122 -0.2633
  676MPD2    C210052   3.782   1.387  11.310  0.0587  0.2148  0.2794
  676MPD2    C310053   3.845   1.368  11.187  0.1477 -0.1266 -0.7111
  676MPD2    C410054   3.889   1.475  11.116 -0.5751  0.4103 -0.4770
  676MPD2    C510055   3.863   1.598  11.166 -0.7354  0.0710  0.0646
  676MPD2     H10056   3.755   1.300  11.369 -3.5408  1.7099  0.8690
  676MPD2    H110057   3.948   1.460  11.026  0.2658 -2.2369  0.5190
  676MPD2    H210058   3.749   1.723  11.297  1.1020  0.6099 -2.3246
  676MPD2    H310059   3.896   1.687  11.114  1.7301 -0.0017  1.4950
  676MPD2     N10060   3.873   1.240  11.136  0.5376  0.1683 -0.5964
  676MPD2    H510061   3.909   1.234  11.041  0.3745  2.5594 -0.8207
  676MPD2    N110062   3.677   1.531  11.476  0.0575 -0.1313  0.5993
  676MPD2    H710063   3.635   1.451  11.523 -1.3795 -0.8732 -1.8980
  677TMC3    C110064   3.581   1.627  11.671 -0.1471  0.2593  0.9294
  677TMC3    C210065   3.534   1.503  11.711 -0.2550 -0.7650 -0.1742
  677TMC3    C310066   3.428   1.506  11.799 -0.1488 -0.6751 -0.8824
  677TMC3    C410067   3.538   1.745  11.719  0.4307  0.6727 -0.9575
  677TMC3    C510068   3.442   1.737  11.816 -0.8185 -0.4388  0.5958
  677TMC3    C610069   3.382   1.621  11.852  0.1670 -0.6933  0.0458
  677TMC3     C10070   3.664   1.647  11.550  0.5978 -0.9707 -0.0519
  677TMC3     O10071   3.723   1.748  11.534  1.0989 -0.1968 -0.0327
  677TMC3     H10072   3.581   1.412  11.677 -0.2001 -1.3738  1.5485
  677TMC3    H110073   3.577   1.845  11.700  2.2947  0.0278 -0.5505
  677TMC3    H210074   3.315   1.616  11.938  0.6980 -0.3529  0.4811
  677TMC3    C710075   3.452   1.828  11.928 -0.2819  0.1630  0.0064
  677TMC3    C810076   3.364   1.376  11.836 -0.1609  0.3291  0.2011
  677TMC3    O110077   3.346   1.854  11.987  0.3089 -0.0877 -0.5734
  677TMC3    O210078   3.317   1.319  11.738 -0.1865  0.4019 -0.7313
  678MPD2     C10079   0.220   0.613   1.463  0.2982 -0.1086 -0.1707
  678MPD2    C110080   0.207   0.529   1.347  0.4012 -0.3469 -0.1292
  678MPD2    C210081   0.082   0.528   1.277 -1.0606  0.2266 -0.4283
  678MPD2    C310082   4.728   0.632   1.301  0.2112  0.7156  0.5866
  678MPD2    C410083   0.021   0.724   1.398  0.0481  0.5753  0.1212
  678MPD2    C510084   0.130   0.712   1.482 -0.0034 -0.0367 -0.2748
  678MPD2     H10085   0.055   0.453   1.203  3.1457 -0.5034 -1.1917
  678MPD2    H110086   4.692   0.807   1.414 -1.3145 -0.3381 -0.9281
  678MPD2    H210087   0.305   0.613   1.530  1.0761 -1.5380 -1.1723
  678MPD2    H310088   0.146   0.776   1.568 -0.7604  0.8980 -0.8314
  678MPD2     N10089   4.610   0.645   1.223 -0.2694  0.3623 -0.2050
  678MPD2    H510090   4.595   0.576   1.149  2.1373  0.5417 -0.8657
  678MPD2    N110091   0.312   0.442   1.320  0.3961 -0.1512 -0.0546
  678MPD2    H710092   0.302   0.383   1.237  1.3918  1.1668 -1.1179
  679TMC3    C110093   0.731   0.243   1.340  0.1184 -0.3935 -0.1174
  679TMC3    C210094   0.643   0.335   1.382 -0.2281  0.1926 -0.6576
  679TMC3    C310095   0.511   0.321   1.339  0.0841  0.0552 -0.2123
  679TMC3    C410096   0.695   0.142   1.257 -0.0899  0.1951 -0.4038
  679TMC3    C510097   0.563   0.118   1.233  0.1219 -0.2268  0.0354
  679TMC3    C610098   0.475   0.215   1.265 -0.7660 -0.4349 -0.3343
  679TMC3     C10099   0.875   0.281   1.323  0.0561 -0.2651  0.5516
  679TMC3     O10100   0.957   0.190   1.318 -0.3194  0.1814  0.1074
  679TMC3     H10101   0.670   0.412   1.454  3.1961 -0.5456 -1.1928
  679TMC3    H110102   0.774   0.085   1.210 -0.8287 -0.4724 -0.8355
  679TMC3    H210103   0.367   0.212   1.260 -0.8083  1.2475 -0.3149
  679TMC3    C710104   0.549   0.053   1.104 -0.9259 -0.3386  0.3990
  679TMC3    C810105   0.425   0.428   1.394  0.2917 -0.0506  0.1076
  679TMC3    O110106   0.649   4.739   1.054  0.2970  0.4806 -0.0137
  679TMC3    O210107   0.470   0.484   1.492  0.4722 -0.3842  0.1582
  680MPD2     C10108   0.853   0.271  13.620 -0.4318  0.3525 -0.1894
  680MPD2    C110109   0.984   0.246  13.651 -0.5531  0.0523 -0.6840
  680MPD2    C210110   1.081   0.347  13.654  0.9309  0.1378 -0.0004
  680MPD2    C310111   1.046   0.480  13.628  0.5505  0.6148  0.1498
  680MPD2    C410112   0.909   0.504  13.610 -0.5634  0.0870  0.4467
  680MPD2    C510113   0.818   0.399  13.598  0.1346 -0.0199 -0.7886
  680MPD2     H10114   1.186   0.327  13.672  0.3712 -1.1725  1.7831
  680MPD2    H110115   0.869   0.604  13.598 -1.2056 -0.1640  0.5049
  680MPD2    H210116   0.777   0.194  13.615  0.7105 -0.9669  2.6809
  680MPD2    H310117   0.713   0.419  13.581 -0.4490 -1.9759  0.4792
  680MPD2     N10118   1.134   0.587  13.637 -0.6288  0.5707 -0.0199
  680MPD2    H510119   1.103   0.676  13.599 -2.3201  0.7225  1.7336
  680MPD2    N110120   1.035   0.120  13.667  0.0742 -0.1525  0.3688
  680MPD2    H710121   1.136   0.113  13.671  0.1481  0.9103  0.5046
  681TMC3    C110122   1.047   4.627  13.650  0.4720  0.0877 -0.6661
  681TMC3    C210123   1.000   4.512  13.709  0.6230 -1.3429 -0.1032
  681TMC3    C310124   1.070   4.399  13.688 -0.2756 -0.0301 -0.9907
  681TMC3    C410125   1.165   4.632  13.577  0.6148  0.0994  0.5157
  681TMC3    C510126   1.216   4.508  13.549 -0.5114  0.2392  0.2590
  681TMC3    C610127   1.180   4.388  13.608  0.2593  0.1720  0.4550
  681TMC3     C10128   0.962   0.003  13.656 -0.8029  0.0186 -0.1406
  681TMC3     O10129   0.842   4.724  13.663 -0.2437  0.0022 -0.1074
  681TMC3     H10130   0.908   4.511  13.767  2.4108  1.4052  2.8362
  681TMC3    H110131   1.198   4.724  13.530 -4.6576  1.2288 -0.9765
  681TMC3    H210132   1.231   4.295  13.588  1.4994  1.4889 -2.4283
  681TMC3    C710133   1.334   4.493  13.463  0.6570  0.4160 -0.5843
  681TMC3    C810134   1.055   4.284  13.779  0.4184  0.6470 -0.1127
  681TMC3    O110135   1.390   4.389  13.483 -0.2998 -0.1147  0.2892
  681TMC3    O210136   1.097   4.174  13.739  0.5699 -0.2716 -0.2068
  682MPD2     C10137   2.789   1.942  10.647  0.3482 -0.0869 -0.9169
  682MPD2    C110138   2.795   1.801  10.631 -0.0145  0.6412 -0.2176
  682MPD2    C210139   2.771   1.725  10.744 -0.0595  0.0993  0.9932
  682MPD2    C310140   2.752   1.781  10.873  0.1463  0.6613  0.0480
  682MPD2    C410141   2.749   1.918  10.880  0.4534 -0.3174  0.4407
  682MPD2    C510142   2.771   1.997  10.769  0.6995  0.0795 -0.1011
  682MPD2     H10143   2.780   1.617  10.737 -0.3122  0.1531 -0.1982
  682MPD2    H110144   2.749   1.968  10.976 -3.7473  0.7596 -0.1216
  682MPD2    H210145   2.814   2.020  10.576  1.2795 -1.6252 -2.2655
  682MPD2    H310146   2.776   2.106  10.771 -1.2420  0.2135 -1.8844
  682MPD2     N10147   2.741   1.702  10.992  0.3208 -0.2503 -0.2575
  682MPD2    H510148   2.736   1.759  11.076  2.3142  2.1326 -1.7450
  682MPD2    N110149   2.810   1.741  10.507 -0.2017 -0.2522  0.5852
  682MPD2    H710150   2.811   1.640  10.493  0.0778  0.0048 -1.2842
  683TMC3    C110151   2.821   1.499  11.360  0.1214 -0.2016 -0.6059
  683TMC3    C210152   2.786   1.369  11.371  0.1786 -0.2196  0.2520
  683TMC3    C310153   2.742   1.305  11.258 -0.8231 -0.1440  0.0614
  683TMC3    C410154   2.796   1.570  11.244 -0.0394 -0.1434  0.6103
  683TMC3    C510155   2.748   1.505  11.134  0.2994 -0.5915 -0.5279
  683TMC3    C610156   2.715   1.369  11.140  0.2620  0.5439  0.3334
  683TMC3     C10157   2.810   1.579  11.484  0.8122 -0.0522  0.0566
  683TMC3     O10158   2.774   1.694  11.470 -0.5199  0.0922  0.2189
  683TMC3     H10159   2.775   1.327  11.470  0.3429 -2.4020 -0.6724
  683TMC3    H110160   2.837   1.670  11.246 -0.6597  0.1488 -1.3032
  683TMC3    H210161   2.693   1.314  11.050 -0.1275  0.2472  0.6123
  683TMC3    C710162   2.752   1.567  10.998 -0.3571 -0.3226  0.6228
  683TMC3    C810163   2.759   1.162  11.238 -0.4262  0.3797  0.0119
  683TMC3    O110164   2.735   1.483  10.911  0.2438  0.2135  0.4917
  683TMC3    O210165   2.722   1.108  11.136  0.8041 -0.0488 -0.0399
  684MPD2     C10166   1.699   0.507  16.160  0.5075  0.3672 -0.4837
  684MPD2    C110167   1.620   0.590  16.084 -0.1329 -1.0076  0.5532
  684MPD2    C210168   1.579   0.715  16.137  0.3160  0.5601 -0.3402
  684MPD2    C310169   1.621   0.755  16.261 -0.4051 -1.0578 -0.0018
  684MPD2    C410170   1.699   0.672  16.339 -0.0381 -0.1493 -0.7039
  684MPD2    C510171   1.732   0.547  16.283  0.2181  0.1802 -0.2736
  684MPD2     H10172   1.521   0.783  16.076 -1.1960 -0.9196 -0.5666
  684MPD2    H110173   1.733   0.699  16.438 -3.1899 -1.5333  0.7701
  684MPD2    H210174   1.734   0.411  16.124  2.3075  1.1593 -0.8497
  684MPD2    H310175   1.804   0.494  16.345  1.3099  3.9998  1.7207
  684MPD2     N10176   1.584   0.886  16.310 -0.1689 -0.1190 -0.1765
  684MPD2    H510177   1.610   0.906  16.406  1.4511  0.3359 -0.6999
  684MPD2    N110178   1.602   0.572  15.944 -0.2720  0.1000  1.0298
  684MPD2    H710179   1.558   0.646  15.891  2.6962  0.7827 -0.4658
  685TMC3    C110180   1.681   0.500  15.733  0.3367 -0.9380  0.0465
  685TMC3    C210181   1.591   0.582  15.665  0.2359 -0.0727 -0.7265
  685TMC3    C310182   1.642   0.660  15.565  0.2244 -0.5235 -0.5412
  685TMC3    C410183   1.809   0.499  15.701  0.0437  0.6982 -0.0512
  685TMC3    C510184   1.852   0.584  15.604 -0.4599 -0.4612 -0.2643
  685TMC3    C610185   1.771   0.669  15.533 -0.2399 -0.4629  0.5513
  685TMC3     C10186   1.666   0.469  15.876  0.2676 -0.2894 -0.1498
  685TMC3     O10187   1.711   0.364  15.917  0.3568 -0.8164 -0.5544
  685TMC3     H10188   1.484   0.574  15.680  0.5491 -2.5668  0.1878
  685TMC3    H110189   1.880   0.443  15.762  0.0820  0.4905 -0.2876
  685TMC3    H210190   1.804   0.753  15.474 -1.4713  0.0708  0.6143
  685TMC3    C710191   1.987   0.626  15.641 -0.3769 -0.1140  0.1982
  685TMC3    C810192   1.544   0.735  15.478 -0.0809 -0.3330  0.0095
  685TMC3    O110193   2.065   0.556  15.703  0.4786 -0.0361 -0.6075
  685TMC3    O210194   1.551   0.724  15.356 -0.4447 -0.1657  0.1034
  686MPD2     C10195   2.740   0.866  15.159  0.3323 -0.1617  0.0958
  686MPD2    C110196   2.662   0.782  15.228 -0.4171 -0.7613  0.0116
  686MPD2    C210197   2.655   0.649  15.202  0.8647 -0.9043 -0.2746
  686MPD2    C310198   2.736   0.591  15.103  0.6795  0.3347 -0.0330
  686MPD2    C410199   2.824   0.676  15.037 -0.2320 -0.2188 -0.0278
  686MPD2    C510200   2.825   0.810  15.067  0.6601  0.6512  0.7463
  686MPD2     H10201   2.590   0.587  15.263 -0.9860 -1.1238 -2.4547
  686MPD2    H110202   2.883   0.641  14.953  0.3278  0.5245  0.0603
  686MPD2    H210203   2.747   0.974  15.164  0.4859 -0.1584 -0.1790
  686MPD2    H310204   2.904   0.865  15.017  0.0148 -0.3653 -1.4116
  686MPD2     N10205   2.739   0.450  15.060 -0.1433 -0.3605 -0.7482
  686MPD2    H510206   2.811   0.438  14.989  2.2950  2.9610  1.1466
  686MPD2    N110207   2.586   0.848  15.330 -0.4578  0.4259  0.5854
  686MPD2    H710208   2.611   0.941  15.362  3.5541 -0.4521  0.1115
  687TMC3    C110209   2.590   0.352  15.217  0.1446 -0.3794 -0.2573
  687TMC3    C210210   2.460   0.316  15.206  0.0755 -0.2265 -0.2110
  687TMC3    C310211   2.382   0.348  15.316 -0.0182 -0.0195  0.1827
  687TMC3    C410212   2.655   0.357  15.333  0.0193 -0.0748  0.3387
  687TMC3    C510213   2.572   0.369  15.441  0.6315 -0.5172 -0.1637
  687TMC3    C610214   2.439   0.369  15.440  0.8641  0.0021  0.2868
  687TMC3     C10215   2.667   0.341  15.098  0.3635 -0.4871 -0.0793
  687TMC3     O10216   2.699   0.225  15.068 -0.6284  0.3388 -0.2425
  687TMC3     H10217   2.413   0.296  15.110 -1.3449 -0.1913  0.4712
  687TMC3    H110218   2.763   0.360  15.339  0.0745  0.9545 -1.2026
  687TMC3    H210219   2.380   0.365  15.531 -2.3071 -0.3899 -1.7997
  687TMC3    C710220   2.636   0.419  15.559 -0.0198 -0.1032  0.3795
  687TMC3    C810221   2.249   0.396  15.292  0.4889 -0.6343 -0.4001
  687TMC3    O110222   2.580   0.392  15.669 -0.0761 -0.0700 -0.1917
  687TMC3    O210223   2.175   0.315  15.243 -0.2600  0.3983  0.5603
  688MPD2     C10224   2.019   4.437  16.936  0.9860 -0.0975  0.9234
  688MPD2    C110225   2.011   4.354  17.046  0.2381 -0.5026 -0.6870
  688MPD2    C210226   2.118   4.268  17.072 -0.6162  0.2354  0.1819
  688MPD2    C310227   2.237   4.285  17.008  0.0469  0.2539 -0.4974
  688MPD2    C410228   2.255   4.376  16.904 -0.3836 -0.6665  0.2711
  688MPD2    C510229   2.145   4.454  16.874  0.4055 -0.6081  0.2148
  688MPD2     H10230   2.101   4.198  17.153  0.7319  0.8911  1.0373
  688MPD2    H110231   2.345   4.385  16.845 -1.2778  2.1408 -0.6798
  688MPD2    H210232   1.936   4.490  16.891 -0.8344 -2.4864  1.4578
  688MPD2    H310233   2.162   4.514  16.785 -2.2891 -1.4306 -0.8865
  688MPD2     N10234   2.350   4.198  17.034 -0.2288 -0.3150 -0.3740
  688MPD2    H510235   2.436   4.222  16.986  0.4069 -0.8862  0.4527
  688MPD2    N110236   1.895   4.326  17.123  0.3440  0.2411 -0.0506
  688MPD2    H710237   1.899   4.271  17.208 -1.6414 -1.5693 -1.1588
  689TMC3    C110238   1.680   4.341  17.197  0.8153 -0.0606 -0.2822
  689TMC3    C210239   1.639   4.449  17.279  0.0587 -0.0855 -0.4263
  689TMC3    C310240   1.580   4.428  17.402  0.7670 -0.2917 -0.5323
  689TMC3    C410241   1.653   4.210  17.236  0.0569 -0.0570  0.0124
  689TMC3    C510242   1.598   4.197  17.359 -0.8299 -0.0654  0.0341
  689TMC3    C610243   1.563   4.299  17.444 -0.1731 -0.0822 -0.8986
  689TMC3     C10244   1.772   4.378  17.097  0.0141 -0.5325 -0.2524
  689TMC3     O10245   1.741   4.471  17.029 -0.2254  0.1200  0.0135
  689TMC3     H10246   1.674   4.547  17.250 -0.6977  0.3406  0.1367
  689TMC3    H110247   1.688   4.124  17.180 -0.2746  0.2659 -0.6817
  689TMC3    H210248   1.536   4.272  17.545 -0.2078 -0.7642 -1.0883
  689TMC3    C710249   1.559   4.068  17.406  0.6595  0.2688 -0.3600
  689TMC3    C810250   1.545   4.537  17.487 -0.2546 -0.0411  0.2621
  689TMC3    O110251   1.581   4.053  17.526 -0.1252  0.2124 -0.0460
  689TMC3    O210252   1.541   4.513  17.606  0.0587  0.4047 -0.6786
  690MPD2     C10253   4.571   1.714  15.306  0.9440  0.2931  0.9295
  690MPD2    C110254   4.468   1.725  15.213  0.3380  0.7898  0.0775
  690MPD2    C210255   4.486   1.802  15.099 -0.4642  0.5719 -0.0658
  690MPD2    C310256   4.612   1.859  15.079  0.3725 -0.8438 -0.0879
  690MPD2    C410257   4.715   1.852  15.173  0.0188  0.2928 -0.2931
  690MPD2    C510258   4.690   1.776  15.284 -0.6821  0.2017  0.0408
  690MPD2     H10259   4.412   1.821  15.022  0.5535 -1.5419 -1.5670
  690MPD2    H110260   0.075   1.894  15.160  0.3921 -0.9712 -1.4911
  690MPD2    H210261   4.564   1.666  15.404  0.5046 -0.9754  0.2803
  690MPD2    H310262   0.030   1.771  15.358 -0.3249  0.5787 -0.3149
  690MPD2     N10263   4.634   1.916  14.951  0.2192  0.0394 -0.3858
  690MPD2    H510264   4.550   1.917  14.894 -0.7730 -0.5330  1.0540
  690MPD2    N110265   4.341   1.666  15.226 -0.0153  0.5571 -0.0948
  690MPD2    H710266   4.273   1.694  15.157  1.0178  0.9034 -0.9783
  691TMC3    C110267   4.181   1.526  15.283 -0.3388 -0.3588 -1.0316
  691TMC3    C210268   4.073   1.599  15.236 -0.5488  0.1893 -0.3940
  691TMC3    C310269   3.969   1.537  15.194 -0.2010  0.0130  0.4265
  691TMC3    C410270   4.159   1.397  15.329  0.2284 -0.3932 -0.3078
  691TMC3    C510271   4.058   1.334  15.273  0.3748  0.3696  0.1526
  691TMC3    C610272   3.959   1.399  15.204  1.1760  1.0097 -0.3255
  691TMC3     C10273   4.310   1.574  15.319  0.1106 -0.1344  0.3075
  691TMC3     O10274   4.373   1.525  15.413 -0.2611 -0.0129  0.2104
  691TMC3     H10275   4.075   1.707  15.235 -2.3475  0.2192 -0.7018
  691TMC3    H110276   4.232   1.344  15.390 -0.6247  0.6451  1.6386
  691TMC3    H210277   3.879   1.345  15.155  0.3006  0.0802  2.1582
  691TMC3    C710278   4.037   1.195  15.316  0.0178 -0.1115  0.5080
  691TMC3    C810279   3.849   1.609  15.216  0.6428 -0.1747 -0.5457
  691TMC3    O110280   4.136   1.130  15.346 -0.0150  0.3489  0.1699
  691TMC3    O210281   3.847   1.702  15.292 -0.3228 -0.2348 -0.1858
  692TMC3    C110282   1.208   2.299  15.793  0.1186 -0.4989 -0.6086
  692TMC3    C210283   1.317   2.330  15.862 -0.0007 -0.1860  0.3555
  692TMC3    C310284   1.406   2.232  15.900  0.8411 -0.0012  0.1875
  692TMC3    C410285   1.183   2.166  15.774  0.0441 -0.4491  0.0730
  692TMC3    C510286   1.261   2.069  15.818  0.2247 -0.0581  0.2523
  692TMC3    C610287   1.369   2.103  15.892 -0.2336  0.5393 -0.1450
  692TMC3     C10288   1.094   2.388  15.794 -0.4999  0.5794  0.7441
  692TMC3     O10289   1.092   2.466  15.887 -0.3019 -0.0283  0.0465
  692TMC3     H10290   1.350   2.432  15.849 -0.6289 -0.2077 -1.4565
  692TMC3    H110291   1.100   2.125  15.718  1.0852  0.1876 -1.9250
  692TMC3    H210292   1.447   2.028  15.904  0.7503  1.7012  0.7117
  692TMC3    C710293   1.238   1.928  15.795  0.4859  0.9193 -0.3799
  692TMC3    C810294   1.446   2.247  16.038  0.1355 -1.2516 -0.4857
  692TMC3    O110295   1.151   1.900  15.713  0.1229  0.5063 -0.1579
  692TMC3    O210296   1.514   2.161  16.096  0.1261  0.0716  0.0189
  693MPD2     C10297   0.360   1.006  10.560 -0.3140  0.0674  0.2650
  693MPD2    C110298   0.348   0.866  10.587  0.7156 -0.5378  0.9356
  693MPD2    C210299   0.444   0.806  10.667  0.4096 -0.4523  0.0622
  693MPD2    C310300   0.550   0.880  10.712 -0.3981 -0.1955 -0.2438
  693MPD2    C410301   0.564   1.011  10.686 -0.5121 -0.1055  0.2889
  693MPD2    C510302   0.464   1.074  10.622 -0.2004 -0.1942  0.2364
  693MPD2     H10303   0.431   0.702  10.696  0.8714 -0.6436 -0.4059
  693MPD2    H110304   0.651   1.066  10.719  1.0562 -2.8276  0.7268
  693MPD2    H210305   0.280   1.056  10.506 -0.4344  0.7237  1.0480
  693MPD2    H310306   0.477   1.181  10.606  1.0005 -0.5120 -0.8433
  693MPD2     N10307   0.651   0.829  10.801  0.0732 -0.1712 -0.0759
  693MPD2    H510308   0.705   0.902  10.847 -0.4441  0.0522  0.1858
  693MPD2    N110309   0.241   0.795  10.520 -0.2334  0.2868 -0.1871
  693MPD2    H710310   0.157   0.846  10.493 -1.6463 -2.1204 -0.3979
  694TMC3    C110311   0.112   0.616  10.520 -0.5107 -0.3313 -0.5861
  694TMC3    C210312   0.108   0.485  10.486  0.0758  0.8431  0.1693
  694TMC3    C310313   0.033   0.401  10.570  0.3106  0.3342  0.6629
  694TMC3    C410314   0.045   0.657  10.629 -0.0714 -0.3955  0.0372
  694TMC3    C510315   4.736   0.566  10.722  0.5788 -0.4087 -0.3868
  694TMC3    C610316   4.720   0.436  10.690  0.9277  0.0888  0.5477
  694TMC3     C10317   0.237   0.664  10.518 -0.8567 -0.6677  0.3705
  694TMC3     O10318   0.321   0.579  10.536  0.4893  0.3353  0.3854
  694TMC3     H10319   0.162   0.456  10.397  1.0628 -1.1242  1.4251
  694TMC3    H110320   0.042   0.763  10.654  0.2682  0.0211 -1.6890
  694TMC3    H210321   4.685   0.360  10.758  0.8095 -1.7291 -1.5333
  694TMC3    C710322   4.701   0.618  10.854 -0.0112  0.4415 -0.3457
  694TMC3    C810323   0.046   0.263  10.535  0.0133  0.1632 -0.1952
  694TMC3    O110324   4.733   0.736  10.868  0.0610 -0.1071  0.0126
  694TMC3    O210325   0.129   0.237  10.453  0.5900 -0.4266  0.4889
  695MPD2     C10326   1.269   2.645  13.384 -0.5706 -0.1554  0.2818
  695MPD2    C110327   1.228   2.556  13.477  0.4705  0.1466 -0.0311
  695MPD2    C210328   1.092   2.539  13.493 -0.6497  0.1561 -0.1314
  695MPD2    C310329   0.995   2.602  13.413  0.0133  0.7314  0.2416
  695MPD2    C410330   1.033   2.689  13.319  0.2219 -0.1520 -0.0164
  695MPD2    C510331   1.172   2.708  13.307  0.3583 -0.0482 -0.4881
  695MPD2     H10332   1.064   2.476  13.576  1.0391 -1.4620 -0.7843
  695MPD2    H110333   0.964   2.746  13.259 -1.2105 -2.1258 -0.2187
  695MPD2    H210334   1.374   2.673  13.378 -0.6195 -0.3414 -1.4266
  695MPD2    H310335   1.204   2.786  13.239  0.5241 -1.0085 -1.5080
  695MPD2     N10336   0.864   2.577  13.452  0.0199  0.0677  0.2089
  695MPD2    H510337   0.848   2.526  13.538  0.6210 -0.5108 -0.0233
  695MPD2    N110338   1.319   2.491  13.564  0.4832  0.4326 -0.1956
  695MPD2    H710339   1.287   2.437  13.644  0.4671 -0.1959 -0.6249
  696TMC3    C110340   0.638   2.585  13.442 -0.6047  0.1628 -0.3261
  696TMC3    C210341   0.631   2.469  13.519  0.3717  0.1908  0.9693
  696TMC3    C310342   0.509   2.447  13.580 -0.6540 -0.1576 -0.1908
  696TMC3    C410343   0.530   2.667  13.424 -0.6699  0.3354  0.5867
  696TMC3    C510344   0.418   2.643  13.497 -0.0054  0.4390  0.1348
  696TMC3    C610345   0.409   2.530  13.579 -0.1215  0.5199  0.2876
  696TMC3     C10346   0.756   2.619  13.374  0.8914  0.4522  0.6887
  696TMC3     O10347   0.749   2.693  13.277 -0.4213  0.1320 -0.3121
  696TMC3     H10348   0.715   2.401  13.529  1.4918  1.5504  0.8178
  696TMC3    H110349   0.538   2.750  13.354  1.1874  0.7238  1.2455
  696TMC3    H210350   0.315   2.508  13.629 -0.9581  1.4913 -0.8463
  696TMC3    C710351   0.322   2.741  13.523 -0.6921 -0.4493  0.2289
  696TMC3    C810352   0.470   2.316  13.637  0.4262 -0.1005  0.1360
  696TMC3    O110353   0.242   2.771  13.434  0.1825 -0.7798  0.1213
  696TMC3    O210354   0.367   2.261  13.595 -0.1267  0.0180  0.0906
  697MPD2     C10355   0.871   3.840  15.526 -0.0325 -0.0219  0.2970
  697MPD2    C110356   0.805   3.857  15.402  0.3059  0.0521 -0.2296
  697MPD2    C210357   0.839   3.967  15.331 -0.0355  0.4601 -0.9516
  697MPD2    C310358   0.902   4.079  15.374  0.4352 -0.0140  0.8211
  697MPD2    C410359   0.958   4.063  15.507  0.1159 -0.1589 -0.2355
  697MPD2    C510360   0.941   3.949  15.579  0.0741  0.0711 -0.1855
  697MPD2     H10361   0.804   3.974  15.228 -1.3747  1.9978 -0.3908
  697MPD2    H110362   1.015   4.143  15.553  0.5103 -1.4012  1.4295
  697MPD2    H210363   0.865   3.747  15.580  1.4208 -0.0434  0.4344
  697MPD2    H310364   0.992   3.950  15.675 -1.1529  0.1200  0.4545
  697MPD2     N10365   0.918   4.193  15.287 -0.4202  0.2096 -0.3455
  697MPD2    H510366   0.870   4.188  15.198  0.8416  1.7651 -1.1238
  697MPD2    N110367   0.736   3.760  15.328  0.1030 -0.8880 -0.2935
  697MPD2    H710368   0.713   3.782  15.231  0.5813 -0.9400 -0.4167
  698TMC3    C110369   0.989   4.407  15.215 -0.6595 -0.4329 -0.9188
  698TMC3    C210370   1.093   4.490  15.226 -0.0065 -0.0894  0.4643
  698TMC3    C310371   1.089   4.595  15.138 -0.2087 -0.3345 -0.6185
  698TMC3    C410372   0.877   4.422  15.132 -0.2841 -0.7233 -0.3801
  698TMC3    C510373   0.878   4.532  15.048 -0.1749 -0.6393  0.0455
  698TMC3    C610374   0.987   4.616  15.049 -0.1587 -0.1121  0.1834
  698TMC3     C10375   0.986   4.303  15.319  0.1593  0.1285  0.2533
  698TMC3     O10376   1.072   4.310  15.412  0.3471 -0.2527 -0.7629
  698TMC3     H10377   1.186   4.464  15.274 -0.6446 -0.2237  1.6342
  698TMC3    H110378   0.794   4.353  15.139 -0.1548 -1.0715 -2.1149
  698TMC3    H210379   0.994   4.695  14.975 -0.6587  1.7496  2.1262
  698TMC3    C710380   0.794   4.526  14.928  0.5709 -0.2634 -0.2840
  698TMC3    C810381   1.141   4.711  15.204 -0.0933 -1.1258 -0.1645
  698TMC3    O110382   0.822   4.607  14.840  0.2175  1.1113  0.9430
  698TMC3    O210383   1.130   4.705  15.329 -0.1149 -0.3214  0.5325
  699TMC3    C110384   0.852   2.467  13.073 -0.6980 -0.0545 -0.0077
  699TMC3    C210385   0.937   2.401  13.163 -0.3653 -0.7639  0.7766
  699TMC3    C310386   0.886   2.304  13.244 -0.0477 -0.0973 -0.2525
  699TMC3    C410387   0.716   2.442  13.071 -0.4663 -0.1115 -0.0084
  699TMC3    C510388   0.672   2.341  13.147 -0.0766 -0.4612 -0.7299
  699TMC3    C610389   0.751   2.278  13.237 -0.3180 -0.3028  0.5741
  699TMC3     C10390   0.896   2.591  13.019  0.1109 -0.7428  0.0583
  699TMC3     O10391   0.813   2.665  12.970 -0.4071  0.4693  0.2125
  699TMC3     H10392   1.045   2.411  13.164 -0.3856 -0.4681 -0.6995
  699TMC3    H110393   0.641   2.511  13.035  0.2625  1.8916  2.3322
  699TMC3    H210394   0.699   2.229  13.318 -1.3507 -1.2968 -0.6846
  699TMC3    C710395   0.528   2.331  13.160  0.0254 -0.0483  0.1386
  699TMC3    C810396   0.947   2.263  13.372  0.3397 -0.4020 -0.2485
  699TMC3    O110397   0.484   2.290  13.267 -0.3593 -0.5822  0.1300
  699TMC3    O210398   0.868   2.244  13.461  0.2445 -0.6941  0.2394
  700TMC3    C110399   4.530   4.125  16.881  0.1337  0.6921  0.1552
  700TMC3    C210400   4.636   4.057  16.823  0.3575  0.3087 -0.2279
  700TMC3    C310401   0.013   4.052  16.897 -0.3165  0.5392 -0.3741
  700TMC3    C410402   4.532   4.189  17.010 -0.3526  0.7578 -0.2905
  700TMC3    C510403   4.653   4.176  17.074  1.0102 -0.6817  0.1421
  700TMC3    C610404   0.017   4.105  17.030 -0.4011  0.6914 -0.0560
  700TMC3     C10405   4.459   4.197  16.785 -0.5272 -0.0848  0.7459
  700TMC3     O10406   4.387   4.137  16.711 -0.3425  0.3454 -0.0739
  700TMC3     H10407   4.625   4.012  16.725 -1.3518  0.7483 -0.2530
  700TMC3    H110408   4.445   4.240  17.049 -2.4082 -1.7713 -1.6153
  700TMC3    H210409   0.114   4.131  17.071 -1.7957  0.8499  3.1353
  700TMC3    C710410   4.678   4.296  17.159 -0.3993  0.7353 -0.4528
  700TMC3    C810411   0.138   4.010  16.825  0.1537 -0.3258  0.8581
  700TMC3    O110412   4.626   4.398  17.121 -0.3697  0.4987  0.3514
  700TMC3    O210413   0.134   3.995  16.701 -0.2758  0.3859 -0.8697
  701TMC3    C110414   4.579   3.056  15.646  0.0861  0.1600 -0.1450
  701TMC3    C210415   4.544   2.957  15.550  0.1781 -0.6606  0.3790
  701TMC3    C310416   4.580   2.985  15.424  0.5525  0.3711 -0.3245
  701TMC3    C410417   4.661   3.161  15.615 -0.3505  0.5329  0.0016
  701TMC3    C510418   4.707   3.174  15.485  0.2143  0.4201 -0.3711
  701TMC3    C610419   4.669   3.086  15.389 -0.3324 -0.4379  0.3829
  701TMC3     C10420   4.564   3.011  15.783 -0.5430 -0.2842  0.3309
  701TMC3     O10421   4.554   2.887  15.791  0.3021 -0.2081  0.0276
  701TMC3     H10422   4.478   2.874  15.574  2.0326 -1.5977  2.3230
  701TMC3    H110423   4.680   3.241  15.685  3.6494 -0.0875 -0.3420
  701TMC3    H210424   4.721   3.087  15.294 -2.4314  2.9081 -0.7394
  701TMC3    C710425   0.027   3.303  15.442 -0.1450  0.1631 -0.2347
  701TMC3    C810426   4.525   2.910  15.308 -0.2454  0.5432 -0.4191
  701TMC3    O110427   4.717   3.364  15.349  0.1511 -0.0500  0.1688
  701TMC3    O210428   4.513   2.790  15.327 -0.3930 -0.7679  0.2673
  702MPD2     C10429   4.262   1.122  10.604  0.6998  1.1484  0.7017
  702MPD2    C110430   4.151   1.190  10.658  0.2389  0.7076 -0.3083
  702MPD2    C210431   4.141   1.325  10.648  0.2507 -0.2134  0.2536
  702MPD2    C310432   4.242   1.402  10.586  0.1801  0.0856 -0.1446
  702MPD2    C410433   4.351   1.335  10.529 -0.1084 -0.3463  0.3922
  702MPD2    C510434   4.355   1.192  10.529  0.1635  0.6550  0.6914
  702MPD2     H10435   4.052   1.364  10.697  1.0766  0.9566  0.8089
  702MPD2    H110436   4.436   1.381  10.479 -2.3042  1.2452 -1.8710
  702MPD2    H210437   4.267   1.016  10.628 -0.2709  0.8809 -0.2541
  702MPD2    H310438   4.443   1.149  10.482  0.8177  1.5156  1.1387
  702MPD2     N10439   4.231   1.540  10.566 -0.0701  0.3156 -0.1154
  702MPD2    H510440   4.304   1.582  10.509  1.4860  2.4831  3.5281
  702MPD2    N110441   4.053   1.114  10.733  0.2418 -0.2624 -0.6359
  702MPD2    H710442   3.973   1.162  10.773 -0.9213 -1.8400 -1.0781
  703TMC3    C110443   4.154   1.766  10.586  0.2469 -0.4971  0.7240
  703TMC3    C210444   4.043   1.848  10.603  0.6370 -0.0155  0.1004
  703TMC3    C310445   4.039   1.967  10.534 -0.0005 -0.2141 -0.4855
  703TMC3    C410446   4.263   1.812  10.516  0.8665 -0.7425 -0.6513
  703TMC3    C510447   4.254   1.939  10.461 -0.0771 -0.6472 -0.0953
  703TMC3    C610448   4.139   2.011  10.461 -0.0914 -0.6297  0.2741
  703TMC3     C10449   4.135   1.626  10.622  0.7888  0.7684  0.3376
  703TMC3     O10450   4.045   1.608  10.697 -0.1492 -0.5742  0.6839
  703TMC3     H10451   3.959   1.819  10.664 -0.0081  0.3415 -0.6135
  703TMC3    H110452   4.357   1.759  10.505  1.8358  0.9671 -0.6218
  703TMC3    H210453   4.132   2.114  10.428  0.4292 -1.5176 -2.6185
  703TMC3    C710454   4.366   1.990  10.383  0.0642 -0.2957 -0.0662
  703TMC3    C810455   3.908   2.034  10.509  0.0556  0.3723 -0.7502
  703TMC3    O110456   4.462   1.915  10.367 -0.3456 -0.2245 -0.1336
  703TMC3    O210457   3.908   2.130  10.432 -0.5245  0.2081 -0.1485
  704TMC3    C110458   1.766   4.228  12.129 -0.4570  0.4034  0.3391
  704TMC3    C210459   1.907   4.215  12.113  0.1947  0.4710  0.8278
  704TMC3    C310460   1.962   4.102  12.167  0.3040  0.6295  0.7252
  704TMC3    C410461   1.693   4.150  12.206 -0.1446 -0.3166 -0.2661
  704TMC3    C510462   1.757   4.040  12.259  0.3343 -0.0186  0.2449
  704TMC3    C610463   1.883   4.003  12.226 -0.0789 -0.2556  0.3917
  704TMC3     C10464   1.697   4.342  12.061  0.7560 -0.3449 -0.0043
  704TMC3     O10465   1.598   4.388  12.119 -0.0797 -0.3473  0.0483
  704TMC3     H10466   1.967   4.289  12.062 -1.3400  2.9468  2.6180
  704TMC3    H110467   1.585   4.153  12.210 -0.1384 -0.6800  0.2623
  704TMC3    H210468   1.937   3.917  12.263 -1.2258 -2.1993 -2.4260
  704TMC3    C710469   1.670   3.926  12.251 -0.9159  0.5605 -0.0305
  704TMC3    C810470   2.077   4.054  12.099  0.0193 -0.1152  0.0481
  704TMC3    O110471   1.699   3.850  12.165  0.2279 -0.4879  0.0652
  704TMC3    O210472   2.062   3.945  12.046 -0.6607  0.1539  0.1225
  705MPD2     C10473   1.559   1.783  16.504  0.8210 -0.1254 -0.4601
  705MPD2    C110474   1.548   1.921  16.488  0.3002  0.4643  0.8205
  705MPD2    C210475   1.427   1.982  16.510 -0.0808  0.0163 -0.1822
  705MPD2    C310476   1.325   1.911  16.569  0.2545 -0.4850  0.5322
  705MPD2    C410477   1.339   1.781  16.586  0.3624 -0.4207  0.6482
  705MPD2    C510478   1.453   1.714  16.552 -0.4729  0.5278  0.5215
  705MPD2     H10479   1.405   2.082  16.476  2.9998  1.3621  1.8140
  705MPD2    H110480   1.262   1.723  16.636 -0.2949 -1.1815 -1.2244
  705MPD2    H210481   1.652   1.728  16.492  0.2595 -1.1762 -0.0087
  705MPD2    H310482   1.468   1.607  16.563 -1.2627  0.3964  0.2667
  705MPD2     N10483   1.201   1.967  16.614 -1.0240 -0.2077 -0.0744
  705MPD2    H510484   1.128   1.900  16.638  2.1017 -2.8105  2.2014
  705MPD2    N110485   1.650   2.000  16.418  0.1566  0.8323  0.2659
  705MPD2    H710486   1.621   2.094  16.392  0.2236  0.4291 -1.2700
  706TMC3    C110487   1.986   1.991  16.086  0.0624 -0.7685  0.3600
  706TMC3    C210488   1.946   2.110  16.036 -1.1158 -0.1202  0.3500
  706TMC3    C310489   1.852   2.178  16.108 -0.0632 -0.3291 -0.0436
  706TMC3    C410490   1.934   1.943  16.205  0.4392 -0.5976 -0.5539
  706TMC3    C510491   1.846   2.021  16.277  0.4722  0.3804 -0.1620
  706TMC3    C610492   1.802   2.136  16.226  0.3714 -0.9339 -0.1185
  706TMC3     C10493   2.095   1.920  16.026 -0.6547  0.2084 -0.8407
  706TMC3     O10494   2.157   1.855  16.106  0.1625 -0.4839 -0.0697
  706TMC3     H10495   1.973   2.151  15.939  1.7281 -0.5646  0.9756
  706TMC3    H110496   1.979   1.856  16.251  0.9649  0.1190  0.2786
  706TMC3    H210497   1.711   2.182  16.262  2.3653  1.7307  1.5444
  706TMC3    C710498   1.767   1.946  16.371 -0.2211  0.0630 -0.9045
  706TMC3    C810499   1.797   2.302  16.054  0.5397  0.2420  0.4642
  706TMC3    O110500   1.813   1.836  16.395  0.1346 -0.2322 -0.0251
  706TMC3    O210501   1.793   2.321  15.938 -0.1352 -0.5372 -0.1999
  707TMC3    C110502   3.272   0.729   0.799 -0.3848  0.4799  0.3181
  707TMC3    C210503   3.337   0.634   0.874  0.4954  0.1015 -0.1914
  707TMC3    C310504   3.270   0.590   0.987  0.2031  0.3455  0.0163
  707TMC3    C410505   3.160   0.798   0.846 -0.0499  0.4545 -0.3439
  707TMC3    C510506   3.104   0.755   0.966  0.2454 -0.5685 -0.1407
  707TMC3    C610507   3.159   0.655   1.041  0.0400  0.4292 -0.7393
  707TMC3     C10508   3.342   0.785   0.683 -0.2874 -0.5731 -0.3048
  707TMC3     O10509   3.307   0.894   0.644 -1.3575 -0.0624  0.5265
  707TMC3     H10510   3.433   0.595   0.843  0.9684 -0.2163  1.6943
  707TMC3    H110511   3.117   0.877   0.786 -0.1886 -0.3038 -1.2384
  707TMC3    H210512   3.103   0.621   1.127  3.9385  0.4329  1.7734
  707TMC3    C710513   2.985   0.819   1.015  0.4003  0.7088  0.2097
  707TMC3    C810514   3.310   0.475   1.064  0.2041  0.1983  0.9446
  707TMC3    O110515   2.927   0.751   1.099 -0.2077 -1.3292  0.5057
  707TMC3    O210516   3.254   0.457   1.170 -0.0278 -0.4423  0.1979
  708MPD2     C10517   4.700   0.589  13.642  0.6338  0.3869  0.1241
  708MPD2    C110518   4.618   0.680  13.707  0.2696  0.4232  0.1756
  708MPD2    C210519   4.618   0.684  13.842 -0.3218  0.1589  0.2668
  708MPD2    C310520   4.722   0.622  13.915  0.3525 -0.6407  0.1983
  708MPD2    C410521   0.076   0.550  13.848 -0.5620  0.7743 -0.7706
  708MPD2    C510522   0.062   0.527  13.713  1.0916  0.3653 -0.2910
  708MPD2     H10523   4.535   0.730  13.894 -0.2302  0.4168  0.1851
  708MPD2    H110524   0.158   0.497  13.895 -2.1355 -3.9772 -3.3739
  708MPD2    H210525   4.686   0.572  13.536  0.7931 -0.5717  0.2555
  708MPD2    H310526   0.136   0.465  13.665  0.0662 -0.8649 -0.2633
  708MPD2     N10527   4.713   0.648  14.053 -0.4447 -0.3680  1.0023
  708MPD2    H510528   4.640   0.707  14.090  0.1931  1.7456 -1.0751
  708MPD2    N110529   4.521   0.746  13.629 -0.4950 -0.3512  0.6026
  708MPD2    H710530   4.496   0.698  13.544  2.6103 -0.6641 -0.1112
  709TMC3    C110531   4.376   0.941  13.576 -1.0145  0.0385 -0.0242
  709TMC3    C210532   4.325   0.876  13.468  0.5064  0.0098 -0.4168
  709TMC3    C310533   4.196   0.837  13.463  0.3189 -0.1999  0.0059
  709TMC3    C410534   4.291   0.996  13.660 -0.0175 -0.0676  0.1911
  709TMC3    C510535   4.162   0.951  13.658  0.0073 -0.3952 -0.5326
  709TMC3    C610536   4.112   0.867  13.561 -0.1254  0.8018  0.5144
  709TMC3     C10537   4.480   0.875  13.658  0.5530 -1.0418  0.0540
  709TMC3     O10538   4.538   0.945  13.742  0.1269 -0.0705  0.4387
  709TMC3     H10539   4.387   0.826  13.394  0.9970  0.0158 -0.0162
  709TMC3    H110540   4.334   1.062  13.735  1.3885  1.5417 -2.0394
  709TMC3    H210541   4.004   0.855  13.563 -0.2130  1.6544  1.1649
  709TMC3    C710542   4.126   0.923  13.791 -0.0243  0.6166  0.2814
  709TMC3    C810543   4.149   0.763  13.350 -0.0424 -0.7293  0.6155
  709TMC3    O110544   4.154   1.001  13.879 -0.5060 -0.4763  0.0756
  709TMC3    O210545   4.045   0.701  13.362  0.0292  0.0225  0.0297
  710TMC3    C110546   0.579   0.639   0.497 -1.1867  0.3431  0.2746
  710TMC3    C210547   0.711   0.672   0.478  0.5548 -0.0523 -0.4561
  710TMC3    C310548   0.798   0.573   0.525 -0.1149  0.2963 -0.0723
  710TMC3    C410549   0.543   0.509   0.533  0.2721  0.1593  0.3315
  710TMC3    C510550   0.634   0.416   0.564  1.0274 -0.0998 -0.0467
  710TMC3    C610551   0.763   0.450   0.566  0.4699  0.5486  0.1635
  710TMC3     C10552   0.472   0.731   0.452  0.2427  0.6303  0.0295
  710TMC3     O10553   0.372   0.665   0.431 -0.6155 -0.1926 -0.3523
  710TMC3     H10554   0.731   0.776   0.456  0.0424 -0.3098 -2.1640
  710TMC3    H110555   0.438   0.486   0.549 -0.1728  1.7030 -0.3723
  710TMC3    H210556   0.841   0.380   0.597  0.0398 -0.7663 -1.7414
  710TMC3    C710557   0.596   0.311   0.658  0.2942 -0.1717 -0.0346
  710TMC3    C810558   0.939   0.613   0.533 -0.3562 -0.5506 -0.0752
  710TMC3    O110559   0.673   0.292   0.750 -0.0147 -0.0974  0.0848
  710TMC3    O210560   1.006   0.549   0.614  0.4503  0.3049 -0.6913
  711TMC3    C110561   0.504   2.911  14.895 -0.5143  0.0845  0.7154
  711TMC3    C210562   0.467   2.848  15.008 -0.7698 -0.4228 -0.1724
  711TMC3    C310563   0.538   2.861  15.124 -0.3575  0.1783 -0.2414
  711TMC3    C410564   0.618   2.986  14.898 -0.0802 -0.2163  0.5609
  711TMC3    C510565   0.692   2.992  15.013 -0.9124 -0.1243  0.0349
  711TMC3    C610566   0.649   2.942  15.131  0.4143 -0.4903  0.2224
  711TMC3     C10567   0.406   2.934  14.786  0.5890 -0.5618 -0.1093
  711TMC3     O10568   0.297   2.879  14.782  0.2893 -0.4405 -0.7295
  711TMC3     H10569   0.381   2.782  15.005 -0.6152 -0.7154  1.7711
  711TMC3    H110570   0.671   3.013  14.808 -1.6115  0.9060  0.0192
  711TMC3    H210571   0.715   2.954  15.216  0.1213 -0.7700  0.4933
  711TMC3    C710572   0.829   2.956  15.001  0.6754  0.2660  0.1252
  711TMC3    C810573   0.562   2.728  15.180  0.0492  0.4567 -0.4344
  711TMC3    O110574   0.904   2.997  15.088  0.3466  0.3423  0.1456
  711TMC3    O210575   0.541   2.639  15.103 -0.5005 -0.1549  0.2097
  712MPD2     C10576   2.073   4.075  13.873  0.4799 -0.1456 -0.5313
  712MPD2    C110577   2.020   4.087  13.746  0.1068 -0.0149  0.2115
  712MPD2    C210578   2.057   4.188  13.664  0.2716  0.3308  0.0194
  712MPD2    C310579   2.133   4.298  13.715  0.0244  0.0049  0.3416
  712MPD2    C410580   2.184   4.290  13.845  0.2517  0.9365 -0.5864
  712MPD2    C510581   2.157   4.178  13.920 -0.0881 -0.2939 -0.4858
  712MPD2     H10582   2.032   4.192  13.559 -1.0461  3.1839  0.4453
  712MPD2    H110583   2.248   4.363  13.891  0.9197  0.6353 -1.0389
  712MPD2    H210584   2.064   3.991  13.941 -2.7617  1.1718  0.6177
  712MPD2    H310585   2.185   4.172  14.024 -0.1525  2.0962 -0.3426
  712MPD2     N10586   2.171   4.408  13.646 -0.0511 -0.2961 -0.0170
  712MPD2    H510587   2.243   4.467  13.688 -0.7632  1.5593 -1.4144
  712MPD2    N110588   1.948   3.987  13.683 -0.0651 -1.0564 -0.4706
  712MPD2    H710589   1.923   4.006  13.587 -2.6847 -1.2026  0.1938
  713TMC3    C110590   2.175   4.547  13.454 -0.4723  0.0778  0.7220
  713TMC3    C210591   2.314   4.573  13.470  0.4615 -1.2656 -0.1821
  713TMC3    C310592   2.356   4.702  13.445 -0.0476 -0.0664  0.3392
  713TMC3    C410593   2.086   4.651  13.424 -0.2500  0.3748 -0.1051
  713TMC3    C510594   2.138   0.037  13.396 -0.3543 -0.0980 -0.3478
  713TMC3    C610595   2.271   0.064  13.409  0.4911  0.3824  0.6025
  713TMC3     C10596   2.112   4.444  13.528 -0.0364  0.9879 -0.2801
  713TMC3     O10597   2.011   4.399  13.475  0.0144  0.2289 -0.1049
  713TMC3     H10598   2.389   4.497  13.489  0.8751 -0.7163  0.3649
  713TMC3    H110599   1.985   4.625  13.395 -0.5712 -0.6739  1.9586
  713TMC3    H210600   2.303   0.165  13.387  0.3535  0.3466  0.2419
  713TMC3    C710601   2.070   0.132  13.302  0.2884 -0.2109 -0.1071
  713TMC3    C810602   2.491   0.013  13.470  0.1865 -0.1630 -0.0033
  713TMC3    O110603   2.141   0.182  13.216  0.2356  0.5200 -0.2653
  713TMC3    O210604   2.516   0.124  13.426 -0.4520 -0.3188  0.2075
  714MPD2     C10605   4.535   2.013   1.499 -0.9546 -0.2679  0.2711
  714MPD2    C110606   4.529   2.013   1.361  0.1089 -0.4021 -0.2355
  714MPD2    C210607   4.419   2.065   1.302  0.3662  0.5686 -0.3893
  714MPD2    C310608   4.323   2.132   1.373 -0.7283  0.2809 -0.3018
  714MPD2    C410609   4.333   2.129   1.512 -0.0222  0.5371  0.0950
  714MPD2    C510610   4.439   2.072   1.571  0.0891  0.1894 -0.1740
  714MPD2     H10611   4.396   2.067   1.196  0.2397 -0.2627 -0.3796
  714MPD2    H110612   4.252   2.169   1.571  0.0042  0.4346  0.2031
  714MPD2    H210613   4.619   1.976   1.555  0.6045  0.4884 -1.5354
  714MPD2    H310614   4.447   2.078   1.679  2.3494  1.2017 -0.3982
  714MPD2     N10615   4.219   2.204   1.302 -0.5049 -0.0938  0.2426
  714MPD2    H510616   4.228   2.209   1.201 -0.9291 -1.1559  0.1609
  714MPD2    N110617   4.638   1.961   1.291  0.2840  0.0543  0.0269
  714MPD2    H710618   4.716   1.919   1.339 -0.6868 -1.6972  0.0788
  715TMC3    C110619   0.021   1.868   1.120 -0.2400  0.1391  0.6354
  715TMC3    C210620   0.024   1.755   1.046  0.0114 -0.1905 -0.5639
  715TMC3    C310621   0.146   1.708   0.994  0.0031  0.3279 -0.4218
  715TMC3    C410622   0.135   1.917   1.184 -0.0991  0.1866  0.4522
  715TMC3    C510623   0.254   1.863   1.139 -0.3020 -0.2429 -0.6642
  715TMC3    C610624   0.265   1.759   1.050  0.0914  0.6284 -0.5278
  715TMC3     C10625   4.636   1.928   1.155 -0.0381 -0.2457  0.2808
  715TMC3     O10626   4.545   1.929   1.073 -0.0042  0.4548  0.1956
  715TMC3     H10627   4.667   1.708   1.029 -1.0706  1.4295  1.0976
  715TMC3    H110628   0.139   2.007   1.244 -2.6337  0.6100  0.0039
  715TMC3    H210629   0.366   1.732   1.022  1.0672  2.7472  0.9078
  715TMC3    C710630   0.383   1.916   1.188  0.3905  0.5288 -0.0835
  715TMC3    C810631   0.145   1.580   0.924 -0.0068  0.1696  0.4263
  715TMC3    O110632   0.471   1.924   1.101  0.3111 -0.1050 -0.0912
  715TMC3    O210633   0.041   1.519   0.906  0.1692  0.0756  0.2365
  716MPD2     C10634   4.026   1.100  10.266 -0.4407 -0.6323  0.1877
  716MPD2    C110635   4.006   1.148  10.137  0.5541  0.2771  0.1280
  716MPD2    C210636   4.062   1.067  10.038  0.2351  0.2975  0.6331
  716MPD2    C310637   4.112   0.940  10.058  0.6389  0.2598 -0.1117
  716MPD2    C410638   4.109   0.888  10.184  0.2220  0.2961  0.3008
  716MPD2    C510639   4.063   0.970  10.283  0.2207 -0.1776  0.1825
  716MPD2     H10640   4.065   1.104   9.935 -0.3569 -3.1325 -0.6107
  716MPD2    H110641   4.126   0.783  10.205  1.5846  0.1740 -1.3737
  716MPD2    H210642   4.002   1.159  10.354 -1.1748  0.3096 -0.6407
  716MPD2    H310643   4.067   0.926  10.382  0.3275  0.5728  0.5154
  716MPD2     N10644   4.159   0.880   9.940  0.3550  0.2118  0.2079
  716MPD2    H510645   4.156   0.930   9.852  1.8328 -0.1610 -0.0638
  716MPD2    N110646   3.946   1.273  10.121 -0.3244  0.1005  0.2706
  716MPD2    H710647   3.912   1.313  10.207 -2.7029  0.0130 -0.6076
  717TMC3    C110648   4.210   0.689   9.808  0.2406 -0.2037  0.9714
  717TMC3    C210649   4.117   0.729   9.721  0.2188 -0.4892 -0.0844
  717TMC3    C310650   4.099   0.653   9.612  1.0176 -0.5037  0.1520
  717TMC3    C410651   4.286   0.577   9.799  0.8279  0.0450 -0.7179
  717TMC3    C510652   4.260   0.497   9.693 -0.5259 -0.2639 -0.9615
  717TMC3    C610653   4.175   0.537   9.594  0.1153  0.1493 -0.6163
  717TMC3     C10654   4.208   0.752   9.939  0.0739 -0.1469 -0.0285
  717TMC3     O10655   4.249   0.681  10.029 -0.0735 -0.0750  0.1552
  717TMC3     H10656   4.056   0.818   9.733  2.6864  0.8977  2.0577
  717TMC3    H110657   4.368   0.551   9.865  0.2461  0.5564  0.2062
  717TMC3    H210658   4.168   0.476   9.504 -1.0291  0.3738 -0.6722
  717TMC3    C710659   4.315   0.363   9.689  0.2227  0.1860  0.3864
  717TMC3    C810660   3.997   0.686   9.517 -0.9765 -0.0348 -0.1935
  717TMC3    O110661   4.275   0.289   9.601 -0.2333 -0.4881  0.3323
  717TMC3    O210662   3.924   0.780   9.545 -0.3733  0.4040 -0.1499
  718MPD2     C10663   3.667   4.696  13.192 -0.8060  0.4876 -0.3495
  718MPD2    C110664   3.613   4.710  13.067  0.8910  0.0089 -0.5743
  718MPD2    C210665   3.513   4.612  13.035 -0.1801  1.0158  0.0670
  718MPD2    C310666   3.486   4.502  13.111 -0.3844 -0.4930 -0.5530
  718MPD2    C410667   3.539   4.493  13.236 -0.1658  0.2033 -0.2541
  718MPD2    C510668   3.629   4.588  13.275 -0.5653 -0.6170  0.0184
  718MPD2     H10669   3.457   4.621  12.943 -1.6828 -1.1633  0.7565
  718MPD2    H110670   3.521   4.410  13.303 -0.2904  1.6667  1.5235
  718MPD2    H210671   3.738   0.030  13.229 -1.1303 -0.7412  2.6298
  718MPD2    H310672   3.670   4.578  13.374 -0.3977  1.0332  0.1047
  718MPD2     N10673   3.400   4.402  13.049 -0.6544 -0.2050 -0.3160
  718MPD2    H510674   3.373   4.418  12.953 -0.4283 -0.2538 -0.3884
  718MPD2    N110675   3.650   0.079  12.983  0.0431 -0.3007  0.7695
  718MPD2    H710676   3.700   0.153  13.031 -1.3317  1.4588 -0.5039
  719TMC3    C110677   3.608   0.226  12.805 -0.8755  0.2705 -0.6309
  719TMC3    C210678   3.514   0.294  12.868 -0.3152  0.2428 -0.3089
  719TMC3    C310679   3.429   0.385  12.811  0.0193  0.2092 -0.5189
  719TMC3    C410680   3.624   0.247  12.674  0.0023  0.1526  0.4956
  719TMC3    C510681   3.551   0.342  12.614 -0.1761 -0.2615 -0.2346
  719TMC3    C610682   3.453   0.413  12.679  0.6876 -0.1306 -0.2947
  719TMC3     C10683   3.639   0.090  12.846 -0.1007  0.6716  0.5199
  719TMC3     O10684   3.598   0.005  12.768 -0.1938  0.0666  0.3933
  719TMC3     H10685   3.528   0.287  12.976 -2.4197 -0.1755 -0.0655
  719TMC3    H110686   3.694   0.183  12.620  0.6400  0.2159  1.2421
  719TMC3    H210687   3.377   0.469  12.625  2.0453  1.1865 -0.8533
  719TMC3    C710688   3.604   0.400  12.492 -0.5084  0.5266 -0.5240
  719TMC3    C810689   3.293   0.344  12.818  0.2115  0.2916 -0.3105
  719TMC3    O110690   3.680   0.334  12.425 -0.1549  0.1457 -0.5030
  719TMC3    O210691   3.208   0.424  12.800  0.6177  0.7539 -0.0920
  720MPD2     C10692   1.982   1.278  14.002  0.1499  0.3348  0.1702
  720MPD2    C110693   1.990   1.408  13.968  1.0049  0.5687 -0.8818
  720MPD2    C210694   2.078   1.486  14.051  0.3018  0.2924 -0.3038
  720MPD2    C310695   2.152   1.418  14.147 -0.2506  0.1367 -0.2236
  720MPD2    C410696   2.148   1.281  14.164 -0.2779 -0.4545 -1.0305
  720MPD2    C510697   2.064   1.213  14.085 -0.0157 -0.7590 -0.4677
  720MPD2     H10698   2.083   1.592  14.032 -1.0914  0.4468  0.2607
  720MPD2    H110699   2.204   1.223  14.237 -1.4186 -0.1883  0.0589
  720MPD2    H210700   1.918   1.217  13.940  0.6153  1.6881 -1.6275
  720MPD2    H310701   2.046   1.111  14.116 -1.0466  0.0756  1.7012
  720MPD2     N10702   2.244   1.492  14.228  0.3698 -0.3783  0.4429
  720MPD2    H510703   2.265   1.586  14.195 -1.7872 -0.8626 -2.2884
  720MPD2    N110704   1.911   1.460  13.862 -0.1075 -0.6192 -0.0476
  720MPD2    H710705   1.921   1.557  13.835  1.1887 -0.9071 -0.6077
  721TMC3    C110706   2.410   1.542  14.368 -0.1812 -0.4098  0.0734
  721TMC3    C210707   2.458   1.552  14.502  0.2310 -0.7822  0.1820
  721TMC3    C310708   2.580   1.621  14.520  0.2606  0.2142 -0.6532
  721TMC3    C410709   2.477   1.598  14.264 -0.0539 -0.0840  0.6673
  721TMC3    C510710   2.582   1.684  14.285  0.7058 -0.8021  0.0476
  721TMC3    C610711   2.639   1.685  14.413  0.3584  0.4415  0.5940
  721TMC3     C10712   2.300   1.452  14.348 -0.6570  0.8026 -0.3014
  721TMC3     O10713   2.247   1.376  14.432 -0.1769  0.2456  0.0991
  721TMC3     H10714   2.397   1.512  14.582 -1.4695 -0.1876 -0.8263
  721TMC3    H110715   2.449   1.582  14.160 -0.1485  1.3506  0.4815
  721TMC3    H210716   2.739   1.720  14.435 -0.3314  3.2628 -0.7864
  721TMC3    C710717   2.688   1.706  14.182  0.1767 -0.4405 -0.3911
  721TMC3    C810718   2.649   1.619  14.648 -0.4672 -0.5910  0.2676
  721TMC3    O110719   2.754   1.809  14.193  0.4842  0.1037 -0.1982
  721TMC3    O210720   2.738   1.703  14.665  0.2715 -0.1711 -0.4458
  722MPD2     C10721   0.913   4.674  13.324 -0.1856  0.1995  0.3220
  722MPD2    C110722   0.867   0.054  13.282  0.3243 -0.0938  0.3834
  722MPD2    C210723   0.735   0.070  13.238 -0.0367 -0.0409  0.4175
  722MPD2    C310724   0.652   4.694  13.235  0.1367  0.4881 -0.1238
  722MPD2    C410725   0.701   4.573  13.282  0.4422 -0.2957 -0.4783
  722MPD2    C510726   0.831   4.569  13.328  0.3546  0.6129  0.5567
  722MPD2     H10727   0.704   0.170  13.211 -0.7883 -0.4436 -0.2316
  722MPD2    H110728   0.641   4.483  13.275  2.0062 -1.4961  1.7640
  722MPD2    H210729   1.016   4.662  13.356 -0.6919  0.1042  1.9428
  722MPD2    H310730   0.864   4.471  13.360 -3.1285 -0.3329  1.2675
  722MPD2     N10731   0.516   4.718  13.216 -0.1315  0.3475  0.0490
  722MPD2    H510732   0.481   0.069  13.186  2.0422  1.0298 -0.4429
  722MPD2    N110733   0.945   0.171  13.273  0.6877  0.0185 -0.1414
  722MPD2    H710734   0.906   0.259  13.241 -0.6327  0.2393  2.0857
  723TMC3    C110735   0.285   4.684  13.186 -0.1534 -0.0942  0.8450
  723TMC3    C210736   0.218   4.615  13.089 -0.0399  0.9419 -0.4435
  723TMC3    C310737   0.129   4.689  13.010 -0.0245 -0.5090 -0.0907
  723TMC3    C410738   0.260   0.076  13.214 -0.4756  0.2280 -0.6461
  723TMC3    C510739   0.163   0.136  13.144 -0.3267 -0.7538  0.2901
  723TMC3    C610740   0.098   0.083  13.036 -0.0305 -0.0312 -0.2103
  723TMC3     C10741   0.416   4.628  13.213  0.2268  0.2922  0.3005
  723TMC3     O10742   0.429   4.506  13.221  0.2656 -0.4443 -0.3544
  723TMC3     H10743   0.242   4.513  13.063 -2.7257 -0.1426  1.3498
  723TMC3    H110744   0.325   0.135  13.278  0.3236  0.0720 -1.3070
  723TMC3    H210745   0.038   0.137  12.964  1.7827  1.9769 -0.2251
  723TMC3    C710746   0.133   0.269  13.183  0.1998  0.5600  0.1819
  723TMC3    C810747   0.095   4.634  12.885  0.3080 -1.0933  0.4004
  723TMC3    O110748   0.233   0.330  13.228 -0.2781 -0.2880  0.1494
  723TMC3    O210749   0.140   4.525  12.857 -0.1914  0.5688  0.1401
  724TMC3    C110750   1.092   3.222  10.502 -0.2435  0.1911 -0.7179
  724TMC3    C210751   1.048   3.253  10.377 -0.7770 -0.1456 -0.2395
  724TMC3    C310752   1.075   3.380  10.340  0.6022 -0.2203 -0.2118
  724TMC3    C410753   1.137   3.311  10.596 -0.3984 -0.2953 -0.3134
  724TMC3    C510754   1.128   3.443  10.569 -0.2787 -0.0714 -0.4649
  724TMC3    C610755   1.117   3.478  10.433  1.0474  0.5726 -0.2355
  724TMC3     C10756   1.071   3.080  10.548 -1.0684 -0.3316 -0.2649
  724TMC3     O10757   1.151   3.035  10.626  0.3050 -0.7220 -0.0660
  724TMC3     H10758   1.051   3.175  10.302  2.1937  0.0354 -0.2853
  724TMC3    H110759   1.152   3.277  10.698  0.2465 -1.9954 -0.9629
  724TMC3    H210760   1.132   3.582  10.405 -0.5527  0.1894 -2.5365
  724TMC3    C710761   1.185   3.558  10.650 -0.1393 -0.7673  0.7608
  724TMC3    C810762   1.063   3.415  10.199 -0.0611 -0.5190 -0.2716
  724TMC3    O110763   1.158   3.667  10.608  0.1976 -0.0252 -0.0593
  724TMC3    O210764   1.004   3.338  10.121  0.8378 -0.5161  0.1095
  725TMC3    C110765   2.692   1.874  13.314  0.1298 -0.3046  0.2677
  725TMC3    C210766   2.655   2.008  13.307  0.1902  0.0681  0.1753
  725TMC3    C310767   2.531   2.030  13.261  0.0843  0.4416 -0.8630
  725TMC3    C410768   2.618   1.769  13.278  0.3517  0.4158  0.5128
  725TMC3    C510769   2.500   1.802  13.231 -0.0856  0.2617  0.5991
  725TMC3    C610770   2.453   1.928  13.219  0.1988  0.9330  0.2386
  725TMC3     C10771   2.836   1.854  13.312  0.5111  0.2092 -0.0133
  725TMC3     O10772   2.881   1.741  13.335 -0.2697  0.3802  0.3857
  725TMC3     H10773   2.718   2.091  13.338 -0.5019 -0.0773  1.9182
  725TMC3    H110774   2.660   1.670  13.266  2.8247  1.2780  2.0852
  725TMC3    H210775   2.352   1.948  13.184  0.1474 -2.4773 -1.5095
  725TMC3    C710776   2.429   1.697  13.162 -0.2073 -0.6324  0.4148
  725TMC3    C810777   2.506   2.169  13.223 -0.7355  0.1488  0.1920
  725TMC3    O110778   2.385   1.727  13.054  0.1867 -0.1750  0.1148
  725TMC3    O210779   2.576   2.255  13.272  0.1207 -0.2297  0.1133
  726MPD2     C10780   0.470   3.296  11.082  0.8420 -0.7404 -0.0043
  726MPD2    C110781   0.347   3.326  11.021 -0.1241  0.9263  0.9674
  726MPD2    C210782   0.234   3.242  11.059  0.3358  0.2057 -0.3289
  726MPD2    C310783   0.245   3.143  11.155 -0.3669 -0.0418  0.3250
  726MPD2    C410784   0.362   3.130  11.223 -0.3951  0.9269  1.1015
  726MPD2    C510785   0.474   3.198  11.180 -0.2287  0.0025  0.5701
  726MPD2     H10786   0.139   3.277  11.020  0.3988  0.7588  0.0133
  726MPD2    H110787   0.362   3.050  11.296  1.1970 -0.6141 -0.6284
  726MPD2    H210788   0.560   3.349  11.052 -0.0035  0.3623 -0.6126
  726MPD2    H310789   0.562   3.185  11.241  0.4131 -2.2344 -0.8472
  726MPD2     N10790   0.135   3.069  11.199  0.1604 -0.1530 -0.4750
  726MPD2    H510791   0.152   2.990  11.261 -0.3404  0.1266  0.0210
  726MPD2    N110792   0.325   3.421  10.919  0.2351 -0.4401  0.0665
  726MPD2    H710793   0.231   3.427  10.883  1.0259 -0.8085 -2.0316
  727TMC3    C110794   0.350   3.638  10.820  0.0711  0.2896  0.8975
  727TMC3    C210795   0.431   3.739  10.806  0.0671  0.0442  0.7964
  727TMC3    C310796   0.406   3.827  10.701 -0.0341 -0.4146 -0.1239
  727TMC3    C410797   0.250   3.604  10.731  0.0344  0.0986  0.3179
  727TMC3    C510798   0.223   3.700  10.631  0.0316  0.0336 -0.1006
  727TMC3    C610799   0.298   3.811  10.617 -0.3361 -0.2393  0.1586
  727TMC3     C10800   0.413   3.532  10.902  0.5321  0.0798 -0.0407
  727TMC3     O10801   0.529   3.548  10.941 -0.1140  0.3396 -0.5385
  727TMC3     H10802   0.520   3.755  10.865  1.4466  0.0297 -1.2612
  727TMC3    H110803   0.189   3.515  10.738  0.6485 -0.4431 -1.2825
  727TMC3    H210804   0.285   3.868  10.526 -0.8766  0.6523  0.8016
  727TMC3    C710805   0.149   3.655  10.518 -0.6167 -0.2637 -0.1322
  727TMC3    C810806   0.476   3.950  10.704  0.6202 -0.2586  0.2130
  727TMC3    O110807   0.138   3.537  10.501 -0.0915  0.1676 -0.3695
  727TMC3    O210808   0.590   3.933  10.736  0.0445  0.1484  0.0900
  728TMC3    C110809   4.719   2.008  14.773  0.3146  0.1002 -0.2917
  728TMC3    C210810   0.082   2.032  14.678 -0.2917  0.3189  0.1066
  728TMC3    C310811   0.061   2.109  14.564 -0.1587  0.0255 -0.3740
  728TMC3    C410812   4.589   2.053  14.740  0.1491 -0.5601  0.4378
  728TMC3    C510813   4.572   2.129  14.624 -0.2429 -0.9891  0.8291
  728TMC3    C610814   4.676   2.161  14.537 -0.0549  0.0195  0.4461
  728TMC3     C10815   0.013   1.962  14.904  0.5281 -0.4039 -0.3257
  728TMC3     O10816   0.130   1.937  14.929  0.7152 -0.2267 -0.3337
  728TMC3     H10817   0.179   1.996  14.710  0.5567  1.7921 -0.8164
  728TMC3    H110818   4.496   2.045  14.794  0.0612 -1.0295  0.2164
  728TMC3    H210819   4.643   2.227  14.457 -0.7543 -1.1662 -0.2423
  728TMC3    C710820   4.444   2.204  14.617  0.3104  0.5261  0.0966
  728TMC3    C810821   0.155   2.096  14.460 -0.2160  0.0889  0.0693
  728TMC3    O110822   4.343   2.179  14.682  0.6346  0.2967  0.4308
  728TMC3    O210823   0.258   2.035  14.495 -0.1512  0.3659 -0.0287
  729MPD2     C10824   2.209   3.287  16.285  0.1542  0.0609 -0.1405
  729MPD2    C110825   2.272   3.219  16.384  0.2899 -0.4579  0.0655
  729MPD2    C210826   2.202   3.147  16.474  0.1590 -0.5574 -0.2983
  729MPD2    C310827   2.064   3.143  16.463 -0.8210  0.1721 -0.2203
  729MPD2    C410828   2.006   3.205  16.355  0.5390  0.0670  0.1719
  729MPD2    C510829   2.077   3.267  16.258 -0.3575  0.2296  0.4455
  729MPD2     H10830   2.251   3.096  16.556  4.1700 -1.1699 -3.1351
  729MPD2    H110831   1.897   3.203  16.355  0.5365 -0.0580  3.5115
  729MPD2    H210832   2.261   3.343  16.208  1.0809  0.3396  0.6848
  729MPD2    H310833   2.020   3.313  16.179 -0.9928  2.1873  2.0567
  729MPD2     N10834   1.981   3.054  16.545  0.4161 -0.8313 -0.4839
  729MPD2    H510835   1.881   3.049  16.527  0.8717 -0.9936 -2.8480
  729MPD2    N110836   2.415   3.221  16.386  0.4764 -0.9840  0.3626
  729MPD2    H710837   2.468   3.262  16.309  2.3885 -0.2784  2.0654
  730TMC3    C110838   1.924   2.924  16.733  0.8337 -0.6540 -0.4887
  730TMC3    C210839   1.984   2.839  16.823 -0.7050  0.2148  1.1306
  730TMC3    C310840   1.989   2.884  16.945 -0.1518  0.0917  0.5622
  730TMC3    C410841   1.842   3.030  16.774 -0.4477 -0.2978  0.2729
  730TMC3    C510842   1.849   3.075  16.901  0.2337 -0.4757  0.6672
  730TMC3    C610843   1.933   3.002  16.986 -0.3429  0.5354 -0.1834
  730TMC3     C10844   2.026   2.955  16.630 -0.3767 -0.4249 -0.0640
  730TMC3     O10845   2.140   2.913  16.649  0.4897 -0.0683 -0.5327
  730TMC3     H10846   2.036   2.754  16.781  0.0692 -0.0489  2.6175
  730TMC3    H110847   1.800   3.094  16.697  1.2754  0.8256  0.2453
  730TMC3    H210848   1.964   3.054  17.076  1.5398 -0.0360 -0.5057
  730TMC3    C710849   1.824   3.214  16.923 -0.2861  0.1628  0.0606
  730TMC3    C810850   2.056   2.798  17.040 -0.1296  0.2539 -0.0231
  730TMC3    O110851   1.787   3.281  16.825  0.0542  0.2144 -0.7517
  730TMC3    O210852   2.106   2.699  16.992  0.0891  0.0231  0.1839
  731MPD2     C10853   2.174   1.650  12.224  0.0694 -0.7249 -0.1979
  731MPD2    C110854   2.117   1.525  12.205  0.3256 -0.2539  0.3788
  731MPD2    C210855   2.083   1.438  12.308  0.2275 -0.0524 -0.4847
  731MPD2    C310856   2.101   1.482  12.435 -0.1073  0.6889  0.5602
  731MPD2    C410857   2.155   1.603  12.460  0.4657  0.1902  0.5573
  731MPD2    C510858   2.197   1.684  12.356  0.3945  0.3984 -0.4159
  731MPD2     H10859   2.044   1.340  12.285 -2.0903  0.7884 -0.1011
  731MPD2    H110860   2.184   1.634  12.560 -0.4505  0.3143  0.7803
  731MPD2    H210861   2.203   1.729  12.156 -0.0568  0.1378  0.7554
  731MPD2    H310862   2.247   1.774  12.389 -0.5381  1.5151 -2.0752
  731MPD2     N10863   2.060   1.397  12.540 -0.1296 -0.2976 -0.1566
  731MPD2    H510864   2.022   1.307  12.511  2.2003 -0.2005 -3.4787
  731MPD2    N110865   2.080   1.485  12.075  0.9726 -0.2183 -0.3556
  731MPD2    H710866   2.038   1.393  12.063 -1.3658  0.7092  0.5510
  732TMC3    C110867   2.069   1.505  11.833 -0.4150 -0.0052 -0.0904
  732TMC3    C210868   1.990   1.391  11.818 -0.1754  1.0539  0.1738
  732TMC3    C310869   2.035   1.305  11.723 -0.2879  0.1354 -0.3346
  732TMC3    C410870   2.182   1.528  11.758  0.7063 -1.4001 -0.2792
  732TMC3    C510871   2.218   1.441  11.669  0.5080  1.0480  0.1537
  732TMC3    C610872   2.150   1.328  11.649  0.6356  0.1369  1.0712
  732TMC3     C10873   2.080   1.571  11.962 -0.1483 -0.0431  0.6313
  732TMC3     O10874   2.107   1.691  11.956  0.1869 -0.2546  0.6684
  732TMC3     H10875   1.899   1.370  11.872  0.0115  0.9623  0.4551
  732TMC3    H110876   2.237   1.620  11.773 -1.2976 -0.0903 -0.8085
  732TMC3    H210877   2.186   1.242  11.594  0.3151  2.4059 -2.6748
  732TMC3    C710878   2.358   1.416  11.671  0.3428  0.3505 -0.7314
  732TMC3    C810879   1.954   1.184  11.691  0.4000 -0.0813  0.5412
  732TMC3    O110880   2.409   1.333  11.593 -0.2786  0.1740 -0.1181
  732TMC3    O210881   1.981   1.119  11.594  0.3178  0.1604 -0.5513
  733TMC3    C110882   3.025   4.146  13.067 -0.0310 -0.0020 -0.4774
  733TMC3    C210883   3.152   4.171  13.121  0.0613 -0.1211  0.4769
  733TMC3    C310884   3.243   4.235  13.038  0.3907 -0.5390  0.0679
  733TMC3    C410885   2.985   4.210  12.949  0.1796 -0.1674 -0.4476
  733TMC3    C510886   3.076   4.282  12.883  0.4929  0.1242 -0.0372
  733TMC3    C610887   3.201   4.297  12.927 -0.3618  0.4168  0.0219
  733TMC3     C10888   2.927   4.073  13.146  0.5269  0.3103  0.3189
  733TMC3     O10889   2.937   4.088  13.267  0.0563 -0.3618  0.0377
  733TMC3     H10890   3.189   4.137  13.217 -0.6513  0.6230  1.0105
  733TMC3    H110891   2.882   4.212  12.913  0.5268 -1.3712 -1.4843
  733TMC3    H210892   3.279   4.318  12.854 -1.7504 -0.2468 -1.6461
  733TMC3    C710893   3.012   4.406  12.837  0.7002  0.0875 -0.2605
  733TMC3    C810894   3.362   4.286  13.106  0.4247  0.5156 -0.3324
  733TMC3    O110895   2.893   4.407  12.817 -0.3422 -0.2376 -0.5727
  733TMC3    O210896   3.397   4.237  13.209 -0.1151 -0.1788 -1.2351
  734MPD2     C10897   4.719   2.084  12.664 -0.3197 -0.0278 -0.2840
  734MPD2    C110898   4.623   2.023  12.586 -0.0772 -0.0309  0.3964
  734MPD2    C210899   4.616   2.064  12.450 -0.3478 -0.3460  0.2063
  734MPD2    C310900   4.704   2.147  12.387 -0.1584  0.0664  0.0576
  734MPD2    C410901   0.073   2.191  12.466 -0.9761 -0.5372 -0.6040
  734MPD2    C510902   0.076   2.165  12.606  0.0850  0.6891 -0.5161
  734MPD2     H10903   4.544   2.016  12.385  1.0327 -1.6622 -0.3391
  734MPD2    H110904   0.146   2.258  12.421 -0.6960 -0.7210 -0.4273
  734MPD2    H210905   4.730   2.068  12.770  0.6603 -1.7649 -0.6587
  734MPD2    H310906   0.148   2.216  12.668  0.0493  1.9049 -1.4858
  734MPD2     N10907   4.699   2.160  12.248  0.1837 -0.3211  0.5400
  734MPD2    H510908   4.617   2.116  12.206  0.0006 -1.9040  2.5887
  734MPD2    N110909   4.535   1.916  12.645 -0.1505 -0.0012 -0.2246
  734MPD2    H710910   4.541   1.899  12.745  1.1251  1.5362 -0.0363
  735TMC3    C110911   4.388   1.720  12.639 -0.4385 -0.5173  0.1576
  735TMC3    C210912   4.284   1.669  12.567 -0.7648  0.4280 -0.3402
  735TMC3    C310913   4.288   1.534  12.525  0.5510  0.0554  0.2707
  735TMC3    C410914   4.482   1.630  12.677  0.0308 -0.0086 -0.3876
  735TMC3    C510915   4.487   1.498  12.640 -0.1709 -0.1759 -0.0157
  735TMC3    C610916   4.387   1.448  12.567  0.0815 -0.2570  0.1351
  735TMC3     C10917   4.439   1.845  12.575 -0.2090  0.3447  0.6945
  735TMC3     O10918   4.421   1.839  12.452 -0.1063 -0.2013  0.7562
  735TMC3     H10919   4.206   1.738  12.536  0.1509  1.0292 -1.3171
  735TMC3    H110920   4.573   1.662  12.727  0.2572 -0.9830 -0.1755
  735TMC3    H210921   4.393   1.352  12.516  1.4799 -0.3397  0.4643
  735TMC3    C710922   4.623   1.454  12.617 -0.0303  0.7578  0.8703
  735TMC3    C810923   4.258   1.515  12.382 -0.0942  0.1392  0.2839
  735TMC3    O110924   4.688   1.525  12.541  0.4586 -0.0606  0.4990
  735TMC3    O210925   4.229   1.401  12.347 -0.0984 -1.1713  0.4767
  736MPD2     C10926   0.068   1.157  12.759 -0.2071 -0.0562  0.1149
  736MPD2    C110927   0.054   1.270  12.678  0.2796 -0.1043  0.1562
  736MPD2    C210928   0.167   1.315  12.607 -0.0990 -0.1119  0.2000
  736MPD2    C310929   0.287   1.243  12.613  0.2906 -0.9643  0.1605
  736MPD2    C410930   0.301   1.128  12.689 -0.2329 -0.0788  0.0757
  736MPD2    C510931   0.188   1.085  12.758 -0.5129 -0.1971 -0.0581
  736MPD2     H10932   0.157   1.401  12.542 -2.0091  0.0244  0.6800
  736MPD2    H110933   0.393   1.076  12.714 -0.4071  0.6146  2.1574
  736MPD2    H210934   4.727   1.122  12.823  0.8535  1.4369  2.2590
  736MPD2    H310935   0.198   0.993  12.816  0.1972 -0.9492 -1.3812
  736MPD2     N10936   0.400   1.279  12.536 -0.5372  0.1896  0.2087
  736MPD2    H510937   0.486   1.231  12.562 -0.8866 -0.8854 -0.6106
  736MPD2    N110938   4.667   1.337  12.677  0.6086 -0.1662  0.0185
  736MPD2    H710939   4.595   1.295  12.735 -0.4358  0.7080 -0.6504
  737TMC3    C110940   0.547   1.402  12.395 -0.1798 -0.6152 -0.5408
  737TMC3    C210941   0.582   1.522  12.345 -0.0106 -0.5332 -0.3117
  737TMC3    C310942   0.705   1.531  12.287 -0.6532 -0.0162 -0.2601
  737TMC3    C410943   0.601   1.290  12.352 -0.9278  0.1950 -0.3866
  737TMC3    C510944   0.720   1.297  12.284  0.2511  0.1674  0.1281
  737TMC3    C610945   0.775   1.422  12.255 -1.0178  0.2654  0.2570
  737TMC3     C10946   0.407   1.385  12.447  0.2152  0.2084  0.5722
  737TMC3     O10947   0.328   1.476  12.431  0.1770  0.0407  0.0076
  737TMC3     H10948   0.527   1.614  12.365 -1.7749 -2.1662  2.2109
  737TMC3    H110949   0.551   1.194  12.359  0.0506 -0.2446  0.6185
  737TMC3    H210950   0.839   1.438  12.169  0.2791 -1.9171  0.8144
  737TMC3    C710951   0.759   1.178  12.215  0.3716  0.7132  0.0362
  737TMC3    C810952   0.756   1.657  12.228 -0.4274  0.3636 -0.1328
  737TMC3    O110953   0.676   1.089  12.215  0.7349  0.4139  0.1664
  737TMC3    O210954   0.876   1.682  12.230 -0.2565  0.5048  0.4733
  738MPD2     C10955   1.248   0.224  15.290 -0.3103 -0.2195 -0.3164
  738MPD2    C110956   1.252   0.185  15.162  0.0812  0.6444 -0.4991
  738MPD2    C210957   1.334   0.250  15.070  0.4973  0.0339  0.5213
  738MPD2    C310958   1.419   0.355  15.114 -0.7056 -1.0845  0.2557
  738MPD2    C410959   1.399   0.392  15.251  0.6795  0.8429 -0.4974
  738MPD2    C510960   1.321   0.323  15.338  0.7673 -0.9587 -0.0275
  738MPD2     H10961   1.334   0.206  14.971  1.1534 -1.8219  1.3420
  738MPD2    H110962   1.456   0.475  15.292  0.0796 -0.2267  2.4474
  738MPD2    H210963   1.196   0.164  15.365  1.6805 -2.9464 -1.1004
  738MPD2    H310964   1.308   0.360  15.439 -1.2479 -1.1449 -0.2251
  738MPD2     N10965   1.508   0.428  15.030  0.2652  1.1762  0.3184
  738MPD2    H510966   1.573   0.495  15.070  1.1921  0.4172  0.1050
  738MPD2    N110967   1.192   0.067  15.120  0.3629  0.1341 -0.2259
  738MPD2    H710968   1.204   0.032  15.026  0.6696  1.0624 -0.5268
  739TMC3    C110969   1.591   0.513  14.836  0.3829 -0.0418  0.2698
  739TMC3    C210970   1.549   0.577  14.718  0.5352 -0.0457  0.8853
  739TMC3    C310971   1.623   0.689  14.672 -0.0467  0.3563  0.4240
  739TMC3    C410972   1.696   0.567  14.910 -0.7675  0.1565  0.1045
  739TMC3    C510973   1.760   0.671  14.853  0.7701 -0.4676  0.1243
  739TMC3    C610974   1.723   0.743  14.750 -0.1395 -0.3092  0.2179
  739TMC3     C10975   1.510   0.410  14.891 -0.1542  0.7514  0.0804
  739TMC3     O10976   1.438   0.339  14.820 -0.2933  0.5683  0.4509
  739TMC3     H10977   1.471   0.537  14.654  0.7026  1.3592 -0.1947
  739TMC3    H110978   1.727   0.519  15.003 -0.3655 -1.1291 -0.6994
  739TMC3    H210979   1.791   0.822  14.724  0.1184  0.3363  2.8300
  739TMC3    C710980   1.892   0.712  14.904 -0.1806  0.1647 -0.3732
  739TMC3    C810981   1.607   0.736  14.533 -0.0471  0.0720  0.4217
  739TMC3    O110982   1.927   0.834  14.914 -1.0573  0.2807  0.1933
  739TMC3    O210983   1.533   0.671  14.462 -0.3681 -0.1077  0.5509
  740TMC3    C110984   1.909   1.874  14.341 -0.1017 -0.3285 -0.5343
  740TMC3    C210985   1.962   1.814  14.456 -0.3764  0.3001 -0.0362
  740TMC3    C310986   2.099   1.783  14.448  0.8155 -1.2048  0.0204
  740TMC3    C410987   1.991   1.899  14.228 -0.6167  0.7100  1.0690
  740TMC3    C510988   2.129   1.877  14.235  0.3592 -0.4478 -0.1172
  740TMC3    C610989   2.183   1.813  14.347  0.8350  0.2382  0.1964
  740TMC3     C10990   1.770   1.918  14.343 -0.0492 -0.3181 -0.7848
  740TMC3     O10991   1.747   2.018  14.276 -0.2002  0.4595 -0.1464
  740TMC3     H10992   1.907   1.798  14.548 -0.3602  0.6094  0.0260
  740TMC3    H110993   1.939   1.924  14.137  3.6599 -1.1436 -1.8552
  740TMC3    H210994   2.290   1.798  14.345  0.7235 -0.5122  0.0937
  740TMC3    C710995   2.203   1.840  14.112 -0.0886 -0.1088  0.0331
  740TMC3    C810996   2.171   1.758  14.573  0.6585 -0.9102 -1.1064
  740TMC3    O110997   2.277   1.744  14.119  0.4087 -0.1575  0.5544
  740TMC3    O210998   2.282   1.803  14.586  0.5754  0.3004  0.0574
  741TMC3    C110999   1.418   1.301  14.364  0.7632  0.5346  0.0787
  741TMC3    C211000   1.346   1.230  14.268  0.1467  0.7824  0.0657
  741TMC3    C311001   1.295   1.110  14.309  0.3683  1.2255  0.4046
  741TMC3    C411002   1.425   1.257  14.495 -0.5856 -0.3917  0.2307
  741TMC3    C511003   1.354   1.146  14.541 -0.5399  1.0269 -0.4996
  741TMC3    C611004   1.288   1.065  14.440 -0.0283 -0.0886 -0.5005
  741TMC3     C11005   1.510   1.405  14.321 -0.3575  0.1600 -0.5159
  741TMC3     O11006   1.604   1.416  14.396  0.0379  0.3788 -0.1478
  741TMC3     H11007   1.361   1.252  14.163 -1.6084  0.4360 -0.2509
  741TMC3    H111008   1.489   1.315  14.561 -1.8222 -1.0753  2.0222
  741TMC3    H211009   1.232   0.976  14.463 -0.3899 -0.0018 -1.0488
  741TMC3    C711010   1.371   1.107  14.681 -0.2002 -0.0616 -0.3595
  741TMC3    C811011   1.225   1.035  14.204 -0.2761 -0.1504 -0.8261
  741TMC3    O111012   1.415   1.191  14.763 -0.4825  0.0843 -0.5292
  741TMC3    O211013   1.202   1.098  14.105 -0.1403  0.0539 -0.5749
  742TMC3    C111014   1.583   3.949  15.368 -0.2060 -0.2562  0.4239
  742TMC3    C211015   1.478   3.903  15.296 -0.1912  0.2222 -0.0450
  742TMC3    C311016   1.486   3.772  15.255  0.2413 -0.6968 -0.0710
  742TMC3    C411017   1.678   3.867  15.417  0.0205 -0.2940  0.1867
  742TMC3    C511018   1.689   3.741  15.363  0.0105 -0.0539 -0.1052
  742TMC3    C611019   1.600   3.697  15.271  0.2398 -0.1001  0.1337
  742TMC3     C11020   1.629   4.088  15.355 -0.0443 -0.3469  0.5301
  742TMC3     O11021   1.751   4.105  15.369 -0.4442  0.5416  0.4033
  742TMC3     H11022   1.418   3.969  15.235  0.6297  2.7232  1.8468
  742TMC3    H111023   1.750   3.903  15.490  0.6431  0.8983 -1.0011
  742TMC3    H211024   1.588   3.592  15.247  1.3653 -0.1955  0.0138
  742TMC3    C711025   1.804   3.652  15.405 -0.3000 -0.0412 -1.2640
  742TMC3    C811026   1.407   3.724  15.145 -0.1396  0.7123  0.1150
  742TMC3    O111027   1.825   3.563  15.319  0.6803  0.3234  0.5740
  742TMC3    O211028   1.455   3.652  15.055 -0.5758  0.8797 -0.1428
  743MPD2     C11029   3.562   3.871   0.674  0.1715  0.5290  0.2478
  743MPD2    C111030   3.598   3.974   0.757  0.3647 -1.1942 -0.4489
  743MPD2    C211031   3.658   3.944   0.880  0.2953  0.7139  0.2782
  743MPD2    C311032   3.680   3.810   0.924  0.7717  0.0183  0.1549
  743MPD2    C411033   3.638   3.706   0.845  0.4387 -0.0562 -0.2116
  743MPD2    C511034   3.591   3.744   0.720  0.5533  0.1163  0.4913
  743MPD2     H11035   3.681   4.024   0.950 -0.3363 -1.2421  2.6975
  743MPD2    H111036   3.656   3.599   0.856 -0.3686 -0.2751 -0.9812
  743MPD2    H211037   3.534   3.897   0.572  0.0724 -0.8750 -0.0765
  743MPD2    H311038   3.582   3.663   0.648  0.5468  0.6693 -0.1280
  743MPD2     N11039   3.748   3.795   1.042 -0.0734 -0.0680  0.3672
  743MPD2    H511040   3.769   3.885   1.085  3.8343 -0.7584 -0.1428
  743MPD2    N111041   3.576   4.105   0.713 -0.5323  0.5269  0.2847
  743MPD2    H711042   3.530   4.111   0.622 -0.1770 -0.2884  0.0494
  744TMC3    C111043   3.580   4.340   0.708 -0.1665 -0.2419 -0.1298
  744TMC3    C211044   3.549   4.455   0.772 -0.6817 -0.7816  0.2710
  744TMC3    C311045   3.570   4.570   0.707  0.0255  0.1424  0.4001
  744TMC3    C411046   3.606   4.335   0.573 -0.3811 -0.2577  0.2433
  744TMC3    C511047   3.607   4.454   0.511 -0.1309  0.5832 -0.2752
  744TMC3    C611048   3.585   4.571   0.575  0.1874  0.4067  0.1742
  744TMC3     C11049   3.593   4.222   0.789 -0.1145  0.1546  0.5019
  744TMC3     O11050   3.595   4.238   0.910  0.3606  0.2370  0.0477
  744TMC3     H11051   3.537   4.448   0.879 -0.1496  0.3658  0.4066
  744TMC3    H111052   3.645   4.247   0.522 -2.5309 -1.5520  0.8198
  744TMC3    H211053   3.597   4.662   0.516 -1.8827 -0.1836 -1.1490
  744TMC3    C711054   3.632   4.459   0.369  0.1210  0.0474 -0.4662
  744TMC3    C811055   3.554   4.699   0.767  0.1230 -0.1128  0.6271
  744TMC3    O111056   3.666   4.567   0.316 -0.2155 -0.5685  0.2308
  744TMC3    O211057   3.567   0.057   0.693  0.3849  0.1827 -0.6663
  745TMC3    C111058   1.804   3.812  13.673 -0.7964  0.8315 -0.3186
  745TMC3    C211059   1.683   3.843  13.729  0.2443  0.5279 -0.3061
  745TMC3    C311060   1.585   3.880  13.644 -1.0573  0.0960 -0.4651
  745TMC3    C411061   1.827   3.815  13.537  0.0539  0.0504 -0.4975
  745TMC3    C511062   1.722   3.834  13.454 -0.0604 -0.6271  0.1729
  745TMC3    C611063   1.602   3.880  13.509  0.2429  0.1530  0.5809
  745TMC3     C11064   1.906   3.867  13.744 -0.2852  0.0202 -0.0446
  745TMC3     O11065   1.915   3.847  13.863  0.2825 -0.6545  0.1207
  745TMC3     H11066   1.661   3.822  13.833  1.1700 -0.9249 -0.4039
  745TMC3    H111067   1.923   3.783  13.497  0.6132 -0.2463  1.0886
  745TMC3    H211068   1.521   3.915  13.446 -1.2872 -1.0688  1.9168
  745TMC3    C711069   1.759   3.852  13.313 -0.4296 -0.1901  0.0837
  745TMC3    C811070   1.515   3.996  13.702 -0.5050  0.2175 -0.1475
  745TMC3    O111071   1.878   3.870  13.294  0.1214  0.4779  0.0946
  745TMC3    O211072   1.428   4.049  13.631  0.1182 -0.4234 -0.7254
  746TMC3    C111073   3.873   1.010  11.084  0.2519  0.2957 -0.0518
  746TMC3    C211074   3.954   1.042  10.977  0.2988 -0.0765  0.5069
  746TMC3    C311075   3.952   0.959  10.865 -0.9946 -0.0663  0.6687
  746TMC3    C411076   3.783   0.902  11.073 -0.0978  0.0124  0.3222
  746TMC3    C511077   3.779   0.826  10.950 -0.3658  0.0092  0.0289
  746TMC3    C611078   3.868   0.858  10.849  0.1018 -0.2208  0.4370
  746TMC3     C11079   3.837   1.116  11.182  0.1705  0.5099 -0.1079
  746TMC3     O11080   3.763   1.082  11.278 -0.4087 -0.0692 -0.2971
  746TMC3     H11081   4.039   1.108  10.990  1.2349 -0.7921 -2.0216
  746TMC3    H111082   3.716   0.883  11.156  0.1779 -0.9553  0.3238
  746TMC3    H211083   3.881   0.801  10.758 -1.0492 -0.2711  0.3026
  746TMC3    C711084   3.650   0.786  10.900  0.1690 -0.3660 -0.1570
  746TMC3    C811085   4.044   0.984  10.758 -0.0882  0.1278  0.3330
  746TMC3    O111086   3.655   0.757  10.783  0.0449 -0.2312 -0.5691
  746TMC3    O211087   4.092   0.887  10.701 -0.2303 -0.0065  0.3756
  747TMC3    C111088   1.332   1.189  11.400  0.3848  0.0993  0.8776
  747TMC3    C211089   1.248   1.174  11.502 -0.1435 -0.3694 -0.7019
  747TMC3    C311090   1.299   1.192  11.625  0.3913  0.9403  0.0222
  747TMC3    C411091   1.456   1.238  11.413 -0.1919 -0.0667 -0.0266
  747TMC3    C511092   1.505   1.266  11.535 -0.4569 -0.0321  0.0774
  747TMC3    C611093   1.421   1.253  11.644 -0.1781 -0.0288 -0.0398
  747TMC3     C11094   1.263   1.250  11.292 -0.5111  0.0007 -0.5635
  747TMC3     O11095   1.163   1.314  11.318 -0.3192  0.6414 -0.1998
  747TMC3     H11096   1.146   1.143  11.478 -0.1201 -0.4191 -0.7386
  747TMC3    H111097   1.522   1.248  11.328  2.5455 -1.4011  1.9155
  747TMC3    H211098   1.464   1.260  11.743 -0.1302 -0.8777 -0.0019
  747TMC3    C711099   1.629   1.345  11.547  0.9528  0.2401 -0.3371
  747TMC3    C811100   1.213   1.189  11.738 -0.0947 -0.0336  0.6887
  747TMC3    O111101   1.647   1.405  11.653 -0.7208  0.0232 -0.5169
  747TMC3    O211102   1.247   1.265  11.828  0.8327  0.1314 -0.0418
  748MPD2     C11103   2.771   1.713   1.010  0.3499  0.2099 -0.2351
  748MPD2    C111104   2.754   1.650   0.884  0.4704 -0.1669  0.1626
  748MPD2    C211105   2.845   1.551   0.842  0.1748 -0.0367 -0.5652
  748MPD2    C311106   2.957   1.521   0.918  0.1313  0.7080  0.5890
  748MPD2    C411107   2.972   1.592   1.031  0.1951  0.2368  0.2333
  748MPD2    C511108   2.881   1.679   1.083 -1.1718 -0.7562 -0.1902
  748MPD2     H11109   2.834   1.504   0.745  1.6613  3.6722 -2.5345
  748MPD2    H111110   3.061   1.573   1.091  0.0032 -3.4514 -0.6080
  748MPD2    H211111   2.704   1.788   1.051  0.4612  1.4215 -2.2246
  748MPD2    H311112   2.907   1.739   1.170  1.4545 -0.2318 -1.3477
  748MPD2     N11113   3.053   1.430   0.871  0.1129 -0.9087 -0.2690
  748MPD2    H511114   3.051   1.398   0.775  1.5527 -0.8966 -0.2914
  748MPD2    N111115   2.638   1.681   0.810 -0.4237  0.4427  0.1379
  748MPD2    H711116   2.602   1.774   0.827  2.3347  1.4132  0.6090
  749TMC3    C111117   3.250   1.306   0.854  0.1854 -0.4435  0.7839
  749TMC3    C211118   3.285   1.185   0.917  0.4563 -0.7003 -0.2396
  749TMC3    C311119   3.405   1.123   0.885  0.4606  0.3022  0.2163
  749TMC3    C411120   3.337   1.366   0.764 -0.2028  0.3781 -0.0770
  749TMC3    C511121   3.456   1.316   0.749 -0.2791  0.4865  1.0867
  749TMC3    C611122   3.493   1.199   0.806  0.7429 -0.0879 -0.4499
  749TMC3     C11123   3.162   1.383   0.941 -0.1241 -0.3774  0.5423
  749TMC3     O11124   3.198   1.373   1.059 -0.2916 -0.6051  0.1469
  749TMC3     H11125   3.210   1.143   0.982 -0.1850 -2.2150 -1.9908
  749TMC3    H111126   3.318   1.461   0.716 -1.8188 -0.4346 -1.0507
  749TMC3    H211127   3.594   1.157   0.808 -0.2680 -2.4324  1.7690
  749TMC3    C711128   3.570   1.399   0.690  0.6436  0.1711  0.0268
  749TMC3    C811129   3.441   1.008   0.951  0.3297 -0.2549 -0.3809
  749TMC3    O111130   3.545   1.517   0.675  0.2614  0.2104 -0.4083
  749TMC3    O211131   3.370   0.989   1.050 -0.3834 -0.4391  0.3809
  750MPD2     C11132   4.025   2.901  11.761  0.0698 -0.1698  0.3728
  750MPD2    C111133   3.901   2.857  11.784  0.2948 -0.1343 -0.1194
  750MPD2    C211134   3.865   2.734  11.728  0.1091  0.0138  0.0825
  750MPD2    C311135   3.955   2.664  11.651  0.2424 -0.2415  0.4413
  750MPD2    C411136   4.079   2.722  11.618 -0.4666  0.0397  0.5566
  750MPD2    C511137   4.117   2.838  11.682 -0.7265 -0.2277  0.5920
  750MPD2     H11138   3.769   2.688  11.749  0.3512  0.7581  2.7717
  750MPD2    H111139   4.149   2.664  11.559 -0.8291 -0.5619  0.7050
  750MPD2    H211140   4.059   2.994  11.804  0.5799  1.4919 -3.6767
  750MPD2    H311141   4.222   2.864  11.674 -1.0318  0.6286 -0.6848
  750MPD2     N11142   3.938   2.527  11.608 -0.5775  0.8060 -0.1305
  750MPD2    H511143   4.012   2.491  11.548 -2.1940 -0.3027 -1.4588
  750MPD2    N111144   3.814   2.947  11.849 -0.8657  0.5159  0.1144
  750MPD2    H711145   3.849   3.041  11.862  1.2699 -0.1210 -1.1307
  751TMC3    C111146   3.838   2.315  11.575 -0.0634 -0.3481 -0.4104
  751TMC3    C211147   3.714   2.261  11.543 -0.1452  0.2634  0.7186
  751TMC3    C311148   3.715   2.147  11.470  0.3242  0.5869 -0.7596
  751TMC3    C411149   3.951   2.280  11.502 -0.1399  0.3489  0.0547
  751TMC3    C511150   3.936   2.169  11.421  0.2388 -0.7934  0.1533
  751TMC3    C611151   3.825   2.107  11.398 -0.0070  0.7872  0.4311
  751TMC3     C11152   3.831   2.446  11.637 -0.5176 -0.0002 -0.3570
  751TMC3     O11153   3.731   2.472  11.703  0.1140 -0.0928 -0.0085
  751TMC3     H11154   3.624   2.298  11.590 -3.2780 -1.4805 -3.8453
  751TMC3    H111155   4.047   2.331  11.511  0.2774 -0.4353  0.1076
  751TMC3    H211156   3.822   2.022  11.331 -0.1343  0.0650  1.3596
  751TMC3    C711157   4.021   2.150  11.304  0.8489  0.7918 -0.0256
  751TMC3    C811158   3.587   2.096  11.435  0.4823 -0.2515 -0.1853
  751TMC3    O111159   4.052   2.255  11.253  0.1080 -0.7668 -0.2627
  751TMC3    O211160   3.591   2.032  11.328 -0.1944  0.3546 -0.5645
  752TMC3    C111161   3.043   2.589  17.181 -0.0783  1.1020  0.2439
  752TMC3    C211162   3.115   2.495  17.262 -0.2397 -1.0530  0.4103
  752TMC3    C311163   3.061   2.473  17.381 -0.5838  0.3143 -0.4307
  752TMC3    C411164   2.943   2.662  17.230  0.3471  0.9938  0.3459
  752TMC3    C511165   2.910   2.647  17.362  0.0255  0.5323 -0.4413
  752TMC3    C611166   2.960   2.544  17.434  0.7371  0.3633 -0.3022
  752TMC3     C11167   3.090   2.596  17.042 -0.1408 -0.0048  0.0379
  752TMC3     O11168   3.207   2.579  17.030 -0.0996  0.2998 -0.4356
  752TMC3     H11169   3.208   2.451  17.227  0.8341  2.2176 -0.8763
  752TMC3    H111170   2.906   2.738  17.163  3.0701 -0.5187 -2.8796
  752TMC3    H211171   2.920   2.520  17.532 -0.7963  0.3450 -0.9417
  752TMC3    C711172   2.811   2.733  17.411  0.2509 -0.5548  0.6366
  752TMC3    C811173   3.117   2.369  17.467 -0.2523 -0.7634  0.5841
  752TMC3    O111174   2.730   2.776  17.332  0.2580  0.2810 -0.1954
  752TMC3    O211175   3.074   2.368  17.582  0.4380 -0.4777 -0.9648
  753TMC3    C111176   0.088   4.218  13.308  0.3435 -0.0751 -0.4300
  753TMC3    C211177   0.186   4.168  13.390  0.3318 -0.0199  0.2461
  753TMC3    C311178   0.219   4.038  13.386 -0.3050 -1.0874  0.4963
  753TMC3    C411179   0.040   4.140  13.210  0.5841 -0.5143 -0.0907
  753TMC3    C511180   0.083   4.006  13.204 -0.2653 -0.9747  0.0534
  753TMC3    C611181   0.175   3.955  13.283 -0.1708  0.2978  0.0470
  753TMC3     C11182   0.058   4.356  13.305 -0.1775 -0.2138 -0.5496
  753TMC3     O11183   0.003   4.392  13.205 -0.0726  0.1339 -0.1553
  753TMC3     H11184   0.225   4.234  13.466  1.3525 -1.1961  0.7410
  753TMC3    H111185   4.698   4.174  13.146  0.0152  1.0679  1.4619
  753TMC3    H211186   0.190   3.848  13.288  0.5113  0.2774 -2.8451
  753TMC3    C711187   0.026   3.923  13.105  0.2724 -0.1256 -0.1677
  753TMC3    C811188   0.308   3.982  13.483  0.0013  0.3843 -1.0058
  753TMC3    O111189   4.654   3.958  13.074 -0.0416 -0.4289 -0.0391
  753TMC3    O211190   0.364   3.883  13.438  0.1127 -0.1427 -0.1824
  754MPD2     C11191   3.895   3.027  13.093  0.4804 -0.6757  0.3064
  754MPD2    C111192   3.895   2.889  13.118  0.4604 -0.1455  0.5199
  754MPD2    C211193   3.769   2.829  13.118 -0.0120  0.0002 -0.3747
  754MPD2    C311194   3.645   2.900  13.097 -0.7811  0.1856 -0.2224
  754MPD2    C411195   3.652   3.037  13.089  0.4034  0.1926  0.4105
  754MPD2    C511196   3.774   3.097  13.084 -0.1173  0.2476  0.1515
  754MPD2     H11197   3.764   2.722  13.133 -2.0659 -0.0313 -1.3652
  754MPD2    H111198   3.564   3.100  13.081 -0.0029 -0.5399 -0.8345
  754MPD2    H211199   3.981   3.091  13.081 -0.3863  0.3462 -0.4482
  754MPD2    H311200   3.782   3.205  13.082 -0.8833  0.3161  0.6756
  754MPD2     N11201   3.515   2.844  13.113 -0.0851 -0.5945  0.3179
  754MPD2    H511202   3.441   2.907  13.087 -0.4030 -0.7098  0.9297
  754MPD2    N111203   4.021   2.823  13.128  0.8741  0.7663 -0.2541
  754MPD2    H711204   4.103   2.879  13.106  1.6652 -0.2250  0.1527
  755MPD2     C11205   2.766   3.321  13.026  0.3222  0.1197 -0.5243
  755MPD2    C111206   2.728   3.203  13.084 -0.1707  0.8066 -0.7033
  755MPD2    C211207   2.815   3.094  13.107  0.2627  0.1407 -0.2466
  755MPD2    C311208   2.954   3.104  13.076 -0.2403 -0.1018  0.0261
  755MPD2    C411209   2.987   3.217  13.005 -0.2704  0.0988  0.3979
  755MPD2    C511210   2.897   3.317  12.980  0.3695 -0.6600  0.0522
  755MPD2     H11211   2.781   3.005  13.158  1.0495 -0.6723 -1.1425
  755MPD2    H111212   3.086   3.228  12.962 -0.6212 -0.3933 -0.5515
  755MPD2    H211213   2.693   3.397  13.001 -1.2775 -0.6650  1.8949
  755MPD2    H311214   2.935   3.402  12.924 -0.2903  0.1622  0.8433
  755MPD2     N11215   3.050   2.993  13.104  0.9207  0.6615 -0.4673
  755MPD2    H511216   3.141   2.993  13.059  0.3588 -0.4380 -1.6061
  755MPD2    N111217   2.591   3.182  13.118 -0.1477  0.1216 -0.5830
  755MPD2    H711218   2.563   3.085  13.117  0.7169 -0.1167 -1.2264
  756MPD2     C11219   4.078   3.922  10.218  0.4094  0.1862 -0.0260
  756MPD2    C111220   3.985   3.838  10.261 -0.1861  0.0915 -0.2192
  756MPD2    C211221   3.873   3.820  10.189 -0.1982 -0.3915 -0.0683
  756MPD2    C311222   3.855   3.878  10.062  0.3785 -0.1317  0.1338
  756MPD2    C411223   3.943   3.985  10.029  0.0413  0.1085 -0.3083
  756MPD2    C511224   4.056   3.999  10.104  1.0740  0.6270  0.0559
  756MPD2     H11225   3.801   3.748  10.225 -0.0753  0.2698  1.4933
  756MPD2    H111226   3.916   4.042   9.940  0.1066 -1.4202 -1.3023
  756MPD2    H211227   4.170   3.947  10.271 -0.3551  1.2273  0.8106
  756MPD2    H311228   4.130   4.076  10.088  3.2194 -1.2810  0.8646
  756MPD2     N11229   3.748   3.831   9.979 -0.6648 -0.0788  0.2410
  756MPD2    H511230   3.703   3.749  10.018 -1.1262 -0.0578 -0.2508
  756MPD2    N111231   3.998   3.766  10.383  0.2657  0.1938  0.6125
  756MPD2    H711232   3.917   3.713  10.416 -0.8657  0.7459 -1.3415
  757MPD2     C11233   3.418   3.124  10.317  0.0535  0.5106 -0.6529
  757MPD2    C111234   3.378   3.087  10.192 -0.5963  0.6809  0.0690
  757MPD2    C211235   3.383   3.185  10.093  0.5408 -0.2359  0.7052
  757MPD2    C311236   3.448   3.307  10.112  0.2149 -0.5286 -0.3965
  757MPD2    C411237   3.503   3.333  10.238 -0.0075 -0.7164  0.8437
  757MPD2    C511238   3.473   3.247  10.338 -0.0647  0.0882 -0.4037
  757MPD2     H11239   3.345   3.162   9.994  2.7775  0.9748 -0.4234
  757MPD2    H111240   3.541   3.430  10.268 -3.5030  1.1829 -0.8654
  757MPD2    H211241   3.398   3.065  10.406  1.4008 -0.9959 -1.3585
  757MPD2    H311242   3.506   3.281  10.436  0.5535 -0.5042 -0.4053
  757MPD2     N11243   3.455   3.400  10.003  0.3318  0.5477  0.9788
  757MPD2    H511244   3.411   3.375   9.915  1.3090 -0.2660  0.7204
  757MPD2    N111245   3.319   2.964  10.177 -0.4104 -0.8493 -0.0351
  757MPD2    H711246   3.298   2.916  10.264 -2.6553  1.2911  0.5978
  758MPD2     C11247   3.675   2.173  15.691 -0.9813 -0.6864  0.4971
  758MPD2    C111248   3.707   2.050  15.737  0.1968  0.5556  0.2244
  758MPD2    C211249   3.667   2.028  15.861 -0.4135  0.5025 -0.3501
  758MPD2    C311250   3.609   2.122  15.948  0.2466 -0.4805 -0.4675
  758MPD2    C411251   3.572   2.242  15.892  0.1365  0.2600  0.0511
  758MPD2    C511252   3.599   2.263  15.766  0.3458  0.4381  0.1898
  758MPD2     H11253   3.675   1.927  15.900 -0.4464  0.3005 -0.8597
  758MPD2    H111254   3.504   2.301  15.952 -2.3970 -0.5374 -2.0474
  758MPD2    H211255   3.711   2.207  15.594 -1.3509  0.5291  0.7857
  758MPD2    H311256   3.577   2.362  15.726 -0.3619  0.0211 -0.4462
  758MPD2     N11257   3.584   2.100  16.086  0.2730 -0.2180  0.9647
  758MPD2    H511258   3.558   2.183  16.139  0.4998 -0.6319  1.7207
  758MPD2    N111259   3.781   1.959  15.658  0.0517  0.3784 -0.2025
  758MPD2    H711260   3.809   1.982  15.563 -1.5042 -0.1979 -0.7966
  759MPD2     C11261   2.331   0.565  10.272 -0.1505  0.3813 -0.3168
  759MPD2    C111262   2.272   0.673  10.328 -0.4656  0.6554  0.2889
  759MPD2    C211263   2.293   0.798  10.272  0.1642  0.5103 -0.3707
  759MPD2    C311264   2.390   0.818  10.176  0.9740 -0.3106 -0.7820
  759MPD2    C411265   2.457   0.705  10.123  0.5582 -0.9258  0.1292
  759MPD2    C511266   2.423   0.582  10.176  0.5716 -0.1236 -0.1512
  759MPD2     H11267   2.249   0.889  10.312 -3.2055 -0.5994 -1.5745
  759MPD2    H111268   2.532   0.702  10.046 -0.0229  2.4357 -0.5812
  759MPD2    H211269   2.313   0.469  10.321  0.4846  0.9834  1.0981
  759MPD2    H311270   2.488   0.502  10.143  0.0425 -0.0911 -1.2625
  759MPD2     N11271   2.417   0.947  10.131  0.6842  0.1321 -0.7313
  759MPD2    H511272   2.359   1.018  10.176  0.4412 -0.4792 -0.0718
  759MPD2    N111273   2.182   0.684  10.438  0.5333  0.3625 -0.2089
  759MPD2    H711274   2.145   0.777  10.453  0.0039  0.2421 -0.7640
  760MPD2     C11275   1.897   2.681  11.704  0.2844 -0.6945  0.2559
  760MPD2    C111276   2.010   2.724  11.762 -0.4316  0.8198  0.5795
  760MPD2    C211277   2.044   2.664  11.880  1.1571  0.4671 -0.0200
  760MPD2    C311278   1.973   2.556  11.942 -0.7237  0.6188 -0.3238
  760MPD2    C411279   1.860   2.517  11.876 -0.5220  0.5397  0.2324
  760MPD2    C511280   1.824   2.586  11.762 -0.0014  0.5774 -1.0337
  760MPD2     H11281   2.142   2.691  11.920  0.6075 -0.9520  2.3172
  760MPD2    H111282   1.807   2.428  11.908  0.8691 -0.7893 -1.1655
  760MPD2    H211283   1.857   2.728  11.615 -0.7687 -0.8894  0.6312
  760MPD2    H311284   1.733   2.558  11.709 -0.7993  1.6954 -0.2550
  760MPD2     N11285   2.024   2.477  12.050  0.1269  0.0557  0.1156
  760MPD2    H511286   1.969   2.400  12.087  1.9296 -1.6135 -0.6337
  760MPD2    N111287   2.086   2.823  11.695 -0.0670 -0.5754  0.1985
  760MPD2    H711288   2.060   2.840  11.598  1.3057  0.1966 -0.0273
  761MPD2     C11289   3.137   1.868  11.517 -0.1474  1.0591 -0.1953
  761MPD2    C111290   3.197   1.908  11.401  0.4281 -0.3895  0.6105
  761MPD2    C211291   3.327   1.972  11.407 -0.7086 -0.4314  0.2395
  761MPD2    C311292   3.378   2.009  11.529  0.4594 -0.0681  0.2385
  761MPD2    C411293   3.311   1.985  11.647 -0.0390 -0.2693 -0.7914
  761MPD2    C511294   3.200   1.907  11.642 -0.2839  0.0239  0.4212
  761MPD2     H11295   3.377   1.981  11.312 -0.9515  0.9357  0.2429
  761MPD2    H111296   3.349   2.030  11.738 -2.3893 -0.5781  0.3444
  761MPD2    H211297   3.045   1.810  11.524  0.7221 -0.2460  0.3763
  761MPD2    H311298   3.150   1.892  11.737  0.2392  1.3633  0.9138
  761MPD2     N11299   3.500   2.083  11.539 -0.0413 -0.1869 -0.1545
  761MPD2    H511300   3.510   2.138  11.623  0.4291 -1.3300  0.5356
  761MPD2    N111301   3.134   1.857  11.283  0.2570 -0.4527  0.3938
  761MPD2    H711302   3.041   1.818  11.289 -0.4148  1.2827  1.4471
  762MPD2     C11303   3.396   2.068  10.523 -0.4401  0.7847  0.5425
  762MPD2    C111304   3.430   1.970  10.609 -0.0657  0.4336 -0.4016
  762MPD2    C211305   3.565   1.942  10.617 -0.7797  0.2412 -0.3968
  762MPD2    C311306   3.666   2.009  10.549  0.0959  0.0556  0.5646
  762MPD2    C411307   3.620   2.106  10.460  0.6082 -0.3696 -0.7746
  762MPD2    C511308   3.492   2.142  10.456  0.3380  0.2205 -0.2732
  762MPD2     H11309   3.595   1.854  10.672 -0.9160 -0.1118 -0.8945
  762MPD2    H111310   3.682   2.161  10.389  0.8473  0.9042  0.4133
  762MPD2    H211311   3.293   2.103  10.525 -0.3557  1.1777 -1.4859
  762MPD2    H311312   3.458   2.218  10.386  0.1427  0.9929  0.6461
  762MPD2     N11313   3.802   1.976  10.569 -0.5256 -0.1130 -0.3673
  762MPD2    H511314   3.824   1.897  10.628 -1.2241  0.5838  0.8326
  762MPD2    N111315   3.337   1.897  10.686 -0.3669  0.1752 -0.4991
  762MPD2    H711316   3.372   1.828  10.752  0.1068  0.9263  0.0240
  763MPD2     C11317   1.069   2.025  16.173  0.0232  0.0553  0.1764
  763MPD2    C111318   0.946   2.079  16.147 -0.2528 -0.0200 -0.1008
  763MPD2    C211319   0.918   2.203  16.199  0.0927  0.0045 -0.6976
  763MPD2    C311320   1.006   2.277  16.277 -0.1501  0.6388 -0.1680
  763MPD2    C411321   1.125   2.218  16.307  0.2548  0.3956  0.0054
  763MPD2    C511322   1.157   2.085  16.265  0.8283  0.5029 -0.1133
  763MPD2     H11323   0.816   2.238  16.186  0.0798  0.4491  0.6597
  763MPD2    H111324   1.197   2.259  16.376  1.1973  0.8289 -1.2467
  763MPD2    H211325   1.100   1.931  16.128 -1.9147 -0.3686 -0.3183
  763MPD2    H311326   1.252   2.041  16.292  0.0955 -0.5972  0.6719
  763MPD2     N11327   0.983   2.405  16.324  0.7525  0.4394 -0.0033
  763MPD2    H511328   1.064   2.461  16.350  2.6530 -1.7699 -1.2168
  763MPD2    N111329   0.844   2.027  16.068 -0.8974 -0.5845 -0.6185
  763MPD2    H711330   0.778   2.086  16.018 -0.2118 -0.6621 -1.6108
  764MPD2     C11331   3.736   2.902  17.590 -0.7530 -0.1579  0.3778
  764MPD2    C111332   3.595   2.928  17.574 -0.0272  0.1972  0.3730
  764MPD2    C211333   3.518   2.942  17.687  0.1057 -0.4700 -0.4408
  764MPD2    C311334   3.568   2.907   0.062 -0.5052 -0.6879 -0.3380
  764MPD2    C411335   3.701   2.860   0.066 -0.3294 -0.4476  0.1837
  764MPD2    C511336   3.778   2.859  17.708 -0.3191 -0.4274  0.6220
  764MPD2     H11337   3.413   2.964  17.673  0.7096  2.7069 -0.0529
  764MPD2    H111338   3.744   2.820   0.157  0.0307  0.3185  0.3457
  764MPD2    H211339   3.810   2.909  17.511  0.9310 -1.2933  1.8610
  764MPD2    H311340   3.877   2.819  17.720 -0.4823 -0.9736  0.1304
  764MPD2     N11341   3.485   2.909   0.172 -0.2391 -0.2430 -0.4354
  764MPD2    H511342   3.395   2.952   0.154  0.5698  0.9309 -1.6775
  764MPD2    N111343   3.531   2.959  17.450 -0.1923 -0.6126  0.1708
  764MPD2    H711344   3.430   2.961  17.456 -0.0567  0.1786  1.9974
  765MPD2     C11345   3.370   1.734  15.073  0.0636  0.0914  0.0989
  765MPD2    C111346   3.438   1.737  15.191 -0.0591 -0.0908 -0.0113
  765MPD2    C211347   3.566   1.696  15.211 -0.2872 -0.4818  0.1448
  765MPD2    C311348   3.631   1.645  15.103 -0.4410  0.5726 -0.4422
  765MPD2    C411349   3.572   1.647  14.977 -0.4036  0.2710  0.6414
  765MPD2    C511350   3.443   1.688  14.969 -0.4769 -0.1085 -1.2374
  765MPD2     H11351   3.603   1.677  15.311 -0.5874  0.7086  0.4842
  765MPD2    H111352   3.620   1.622  14.883  0.3748 -0.1678  1.1541
  765MPD2    H211353   3.271   1.778  15.062  0.6004 -0.0335 -5.1811
  765MPD2    H311354   3.404   1.713  14.871  1.0201 -0.2154 -1.8570
  765MPD2     N11355   3.761   1.588  15.112 -0.2287  0.1763 -0.1949
  765MPD2    H511356   3.789   1.543  15.025  0.4242 -0.9933  0.6322
  765MPD2    N111357   3.366   1.787  15.302 -0.4238 -0.2356 -0.3351
  765MPD2    H711358   3.266   1.783  15.286 -0.3637  2.3669 -1.4366
  766MPD2     C11359   2.697   1.991  15.176 -0.5023  0.4559 -0.7773
  766MPD2    C111360   2.829   1.956  15.169 -0.1671 -0.7131 -0.4131
  766MPD2    C211361   2.900   1.957  15.050 -0.0178 -1.2646  0.1232
  766MPD2    C311362   2.836   2.005  14.936  0.0913 -0.0825 -0.1235
  766MPD2    C411363   2.703   2.043  14.942  0.0574 -0.3415  0.0448
  766MPD2    C511364   2.635   2.033  15.060 -0.1141  0.2468 -0.1508
  766MPD2     H11365   3.003   1.925  15.049 -0.6371 -3.3298  0.8222
  766MPD2    H111366   2.650   2.071  14.852 -0.8845 -2.5793 -0.0837
  766MPD2    H211367   2.651   1.991  15.274 -0.2473  1.2578 -0.6540
  766MPD2    H311368   2.533   2.065  15.047 -0.3958 -0.3359  0.6178
  766MPD2     N11369   2.905   2.045  14.817 -0.4379 -0.0792 -0.6553
  766MPD2    H511370   2.850   2.099  14.751 -0.7077  1.0849  0.5097
  766MPD2    N111371   2.894   1.929  15.293  0.0675  0.3159 -0.1763
  766MPD2    H711372   2.838   1.954  15.374 -0.1685  0.1262 -0.2840
  767MPD2     C11373   2.442   2.342  14.886 -0.3429  0.1792 -0.4908
  767MPD2    C111374   2.572   2.334  14.849  0.2686 -0.8085 -0.0184
  767MPD2    C211375   2.606   2.293  14.719  0.0376  0.1664  0.0656
  767MPD2    C311376   2.507   2.250  14.634 -0.5862 -0.4759 -0.0991
  767MPD2    C411377   2.375   2.274  14.665  0.0585  0.6530 -0.0985
  767MPD2    C511378   2.347   2.323  14.788  0.3263  0.9049  0.2902
  767MPD2     H11379   2.708   2.299  14.683 -0.1656  2.2791 -0.1456
  767MPD2    H111380   2.300   2.271  14.587 -0.6567  1.5532  0.5429
  767MPD2    H211381   2.408   2.360  14.987 -0.2120 -0.8965 -0.2541
  767MPD2    H311382   2.241   2.330  14.808 -0.1591 -5.2384 -0.0807
  767MPD2     N11383   2.543   2.194  14.507 -0.2306 -0.1027  0.1386
  767MPD2    H511384   2.640   2.196  14.478 -0.7447 -0.5725 -1.6065
  767MPD2    N111385   2.667   2.364  14.948  0.1983 -0.8067  0.1868
  767MPD2    H711386   2.631   2.406  15.032  1.7850 -0.6202  0.7688
  768MPD2     C11387   3.627   0.761  10.274  0.9115 -0.7068 -0.5647
  768MPD2    C111388   3.544   0.681  10.343 -0.6863  0.0496 -0.3374
  768MPD2    C211389   3.606   0.581  10.422 -0.0709 -0.8296 -0.0384
  768MPD2    C311390   3.737   0.597  10.468  0.5679  0.3156 -0.9839
  768MPD2    C411391   3.816   0.675  10.396  0.7491  0.3750  0.3147
  768MPD2    C511392   3.761   0.761  10.305 -0.1973  0.0188  0.3352
  768MPD2     H11393   3.538   0.513  10.473 -1.4076  1.6354  1.4520
  768MPD2    H111394   3.918   0.701  10.422  1.3093 -1.6479  0.1214
  768MPD2    H211395   3.600   0.826  10.191 -1.1875  1.3788  1.7824
  768MPD2    H311396   3.837   0.821  10.255 -0.7311 -1.1146 -1.7925
  768MPD2     N11397   3.797   0.528  10.571  0.1508 -0.3583 -0.0074
  768MPD2    H511398   3.892   0.550  10.599 -0.1632  1.3969 -0.3406
  768MPD2    N111399   3.407   0.672  10.327  0.6863  0.3584 -0.3952
  768MPD2    H711400   3.363   0.590  10.367  1.1173 -0.2692 -1.2250
  769MPD2     C11401   4.358   2.924  14.819  0.1664  0.1107  0.3119
  769MPD2    C111402   4.375   3.057  14.862 -0.0355  1.0317 -0.7186
  769MPD2    C211403   4.433   3.069  14.988  0.4875 -0.3278  0.5010
  769MPD2    C311404   4.453   2.961  15.069  0.6705 -0.2679 -0.2101
  769MPD2    C411405   4.433   2.835  15.021 -0.5392 -0.3893 -0.1521
  769MPD2    C511406   4.407   2.821  14.888 -0.1034 -0.2303  0.2008
  769MPD2     H11407   4.449   3.162  15.041  1.1285 -0.8718  1.2590
  769MPD2    H111408   4.462   2.753  15.086 -1.8900 -0.5210  0.2810
  769MPD2    H211409   4.316   2.906  14.721 -1.2506  2.8386  0.4176
  769MPD2    H311410   4.417   2.724  14.841 -2.0297  0.5452 -1.8208
  769MPD2     N11411   4.491   2.990  15.204  0.1800 -0.3063  0.4639
  769MPD2    H511412   4.504   3.090  15.218 -2.0798 -0.1209  1.1653
  769MPD2    N111413   4.326   3.173  14.802  0.2623 -0.4373 -0.6646
  769MPD2    H711414   4.336   3.267  14.837  1.9174 -0.4863 -1.0025
  770MPD2     C11415   3.679   2.918  14.749 -0.4506 -0.3777  0.3298
  770MPD2    C111416   3.802   2.902  14.803 -0.8892 -0.1883  0.1213
  770MPD2    C211417   3.879   3.014  14.820 -0.0520 -1.0627  1.1478
  770MPD2    C311418   3.832   3.139  14.776  0.3003 -0.5186  0.3239
  770MPD2    C411419   3.709   3.154  14.712  0.3864 -0.5046  0.2639
  770MPD2    C511420   3.635   3.042  14.707 -0.2883  0.0230 -0.1696
  770MPD2     H11421   3.969   3.013  14.879  0.9153 -0.7661 -0.3251
  770MPD2    H111422   3.675   3.251  14.678  2.6909  0.4131  0.5587
  770MPD2    H211423   3.612   2.833  14.752 -0.3849 -0.4788 -1.1585
  770MPD2    H311424   3.531   3.052  14.681 -0.1959 -0.8974 -0.8945
  770MPD2     N11425   3.916   3.251  14.802  0.5683  0.0649 -0.2354
  770MPD2    H511426   4.009   3.238  14.841  0.4728 -1.2752 -0.4355
  770MPD2    N111427   3.844   2.772  14.842  0.5953  0.4730  0.0095
  770MPD2    H711428   3.806   2.694  14.789  0.7466  0.4090 -0.0058
  771MPD2     C11429   0.931   1.155  13.654  0.2430  0.3710  0.2578
  771MPD2    C111430   0.838   1.263  13.649 -0.6386  0.1890  0.5899
  771MPD2    C211431   0.721   1.230  13.584  0.3542  0.5476 -0.0333
  771MPD2    C311432   0.685   1.113  13.534  0.5809  0.4828  0.1824
  771MPD2    C411433   0.779   1.015  13.526  0.5149  0.8663  0.0873
  771MPD2    C511434   0.908   1.036  13.585  0.6314 -0.2371 -0.2354
  771MPD2     H11435   0.641   1.303  13.584 -0.0532  0.1233 -2.0211
  771MPD2    H111436   0.759   0.917  13.485  0.4971  1.6862 -1.8688
  771MPD2    H211437   1.028   1.151  13.704 -0.1359 -5.1623  0.5197
  771MPD2    H311438   0.977   0.954  13.596 -1.3530 -2.1708 -2.1139
  771MPD2     N11439   0.552   1.101  13.484 -0.1643 -0.3061  0.2812
  771MPD2    H511440   0.486   1.176  13.502 -1.0157 -0.8738 -0.4924
  771MPD2    N111441   0.856   1.389  13.703  0.2594  0.0814  0.8882
  771MPD2    H711442   0.770   1.441  13.694 -0.6767 -1.2747  2.1039
  772MPD2     C11443   0.471   1.903  13.683 -0.0500  0.1853  0.7666
  772MPD2    C111444   0.478   1.856  13.810  0.0037 -0.0010  0.4802
  772MPD2    C211445   0.363   1.855  13.883 -0.1392 -0.2905 -0.5612
  772MPD2    C311446   0.241   1.901  13.835  0.2684 -0.0570  0.1007
  772MPD2    C411447   0.234   1.956  13.714  0.5207 -0.4353  0.4325
  772MPD2    C511448   0.350   1.954  13.635 -0.6951  0.1689 -0.1594
  772MPD2     H11449   0.367   1.799  13.976  0.0212 -0.0823 -0.4418
  772MPD2    H111450   0.150   2.007  13.668  0.2683  0.4765  1.8755
  772MPD2    H211451   0.559   1.920  13.623 -1.0242 -0.5289 -0.8754
  772MPD2    H311452   0.357   2.003  13.538 -0.1731  0.4092  0.0017
  772MPD2     N11453   0.119   1.895  13.907  0.1637  0.3957  0.6105
  772MPD2    H511454   0.038   1.942  13.868  2.4021  3.0638 -0.7663
  772MPD2    N111455   0.602   1.810  13.864  0.2437  0.1384 -0.2448
  772MPD2    H711456   0.604   1.794  13.964  1.7106 -0.8317 -0.4263
  773MPD2     C11457   4.398   1.691   0.133  0.3979 -0.1762 -0.5171
  773MPD2    C111458   4.416   1.623   0.016  0.5239 -0.0854 -0.3293
  773MPD2    C211459   4.465   1.495   0.016 -0.2841  0.1246  0.1131
  773MPD2    C311460   4.509   1.439   0.132  0.2963 -0.4062 -0.4739
  773MPD2    C411461   4.499   1.511   0.249 -0.1973 -0.1841  0.0071
  773MPD2    C511462   4.435   1.632   0.255 -0.6052 -0.5869 -0.1786
  773MPD2     H11463   4.474   1.440  17.676 -1.4601  2.0223 -1.1144
  773MPD2    H111464   4.539   1.472   0.342 -0.8634  0.2941  0.4909
  773MPD2    H211465   4.352   1.787   0.151  0.9725  0.1965 -1.0136
  773MPD2    H311466   4.415   1.692   0.343  0.0034 -1.1891  0.3657
  773MPD2     N11467   4.574   1.317   0.123  0.4217 -0.0484  0.3255
  773MPD2    H511468   4.569   1.282   0.028 -2.2441 -1.7400  1.0828
  773MPD2    N111469   4.377   1.669  17.647 -0.0931  0.3446  0.1869
  773MPD2    H711470   4.398   1.604  17.571  1.1345 -1.5655  2.1606
  774MPD2     C11471   3.664   1.837  13.453 -0.2913 -0.0096  0.0637
  774MPD2    C111472   3.586   1.942  13.494  0.2251 -0.3721 -0.2992
  774MPD2    C211473   3.611   2.073  13.440  0.5206  0.2297  0.2434
  774MPD2    C311474   3.710   2.087  13.345 -0.4965 -0.3603 -0.1579
  774MPD2    C411475   3.771   1.980  13.293  0.3253  0.0553  0.5268
  774MPD2    C511476   3.760   1.862  13.351 -0.1895  0.1895 -0.4454
  774MPD2     H11477   3.567   2.163  13.481 -1.8146 -0.4604 -0.7592
  774MPD2    H111478   3.857   1.988  13.227 -0.0043  2.9597  0.4760
  774MPD2    H211479   3.643   1.733  13.478  1.4116 -0.5287 -0.6267
  774MPD2    H311480   3.831   1.785  13.324  2.6629  3.4255 -2.0490
  774MPD2     N11481   3.751   2.220  13.324  0.5149  0.1325  0.1324
  774MPD2    H511482   3.686   2.288  13.362 -0.8768 -0.3974 -1.3113
  774MPD2    N111483   3.493   1.924  13.594 -0.3979 -0.2763 -0.5586
  774MPD2    H711484   3.489   1.833  13.638 -0.0906 -0.2796 -0.5385
  775MPD2     C11485   0.158   2.850  15.466 -0.5942 -0.6581  0.2201
  775MPD2    C111486   0.209   2.949  15.555  0.3314  0.7191 -0.4127
  775MPD2    C211487   0.301   3.039  15.500  0.1735 -0.0987  0.3971
  775MPD2    C311488   0.321   3.043  15.360 -0.3419 -0.0859 -0.1051
  775MPD2    C411489   0.261   2.950  15.279 -0.0259  0.4831  0.1451
  775MPD2    C511490   0.188   2.857  15.333  0.2858  1.0138 -0.3600
  775MPD2     H11491   0.370   3.095  15.563  0.3126  2.3626 -1.9145
  775MPD2    H111492   0.262   2.947  15.171  0.4629  1.5967  0.1271
  775MPD2    H211493   0.100   2.772  15.514 -1.4530 -0.8747 -1.1583
  775MPD2    H311494   0.145   2.784  15.266  1.3285 -0.3764  0.5024
  775MPD2     N11495   0.399   3.145  15.291  0.2616 -0.2388  0.5872
  775MPD2    H511496   0.383   3.133  15.191 -0.6128 -1.3129  0.8547
  775MPD2    N111497   0.179   2.944  15.692  0.2852  0.2635  0.2976
  775MPD2    H711498   0.137   2.863  15.737  0.6227 -1.5386 -2.5797
  776MPD2     C11499   3.998   3.506  12.038 -0.6826 -0.2520 -0.0778
  776MPD2    C111500   3.878   3.493  11.971  0.2908 -0.3382  0.3577
  776MPD2    C211501   3.851   3.580  11.862 -0.4794  0.4408 -0.8846
  776MPD2    C311502   3.950   3.671  11.817  0.0446  0.3732  0.0944
  776MPD2    C411503   4.069   3.666  11.877  0.3631 -0.2892  0.0248
  776MPD2    C511504   4.092   3.585  11.983  1.0267 -0.0348 -0.3007
  776MPD2     H11505   3.760   3.564  11.806 -0.9505 -0.3356  0.1129
  776MPD2    H111506   4.146   3.735  11.845  0.2521  1.0763  2.7094
  776MPD2    H211507   4.020   3.439  12.120 -2.1551 -1.7173 -0.8630
  776MPD2    H311508   4.183   3.592  12.042  0.6662  3.3194 -0.1429
  776MPD2     N11509   3.937   3.755  11.701 -0.2132  0.4090  0.3904
  776MPD2    H511510   4.021   3.800  11.666 -1.1316 -0.4085 -2.8201
  776MPD2    N111511   3.789   3.392  12.005  0.0640  0.2644 -0.5187
  776MPD2    H711512   3.811   3.318  12.071  0.2176  0.1000 -0.7554
  777MPD2     C11513   4.234   0.510   0.135  0.0850 -0.4853 -0.1115
  777MPD2    C111514   4.196   0.401   0.210  0.1535  0.5933 -0.3377
  777MPD2    C211515   4.173   0.278   0.142 -0.4498 -0.8343  0.4743
  777MPD2    C311516   4.199   0.268   0.002 -0.2104 -0.3616  0.3459
  777MPD2    C411517   4.245   0.376  17.687 -0.5658 -0.0982 -0.0950
  777MPD2    C511518   4.268   0.494  17.753  0.0208 -0.0387  0.0321
  777MPD2     H11519   4.154   0.186   0.196 -1.3757 -0.8837  0.0520
  777MPD2    H111520   4.278   0.373  17.584 -0.8931  0.4872 -0.2125
  777MPD2    H211521   4.261   0.606   0.176 -1.7402 -0.4878  1.0978
  777MPD2    H311522   4.301   0.576  17.691  0.2762 -0.3878 -0.2924
  777MPD2     N11523   4.178   0.143  17.695  0.1586 -0.1315  0.0039
  777MPD2    H511524   4.146   0.073   0.008  2.3302 -1.4429 -0.3306
  777MPD2    N111525   4.196   0.413   0.354  0.8814 -0.6466  0.2380
  777MPD2    H711526   4.211   0.504   0.395 -0.0582 -0.8808  1.0989
  778MPD2     C11527   0.569   1.083  15.362 -0.5032 -0.4451 -0.7085
  778MPD2    C111528   0.541   0.987  15.272 -0.5323  0.4568  0.8226
  778MPD2    C211529   0.565   1.009  15.134  0.0708  0.0049  0.2380
  778MPD2    C311530   0.615   1.130  15.091 -0.0494  0.0444  0.4375
  778MPD2    C411531   0.650   1.220  15.186 -0.2490  0.5149 -0.3075
  778MPD2    C511532   0.623   1.199  15.321  0.5221  0.2424 -0.4951
  778MPD2     H11533   0.533   0.934  15.062 -0.2111  1.5301 -1.2365
  778MPD2    H111534   0.700   1.313  15.165  1.1203 -0.3418 -0.8793
  778MPD2    H211535   0.543   1.078  15.467  1.5136 -0.7279 -0.2385
  778MPD2    H311536   0.658   1.265  15.400  0.7502 -0.1064 -0.3043
  778MPD2     N11537   0.650   1.130  14.954 -0.4452 -0.3289  0.1819
  778MPD2    H511538   0.639   1.046  14.899 -0.6472 -0.2276  0.0664
  778MPD2    N111539   0.480   0.864  15.308  0.3742 -0.1087 -0.2162
  778MPD2    H711540   0.448   0.795  15.241  0.1760 -1.1318  0.9382
  779MPD2     C11541   0.501   0.061  13.664  0.3353 -0.2517 -0.6774
  779MPD2    C111542   0.556   0.098  13.782  0.1557 -0.1725 -0.6119
  779MPD2    C211543   0.542   0.232  13.822 -0.6843 -0.5377  1.0573
  779MPD2    C311544   0.483   0.321  13.741  0.3389  0.2033  0.9000
  779MPD2    C411545   0.441   0.284  13.611 -0.5421  0.2357 -0.1204
  779MPD2    C511546   0.449   0.149  13.576  0.6241 -0.0463 -0.6930
  779MPD2     H11547   0.556   0.260  13.925 -0.3303 -2.2845  1.4831
  779MPD2    H111548   0.386   0.351  13.545  0.6773 -0.4883 -1.8671
  779MPD2    H211549   0.498   4.694  13.640 -1.1006 -0.4901  0.6012
  779MPD2    H311550   0.390   0.110  13.494 -0.3686 -0.2931  0.1360
  779MPD2     N11551   0.507   0.459  13.776 -0.2710  0.4759 -0.6452
  779MPD2    H511552   0.567   0.471  13.857 -0.8739  0.8251 -0.2508
  779MPD2    N111553   0.609   4.735  13.863  0.1380 -0.5119  1.1716
  779MPD2    H711554   0.610   4.639  13.828  2.0859  0.3736 -1.2169
  780MPD2     C11555   0.097   3.986   1.317 -0.0035 -0.0495  0.1334
  780MPD2    C111556   0.009   3.951   1.212 -0.4461  0.0991  0.3480
  780MPD2    C211557   0.037   4.005   1.090 -0.3678  0.3030 -0.0382
  780MPD2    C311558   0.135   4.112   1.071 -0.3090  1.0910 -0.5716
  780MPD2    C411559   0.212   4.154   1.181 -0.8880  0.2324  0.1448
  780MPD2    C511560   0.193   4.087   1.304 -0.6538  0.2075  0.5767
  780MPD2     H11561   4.712   3.992   1.004  1.6512  0.0482 -1.5067
  780MPD2    H111562   0.290   4.230   1.182  0.8245 -1.5679  2.4963
  780MPD2    H211563   0.091   3.949   1.419 -3.8686 -3.9642 -1.4851
  780MPD2    H311564   0.261   4.106   1.385  1.2208  1.3740 -1.2670
  780MPD2     N11565   0.156   4.160   0.943 -0.2583  0.2802 -0.5117
  780MPD2    H511566   0.130   4.104   0.862  2.7337 -2.7877  0.6205
  780MPD2    N111567   4.652   3.851   1.240  0.6554  0.2758  0.2625
  780MPD2    H711568   4.648   3.804   1.331 -0.5776 -1.0400 -0.4730
  781MPD2     C11569   1.391   2.186  12.012 -0.3409  0.9085  0.4636
  781MPD2    C111570   1.499   2.123  12.063 -0.2080  0.2226 -0.3595
  781MPD2    C211571   1.615   2.115  11.992  0.4126 -0.0708  0.5217
  781MPD2    C311572   1.636   2.177  11.866 -0.7200  0.2537  0.6771
  781MPD2    C411573   1.531   2.249  11.823  0.2595  0.3339  0.3306
  781MPD2    C511574   1.412   2.260  11.895  0.2198 -0.8213 -0.5628
  781MPD2     H11575   1.687   2.047  12.035  1.6645  0.9269 -0.0156
  781MPD2    H111576   1.541   2.303  11.729 -3.0700 -1.8496 -1.2752
  781MPD2    H211577   1.291   2.191  12.053 -0.2206 -0.2406  0.8969
  781MPD2    H311578   1.332   2.324  11.861  0.3538 -0.6469 -0.5511
  781MPD2     N11579   1.752   2.176  11.788 -0.1970  0.0293  0.5550
  781MPD2    H511580   1.745   2.214  11.694  0.0225  0.2518  0.6290
  781MPD2    N111581   1.484   2.053  12.184 -0.2532  0.0525 -1.0232
  781MPD2    H711582   1.550   1.979  12.205 -1.4737 -1.2755 -1.9013
  782MPD2     C11583   3.881   2.701  10.886  0.3481  0.2535 -0.1911
  782MPD2    C111584   4.004   2.695  10.830 -0.3873 -0.0095  0.3245
  782MPD2    C211585   4.109   2.749  10.895 -0.5248  0.2124 -0.8548
  782MPD2    C311586   4.094   2.813  11.013  0.0974  0.0983  0.0107
  782MPD2    C411587   3.970   2.838  11.066  0.0893 -0.5854 -0.0263
  782MPD2    C511588   3.862   2.775  11.002  0.0600 -0.9809  0.8869
  782MPD2     H11589   4.210   2.729  10.859 -1.7270 -1.4137 -3.3325
  782MPD2    H111590   3.957   2.908  11.148  1.1538  0.1016 -0.4386
  782MPD2    H211591   3.791   2.652  10.850  1.4279 -2.2912  0.5471
  782MPD2    H311592   3.759   2.791  11.033  0.7071  0.9180  2.0891
  782MPD2     N11593   4.210   2.860  11.078 -0.7399 -0.1923 -0.0475
  782MPD2    H511594   4.197   2.889  11.174  2.2511  1.5202 -0.1595
  782MPD2    N111595   4.011   2.619  10.712  0.2251  0.6011  0.1628
  782MPD2    H711596   3.928   2.564  10.690  1.8615 -1.1277 -1.7106
  783MPD2     C11597   4.145   1.842  11.146 -0.2064 -0.8252 -0.1166
  783MPD2    C111598   4.110   1.982  11.160  0.1918  0.1225 -0.2132
  783MPD2    C211599   4.133   2.064  11.053 -0.2401  0.3792 -0.1781
  783MPD2    C311600   4.194   2.014  10.939  0.4597  0.3424  0.6416
  783MPD2    C411601   4.251   1.888  10.944 -0.6870  0.0455 -0.0519
  783MPD2    C511602   4.224   1.800  11.043  0.9989  0.4780 -0.1035
  783MPD2     H11603   4.106   2.168  11.063 -0.2924  0.2095  1.3548
  783MPD2    H111604   4.299   1.856  10.853 -2.7493 -0.1251 -1.0674
  783MPD2    H211605   4.132   1.770  11.226  0.3814  0.1663  0.8679
  783MPD2    H311606   4.260   1.698  11.039  1.2540  0.6005 -0.8759
  783MPD2     N11607   4.211   2.089  10.819  0.0216  0.0853  0.1013
  783MPD2    H511608   4.269   2.048  10.747  1.1140 -1.0833  1.6572
  783MPD2    N111609   4.050   2.017  11.271 -0.6017  0.6468 -0.2261
  783MPD2    H711610   4.031   1.943  11.337 -0.6237  0.3358 -0.5787
  784MPD2     C11611   1.603   2.894   0.755 -0.6145  0.0018 -0.1486
  784MPD2    C111612   1.663   3.005   0.709  0.0292 -0.6552 -0.1797
  784MPD2    C211613   1.581   3.091   0.631 -0.1503  0.2205 -0.6994
  784MPD2    C311614   1.448   3.064   0.612  0.3036  0.2501 -0.1221
  784MPD2    C411615   1.390   2.951   0.671 -0.5039  0.7360 -0.7193
  784MPD2    C511616   1.469   2.864   0.740  0.0719 -0.1208 -0.1920
  784MPD2     H11617   1.627   3.169   0.570 -0.4538  1.3707  0.5467
  784MPD2    H111618   1.286   2.924   0.665 -0.5847  0.9308 -0.1133
  784MPD2    H211619   1.652   2.823   0.820  1.8986  0.6485 -1.3029
  784MPD2    H311620   1.426   2.772   0.778  2.1111 -1.1639 -0.4025
  784MPD2     N11621   1.381   3.145   0.518 -0.7402 -0.0440  0.0692
  784MPD2    H511622   1.433   3.220   0.476 -0.3127 -0.0867  0.5171
  784MPD2    N111623   1.800   3.020   0.721  0.1231 -0.9465  0.5239
  784MPD2    H711624   1.832   3.108   0.682 -1.1928 -1.1414 -1.0013
  785MPD2     C11625   2.197   1.421  10.604  0.5329 -0.3821 -0.4733
  785MPD2    C111626   2.116   1.492  10.702  0.6095  0.0340 -0.6362
  785MPD2    C211627   1.979   1.488  10.687  0.1091  0.0009  0.3794
  785MPD2    C311628   1.917   1.417  10.591 -0.0724 -0.4281 -0.0999
  785MPD2    C411629   1.992   1.350  10.499 -0.5372 -0.6028 -0.1897
  785MPD2    C511630   2.128   1.349  10.509 -0.0127  0.3756  0.3762
  785MPD2     H11631   1.912   1.554  10.740 -2.0997 -1.4216 -0.6545
  785MPD2    H111632   1.942   1.302  10.416  0.9460  0.1245 -1.4902
  785MPD2    H211633   2.306   1.419  10.609  0.5866  0.0124 -1.3772
  785MPD2    H311634   2.171   1.289  10.430  3.6698 -1.1511  3.5081
  785MPD2     N11635   1.769   1.423  10.586 -0.1852  0.3105  0.2769
  785MPD2    H511636   1.728   1.485  10.656 -1.2662  0.9392 -0.9046
  785MPD2    N111637   2.183   1.564  10.804  0.1343 -0.9897  0.0726
  785MPD2    H711638   2.280   1.543  10.826  1.9158  4.7526 -2.1421
  786MPD2     C11639   0.963   3.799  14.891 -0.0436  0.0039 -1.0392
  786MPD2    C111640   1.081   3.749  14.846 -0.2065 -0.3924 -0.3469
  786MPD2    C211641   1.188   3.746  14.935  0.3091  0.0026 -0.0513
  786MPD2    C311642   1.177   3.774  15.065 -0.3024  0.4028  0.3495
  786MPD2    C411643   1.054   3.815  15.114 -0.4899  0.2932  0.2320
  786MPD2    C511644   0.949   3.825  15.027 -0.7765  0.9717 -0.3703
  786MPD2     H11645   1.284   3.715  14.896  0.0959 -0.1194 -0.4798
  786MPD2    H111646   1.045   3.845  15.218  1.3080  0.6109  0.2838
  786MPD2    H211647   0.877   3.808  14.827 -0.3971 -0.5002 -0.6277
  786MPD2    H311648   0.854   3.866  15.060 -0.1396 -0.0481  2.7512
  786MPD2     N11649   1.281   3.774  15.160  0.3126 -0.3351  0.5914
  786MPD2    H511650   1.262   3.823  15.247  0.8770  0.4673  0.2671
  786MPD2    N111651   1.106   3.708  14.712  0.1524 -0.5601 -0.4399
  786MPD2    H711652   1.201   3.673  14.702  0.4698  0.1793 -0.0478
  787MPD2     C11653   1.373   3.163  14.680 -0.3205  0.0767  0.3778
  787MPD2    C111654   1.342   3.173  14.551  0.3506 -0.2577  0.5196
  787MPD2    C211655   1.417   3.108  14.459  0.1968 -0.2077 -0.3854
  787MPD2    C311656   1.520   3.028  14.497 -0.1261  0.0229  0.2150
  787MPD2    C411657   1.551   3.013  14.631  0.3087  0.2966 -0.3096
  787MPD2    C511658   1.474   3.081  14.725 -0.3655 -0.2013  0.0093
  787MPD2     H11659   1.391   3.108  14.353  1.0828  1.3861 -0.5944
  787MPD2    H111660   1.628   2.953  14.679 -0.0040 -0.3085 -0.5646
  787MPD2    H211661   1.312   3.217  14.752 -2.5958 -0.2352 -1.3197
  787MPD2    H311662   1.482   3.067  14.833 -2.0457 -0.4330  0.1092
  787MPD2     N11663   1.597   2.974  14.388  0.0368  0.0393 -0.3856
  787MPD2    H511664   1.563   3.001  14.296 -1.1342  1.0998  0.3598
  787MPD2    N111665   1.248   3.279  14.522  0.0434  0.2458 -0.6955
  787MPD2    H711666   1.223   3.343  14.597  2.5353  1.7001 -1.0872
  788MPD2     C11667   2.964   2.291   0.640  0.1776  0.5134  0.2908
  788MPD2    C111668   3.075   2.217   0.606 -0.4532  0.0673  0.2910
  788MPD2    C211669   3.197   2.286   0.605 -0.6730  0.1093 -0.2532
  788MPD2    C311670   3.208   2.420   0.643  0.0406 -0.3235  0.6094
  788MPD2    C411671   3.097   2.482   0.696 -0.3069 -0.2075 -0.0780
  788MPD2    C511672   2.973   2.423   0.681 -0.6147  0.4241 -0.2611
  788MPD2     H11673   3.281   2.226   0.572 -0.6078  0.4701 -0.7426
  788MPD2    H111674   3.105   2.582   0.737 -2.8129 -0.1278  0.2584
  788MPD2    H211675   2.866   2.248   0.626  0.8004 -0.4938 -0.9258
  788MPD2    H311676   2.886   2.470   0.724 -1.6357 -1.5928 -0.1089
  788MPD2     N11677   3.333   2.500   0.640 -0.0843  0.2375  0.1841
  788MPD2    H511678   3.344   2.578   0.704 -1.4997  0.4081  0.2004
  788MPD2    N111679   3.072   2.084   0.564 -0.4308  0.4060 -0.0889
  788MPD2    H711680   3.163   2.046   0.540 -0.3964  0.2094  0.3412
  789MPD2     C11681   3.479   1.868  16.625 -0.7267  0.2753  0.1009
  789MPD2    C111682   3.372   1.880  16.532  0.0977  0.0001  1.1791
  789MPD2    C211683   3.280   1.985  16.548  0.1308  0.3360 -0.6074
  789MPD2    C311684   3.306   2.081  16.643  0.1785 -0.2093 -0.0706
  789MPD2    C411685   3.404   2.071  16.734  0.3475  0.0645 -0.3645
  789MPD2    C511686   3.490   1.967  16.721 -0.5082 -0.4118 -0.1062
  789MPD2     H11687   3.194   1.993  16.481 -2.8790  0.9766  3.3308
  789MPD2    H111688   3.420   2.153  16.805  2.2377  0.6642 -1.4879
  789MPD2    H211689   3.559   1.795  16.621 -1.0054 -0.1629  3.1222
  789MPD2    H311690   3.576   1.952  16.786 -0.4200 -2.3377 -0.6538
  789MPD2     N11691   3.233   2.199  16.665  0.4123 -0.8985  0.5900
  789MPD2    H511692   3.263   2.243  16.752  0.3090  0.4212 -0.0426
  789MPD2    N111693   3.358   1.792  16.419 -0.6480 -0.5571 -0.2483
  789MPD2    H711694   3.282   1.817  16.356 -0.7611 -1.7597 -0.5776
  790MPD2     C11695   4.295   4.570  12.966  0.4017 -0.1949 -0.3855
  790MPD2    C111696   4.292   4.460  13.034 -0.3559  0.1886 -0.7852
  790MPD2    C211697   4.228   4.354  12.972  0.8688 -0.6425 -0.4517
  790MPD2    C311698   4.156   4.365  12.856  0.8054 -0.0512  0.1045
  790MPD2    C411699   4.175   4.479  12.785  0.8219 -0.0186  0.0804
  790MPD2    C511700   4.243   4.585  12.839 -0.1760  0.2828 -0.5155
  790MPD2     H11701   4.219   4.258  13.021 -0.2465 -0.6903 -0.7332
  790MPD2    H111702   4.128   4.495  12.689  0.2174 -0.4218  0.3110
  790MPD2    H211703   4.337   4.662  13.006 -0.3325 -0.0494  0.0488
  790MPD2    H311704   4.255   4.673  12.777 -0.0627  0.1480 -0.6885
  790MPD2     N11705   4.094   4.252  12.810  0.4697 -0.4178  0.0980
  790MPD2    H511706   4.103   4.163  12.860 -2.8118 -1.3863 -1.0122
  790MPD2    N111707   4.355   4.456  13.164 -0.1046  0.2407 -0.6003
  790MPD2    H711708   4.398   4.542  13.195 -2.0861  1.1268 -0.2946
  791MPD2     C11709   3.486   3.985  12.311  0.7543 -0.2950  0.0753
  791MPD2    C111710   3.532   3.916  12.424  0.9872 -0.7111  0.1697
  791MPD2    C211711   3.447   3.813  12.469  0.8107  0.1445 -0.1987
  791MPD2    C311712   3.319   3.784  12.420  0.0034 -0.6000 -0.2450
  791MPD2    C411713   3.279   3.865  12.315  0.4679 -0.8439  0.6318
  791MPD2    C511714   3.367   3.955  12.258  0.6541  0.2472  0.5907
  791MPD2     H11715   3.483   3.739  12.540 -1.4339 -0.6835  0.0926
  791MPD2    H111716   3.181   3.866  12.269  0.4866 -0.3329  0.6016
  791MPD2    H211717   3.540   4.073  12.278 -3.0215  2.1829  0.5201
  791MPD2    H311718   3.332   4.022  12.180 -0.8886  2.1881  2.9379
  791MPD2     N11719   3.244   3.677  12.477 -0.0967  0.3236  0.5772
  791MPD2    H511720   3.293   3.627  12.551  0.6995  1.9138  1.1170
  791MPD2    N111721   3.658   3.955  12.476  0.1299 -0.4337 -0.2181
  791MPD2    H711722   3.709   4.033  12.436  1.1044  0.2030  2.2677
  792MPD2     C11723   4.438   3.524  11.592  0.7098  0.5067 -0.2016
  792MPD2    C111724   4.349   3.582  11.503 -0.3219  0.3774  0.3273
  792MPD2    C211725   4.215   3.542  11.511 -0.0771  0.2562 -0.9123
  792MPD2    C311726   4.181   3.432  11.595  0.2211  1.0551 -0.0212
  792MPD2    C411727   4.278   3.377  11.675  0.5445  0.1312  0.3348
  792MPD2    C511728   4.400   3.434  11.687 -0.1210 -0.1521 -0.2430
  792MPD2     H11729   4.144   3.578  11.436 -0.5475  1.2472  0.0122
  792MPD2    H111730   4.249   3.301  11.747  2.9170 -0.6160  0.5016
  792MPD2    H211731   4.543   3.547  11.611  1.3165 -0.6535 -2.1366
  792MPD2    H311732   4.468   3.394  11.762  1.6344  3.9275  0.3281
  792MPD2     N11733   4.055   3.368  11.589 -0.3983  0.4309  0.0972
  792MPD2    H511734   4.051   3.292  11.656 -1.2195 -0.8311 -1.4040
  792MPD2    N111735   4.403   3.684  11.422  0.7930 -1.0741  0.3381
  792MPD2    H711736   4.504   3.700  11.424  0.6290  0.0488 -0.1258
  793MPD2     C11737   3.511   3.562  10.934 -0.4630 -0.6633 -0.4021
  793MPD2    C111738   3.634   3.588  10.996 -0.8826  0.0957 -0.0514
  793MPD2    C211739   3.646   3.540  11.120 -0.7071  0.3160 -0.2549
  793MPD2    C311740   3.550   3.466  11.183 -0.0012  0.9928 -0.4058
  793MPD2    C411741   3.425   3.451  11.124 -0.1048 -0.4111 -0.1486
  793MPD2    C511742   3.412   3.500  10.998  0.3816 -0.8809 -0.2708
  793MPD2     H11743   3.742   3.538  11.169 -0.2779 -2.0323 -1.2057
  793MPD2    H111744   3.345   3.396  11.173  0.3794 -0.3962  0.6538
  793MPD2    H211745   3.489   3.591  10.832  3.1439 -0.2728 -1.0736
  793MPD2    H311746   3.314   3.490  10.951  0.2404  1.5681 -0.5123
  793MPD2     N11747   3.594   3.406  11.302 -0.2925 -0.2787  0.1076
  793MPD2    H511748   3.680   3.448  11.334  1.4470 -2.3777 -1.8129
  793MPD2    N111749   3.758   3.633  10.939  0.3857  0.0238  0.5021
  793MPD2    H711750   3.836   3.628  11.004  1.4818 -0.6734 -0.8332
  794MPD2     C11751   4.019   2.353  17.221  0.3692  0.6472 -0.2872
  794MPD2    C111752   4.062   2.246  17.148 -0.1674  0.0729 -0.1833
  794MPD2    C211753   4.071   2.254  17.012 -0.0102 -0.3208 -0.0154
  794MPD2    C311754   4.029   2.366  16.937  0.1432 -0.0153  0.2616
  794MPD2    C411755   3.989   2.477  17.012 -0.8798  0.0006 -0.1475
  794MPD2    C511756   3.987   2.471  17.153 -0.6702  0.4536 -0.6144
  794MPD2     H11757   4.095   2.163  16.959 -0.3773 -0.6928  0.4581
  794MPD2    H111758   3.936   2.554  16.958 -0.3948 -2.0972 -3.5802
  794MPD2    H211759   4.021   2.347  17.329 -0.8872  0.4424 -0.2820
  794MPD2    H311760   3.947   2.557  17.205  1.1792  0.4410  0.8037
  794MPD2     N11761   4.038   2.385  16.799 -0.2208  0.0652 -0.2862
  794MPD2    H511762   4.005   2.476  16.769  1.8576  0.7742 -0.4419
  794MPD2    N111763   4.093   2.121  17.208  0.5124  1.0291 -0.0636
  794MPD2    H711764   4.098   2.039  17.149  0.9196  0.6009  0.5634
  795MPD2     C11765   1.712   0.455  13.146  0.0827  0.5489 -0.1756
  795MPD2    C111766   1.664   0.382  13.246 -0.3862  0.1174 -0.1974
  795MPD2    C211767   1.745   0.293  13.307  0.3633 -0.0548  1.6225
  795MPD2    C311768   1.874   0.269  13.260 -0.5760 -0.3831 -0.4340
  795MPD2    C411769   1.919   0.356  13.162  0.8862  0.0564 -0.0841
  795MPD2    C511770   1.841   0.455  13.112 -0.8002  0.4424  0.7520
  795MPD2     H11771   1.715   0.230  13.390  0.6795  0.1440  1.8867
  795MPD2    H111772   2.013   0.334  13.113  0.8791 -0.3897  0.1065
  795MPD2    H211773   1.642   0.506  13.081  0.5463  1.9054  0.3975
  795MPD2    H311774   1.878   0.512  13.028 -2.1075  0.2861  0.0760
  795MPD2     N11775   1.950   0.169  13.333 -0.3965  0.3547  0.2744
  795MPD2    H511776   1.897   0.113  13.400  1.0406 -1.0502  0.2294
  795MPD2    N111777   1.525   0.388  13.289 -0.4745  0.1348 -0.5299
  795MPD2    H711778   1.502   0.318  13.359  2.1804 -2.3343 -2.1185
  796MPD2     C11779   1.246   1.422  15.879 -0.8696  0.2307 -0.2080
  796MPD2    C111780   1.325   1.477  15.978  0.1171  0.3124 -0.3878
  796MPD2    C211781   1.338   1.616  15.972 -0.1258  0.3797  0.8552
  796MPD2    C311782   1.280   1.700  15.878  0.0969  0.5424  0.8757
  796MPD2    C411783   1.198   1.641  15.784  0.3415  0.2878  0.8040
  796MPD2    C511784   1.178   1.502  15.793  0.5147  0.5151  0.5062
  796MPD2     H11785   1.408   1.659  16.043  0.4211 -1.3289  1.3581
  796MPD2    H111786   1.138   1.685  15.705  0.6302 -0.6603  0.0579
  796MPD2    H211787   1.232   1.315  15.874 -0.9950  0.0571  3.4545
  796MPD2    H311788   1.109   1.460  15.720 -0.6273  2.0159  0.7316
  796MPD2     N11789   1.297   1.839  15.882  0.1560 -0.1713 -0.4653
  796MPD2    H511790   1.352   1.876  15.959  0.3140  0.8008 -1.0455
  796MPD2    N111791   1.380   1.395  16.080 -0.0359 -0.5556  0.2354
  796MPD2    H711792   1.362   1.296  16.072  1.2508 -0.8538  1.0055
  797MPD2     C11793   2.206   0.886  17.611 -0.5896  0.1034 -0.0340
  797MPD2    C111794   2.310   0.963  17.582 -0.2360 -0.9212 -0.4667
  797MPD2    C211795   2.301   1.068  17.496  0.4145  0.0439 -0.4933
  797MPD2    C311796   2.179   1.098  17.437 -0.1957 -0.3554  0.1143
  797MPD2    C411797   2.069   1.028  17.472  0.6941 -0.4533 -0.5309
  797MPD2    C511798   2.084   0.912  17.549 -0.2138 -0.8966 -0.2763
  797MPD2     H11799   2.387   1.130  17.474 -0.4329  1.3926 -0.0248
  797MPD2    H111800   1.974   1.037  17.420  0.3392 -2.1705 -0.1958
  797MPD2    H211801   2.207   0.798  17.675 -0.9232  0.3058  0.2506
  797MPD2    H311802   1.993   0.865  17.584 -1.2706  0.7537 -0.8243
  797MPD2     N11803   2.185   1.215  17.361 -0.0025 -0.3710 -0.4409
  797MPD2    H511804   2.279   1.252  17.355 -0.8038  1.3346 -2.2395
  797MPD2    N111805   2.441   0.939  17.629  0.0417 -0.3994  0.1174
  797MPD2    H711806   2.513   0.994  17.583  2.2840  0.2649  4.4634
  798MPD2     C11807   2.811   1.532  17.393 -0.1362  0.3270  0.5752
  798MPD2    C111808   2.709   1.450  17.367  0.0859  0.4488 -0.1748
  798MPD2    C211809   2.716   1.317  17.398 -0.3302  0.3272 -0.3648
  798MPD2    C311810   2.813   1.277  17.485 -0.1923  1.0859 -0.1441
  798MPD2    C411811   2.917   1.361  17.513  0.9257  0.2721  0.5508
  798MPD2    C511812   2.922   1.488  17.458 -0.2327  0.1304  0.2084
  798MPD2     H11813   2.637   1.247  17.376  1.0668 -1.7270  1.1073
  798MPD2    H111814   3.004   1.318  17.559 -0.0327 -2.2840 -0.0435
  798MPD2    H211815   2.815   1.632  17.350 -2.8505  0.5183  0.7888
  798MPD2    H311816   3.017   1.538  17.471 -0.3631  0.1323  1.1436
  798MPD2     N11817   2.791   1.154  17.542  0.1476  0.3176  0.3092
  798MPD2    H511818   2.708   1.104  17.514  0.4388 -0.2634  0.4950
  798MPD2    N111819   2.590   1.503  17.303  0.4958 -0.4457  0.2732
  798MPD2    H711820   2.590   1.601  17.276  0.5734  0.4405  3.5542
  799MPD2     C11821   1.136   2.916  14.743 -0.4410 -0.0389  0.4861
  799MPD2    C111822   1.095   2.836  14.632 -0.8755  0.2484 -0.2169
  799MPD2    C211823   0.984   2.875  14.566  0.2012  0.1846  0.0799
  799MPD2    C311824   0.924   3.004  14.587  0.1176  0.0792 -0.5862
  799MPD2    C411825   0.966   3.082  14.690 -0.1251  0.0214  0.2790
  799MPD2    C511826   1.070   3.037  14.763 -0.6673  0.3322 -0.2056
  799MPD2     H11827   0.941   2.802  14.498 -1.6961 -0.2143  1.7229
  799MPD2    H111828   0.941   3.186  14.705  0.7238  0.4202 -1.0499
  799MPD2    H211829   1.223   2.887  14.801  0.2551  4.4289  1.6846
  799MPD2    H311830   1.113   3.097  14.842  0.0404  3.9222 -3.2844
  799MPD2     N11831   0.821   3.064  14.511  0.5609 -0.0891  0.2344
  799MPD2    H511832   0.800   3.161  14.530 -0.0863 -0.2109  0.1429
  799MPD2    N111833   1.165   2.720  14.593 -0.0947  0.5164  0.6576
  799MPD2    H711834   1.129   2.663  14.517  0.0175 -0.5666  1.4145
  800MPD2     C11835   1.488   4.357  14.064 -0.1592 -0.5035 -0.0487
  800MPD2    C111836   1.620   4.315  14.063  0.1989 -0.0039 -0.4200
  800MPD2    C211837   1.652   4.211  13.982 -0.0376  0.0742  0.3266
  800MPD2    C311838   1.558   4.155  13.891 -0.0966 -0.1491  0.6684
  800MPD2    C411839   1.427   4.204  13.891 -0.2004 -0.4849 -0.5694
  800MPD2    C511840   1.390   4.300  13.983 -0.5417  0.4470  0.3546
  800MPD2     H11841   1.754   4.176  13.972  1.0254  3.1474  0.4329
  800MPD2    H111842   1.357   4.160  13.821 -0.7700 -1.7771  0.8123
  800MPD2    H211843   1.450   4.438  14.126 -0.3400 -0.8655  0.3108
  800MPD2    H311844   1.289   4.338  13.983 -0.7714 -0.1357 -1.3621
  800MPD2     N11845   1.595   4.049  13.803 -0.4981 -0.2635  0.0845
  800MPD2    H511846   1.688   4.012  13.819 -1.1030 -1.5859  0.5279
  800MPD2    N111847   1.703   4.386  14.153 -0.0304  0.3637  0.0166
  800MPD2    H711848   1.662   4.460  14.209  0.2721  1.9616 -1.8468
  801MPD2     C11849   1.584   4.513  14.870  0.2296  0.3695 -0.4894
  801MPD2    C111850   1.561   4.459  14.747 -1.1248 -0.5510  0.3336
  801MPD2    C211851   1.439   4.401  14.724  0.3241 -0.2346  0.1856
  801MPD2    C311852   1.349   4.377  14.826 -0.5194  0.1146 -0.2586
  801MPD2    C411853   1.381   4.409  14.954  1.1755 -0.0289  0.3163
  801MPD2    C511854   1.497   4.489  14.975 -0.1190 -0.3968 -0.2378
  801MPD2     H11855   1.410   4.372  14.624  1.0079 -0.3736  0.0320
  801MPD2    H111856   1.312   4.377  15.031  0.5133 -0.7494 -0.5725
  801MPD2    H211857   1.674   4.570  14.891 -0.9330  1.6204  1.1372
  801MPD2    H311858   1.525   4.523  15.074  0.5990 -0.4607 -0.4226
  801MPD2     N11859   1.222   4.310  14.811 -0.5352  0.1734 -0.0202
  801MPD2    H511860   1.160   4.303  14.891  0.4129 -0.0058  0.6924
  801MPD2    N111861   1.647   4.470  14.633 -0.5053 -0.3169  0.3970
  801MPD2    H711862   1.614   4.435  14.544 -0.2468 -1.5701  0.7897
  802MPD2     C11863   0.510   0.262  17.286  0.2130 -0.2112 -0.2269
  802MPD2    C111864   0.561   0.206  17.397  0.0828  0.3069  0.2330
  802MPD2    C211865   0.587   0.072  17.399 -0.4184 -0.6599  1.1263
  802MPD2    C311866   0.562   4.726  17.293 -0.0976  0.5346  0.6882
  802MPD2    C411867   0.484   0.041  17.188 -0.3151  0.0744 -0.3038
  802MPD2    C511868   0.469   0.183  17.182 -0.3883 -0.5075  0.0017
  802MPD2     H11869   0.632   0.030  17.488  0.4283  0.8033  1.3863
  802MPD2    H111870   0.438   4.726  17.107 -0.7179  0.3981 -0.2896
  802MPD2    H211871   0.492   0.368  17.275 -4.4298 -0.9272  0.2348
  802MPD2    H311872   0.430   0.229  17.093 -0.5055  1.6258  1.1552
  802MPD2     N11873   0.620   4.595  17.290 -0.4701 -0.0948  0.2392
  802MPD2    H511874   0.697   4.563  17.348  2.1165 -0.2216 -3.2688
  802MPD2    N111875   0.578   0.275  17.514  0.2894 -0.1597 -0.5021
  802MPD2    H711876   0.606   0.227  17.599 -2.2660 -1.1244 -0.1839
  803MPD2     C11877   2.100   3.307  11.535  0.5133  0.1015 -0.8175
  803MPD2    C111878   2.154   3.387  11.636  0.1094 -0.1544  0.1227
  803MPD2    C211879   2.129   3.364  11.768  0.3912  0.3371 -0.2595
  803MPD2    C311880   2.044   3.255  11.795 -0.4190  0.4544  0.4599
  803MPD2    C411881   1.995   3.178  11.702 -0.7053 -0.4050  0.2067
  803MPD2    C511882   2.021   3.201  11.571 -0.4481  0.0493  0.7013
  803MPD2     H11883   2.184   3.417  11.844 -0.3046  0.0486  0.4455
  803MPD2    H111884   1.931   3.095  11.728  1.2514 -2.0264 -0.1309
  803MPD2    H211885   2.115   3.316  11.428 -0.2086  0.2629 -0.9118
  803MPD2    H311886   1.979   3.136  11.495  0.8889  0.2106 -0.1719
  803MPD2     N11887   2.007   3.225  11.934  0.1572  0.3142  0.3132
  803MPD2    H511888   1.931   3.159  11.946 -0.8499  1.1841 -1.2649
  803MPD2    N111889   2.251   3.487  11.613 -0.0666 -0.3578 -0.3659
  803MPD2    H711890   2.290   3.533  11.694  0.8900  1.1034 -1.6578
  804MPD2     C11891   1.361   0.286  16.764 -0.2811  0.1326  0.3396
  804MPD2    C111892   1.425   0.166  16.782 -0.2320  0.2773  0.2911
  804MPD2    C211893   1.512   0.146  16.883 -0.4145  0.6739  0.3401
  804MPD2    C311894   1.554   0.251  16.959 -0.0234  0.9151 -0.2352
  804MPD2    C411895   1.477   0.368  16.951  0.1052 -0.2298  0.2762
  804MPD2    C511896   1.384   0.385  16.851  0.1295  0.0572  0.5336
  804MPD2     H11897   1.564   0.052  16.893  0.2713  0.7969 -1.9645
  804MPD2    H111898   1.501   0.449  17.019 -1.8750  0.3178  0.3247
  804MPD2    H211899   1.277   0.296  16.696 -0.4657 -1.3263  0.3448
  804MPD2    H311900   1.315   0.468  16.853 -0.2034 -0.1436 -3.0961
  804MPD2     N11901   1.665   0.240  17.044 -0.1472  0.9119 -0.1551
  804MPD2    H511902   1.704   0.147  17.051 -2.3068  0.0235  0.2875
  804MPD2    N111903   1.396   0.047  16.715 -0.2288  0.5925 -0.0592
  804MPD2    H711904   1.436   4.698  16.748  0.1375  0.2523 -1.4123
  805MPD2     C11905   0.803   2.546  15.252  0.1184 -0.5279  0.9579
  805MPD2    C111906   0.746   2.649  15.327 -0.6633 -0.3583  0.1106
  805MPD2    C211907   0.812   2.678  15.443  0.3547  0.2477  0.0364
  805MPD2    C311908   0.937   2.628  15.479 -0.7160  0.8164 -0.4364
  805MPD2    C411909   0.988   2.524  15.402 -0.1449  0.1419  0.1560
  805MPD2    C511910   0.921   2.485  15.289  0.2960 -0.1181  0.0548
  805MPD2     H11911   0.772   2.750  15.513  0.2402  0.7702 -0.5635
  805MPD2    H111912   1.081   2.481  15.437  0.5795 -0.0652 -2.0864
  805MPD2    H211913   0.756   2.517  15.159  0.6937  1.2458  0.1189
  805MPD2    H311914   0.969   2.408  15.230  1.5166  0.5694  0.1552
  805MPD2     N11915   1.012   2.706  15.575  0.4836  0.4375  0.5952
  805MPD2    H511916   0.966   2.788  15.611 -0.9160  0.1804 -0.6052
  805MPD2    N111917   0.645   2.739  15.289 -0.3285  0.1662 -0.0471
  805MPD2    H711918   0.636   2.828  15.337 -1.1410 -0.7523  1.4816
  806MPD2     C11919   1.204   0.882   0.871 -0.3640 -0.0563  0.1340
  806MPD2    C111920   1.287   0.984   0.841 -0.4185 -0.0640 -0.2271
  806MPD2    C211921   1.239   1.094   0.778  0.2393  0.0263  0.2177
  806MPD2    C311922   1.105   1.110   0.750 -0.4339 -0.0018 -0.1605
  806MPD2    C411923   1.016   1.003   0.780 -0.1219 -0.2292  0.1132
  806MPD2    C511924   1.065   0.891   0.837  0.5530 -0.8858 -1.1707
  806MPD2     H11925   1.303   1.178   0.751 -0.5558  0.0982 -1.4615
  806MPD2    H111926   0.908   1.005   0.764 -0.1508  0.5825  0.3901
  806MPD2    H211927   1.228   0.794   0.929  3.5667 -0.2987 -1.8120
  806MPD2    H311928   0.994   0.821   0.880 -0.3205  0.0762 -1.0525
  806MPD2     N11929   1.053   1.230   0.694 -0.7685  0.2543  0.1257
  806MPD2    H511930   1.125   1.298   0.672  1.5086 -2.5420 -1.2009
  806MPD2    N111931   1.419   0.974   0.890  0.4997 -0.2184 -0.5048
  806MPD2    H711932   1.443   0.892   0.943  0.0714  0.5764  0.9184
  807MPD2     C11933   1.206   1.044   1.487  0.0133 -0.3204 -0.7995
  807MPD2    C111934   1.309   0.952   1.454 -1.2899  0.3846  0.6766
  807MPD2    C211935   1.295   0.822   1.505  0.6547 -0.0529 -0.4887
  807MPD2    C311936   1.178   0.785   1.571 -0.0609 -0.3027 -0.3243
  807MPD2    C411937   1.086   0.879   1.609  0.1138  0.2148 -0.3333
  807MPD2    C511938   1.110   1.009   1.568 -0.6517  0.1960 -0.4028
  807MPD2     H11939   1.375   0.750   1.491  0.0019 -0.3138 -2.9476
  807MPD2    H111940   0.993   0.874   1.665 -0.5952 -2.1599 -1.7144
  807MPD2    H211941   1.201   1.148   1.457 -1.3231  0.0024  0.5372
  807MPD2    H311942   1.035   1.081   1.598  1.2674  1.1655  2.0382
  807MPD2     N11943   1.166   0.652   1.602  0.1915  0.0739 -0.0672
  807MPD2    H511944   1.244   0.594   1.573 -0.4268 -1.0959  0.6142
  807MPD2    N111945   1.417   0.981   1.362  0.4940 -0.5401  0.0694
  807MPD2    H711946   1.470   0.904   1.323  1.0853 -1.0900  1.9244
  808MPD2     C11947   1.261   4.616   9.510 -0.1500  0.0130 -0.3464
  808MPD2    C111948   1.299   4.651   9.635 -0.0600 -0.0823 -0.8700
  808MPD2    C211949   1.343   0.041   9.663  0.0421 -0.0964 -0.4981
  808MPD2    C311950   1.332   0.139   9.564 -0.0344 -0.4005  0.7318
  808MPD2    C411951   1.280   0.107   9.440  0.8325 -0.1577 -0.0907
  808MPD2    C511952   1.243   4.714   9.415 -0.1648 -0.0135  0.3090
  808MPD2     H11953   1.402   0.061   9.751 -3.4860 -1.3573  2.1828
  808MPD2    H111954   1.260   0.174   9.357  0.7981  0.4771  0.4338
  808MPD2    H211955   1.231   4.513   9.490  0.2134 -0.1023 -0.3045
  808MPD2    H311956   1.206   4.678   9.320  2.2157 -3.0261  0.5303
  808MPD2     N11957   1.385   0.270   9.575  0.0338  0.2114  0.5531
  808MPD2    H511958   1.391   0.327   9.491 -0.8936 -0.3820  0.0895
  808MPD2    N111959   1.305   4.560   9.748 -0.2454 -0.0514  0.6651
  808MPD2    H711960   1.318   4.597   9.841  3.6158  0.0513  0.0733
  809MPD2     C11961   2.113   0.932   9.365  0.1096 -0.3522  1.1120
  809MPD2    C111962   2.113   0.799   9.390 -0.1983 -0.1189  0.0960
  809MPD2    C211963   1.996   0.748   9.446 -1.0060  0.2761 -0.2946
  809MPD2    C311964   1.875   0.825   9.452  0.8412 -0.2449  0.6301
  809MPD2    C411965   1.877   0.950   9.408 -0.0132  0.1449  0.0630
  809MPD2    C511966   1.994   1.005   9.371 -0.1442 -0.2681  0.1860
  809MPD2     H11967   2.002   0.646   9.481  0.8213  0.3720 -0.3262
  809MPD2    H111968   1.794   1.019   9.403 -0.0411  0.1688  0.8657
  809MPD2    H211969   2.193   0.983   9.311  0.9087  0.3071  2.9410
  809MPD2    H311970   2.000   1.104   9.328  0.3538 -0.1270  0.5789
  809MPD2     N11971   1.752   0.773   9.506 -0.3578  0.1315 -0.2728
  809MPD2    H511972   1.673   0.835   9.520 -2.2127 -2.2126 -0.4575
  809MPD2    N111973   2.219   0.705   9.367  0.1106  0.0080  0.0426
  809MPD2    H711974   2.195   0.607   9.380  0.5921  0.0895  1.5139
  810MPD2     C11975   1.120   3.795  11.161 -0.2421  0.0323  0.4388
  810MPD2    C111976   1.077   3.829  11.040 -0.4203  0.4171  0.2622
  810MPD2    C211977   1.095   3.954  10.992 -0.5878 -0.1411  0.0004
  810MPD2    C311978   1.166   4.049  11.064  0.2909 -0.1644 -0.0186
  810MPD2    C411979   1.219   4.015  11.186 -1.0626 -0.0706  0.2776
  810MPD2    C511980   1.198   3.887  11.235 -0.5452 -0.2313  0.7173
  810MPD2     H11981   1.059   3.985  10.895  2.1535  1.1806 -0.5990
  810MPD2    H111982   1.279   4.083  11.245  1.6296 -1.6696 -0.6096
  810MPD2    H211983   1.104   3.699  11.210 -0.2456  0.7865  1.9214
  810MPD2    H311984   1.234   3.861  11.333 -0.3950 -1.3257  0.3730
  810MPD2     N11985   1.189   4.182  11.012 -0.4310  0.3730  0.1474
  810MPD2    H511986   1.203   4.261  11.074  0.1696  2.4021 -2.5238
  810MPD2    N111987   1.006   3.743  10.954 -0.0959 -0.1968 -0.2717
  810MPD2    H711988   0.980   3.783  10.864  0.8497 -0.9787 -0.8858
  811MPD2     C11989   0.460   3.684  10.318 -0.0073 -0.2737 -0.4744
  811MPD2    C111990   0.567   3.733  10.386  0.7359 -0.5019  0.6614
  811MPD2    C211991   0.603   3.865  10.364 -0.0284  0.2901 -0.1436
  811MPD2    C311992   0.540   3.952  10.277  0.0784 -0.4958 -0.4417
  811MPD2    C411993   0.433   3.899  10.201  0.4579  0.0517 -0.0341
  811MPD2    C511994   0.401   3.766  10.224  0.4815  0.7992  0.9004
  811MPD2     H11995   0.673   3.917  10.428  2.5023  0.0460 -2.6891
  811MPD2    H111996   0.377   3.957  10.130 -0.1342 -1.1425 -0.5415
  811MPD2    H211997   0.429   3.581  10.326 -1.2214  0.1828  0.7859
  811MPD2    H311998   0.332   3.730  10.148  1.8773  0.1935 -0.0926
  811MPD2     N11999   0.590   4.084  10.272 -0.5520  0.6202  0.1715
  811MPD2    H512000   0.673   4.104  10.328 -0.3254 -0.4830  0.2291
  811MPD2    N112001   0.620   3.645  10.485 -0.0222  0.2593  0.4243
  811MPD2    H712002   0.573   3.557  10.505 -1.0422  0.3632 -1.5595
  812MPD2     C12003   0.461   3.794  11.960 -0.2279  0.3081  0.1703
  812MPD2    C112004   0.328   3.803  11.938 -0.2818  0.3927  0.2868
  812MPD2    C212005   0.243   3.712  11.997 -0.0076  0.2750 -0.3740
  812MPD2    C312006   0.300   3.619  12.084 -0.0048 -0.9215 -0.8325
  812MPD2    C412007   0.435   3.611  12.106  0.5676 -0.0181  0.1700
  812MPD2    C512008   0.512   3.696  12.039  0.6274  0.2337  0.6655
  812MPD2     H12009   0.136   3.702  11.982  0.2664 -0.8946 -1.5836
  812MPD2    H112010   0.476   3.547  12.184  2.5258  0.9129 -0.1239
  812MPD2    H212011   0.538   3.851  11.910  0.4323  0.5701  1.4916
  812MPD2    H312012   0.620   3.689  12.046  0.7823  2.2162  0.2903
  812MPD2     N12013   0.213   3.539  12.168  0.9473  0.3591 -0.0906
  812MPD2    H512014   0.117   3.541  12.137  0.0369 -0.7284  2.6294
  812MPD2    N112015   0.271   3.910  11.862 -0.4523  0.0581 -0.0942
  812MPD2    H712016   0.340   3.982  11.843 -1.2272  0.1954 -2.3138
  813MPD2     C12017   3.904   0.533  12.591  0.4384 -1.2024 -0.4125
  813MPD2    C112018   3.860   0.651  12.644 -0.0997 -0.5174 -1.0654
  813MPD2    C212019   3.799   0.650  12.770  0.5020  0.0688  0.0686
  813MPD2    C312020   3.804   0.539  12.845 -0.0082  0.3691 -0.0368
  813MPD2    C412021   3.853   0.420  12.797  0.0905 -0.4937 -0.1674
  813MPD2    C512022   3.897   0.416  12.665 -0.6511 -0.3185 -0.2182
  813MPD2     H12023   3.776   0.745  12.817  1.3131  0.9795 -1.3666
  813MPD2    H112024   3.866   0.330  12.856  2.1762 -0.3972 -0.4543
  813MPD2    H212025   3.955   0.516  12.497  1.4097 -0.4702 -0.0159
  813MPD2    H312026   3.935   0.318  12.639  0.9763  0.4211 -0.5765
  813MPD2     N12027   3.761   0.558  12.977  1.1111 -0.0564  0.2732
  813MPD2    H512028   3.734   0.652  13.007  0.7834  0.0216 -0.2715
  813MPD2    N112029   3.876   0.783  12.578  0.1898  0.4901  0.0867
  813MPD2    H712030   3.847   0.865  12.630 -0.9736  0.1068  0.0511
  814MPD2     C12031   4.135   1.993  12.616  0.0748 -0.9181 -0.0099
  814MPD2    C112032   4.176   2.035  12.493  0.2836  0.4011  0.0548
  814MPD2    C212033   4.276   2.133  12.491 -0.2970  0.3209 -0.6640
  814MPD2    C312034   4.315   2.195  12.606 -0.2013  0.0925  0.2453
  814MPD2    C412035   4.282   2.147  12.731 -0.3860  0.9603  0.3414
  814MPD2    C512036   4.191   2.045  12.733  0.0924 -0.1525  0.1531
  814MPD2     H12037   4.309   2.169  12.394  2.5886 -1.3030 -0.2546
  814MPD2    H112038   4.328   2.186  12.821  0.4744 -0.4894  0.5349
  814MPD2    H212039   4.058   1.920  12.638 -0.6361  1.0275  3.9463
  814MPD2    H312040   4.167   2.004  12.831 -3.7610 -0.7457 -1.0371
  814MPD2     N12041   4.397   2.314  12.603  0.1530 -0.1665 -0.2506
  814MPD2    H512042   4.415   2.359  12.692 -1.1082 -0.2516  0.0455
  814MPD2    N112043   4.135   1.985  12.371  0.5783 -0.3925 -0.4260
  814MPD2    H712044   4.179   2.021  12.287 -2.2708 -0.9441 -2.1581
  815MPD2     C12045   4.645   0.938  11.649 -0.1929  0.0419  0.2364
  815MPD2    C112046   4.616   0.804  11.670 -0.6510 -0.0356  0.4374
  815MPD2    C212047   4.485   0.762  11.681 -0.0158  0.0415  0.2678
  815MPD2    C312048   4.380   0.849  11.662  0.3838 -0.3644  0.1185
  815MPD2    C412049   4.412   0.980  11.652 -0.0912 -0.1593  0.9848
  815MPD2    C512050   4.544   1.028  11.638 -0.1233 -0.2634  0.0429
  815MPD2     H12051   4.461   0.660  11.710 -0.8720 -0.4346 -2.1508
  815MPD2    H112052   4.336   1.057  11.648  3.4409  3.2281 -2.0516
  815MPD2    H212053   0.011   0.963  11.637 -0.1989 -0.7832 -1.4301
  815MPD2    H312054   4.561   1.132  11.613  0.7289  0.3408  3.0656
  815MPD2     N12055   4.245   0.808  11.669  0.1859 -0.6057 -0.8287
  815MPD2    H512056   4.171   0.876  11.686 -0.4473 -1.5730  0.2880
  815MPD2    N112057   4.719   0.713  11.679 -0.1068  0.1105 -0.6681
  815MPD2    H712058   0.072   0.734  11.642  0.6998 -0.7542  0.8216
  816MPD2     C12059   0.475   3.934  16.976  0.3821 -0.0872 -0.5480
  816MPD2    C112060   0.387   3.965  16.881 -0.0045  0.8329  0.2396
  816MPD2    C212061   0.430   3.965  16.748 -0.2865  0.5255 -0.4859
  816MPD2    C312062   0.562   3.928  16.712  0.3412 -0.9861 -0.2036
  816MPD2    C412063   0.649   3.922  16.819 -0.2806  0.5401  0.1612
  816MPD2    C512064   0.601   3.904  16.945  0.0469 -0.2930 -0.2946
  816MPD2     H12065   0.364   3.985  16.664 -0.8908  2.3949  0.4352
  816MPD2    H112066   0.754   3.896  16.807 -0.1824 -0.1187  2.3249
  816MPD2    H212067   0.441   3.914  17.077  1.0146 -1.7343 -0.6578
  816MPD2    H312068   0.672   3.867  17.019 -1.8664 -1.9604  0.6959
  816MPD2     N12069   0.616   3.918  16.582  0.0836  0.5066  0.4142
  816MPD2    H512070   0.716   3.903  16.573  0.2759  1.4688  0.9327
  816MPD2    N112071   0.245   3.991  16.911  0.3418 -0.1698 -0.4356
  816MPD2    H712072   0.224   4.006  17.010  0.4279 -0.4502 -0.3742
  817MPD2     C12073   4.299   1.353  10.180  0.7896 -0.3256 -0.5758
  817MPD2    C112074   4.368   1.371  10.067  1.0519  0.4489  1.4379
  817MPD2    C212075   4.368   1.488  10.002  0.3493 -0.0899 -0.4466
  817MPD2    C312076   4.299   1.596  10.054  0.8335  0.5620 -1.2733
  817MPD2    C412077   4.236   1.578  10.173  0.6505  0.9702 -0.5188
  817MPD2    C512078   4.225   1.453  10.230 -0.5645  0.7981 -0.4694
  817MPD2     H12079   4.411   1.501   9.903  0.4529 -2.3078 -0.6832
  817MPD2    H112080   4.187   1.660  10.224  1.3680  1.3108 -0.3652
  817MPD2    H212081   4.280   1.257  10.226 -0.0814  0.7485  1.2900
  817MPD2    H312082   4.168   1.431  10.320  1.2761  0.0361  0.5138
  817MPD2     N12083   4.309   1.715   9.985  0.1784  0.3094 -0.0012
  817MPD2    H512084   4.368   1.711   9.902  1.0203 -1.5316  0.6861
  817MPD2    N112085   4.443   1.269  10.012  0.0444 -0.7738  0.1461
  817MPD2    H712086   4.489   1.280   9.922  0.5402 -1.5628  0.3086
  818MPD2     C12087   3.222   1.477   9.916  0.0304 -0.1658 -0.1367
  818MPD2    C112088   3.104   1.425   9.945  0.1646 -0.0185  0.5849
  818MPD2    C212089   3.080   1.291   9.939 -0.0448 -0.4649  0.5380
  818MPD2    C312090   3.175   1.207   9.895 -0.3422  0.4845 -0.3716
  818MPD2    C412091   3.304   1.257   9.876 -0.6909  0.0182 -0.6788
  818MPD2    C512092   3.321   1.395   9.879 -0.6635  0.3833 -0.1025
  818MPD2     H12093   2.978   1.260   9.962  0.1837  0.3113  2.5708
  818MPD2    H112094   3.387   1.196   9.842  0.9925  0.1399  3.1559
  818MPD2    H212095   3.240   1.584   9.926  1.6195 -0.4758  0.3245
  818MPD2    H312096   3.425   1.424   9.864 -1.0722  1.5885 -0.5515
  818MPD2     N12097   3.163   1.065   9.894  0.6250  0.6094 -0.5266
  818MPD2    H512098   3.250   1.013   9.896 -0.0157 -0.3786  1.2394
  818MPD2    N112099   2.999   1.509   9.985  0.7447 -0.6205  0.2864
  818MPD2    H712100   2.912   1.468  10.016 -0.6792 -0.2175 -3.2068
  819MPD2     C12101   1.671   3.032  15.650  0.6582 -0.5948 -0.4488
  819MPD2    C112102   1.682   2.900  15.647 -0.5638  0.7132 -0.1940
  819MPD2    C212103   1.774   2.849  15.733 -0.0124 -0.6301  0.3112
  819MPD2    C312104   1.834   2.926  15.835 -0.5710  0.8229 -0.2012
  819MPD2    C412105   1.803   3.059  15.846 -0.3141 -0.3591  0.0222
  819MPD2    C512106   1.725   3.111  15.748 -0.6357  0.2972  0.0432
  819MPD2     H12107   1.799   2.744  15.740  4.5911  0.6137  2.8166
  819MPD2    H112108   1.845   3.112  15.931  0.7232  0.0442 -0.7412
  819MPD2    H212109   1.606   3.072  15.573 -1.3807 -1.6754  0.7023
  819MPD2    H312110   1.697   3.216  15.753 -0.9001  0.3422 -2.2321
  819MPD2     N12111   1.919   2.859  15.929 -0.2185 -0.3006  0.1146
  819MPD2    H512112   1.962   2.775  15.890 -1.9528 -0.5405 -1.2667
  819MPD2    N112113   1.615   2.816  15.550 -0.1312  0.2938 -0.2041
  819MPD2    H712114   1.551   2.858  15.483  2.2354  1.0069 -2.0161
  820MPD2     C12115   0.905   2.635  14.840  0.3577  0.5010 -0.3219
  820MPD2    C112116   0.925   2.740  14.928  0.7998 -0.0742  0.1597
  820MPD2    C212117   1.035   2.733  15.012  0.4817 -0.8993  0.5163
  820MPD2    C312118   1.112   2.619  15.020 -0.1341 -0.3369 -0.2240
  820MPD2    C412119   1.088   2.518  14.928 -0.6428  0.4435 -0.2673
  820MPD2    C512120   0.984   2.524  14.840 -0.1129  0.4898 -0.2995
  820MPD2     H12121   1.052   2.811  15.085 -2.4787 -1.4080  1.7505
  820MPD2    H112122   1.146   2.427  14.919  0.4536  1.0686  0.5818
  820MPD2    H212123   0.830   2.635  14.762  1.4879  0.3405 -1.4152
  820MPD2    H312124   0.967   2.440  14.774  2.8085 -0.3041 -0.0276
  820MPD2     N12125   1.222   2.596  15.113 -0.6456 -0.3689  0.5059
  820MPD2    H512126   1.277   2.512  15.099 -0.5050 -0.4925  1.8167
  820MPD2    N112127   0.833   2.847  14.914  0.1033 -0.4482 -0.4818
  820MPD2    H712128   0.767   2.825  14.840 -2.2819  0.4225  1.3646
  821MPD2     C12129   1.551   3.765  13.014  0.1288  0.2390 -0.3513
  821MPD2    C112130   1.663   3.815  13.085  0.0645 -0.7153  0.1825
  821MPD2    C212131   1.777   3.842  13.012  0.0039 -0.0692  0.4330
  821MPD2    C312132   1.780   3.839  12.872  0.6152  0.1441 -0.3038
  821MPD2    C412133   1.670   3.796  12.798  0.4133  0.0436 -1.2948
  821MPD2    C512134   1.556   3.763  12.874 -0.9285 -0.3932 -0.0044
  821MPD2     H12135   1.869   3.863  13.066  0.3783 -0.9397  0.1267
  821MPD2    H112136   1.676   3.789  12.690 -2.7343 -1.1224 -1.3842
  821MPD2    H212137   1.464   3.730  13.068  0.8458  0.2319  0.7863
  821MPD2    H312138   1.468   3.721  12.826 -0.0915 -1.3745 -0.6739
  821MPD2     N12139   1.902   3.889  12.819 -0.2189 -0.0130 -0.2432
  821MPD2    H512140   1.970   3.930  12.882 -0.0096  0.5959 -0.8655
  821MPD2    N112141   1.656   3.828  13.227  0.0544  0.0183  0.4996
  821MPD2    H712142   1.563   3.808  13.261 -0.5166  0.0410 -1.0464
  822MPD2     C12143   2.503   4.109  15.744  0.3757  0.8813 -0.1384
  822MPD2    C112144   2.461   4.082  15.874 -0.2651 -0.0375  0.3974
  822MPD2    C212145   2.409   4.185  15.947  0.2664 -0.1214  0.3134
  822MPD2    C312146   2.417   4.318  15.907 -0.2021 -0.4205 -0.2585
  822MPD2    C412147   2.475   4.337  15.786 -0.0966 -0.0783 -0.2938
  822MPD2    C512148   2.511   4.234  15.704 -0.7671  0.3474  0.2955
  822MPD2     H12149   2.359   4.153  16.038  0.0035  2.5569  1.1057
  822MPD2    H112150   2.475   4.437  15.744 -0.9733 -0.1046 -0.3515
  822MPD2    H212151   2.556   4.034  15.686 -0.0957  1.6552 -1.5777
  822MPD2    H312152   2.558   4.253  15.608  0.5983  1.0053  1.0904
  822MPD2     N12153   2.367   4.421  15.987  0.5702 -0.5385 -0.1534
  822MPD2    H512154   2.310   4.387  16.063  3.1620  0.6514  2.3128
  822MPD2    N112155   2.468   3.963  15.944 -0.4837 -0.4292  0.1681
  822MPD2    H712156   2.435   3.965  16.040 -2.1036 -0.6359 -0.3813
  823MPD2     C12157   1.764   4.488  16.356 -0.4218 -0.6378 -0.1942
  823MPD2    C112158   1.901   4.501  16.389 -0.5877  0.1508  0.4423
  823MPD2    C212159   1.945   4.425  16.498  0.3512  0.0770  1.0912
  823MPD2    C312160   1.857   4.344  16.567 -0.7437  0.2521  0.3458
  823MPD2    C412161   1.726   4.362  16.551 -0.2043  0.7844 -0.5126
  823MPD2    C512162   1.675   4.431  16.441  0.3135 -0.7073  0.1938
  823MPD2     H12163   2.052   4.405  16.501  0.2010 -1.2101 -1.5413
  823MPD2    H112164   1.663   4.306  16.619 -0.3284 -0.3770 -1.5915
  823MPD2    H212165   1.717   4.545  16.276 -0.0962 -1.8409 -1.2333
  823MPD2    H312166   1.567   4.435  16.432  0.2483  1.6879  2.0896
  823MPD2     N12167   1.894   4.250  16.663  0.1595 -0.2787 -0.6651
  823MPD2    H512168   1.816   4.214  16.717  1.1525 -1.4495 -0.0257
  823MPD2    N112169   1.994   4.562  16.306 -0.3419 -0.5082 -0.3477
  823MPD2    H712170   1.963   4.590  16.213 -0.2249 -1.4916 -0.6931
  824MPD2     C12171   2.643   3.130  15.925  0.0278  0.6384 -0.4514
  824MPD2    C112172   2.690   3.254  15.885  0.1065 -0.6648  0.2572
  824MPD2    C212173   2.790   3.254  15.787 -0.2071 -0.2351 -0.0904
  824MPD2    C312174   2.854   3.139  15.745 -0.4627 -0.8420 -0.7366
  824MPD2    C412175   2.795   3.022  15.780 -0.4386 -0.6397 -0.1800
  824MPD2    C512176   2.692   3.014  15.867 -0.1365 -0.4323  0.0017
  824MPD2     H12177   2.832   3.350  15.760  0.3136 -0.4084  0.0990
  824MPD2    H112178   2.828   2.929  15.735 -3.4970 -1.2194 -1.2372
  824MPD2    H212179   2.559   3.122  15.994 -1.5043 -1.2833 -2.5041
  824MPD2    H312180   2.661   2.919  15.907  0.3011 -1.0968 -1.2213
  824MPD2     N12181   2.968   3.142  15.658 -0.0655  0.5700 -0.4808
  824MPD2    H512182   3.005   3.228  15.620 -0.2323  1.3530  1.1090
  824MPD2    N112183   2.646   3.376  15.938 -0.2672  0.0450  0.0083
  824MPD2    H712184   2.682   3.463  15.900  0.7994  0.2173  1.3872
  825MPD2     C12185   3.536   3.330  15.078 -0.1787  0.5095  0.3027
  825MPD2    C112186   3.494   3.375  15.201 -0.1232 -0.0032 -0.3743
  825MPD2    C212187   3.537   3.499  15.243  0.2458  0.1718  0.2027
  825MPD2    C312188   3.622   3.576  15.158 -0.4528  0.2087  0.3005
  825MPD2    C412189   3.650   3.536  15.029 -0.5816 -0.0901 -0.0650
  825MPD2    C512190   3.607   3.408  14.996 -0.2437  0.4640 -0.2299
  825MPD2     H12191   3.520   3.530  15.346  0.2596 -1.6267  0.7490
  825MPD2    H112192   3.716   3.597  14.968 -0.0551  0.1712  0.7620
  825MPD2    H212193   3.505   3.236  15.036  0.0193  1.3329 -1.7058
  825MPD2    H312194   3.641   3.371  14.900  1.2691  2.7026 -0.5700
  825MPD2     N12195   3.668   3.703  15.199  0.7974 -0.3124 -0.2054
  825MPD2    H512196   3.713   3.760  15.129 -1.7204  3.4825  1.2409
  825MPD2    N112197   3.419   3.279  15.282 -0.8242 -0.1643 -0.3272
  825MPD2    H712198   3.434   3.183  15.251  0.1729  0.3466 -1.4387
  826MPD2     C12199   2.747   3.091  13.476 -0.1301 -0.2577 -0.4346
  826MPD2    C112200   2.798   3.219  13.478  0.7222 -0.1501 -0.0179
  826MPD2    C212201   2.732   3.320  13.547 -0.1403  0.5053  0.4344
  826MPD2    C312202   2.605   3.293  13.598 -0.4667 -0.2603  0.1790
  826MPD2    C412203   2.547   3.165  13.592 -0.1981 -0.0200 -0.2167
  826MPD2    C512204   2.622   3.068  13.534  0.6377  0.0008 -0.3318
  826MPD2     H12205   2.785   3.414  13.556  0.6025  0.1374 -0.0311
  826MPD2    H112206   2.446   3.141  13.624  0.2104  0.1377  1.2309
  826MPD2    H212207   2.792   3.014  13.414  0.3981 -0.4513  0.1872
  826MPD2    H312208   2.575   2.971  13.519 -0.8954  0.4787  1.2913
  826MPD2     N12209   2.546   3.402  13.647  0.4166 -0.4785  0.0117
  826MPD2    H512210   2.599   3.489  13.651 -2.6280  1.2117  4.2474
  826MPD2    N112211   2.916   3.248  13.400 -0.1381  0.5892 -0.1373
  826MPD2    H712212   2.961   3.165  13.363 -1.4524 -1.5735  3.0118
  827MPD2     C12213   3.744   4.616  10.260  0.2561 -0.2020 -0.1907
  827MPD2    C112214   3.723   4.549  10.372 -0.1642 -0.5586  0.0018
  827MPD2    C212215   3.600   4.504  10.406 -0.4469 -0.2597  0.2549
  827MPD2    C312216   3.499   4.517  10.315  0.0544 -0.3831  0.2505
  827MPD2    C412217   3.518   4.588  10.198  0.1912  0.2154 -0.2319
  827MPD2    C512218   3.638   4.644  10.179  0.2903 -0.1984 -0.5177
  827MPD2     H12219   3.578   4.456  10.500  0.9651  1.7712  1.6057
  827MPD2    H112220   3.434   4.621  10.138  1.7643  1.4745 -1.7489
  827MPD2    H212221   3.844   4.653  10.241  0.6481 -0.7164  0.8769
  827MPD2    H312222   3.655   4.719  10.103  2.3952 -0.1995 -0.0389
  827MPD2     N12223   3.367   4.471  10.349  0.3309  0.1996  0.4288
  827MPD2    H512224   3.353   4.441  10.446 -0.8306 -1.2848 -0.1944
  827MPD2    N112225   3.836   4.525  10.452  0.2224  0.1370 -0.2166
  827MPD2    H712226   3.915   4.582  10.425  0.4595 -0.0948 -0.0121
  828MPD2     C12227   2.360   4.639  12.005 -0.1522 -0.3385  0.1327
  828MPD2    C112228   2.248   4.717  11.988  0.3201 -0.2134  0.0661
  828MPD2    C212229   2.270   0.096  11.923 -0.1431  0.0219  0.0625
  828MPD2    C312230   2.395   0.138  11.882  0.1002 -0.0497 -0.3350
  828MPD2    C412231   2.504   0.055  11.898  1.0726 -0.2573 -0.3687
  828MPD2    C512232   2.485   4.678  11.960 -0.0440  0.1076  0.2919
  828MPD2     H12233   2.188   0.167  11.915 -0.5012 -0.2993  0.9621
  828MPD2    H112234   2.607   0.079  11.874  1.1216 -1.0962 -0.9666
  828MPD2    H212235   2.354   4.539  12.047  2.6263  0.2441  1.9474
  828MPD2    H312236   2.563   4.603  11.971  1.6826  1.6515 -1.7441
  828MPD2     N12237   2.424   0.270  11.831  0.0919  0.3692 -0.5118
  828MPD2    H512238   2.519   0.289  11.799  0.2288 -0.1105 -0.3932
  828MPD2    N112239   2.123   4.680  12.042  0.1419 -1.0231 -0.0843
  828MPD2    H712240   2.051   0.012  12.046  1.6016  0.5296 -1.2108
  829MPD2     C12241   1.349   0.329  11.916 -0.3623  0.5161  0.0663
  829MPD2    C112242   1.319   0.254  12.031 -0.2660 -0.1124  0.1595
  829MPD2    C212243   1.419   0.190  12.102 -0.0236  0.4532 -0.5399
  829MPD2    C312244   1.546   0.188  12.052  0.1207  0.2853 -0.7173
  829MPD2    C412245   1.567   0.254  11.933  0.5405 -0.3882 -0.0520
  829MPD2    C512246   1.477   0.335  11.873 -0.1080  0.2422  0.3954
  829MPD2     H12247   1.391   0.139  12.193  0.0836 -1.0213 -1.3263
  829MPD2    H112248   1.669   0.271  11.903  0.7421 -1.6310 -0.0828
  829MPD2    H212249   1.276   0.385  11.859 -0.7909  1.4741  1.5558
  829MPD2    H312250   1.509   0.399  11.791  1.7212 -1.9316 -0.6027
  829MPD2     N12251   1.651   0.108  12.099 -0.0955 -0.3237 -0.6135
  829MPD2    H512252   1.740   0.118  12.051 -0.0491 -0.1213 -0.4851
  829MPD2    N112253   1.180   0.244  12.062  0.3123  0.3358 -0.7959
  829MPD2    H712254   1.123   0.301  12.001 -0.9394 -0.4365 -0.3434
  830MPD2     C12255   2.305   2.199  16.267 -0.4731  0.5711 -0.3570
  830MPD2    C112256   2.231   2.270  16.176  0.0074 -0.6054  0.7657
  830MPD2    C212257   2.260   2.254  16.039  0.2267 -0.7015 -0.3780
  830MPD2    C312258   2.356   2.161  15.998  0.6267  0.6019  0.2965
  830MPD2    C412259   2.425   2.095  16.098  0.9831 -0.5531  0.3155
  830MPD2    C512260   2.404   2.114  16.226 -0.5152 -0.4577 -0.3967
  830MPD2     H12261   2.220   2.323  15.965 -0.3955 -2.1805 -1.4242
  830MPD2    H112262   2.512   2.037  16.071 -1.1970 -4.1532  1.0015
  830MPD2    H212263   2.290   2.221  16.372 -3.6230  1.2384 -0.9372
  830MPD2    H312264   2.470   2.065  16.296 -1.2132  0.2369  0.7437
  830MPD2     N12265   2.387   2.147  15.864 -0.4991 -0.2310  0.5025
  830MPD2    H512266   2.465   2.089  15.836  0.8450  1.0241  1.5834
  830MPD2    N112267   2.135   2.364  16.220  0.2679  0.2803 -0.0966
  830MPD2    H712268   2.120   2.379  16.319 -2.0068 -1.3046 -0.2133
  831MPD2     C12269   2.554   4.473  16.296 -0.1499 -0.5418  0.2656
  831MPD2    C112270   2.582   4.348  16.250  0.7925  0.4813  0.3421
  831MPD2    C212271   2.500   4.241  16.275 -0.7073  0.0918 -0.4309
  831MPD2    C312272   2.385   4.259  16.347 -0.1666  0.9220 -0.0281
  831MPD2    C412273   2.362   4.378  16.405 -0.1881 -0.1355  0.5970
  831MPD2    C512274   2.441   4.487  16.375 -0.0268 -0.1538  0.3815
  831MPD2     H12275   2.527   4.142  16.240 -0.7293 -0.0990  0.1009
  831MPD2    H112276   2.278   4.385  16.474 -1.2899 -2.8626 -0.4790
  831MPD2    H212277   2.611   4.561  16.270 -1.9745  0.6952  0.4546
  831MPD2    H312278   2.412   4.584  16.413 -0.1911  0.1967 -0.6487
  831MPD2     N12279   2.295   4.158  16.376 -0.0066  0.1668 -0.3975
  831MPD2    H512280   2.230   4.177  16.452  1.3116 -0.7066  0.9396
  831MPD2    N112281   2.705   4.330  16.176  0.3069  0.5868  0.1686
  831MPD2    H712282   2.762   4.411  16.153  0.5208  0.4547  0.2363
  832MPD2     C12283   0.730   0.060  16.884 -0.4874 -0.1056  0.1242
  832MPD2    C112284   0.694   0.184  16.915  0.8002  0.0901 -0.6047
  832MPD2    C212285   0.580   0.239  16.859  0.5932 -0.3658 -0.1958
  832MPD2    C312286   0.504   0.162  16.776 -0.4748  0.1083  0.5183
  832MPD2    C412287   0.536   0.029  16.745  0.2273 -0.2274 -0.1869
  832MPD2    C512288   0.648   4.721  16.799 -0.5338  1.3123  0.4121
  832MPD2     H12289   0.552   0.343  16.877 -0.0554 -0.7103  0.8147
  832MPD2    H112290   0.472   4.698  16.692 -0.5458 -0.1392  0.6281
  832MPD2    H212291   0.809   0.003  16.933 -1.0643 -0.3421  0.7817
  832MPD2    H312292   0.671   4.615  16.788 -1.3757  1.2631 -0.8310
  832MPD2     N12293   0.376   0.204  16.728 -0.2295  0.0012  0.8837
  832MPD2    H512294   0.319   0.131  16.685  0.5917  0.8598 -1.6456
  832MPD2    N112295   0.776   0.241  17.018 -0.5300  0.1711 -0.0340
  832MPD2    H712296   0.852   0.185  17.057 -1.4262 -0.7704  0.3435
  833MPD2     C12297   2.770   2.498  12.734 -0.9831 -0.2305  0.3197
  833MPD2    C112298   2.727   2.551  12.615  0.0503  0.1814 -0.7280
  833MPD2    C212299   2.726   2.465  12.514 -0.2090  0.4229 -0.5336
  833MPD2    C312300   2.749   2.328  12.519  0.3181  0.0442 -0.0380
  833MPD2    C412301   2.799   2.276  12.642  0.1113 -0.7647 -0.0530
  833MPD2    C512302   2.809   2.366  12.747  0.1621  0.6261 -0.3021
  833MPD2     H12303   2.690   2.506  12.421  2.6938  1.6148 -1.1323
  833MPD2    H112304   2.829   2.173  12.651  2.5366 -0.0412  0.2036
  833MPD2    H212305   2.776   2.562  12.821  0.1828 -1.8383  1.4332
  833MPD2    H312306   2.840   2.337  12.847  0.8367 -1.6008 -1.1598
  833MPD2     N12307   2.730   2.237  12.412 -0.2301 -0.6243  0.4762
  833MPD2    H512308   2.739   2.140  12.440  0.4283 -0.9543 -0.8798
  833MPD2    N112309   2.678   2.679  12.595 -0.7933 -0.5199 -0.3702
  833MPD2    H712310   2.649   2.712  12.503 -0.7275  1.8782  0.4876
  834MPD2     C12311   3.022   1.522  11.786  0.2789  0.2337 -0.0849
  834MPD2    C112312   2.932   1.589  11.700 -0.2022 -0.3538  0.4315
  834MPD2    C212313   2.887   1.711  11.743 -0.2630 -0.4798  0.0264
  834MPD2    C312314   2.921   1.764  11.866  0.0008  0.2644 -0.9477
  834MPD2    C412315   3.012   1.706  11.940 -0.0704 -0.3836 -0.2588
  834MPD2    C512316   3.060   1.578  11.902  0.3409 -1.0338  0.1915
  834MPD2     H12317   2.805   1.759  11.691  0.6934  0.2370 -0.8293
  834MPD2    H112318   3.048   1.743  12.036 -0.4685 -0.3442 -0.1258
  834MPD2    H212319   3.065   1.424  11.772 -1.9430 -0.9058  1.0771
  834MPD2    H312320   3.113   1.513  11.970  0.5770 -0.7811  0.2479
  834MPD2     N12321   2.856   1.883  11.897  0.1837 -0.0542  0.2836
  834MPD2    H512322   2.802   1.926  11.823  0.0978 -1.3220 -0.3882
  834MPD2    N112323   2.895   1.526  11.581 -0.0991  0.7121 -0.2966
  834MPD2    H712324   2.938   1.435  11.567  0.0828  0.5497  1.2932
  835MPD2     C12325   3.031   0.315  11.035 -0.1611  0.0640  0.8345
  835MPD2    C112326   2.929   0.371  11.104  0.0217  0.3776  0.2672
  835MPD2    C212327   2.926   0.358  11.244  0.0052  0.6965  0.0239
  835MPD2    C312328   3.031   0.293  11.315 -0.2014  0.6388 -0.2301
  835MPD2    C412329   3.135   0.241  11.240 -0.0208  0.3110 -0.3288
  835MPD2    C512330   3.127   0.243  11.100  0.4899 -0.0869 -0.2601
  835MPD2     H12331   2.850   0.411  11.299 -0.9160 -1.2785  0.6368
  835MPD2    H112332   3.220   0.183  11.276 -1.0590  1.0030  3.1950
  835MPD2    H212333   3.038   0.322  10.927  0.1307  3.5990  1.0813
  835MPD2    H312334   3.198   0.199  11.031  0.8494 -1.4310  0.9772
  835MPD2     N12335   3.034   0.271  11.457  0.1905  0.0164 -0.4480
  835MPD2    H512336   3.108   0.211  11.492 -0.1154 -1.1199 -1.7280
  835MPD2    N112337   2.809   0.415  11.041  0.0113 -0.2882 -0.4222
  835MPD2    H712338   2.738   0.458  11.100  0.5716 -1.4814  1.0983
  836MPD2     C12339   2.520   0.667  11.957  0.6172  0.6904  0.8350
  836MPD2    C112340   2.582   0.559  12.015 -0.2968  0.5509  0.2558
  836MPD2    C212341   2.528   0.505  12.132 -0.8819 -0.2831 -0.3373
  836MPD2    C312342   2.409   0.550  12.178  0.9098  0.5276 -0.5938
  836MPD2    C412343   2.342   0.655  12.116 -0.3490  0.3769 -0.3651
  836MPD2    C512344   2.402   0.723  12.008  0.4011 -0.0445 -0.1434
  836MPD2     H12345   2.571   0.413  12.170 -2.8181 -1.1777 -0.2879
  836MPD2    H112346   2.243   0.683  12.150 -1.2003  0.8825 -3.2530
  836MPD2    H212347   2.544   0.712  11.862  1.5194 -1.4074  0.0694
  836MPD2    H312348   2.357   0.813  11.967  0.6383 -0.2796 -0.9318
  836MPD2     N12349   2.336   0.481  12.275  0.3276 -0.0116  0.6563
  836MPD2    H512350   2.246   0.522  12.297  0.6600  0.3222  1.3960
  836MPD2    N112351   2.699   0.511  11.949  0.5772  0.0113  0.0424
  836MPD2    H712352   2.727   0.561  11.864 -1.7082  1.9498  0.4591
  837MPD2     C12353   1.148   4.557  10.502 -0.1065 -0.8689 -0.3861
  837MPD2    C112354   1.110   4.612  10.382 -0.3882  0.2763  0.1328
  837MPD2    C212355   1.132   0.009  10.343 -0.2943 -0.1137 -0.2689
  837MPD2    C312356   1.187   0.092  10.437  0.1506  0.1181  0.8124
  837MPD2    C412357   1.232   0.039  10.555 -0.0555 -0.2533 -0.1339
  837MPD2    C512358   1.212   4.647  10.588  0.0422  0.3727 -0.7485
  837MPD2     H12359   1.097   0.037  10.245 -1.3966 -1.0983 -0.1584
  837MPD2    H112360   1.274   0.103  10.631  1.0623 -0.4068 -0.6180
  837MPD2    H212361   1.128   4.454  10.529  1.2720 -1.2333 -0.7376
  837MPD2    H312362   1.249   4.614  10.684  1.6992 -0.9452 -1.8431
  837MPD2     N12363   1.172   0.229  10.406  1.0317  0.5868 -0.3491
  837MPD2    H512364   1.138   0.252  10.312 -1.7112 -0.3599  0.4016
  837MPD2    N112365   1.006   4.538  10.305  0.2804 -0.2221 -0.8084
  837MPD2    H712366   0.984   4.589  10.220 -0.3552  1.5905  0.4368
  838MPD2     C12367   3.630   2.902  12.270  0.9420 -0.5246  0.1185
  838MPD2    C112368   3.630   2.771  12.292  0.0677 -0.1202  0.8845
  838MPD2    C212369   3.518   2.712  12.349 -0.0760 -0.1880  0.3705
  838MPD2    C312370   3.412   2.795  12.382 -0.5740 -0.5053 -0.3413
  838MPD2    C412371   3.407   2.929  12.353 -0.0617  0.0911 -0.2071
  838MPD2    C512372   3.522   2.978  12.300  0.6893 -0.1410 -0.1614
  838MPD2     H12373   3.516   2.605  12.362 -0.7895 -0.4137 -1.5963
  838MPD2    H112374   3.327   2.997  12.379  0.4980  0.3048  0.9784
  838MPD2    H212375   3.720   2.947  12.230 -1.8257  2.4698 -2.7319
  838MPD2    H312376   3.534   3.082  12.271  0.1160  0.2423  0.9673
  838MPD2     N12377   3.306   2.735  12.439 -0.0865  0.1944  0.1169
  838MPD2    H512378   3.293   2.635  12.428  2.7003 -0.0792 -0.6038
  838MPD2    N112379   3.740   2.692  12.260 -0.4804 -0.7910  0.3020
  838MPD2    H712380   3.725   2.594  12.284 -0.7195 -0.5060  1.3326
  839MPD2     C12381   3.541   1.954  12.188 -0.5225  0.7388 -0.2821
  839MPD2    C112382   3.612   1.952  12.071 -0.3987 -0.5021 -0.0104
  839MPD2    C212383   3.716   2.042  12.047 -0.6346 -0.2020 -0.5949
  839MPD2    C312384   3.745   2.141  12.140  0.6104  0.8940 -0.2856
  839MPD2    C412385   3.677   2.137  12.263 -0.0629 -0.8814 -0.7703
  839MPD2    C512386   3.581   2.040  12.289  1.3161 -0.3729  0.3786
  839MPD2     H12387   3.761   2.049  11.949  0.2658  0.4559 -0.1241
  839MPD2    H112388   3.697   2.212  12.339 -2.0541 -0.1080 -1.0141
  839MPD2    H212389   3.460   1.883  12.203  0.0978 -0.1279 -1.0096
  839MPD2    H312390   3.528   2.030  12.382  0.3793  0.3474 -0.0804
  839MPD2     N12391   3.825   2.250  12.123  0.1568  0.3394  0.1438
  839MPD2    H512392   3.843   2.302  12.208 -1.0532  0.6934  0.1768
  839MPD2    N112393   3.576   1.875  11.963 -0.2662  0.2687 -0.0470
  839MPD2    H712394   3.657   1.876  11.902 -0.5759  0.5588 -0.4520
  840MPD2     C12395   4.627   4.523  10.493  0.0175 -0.2258 -0.0602
  840MPD2    C112396   4.530   4.597  10.560 -0.4567  0.4966  0.6172
  840MPD2    C212397   4.558   4.727  10.596 -0.2487  0.0881  0.0075
  840MPD2    C312398   4.681   0.047  10.565  0.1462 -0.1039 -0.2859
  840MPD2    C412399   0.043   4.706  10.515  0.1238  0.2052 -0.5405
  840MPD2    C512400   0.018   4.572  10.480  0.3562 -0.2147 -0.0719
  840MPD2     H12401   4.481   0.049  10.640  0.0744  2.1141 -2.2177
  840MPD2    H112402   0.145   0.002  10.506  0.0096  0.4274 -1.0105
  840MPD2    H212403   4.620   4.426  10.445  0.9254 -0.3092 -0.0345
  840MPD2    H312404   0.094   4.508  10.436  0.3589 -0.3565  0.1382
  840MPD2     N12405   4.689   0.186  10.583  0.3511  0.2443  0.1426
  840MPD2    H512406   4.615   0.224  10.643 -0.5243 -0.0979 -0.7194
  840MPD2    N112407   4.406   4.545  10.594 -0.3121  0.0290 -0.3511
  840MPD2    H712408   4.401   4.444  10.596 -2.2645  0.1654  0.9830
  841MPD2     C12409   3.994   3.939  15.011 -0.7312  0.6662 -0.3801
  841MPD2    C112410   3.964   4.010  14.894 -0.2544 -0.3849  0.0191
  841MPD2    C212411   4.020   4.138  14.874 -0.0666 -0.7192 -0.1537
  841MPD2    C312412   4.119   4.182  14.964  1.0548 -0.4125 -0.3579
  841MPD2    C412413   4.159   4.098  15.069  0.4054  0.5134  0.0947
  841MPD2    C512414   4.096   3.983  15.089  1.1947 -0.6895  0.3722
  841MPD2     H12415   3.985   4.187  14.784 -0.4875  1.2003  1.0504
  841MPD2    H112416   4.239   4.128  15.135  0.2003  3.3252 -0.9592
  841MPD2    H212417   3.940   3.848  15.032 -1.3982  1.0943 -0.2699
  841MPD2    H312418   4.113   3.922  15.177  2.3693 -1.7316 -0.5767
  841MPD2     N12419   4.155   4.322  14.953  0.5393  0.3863  1.1795
  841MPD2    H512420   4.106   4.381  14.887 -0.9404  1.2234  3.0361
  841MPD2    N112421   3.884   3.955  14.793 -0.7112 -0.7872 -0.1321
  841MPD2    H712422   3.901   3.989  14.699  0.4610  3.0462  1.4811
  842MPD2     C12423   3.826   0.325  15.866 -0.0774  0.3501 -0.2315
  842MPD2    C112424   3.954   0.369  15.855 -0.7028 -0.2129  0.1722
  842MPD2    C212425   4.066   0.321  15.926 -0.1286  0.3169 -0.1556
  842MPD2    C312426   4.030   0.236  16.038  0.9446  0.0681  0.0007
  842MPD2    C412427   3.902   0.192  16.048 -0.0840  0.0904 -0.5358
  842MPD2    C512428   3.801   0.235  15.969  0.0386  0.0260  0.7971
  842MPD2     H12429   4.160   0.375  15.922 -0.5843  1.1228 -0.0173
  842MPD2    H112430   3.872   0.136  16.136  0.6580 -0.3019 -0.5323
  842MPD2    H212431   3.751   0.363  15.797 -2.4903 -2.4607  0.8449
  842MPD2    H312432   3.699   0.212  15.998 -0.1814 -1.1168 -0.9187
  842MPD2     N12433   4.117   0.199  16.143 -0.5869 -0.6112  0.0019
  842MPD2    H512434   4.070   0.176  16.230  1.2809  2.8564  1.9593
  842MPD2    N112435   3.966   0.466  15.755  0.8884 -0.9301  0.0001
  842MPD2    H712436   3.878   0.487  15.709  0.2428 -2.0931  0.7113
  843MPD2     C12437   1.962   1.340  17.631  0.6534 -0.3405  0.0885
  843MPD2    C112438   2.026   1.246  17.702 -0.5593 -0.3649 -0.4086
  843MPD2    C212439   2.161   1.263  17.731  0.7950  0.7660 -0.5313
  843MPD2    C312440   2.230   1.376  17.687 -0.0778  0.6298 -0.2060
  843MPD2    C412441   2.150   1.471  17.627  0.4523  0.4092  0.4500
  843MPD2    C512442   2.018   1.450  17.591 -0.2529  0.3043 -0.5227
  843MPD2     H12443   2.210   1.180   0.025  1.1441  0.9317 -0.5976
  843MPD2    H112444   2.189   1.568  17.600 -2.3112  1.4442  0.1458
  843MPD2    H212445   1.857   1.318  17.613  0.1916  2.6947 -0.9024
  843MPD2    H312446   1.963   1.530  17.543 -1.0021  0.5720  0.7796
  843MPD2     N12447   2.366   1.409  17.695  0.3482 -0.2475 -0.1657
  843MPD2    H512448   2.394   1.501  17.661  1.1157 -0.5473 -0.3252
  843MPD2    N112449   1.945   1.138   0.002 -0.6634 -0.2043 -0.3951
  843MPD2    H712450   1.853   1.142  17.714 -0.8489 -1.0324 -0.0675
  844MPD2     C12451   0.261   0.125  16.154  0.8889 -0.9881  0.0151
  844MPD2    C112452   0.372   0.107  16.083  0.4094 -0.1630 -0.5854
  844MPD2    C212453   0.493   0.169  16.135  0.1736 -0.4101 -0.1414
  844MPD2    C312454   0.496   0.243  16.256 -0.0045  0.3068  0.5222
  844MPD2    C412455   0.380   0.254  16.324  0.0914 -0.0205  0.4806
  844MPD2    C512456   0.267   0.195  16.276 -0.1001 -0.4199 -0.0698
  844MPD2     H12457   0.590   0.170  16.085  0.2470 -0.6305 -0.0011
  844MPD2    H112458   0.366   0.310  16.416  0.0586 -0.4242  0.7190
  844MPD2    H212459   0.162   0.103  16.118  1.0001 -1.2568 -0.1193
  844MPD2    H312460   0.181   0.191  16.341  0.3886  0.2313  0.6106
  844MPD2     N12461   0.619   0.294  16.305 -0.5029  0.0125 -0.0722
  844MPD2    H512462   0.707   0.265  16.263 -0.7228 -0.2229 -0.3694
  844MPD2    N112463   0.372   0.051  15.948 -0.4044  0.2026 -0.5971
  844MPD2    H712464   0.449   0.074  15.885  0.5050  0.7194  0.6900
  845MPD2     C12465   0.802   0.972  16.981  0.2665  0.2060  0.4365
  845MPD2    C112466   0.754   1.004  16.857 -0.0356  0.2545  0.4672
  845MPD2    C212467   0.794   0.932  16.744 -0.0144 -0.0024  0.1326
  845MPD2    C312468   0.852   0.806  16.767 -0.4032 -0.1661  0.2066
  845MPD2    C412469   0.895   0.771  16.894 -0.8518  0.5616 -0.3814
  845MPD2    C512470   0.877   0.861  16.999  0.3808 -0.2445 -0.0751
  845MPD2     H12471   0.761   0.951  16.643 -1.3748  2.2610  1.0032
  845MPD2    H112472   0.948   0.682  16.927 -0.2940  2.2435  3.2993
  845MPD2    H212473   0.787   1.038  17.066 -2.0593  1.6100 -1.0581
  845MPD2    H312474   0.914   0.842  17.099 -2.3769  0.3944  1.0458
  845MPD2     N12475   0.861   0.720  16.655  0.0062 -0.1583  0.1025
  845MPD2    H512476   0.822   0.754  16.568 -0.6154 -0.0110  0.4370
  845MPD2    N112477   0.673   1.120  16.841  0.1261 -0.6341  0.1875
  845MPD2    H712478   0.657   1.154  16.936 -0.6311 -0.5504  0.0310
  846MPD2     C12479   2.303   1.914  13.612  0.8000 -0.1487  0.2264
  846MPD2    C112480   2.228   2.018  13.658 -0.1111  0.4946  0.3010
  846MPD2    C212481   2.193   2.024  13.790 -0.7461  0.5932 -0.1634
  846MPD2    C312482   2.237   1.927  13.881  0.7863  0.3103 -0.0069
  846MPD2    C412483   2.311   1.824  13.839 -0.3642  0.0762 -0.5209
  846MPD2    C512484   2.351   1.822  13.710  0.4999  0.2825 -0.3381
  846MPD2     H12485   2.121   2.101  13.813 -1.4576 -0.5721  1.4989
  846MPD2    H112486   2.351   1.749  13.907 -0.9072 -0.2430 -0.5598
  846MPD2    H212487   2.334   1.901  13.509  0.1251  1.2919 -0.1578
  846MPD2    H312488   2.415   1.743  13.674 -0.0115  0.3608 -1.4467
  846MPD2     N12489   2.184   1.930  14.008 -0.0915 -0.2323  0.3921
  846MPD2    H512490   2.132   2.016  14.025  0.0072 -0.7467  3.2449
  846MPD2    N112491   2.194   2.119  13.564 -0.9695  0.2023 -0.6795
  846MPD2    H712492   2.161   2.207  13.603 -1.4246 -0.5473  0.6107
  847MPD2     C12493   2.287   3.092  14.428  0.0442 -0.5849 -1.1407
  847MPD2    C112494   2.216   3.147  14.531 -0.2881 -0.6727 -0.3270
  847MPD2    C212495   2.245   3.107  14.661 -0.0171 -0.1916 -0.2945
  847MPD2    C312496   2.326   2.993  14.683 -0.3385  0.3023  0.6939
  847MPD2    C412497   2.386   2.946  14.573  0.4341  0.0500 -0.6539
  847MPD2    C512498   2.372   2.998  14.446  0.2128 -0.2945 -0.2107
  847MPD2     H12499   2.192   3.155  14.742  2.4958  2.2945 -0.1203
  847MPD2    H112500   2.452   2.860  14.585 -0.9422 -0.5670  2.6333
  847MPD2    H212501   2.262   3.124  14.328 -1.6020  1.5879 -0.0402
  847MPD2    H312502   2.431   2.971  14.358 -0.8979 -0.1379 -1.0014
  847MPD2     N12503   2.314   2.925  14.804 -0.0590 -0.1327 -0.6255
  847MPD2    H512504   2.264   2.969  14.881 -2.1772 -0.9275 -1.5573
  847MPD2    N112505   2.113   3.241  14.522 -1.0884 -0.4398 -0.5258
  847MPD2    H712506   2.075   3.273  14.611 -0.1059  2.8056 -1.2603
  848MPD2     C12507   4.580   0.666  16.278 -0.4282  0.2265 -0.9236
  848MPD2    C112508   4.715   0.640  16.298 -1.0133 -0.4442  0.4168
  848MPD2    C212509   0.068   0.693  16.206 -0.2250 -0.4284  0.3623
  848MPD2    C312510   0.024   0.760  16.089  0.4438 -0.3710 -0.2778
  848MPD2    C412511   4.627   0.777  16.065 -0.0996 -0.5390 -0.1143
  848MPD2    C512512   4.539   0.728  16.162 -1.0448  0.0954 -0.1673
  848MPD2     H12513   0.172   0.663  16.211  0.5668  2.3888  0.8943
  848MPD2    H112514   4.589   0.831  15.979 -0.3544  0.1154  0.4102
  848MPD2    H212515   4.505   0.638  16.351  0.3503 -0.2303 -0.3012
  848MPD2    H312516   4.434   0.729  16.137 -1.2600  1.2036  0.7440
  848MPD2     N12517   0.114   0.812  15.993 -1.1111 -0.0031 -0.3413
  848MPD2    H512518   0.074   0.856  15.911 -1.3210 -1.0439 -0.8111
  848MPD2    N112519   0.023   0.558  16.402  0.4078  0.8007 -0.1022
  848MPD2    H712520   0.124   0.549  16.399 -0.1550 -4.3911 -2.8065
  849MPD2     C12521   4.031   0.602  13.938 -0.0502 -0.3144 -0.8983
  849MPD2    C112522   4.107   0.713  13.930 -0.0145 -0.8526  0.4526
  849MPD2    C212523   4.199   0.743  14.030  0.4679 -0.5035  0.0190
  849MPD2    C312524   4.216   0.649  14.130 -0.3174 -0.1256  0.1228
  849MPD2    C412525   4.146   0.531  14.121  0.0710 -0.9077 -0.4655
  849MPD2    C512526   4.046   0.515  14.036 -0.4919 -0.4613 -0.1599
  849MPD2     H12527   4.259   0.833  14.019 -1.5845  0.9497  0.6081
  849MPD2    H112528   4.166   0.448  14.188 -0.8861 -0.8509 -0.1092
  849MPD2    H212529   3.951   0.583  13.867 -0.5111 -3.0402  0.3694
  849MPD2    H312530   3.983   0.427  14.040 -1.0435 -0.1741 -2.5200
  849MPD2     N12531   4.316   0.666  14.226 -0.3483  0.4400 -0.0252
  849MPD2    H512532   4.332   0.587  14.287  2.5423 -0.4387 -1.9249
  849MPD2    N112533   4.088   0.794  13.812 -0.4395  0.6221  0.0585
  849MPD2    H712534   4.044   0.751  13.731 -0.5049  1.3587 -0.2904
  850MPD2     C12535   2.554   3.471  14.905 -0.2183 -0.1504 -0.6902
  850MPD2    C112536   2.625   3.399  15.000 -0.2444 -0.4894  0.0684
  850MPD2    C212537   2.755   3.434  15.025 -0.5770  0.3063  0.1357
  850MPD2    C312538   2.806   3.548  14.968  0.0879 -0.2307  0.4281
  850MPD2    C412539   2.739   3.623  14.874  0.2591  0.4254  0.3781
  850MPD2    C512540   2.610   3.579  14.841 -0.1600  0.2825 -0.6804
  850MPD2     H12541   2.808   3.378  15.102 -0.8286 -0.5249 -0.2991
  850MPD2    H112542   2.778   3.713  14.828  1.7182  0.6575  2.0611
  850MPD2    H212543   2.451   3.452  14.877 -0.4048 -1.9187  1.2390
  850MPD2    H312544   2.547   3.639  14.775 -0.4352  1.1327  0.3558
  850MPD2     N12545   2.937   3.595  14.989 -0.3283 -0.3942 -0.2536
  850MPD2    H512546   2.971   3.661  14.920  1.9148 -2.2695 -0.9365
  850MPD2    N112547   2.551   3.314  15.083 -0.0314  0.6403  0.5079
  850MPD2    H712548   2.451   3.322  15.071 -0.0486  1.3981  1.1506
  851MPD2     C12549   2.870   2.702  15.462  0.8574 -0.1232  0.7049
  851MPD2    C112550   2.734   2.720  15.481  0.7347  0.5124  0.5342
  851MPD2    C212551   2.648   2.619  15.488 -0.0175 -0.0860 -0.2186
  851MPD2    C312552   2.702   2.496  15.482 -0.1517  0.0370 -0.1463
  851MPD2    C412553   2.838   2.472  15.464 -0.1778  0.0594 -1.0013
  851MPD2    C512554   2.923   2.578  15.468 -0.3106  0.0939 -0.9652
  851MPD2     H12555   2.540   2.622  15.492 -0.0537  0.3754 -1.6920
  851MPD2    H112556   2.873   2.369  15.458  1.7695  0.6136  0.9247
  851MPD2    H212557   2.935   2.788  15.455  1.4901 -0.5922  0.7821
  851MPD2    H312558   3.031   2.571  15.464 -0.3449 -2.8127  2.6125
  851MPD2     N12559   2.614   2.387  15.486 -0.3884  0.0735 -1.1094
  851MPD2    H512560   2.517   2.412  15.471 -1.0309 -1.5745  0.3829
  851MPD2    N112561   2.691   2.855  15.472 -0.5933  0.7035  0.0337
  851MPD2    H712562   2.758   2.926  15.444 -1.3731  1.4747  0.1548
  852MPD2     C12563   1.426   1.916  10.117  0.2508  0.0853  0.5090
  852MPD2    C112564   1.522   1.877  10.203  0.4681  0.4111 -0.0409
  852MPD2    C212565   1.652   1.927  10.202 -0.6281 -0.9237 -0.0863
  852MPD2    C312566   1.690   2.002  10.097 -0.1189 -0.0276 -0.6904
  852MPD2    C412567   1.597   2.037   9.998  0.8379 -0.0211  0.3115
  852MPD2    C512568   1.467   2.000  10.016 -0.2588  0.2110 -1.0475
  852MPD2     H12569   1.726   1.901  10.276 -0.5253 -0.3221  0.0243
  852MPD2    H112570   1.625   2.097   9.913 -3.1323  1.8574  0.3509
  852MPD2    H212571   1.321   1.891  10.125  0.5639 -0.8919  1.4652
  852MPD2    H312572   1.398   2.025   9.936  2.0257  1.0350 -2.7513
  852MPD2     N12573   1.831   2.032  10.086 -0.2864  0.6075  0.8463
  852MPD2    H512574   1.888   2.000  10.164  2.4594 -1.5871 -2.0408
  852MPD2    N112575   1.498   1.800  10.318 -0.3544 -0.5525 -0.0718
  852MPD2    H712576   1.574   1.793  10.384 -1.7428  1.2265  1.7286
  853MPD2     C12577   3.671   1.188  12.193 -0.4007 -0.2219  0.1703
  853MPD2    C112578   3.550   1.134  12.181  0.5848  0.0897  0.4965
  853MPD2    C212579   3.518   1.068  12.070 -0.2643  0.5022  0.5480
  853MPD2    C312580   3.601   1.064  11.955 -0.1176 -0.2130  0.0367
  853MPD2    C412581   3.720   1.140  11.970  0.1438 -0.1290 -0.2084
  853MPD2    C512582   3.751   1.198  12.087  1.4889 -0.0695  0.2752
  853MPD2     H12583   3.419   1.027  12.051  0.2325  0.0480 -1.0639
  853MPD2    H112584   3.792   1.144  11.889 -0.3532  0.6121 -0.6166
  853MPD2    H212585   3.699   1.236  12.286  0.8468  0.1391 -0.3956
  853MPD2    H312586   3.831   1.271  12.089 -0.4772  2.0810  0.7097
  853MPD2     N12587   3.563   1.029  11.828 -0.2449 -0.5106  0.3074
  853MPD2    H512588   3.633   1.044  11.756 -1.1085  1.0469 -0.2030
  853MPD2    N112589   3.469   1.137  12.298  0.4602 -0.6454 -0.0186
  853MPD2    H712590   3.507   1.168  12.387  0.2924  1.8989 -0.8323
  854MPD2     C12591   0.496   1.634  12.670  0.1011 -0.5211  0.6028
  854MPD2    C112592   0.607   1.712  12.645 -0.6739  0.2097 -0.7114
  854MPD2    C212593   0.723   1.696  12.721 -0.4770  0.3029 -0.0386
  854MPD2    C312594   0.724   1.592  12.811  0.8086  1.2037  0.0249
  854MPD2    C412595   0.612   1.511  12.831  0.1653  0.6570 -0.0652
  854MPD2    C512596   0.505   1.526  12.756 -0.1875 -0.6188  0.4258
  854MPD2     H12597   0.815   1.750  12.703 -0.4015  0.2142  0.0805
  854MPD2    H112598   0.604   1.438  12.911  0.7509  0.6050 -0.0541
  854MPD2    H212599   0.404   1.671  12.626 -0.5131 -0.8013  1.6560
  854MPD2    H312600   0.410   1.486  12.789  0.0088 -3.8585 -2.9162
  854MPD2     N12601   0.847   1.559  12.882 -0.3353  0.4879  0.8147
  854MPD2    H512602   0.844   1.476  12.940 -0.0541 -0.7883 -1.0006
  854MPD2    N112603   0.588   1.829  12.563  0.7823 -0.3435  0.1280
  854MPD2    H712604   0.492   1.846  12.537  0.8229  1.4314  1.1670
  855MPD2     C12605   1.411   1.387  13.745 -0.0076 -0.0460  0.3333
  855MPD2    C112606   1.345   1.302  13.662  0.1166 -0.8339  0.4443
  855MPD2    C212607   1.271   1.350  13.555 -0.0435 -0.1308  0.5641
  855MPD2    C312608   1.287   1.481  13.516 -0.2762 -0.3286  0.4436
  855MPD2    C412609   1.356   1.571  13.594 -0.3467 -0.5564 -0.1842
  855MPD2    C512610   1.409   1.524  13.709 -0.2648 -0.0196  0.4733
  855MPD2     H12611   1.214   1.286  13.490  0.1179  0.7402 -0.4348
  855MPD2    H112612   1.366   1.673  13.557  1.4856 -0.6239  0.1190
  855MPD2    H212613   1.444   1.354  13.843 -2.6789  0.9108  1.5459
  855MPD2    H312614   1.470   1.594  13.765  1.0528 -1.3473  0.6934
  855MPD2     N12615   1.247   1.521  13.389 -0.1501  0.1190  0.5331
  855MPD2    H512616   1.264   1.616  13.356  0.2984  0.0294  0.5062
  855MPD2    N112617   1.345   1.167  13.699  0.6059  0.3256  0.4059
  855MPD2    H712618   1.403   1.143  13.779 -0.9981 -0.3003  1.3972
  856MPD2     C12619   2.736   2.531  14.159 -0.6032 -0.1529 -0.8997
  856MPD2    C112620   2.788   2.649  14.116 -0.1373  0.1040 -0.0945
  856MPD2    C212621   2.709   2.746  14.073  0.3907  0.1309 -0.6885
  856MPD2    C312622   2.569   2.728  14.074  0.1740  0.0471 -0.4713
  856MPD2    C412623   2.515   2.611  14.116 -0.1459 -0.1461  0.2756
  856MPD2    C512624   2.598   2.517  14.161 -0.2607  0.2973  0.1439
  856MPD2     H12625   2.753   2.842  14.048 -0.0234  0.3988 -0.3778
  856MPD2    H112626   2.408   2.594  14.113 -0.1072 -0.6126  1.3940
  856MPD2    H212627   2.798   2.445  14.182  1.0500  1.0056 -1.0714
  856MPD2    H312628   2.563   2.420  14.192 -0.4745  0.2784 -0.1530
  856MPD2     N12629   2.481   2.834  14.035 -0.5415 -0.2300  0.9226
  856MPD2    H512630   2.382   2.810  14.039 -0.9590  1.4111  0.7103
  856MPD2    N112631   2.930   2.671  14.119  0.0250  0.1397  0.5568
  856MPD2    H712632   2.949   2.769  14.101 -0.9903  0.0623 -0.9274
  857MPD2     C12633   4.562   4.500  12.482 -0.4438  0.7276  0.0193
  857MPD2    C112634   4.695   4.504  12.499 -0.0797 -0.3195 -0.9426
  857MPD2    C212635   0.008   4.554  12.618  0.1959 -0.0080 -0.4089
  857MPD2    C312636   4.669   4.625  12.704  0.0018 -0.1172  0.0606
  857MPD2    C412637   4.536   4.638  12.664 -0.8369 -0.0899  0.5628
  857MPD2    C512638   4.481   4.563  12.565  0.1454 -0.4216  0.0715
  857MPD2     H12639   0.111   4.532  12.640  0.0864 -0.6109 -0.4886
  857MPD2    H112640   4.467   4.703  12.716 -0.9534 -0.9837  1.5251
  857MPD2    H212641   4.520   4.450  12.395  0.2858  1.5402 -0.8012
  857MPD2    H312642   4.378   4.558  12.534  0.6868 -0.7078 -1.6899
  857MPD2     N12643   4.721   4.686  12.825  0.8606  0.3036  0.3003
  857MPD2    H512644   4.660   0.009  12.877  0.5385  0.1337  0.1290
  857MPD2    N112645   0.029   4.430  12.412 -0.4768  0.0895  0.3122
  857MPD2    H712646   4.718   4.383  12.337 -1.2072  0.7435  0.3871
  858MPD2     C12647   0.495   2.779  16.787 -0.1545 -0.1336  0.0026
  858MPD2    C112648   0.614   2.839  16.771 -0.4229 -0.3960  0.5981
  858MPD2    C212649   0.656   2.945  16.844  0.1523 -0.4545 -0.3388
  858MPD2    C312650   0.579   2.988  16.949 -0.3253 -0.3672  0.9660
  858MPD2    C412651   0.452   2.938  16.964  0.6592  0.4435 -0.1537
  858MPD2    C512652   0.413   2.836  16.879 -0.8655 -0.3584 -0.5535
  858MPD2     H12653   0.754   2.989  16.833 -1.3368  2.4931 -1.7655
  858MPD2    H112654   0.382   2.960  17.044  0.9011  3.5951 -0.8237
  858MPD2    H212655   0.465   2.698  16.722 -0.2935  0.2603 -0.4187
  858MPD2    H312656   0.315   2.798  16.903 -0.6344 -1.6921 -1.7256
  858MPD2     N12657   0.625   3.067  17.053 -0.7775  0.3766  0.1008
  858MPD2    H512658   0.563   3.103  17.124 -1.0306 -0.7346  0.4345
  858MPD2    N112659   0.703   2.782  16.678  0.1113  0.9784 -0.4044
  858MPD2    H712660   0.675   2.692  16.638 -1.2767  0.6290  1.3606
  859MPD2     C12661   3.754   0.985  14.582 -0.4289 -0.2850  0.3110
  859MPD2    C112662   3.839   0.911  14.658  0.0420 -0.1822 -0.8575
  859MPD2    C212663   3.780   0.824  14.747 -1.3839  0.2457 -1.0731
  859MPD2    C312664   3.645   0.788  14.744 -0.2311  0.1643 -0.0263
  859MPD2    C412665   3.560   0.872  14.660  0.0218 -0.1068 -0.1505
  859MPD2    C512666   3.618   0.973  14.588 -0.1412 -0.1309  0.0622
  859MPD2     H12667   3.834   0.777  14.829 -1.0037  4.4266  1.0842
  859MPD2    H112668   3.453   0.851  14.656 -0.0474  0.7032 -2.4470
  859MPD2    H212669   3.805   1.061  14.524 -0.9327  0.9990  1.5588
  859MPD2    H312670   3.555   1.037  14.528  1.5414  0.9210 -0.5792
  859MPD2     N12671   3.574   0.694  14.822 -0.4482 -0.1054  0.1088
  859MPD2    H512672   3.480   0.672  14.791 -0.0663 -0.1376 -1.0060
  859MPD2    N112673   3.973   0.954  14.655  0.6955  0.4183  0.2919
  859MPD2    H712674   3.994   1.034  14.597  1.2548  1.1792  1.5397
  860MPD2     C12675   1.711   0.998  11.680 -0.1765  0.3145  0.1915
  860MPD2    C112676   1.757   1.063  11.796 -1.0875  0.1310  0.0274
  860MPD2    C212677   1.685   1.041  11.911  0.2902 -0.0523 -0.1356
  860MPD2    C312678   1.575   0.965  11.915 -0.1629 -0.2408 -0.5902
  860MPD2    C412679   1.531   0.900  11.801 -0.1735 -0.4825 -1.2326
  860MPD2    C512680   1.608   0.912  11.687  0.2239  0.0106 -0.1893
  860MPD2     H12681   1.724   1.094  11.997  1.2862  0.8825 -1.1659
  860MPD2    H112682   1.446   0.833  11.806  1.0349 -1.8644  0.9715
  860MPD2    H212683   1.766   1.012  11.587 -0.4112  2.6565  0.4225
  860MPD2    H312684   1.584   0.854  11.598  1.2987 -1.6734  0.6286
  860MPD2     N12685   1.507   0.962  12.038 -0.2374  0.5950  0.6100
  860MPD2    H512686   1.555   1.011  12.112 -0.6047  0.4345  0.9519
  860MPD2    N112687   1.868   1.148  11.798 -0.4249 -0.0015 -0.0904
  860MPD2    H712688   1.878   1.192  11.889  2.1550  1.0232 -0.8592
  861MPD2     C12689   0.863   4.657  11.233 -0.0183  0.3230  0.1361
  861MPD2    C112690   0.778   4.554  11.263 -1.1224 -0.1284 -1.0443
  861MPD2    C212691   0.686   4.519  11.170 -0.1691 -0.0183 -0.5124
  861MPD2    C312692   0.683   4.591  11.051  0.0559  1.2034 -0.2857
  861MPD2    C412693   0.773   4.685  11.015  0.1883  0.0990  0.5173
  861MPD2    C512694   0.863   4.718  11.109 -0.4048  0.2548  0.1878
  861MPD2     H12695   0.613   4.448  11.208  0.6148 -2.3620 -3.3643
  861MPD2    H112696   0.757   4.736  10.921  1.5022 -2.8901 -1.3398
  861MPD2    H212697   0.924   4.704  11.310 -2.2581  0.7709  1.6574
  861MPD2    H312698   0.929   0.063  11.097  1.1965 -1.3797 -2.4383
  861MPD2     N12699   0.593   4.567  10.952 -0.1799  0.7723  0.1010
  861MPD2    H512700   0.591   4.628  10.871 -1.7566  1.8713  0.9833
  861MPD2    N112701   0.765   4.503  11.401  0.2818  0.0726  0.0601
  861MPD2    H712702   0.678   4.452  11.412  1.6226 -2.2442 -0.1066
  862MPD2     C12703   4.729   3.971  10.747  0.0319  0.5171  0.7750
  862MPD2    C112704   0.092   4.003  10.838  0.2873 -0.4264 -0.2811
  862MPD2    C212705   0.133   3.907  10.927  0.4566 -0.1960  0.1567
  862MPD2    C312706   0.063   3.784  10.936  0.0850 -0.1748 -0.3534
  862MPD2    C412707   4.700   3.759  10.848  0.1025  0.5222 -0.3718
  862MPD2    C512708   4.667   3.847  10.747  0.1867 -0.1821 -0.3642
  862MPD2     H12709   0.210   3.934  10.998 -1.9535  2.0870  1.9380
  862MPD2    H112710   4.643   3.667  10.858 -0.5948  0.9872 -0.0265
  862MPD2    H212711   4.701   4.040  10.668 -1.0945 -1.9053 -0.9406
  862MPD2    H312712   4.592   3.814  10.676 -0.1206 -0.2249 -0.0175
  862MPD2     N12713   0.091   3.689  11.037 -0.0148 -0.0283  0.3208
  862MPD2    H512714   0.034   3.605  11.031  0.2034 -0.1292 -0.4570
  862MPD2    N112715   0.153   4.134  10.846 -0.6272  0.0696  0.8766
  862MPD2    H712716   0.213   4.150  10.927 -0.0284 -3.0300  1.0473
  863MPD2     C12717   4.052   1.576  16.323 -0.0398 -0.5131 -0.4343
  863MPD2    C112718   4.028   1.655  16.432 -0.1796 -0.7664 -1.0201
  863MPD2    C212719   4.100   1.635  16.545  0.2633 -0.4675  0.0348
  863MPD2    C312720   4.187   1.527  16.557 -0.6613  0.1543  0.2600
  863MPD2    C412721   4.193   1.432  16.460  0.1193  0.5278  0.2316
  863MPD2    C512722   4.120   1.453  16.345  0.0156  0.0700 -0.6013
  863MPD2     H12723   4.084   1.714  16.618 -1.2588  0.8445 -1.6981
  863MPD2    H112724   4.243   1.336  16.472  1.9389  1.3559 -0.6705
  863MPD2    H212725   3.997   1.592  16.231 -0.4792  0.8586  0.0866
  863MPD2    H312726   4.134   1.385  16.262 -1.8291 -1.5110  0.4057
  863MPD2     N12727   4.269   1.503  16.677  0.1966  0.3654 -0.5453
  863MPD2    H512728   4.327   1.420  16.672 -0.4879 -0.1930  0.6961
  863MPD2    N112729   3.943   1.761  16.404 -0.2209  0.1617 -0.1987
  863MPD2    H712730   3.902   1.760  16.311 -1.0918 -3.0579  0.2114
  864MPD2     C12731   4.562   3.214  17.271  0.0696  0.7737 -0.2872
  864MPD2    C112732   4.673   3.155  17.210  0.1288 -0.6169 -0.1762
  864MPD2    C212733   0.011   3.232  17.128 -0.3033 -0.3451  0.1228
  864MPD2    C312734   4.723   3.366  17.111 -0.2049 -0.3237  0.2635
  864MPD2    C412735   4.615   3.428  17.178  0.8720 -0.3802  0.1481
  864MPD2    C512736   4.532   3.348  17.254  0.3396  0.6657 -0.1217
  864MPD2     H12737   0.079   3.176  17.065 -1.2008 -1.2363 -0.0384
  864MPD2    H112738   4.579   3.528  17.160 -2.0660 -1.4441 -0.0022
  864MPD2    H212739   4.493   3.152  17.326 -0.1557  1.1181 -0.1887
  864MPD2    H312740   4.433   3.383  17.282 -0.4871 -0.6556 -1.3943
  864MPD2     N12741   0.065   3.443  17.028 -0.2731 -0.1453 -0.0407
  864MPD2    H512742   0.027   3.530  16.993 -0.9666 -0.0585  0.9116
  864MPD2    N112743   4.685   3.016  17.218 -0.2699 -0.3688 -0.4110
  864MPD2    H712744   4.619   2.965  17.276  0.4496  0.8768  1.4988
  865MPD2     C12745   0.200   3.608  16.081 -0.4528  0.6647  0.4352
  865MPD2    C112746   0.151   3.509  16.173 -0.0733  0.0176 -0.1780
  865MPD2    C212747   0.131   3.540  16.302 -0.4322 -0.2063  0.3691
  865MPD2    C312748   0.175   3.664  16.351  0.3092  0.1471 -0.0420
  865MPD2    C412749   0.233   3.757  16.261 -0.2034 -1.0580  0.2822
  865MPD2    C512750   0.237   3.734  16.127  0.2198  0.0858 -0.1735
  865MPD2     H12751   0.088   3.471  16.373  2.0475 -2.0662  0.0607
  865MPD2    H112752   0.279   3.846  16.302 -0.3676 -1.2964  0.9898
  865MPD2    H212753   0.218   3.582  15.977 -2.2514 -1.7020  0.7248
  865MPD2    H312754   0.280   3.808  16.061  0.3190  1.4390  1.4062
  865MPD2     N12755   0.160   3.705  16.484 -0.2012  0.0012  0.1721
  865MPD2    H512756   0.202   3.792  16.514 -1.6439  0.6236  0.3684
  865MPD2    N112757   0.140   3.377  16.128 -0.2031 -0.8353  0.1242
  865MPD2    H712758   0.163   3.359  16.031 -0.8445 -0.9588 -0.0044
  866MPD2     C12759   0.972   4.700  11.793  0.5013 -0.0638 -0.2835
  866MPD2    C112760   1.001   0.029  11.679 -0.3293 -0.4516  0.4718
  866MPD2    C212761   0.902   0.110  11.625  0.1827  0.1963  1.0818
  866MPD2    C312762   0.776   0.116  11.680 -0.7740 -0.1295  0.9787
  866MPD2    C412763   0.749   0.052  11.796  0.3586  0.7383 -0.2865
  866MPD2    C512764   0.850   4.721  11.851 -0.3797  0.1605 -0.0128
  866MPD2     H12765   0.927   0.157  11.530  0.3493  1.1603  1.6038
  866MPD2    H112766   0.646   0.041  11.830  0.5811 -1.5659 -0.3555
  866MPD2    H212767   1.054   4.647  11.839 -1.1868 -0.8466  1.7993
  866MPD2    H312768   0.834   4.667  11.943 -1.0699 -1.0889 -0.8673
  866MPD2     N12769   0.657   0.164  11.613  0.4737 -0.8047 -0.2810
  866MPD2    H512770   0.571   0.169  11.666 -0.4353 -0.6052 -1.7927
  866MPD2    N112771   1.132   4.732  11.627 -0.0329  0.2035  0.1928
  866MPD2    H712772   1.188   4.664  11.677 -0.0899  0.5821  0.7859
  867MPD2     C12773   3.552   2.761  16.360 -0.6534  0.0752  0.2374
  867MPD2    C112774   3.643   2.725  16.456  0.2046  0.2387 -0.6738
  867MPD2    C212775   3.630   2.795  16.579  0.3163 -0.6067  0.3057
  867MPD2    C312776   3.512   2.869  16.612  0.0712 -0.4024 -0.4697
  867MPD2    C412777   3.426   2.902  16.510 -0.4988 -0.6194  0.4505
  867MPD2    C512778   3.444   2.846  16.382 -0.1181 -0.3428  0.7694
  867MPD2     H12779   3.699   2.775  16.660 -0.2643  1.6416  1.3412
  867MPD2    H112780   3.343   2.970  16.523 -1.4249 -1.7653  0.6131
  867MPD2    H212781   3.559   2.714  16.262 -2.3925  1.3631 -0.5093
  867MPD2    H312782   3.381   2.860  16.295  0.3849  0.3374  0.5189
  867MPD2     N12783   3.480   2.924  16.741  0.1166  0.1282 -0.0332
  867MPD2    H512784   3.392   2.975  16.748 -0.5192 -1.3194  2.4490
  867MPD2    N112785   3.749   2.632  16.423 -0.9278 -0.0738  0.4938
  867MPD2    H712786   3.742   2.591  16.330 -0.3799 -0.5849  0.6786
  868MPD2     C12787   0.283   2.371  12.902  0.0879 -0.0180 -0.1009
  868MPD2    C112788   0.325   2.362  13.027  0.4735  0.1702 -0.0374
  868MPD2    C212789   0.237   2.379  13.131  0.6382 -0.3593  0.4150
  868MPD2    C312790   0.108   2.415  13.104  0.5487 -0.6201 -0.4038
  868MPD2    C412791   0.062   2.417  12.973 -0.0558  0.0533 -0.2803
  868MPD2    C512792   0.151   2.396  12.869 -0.5500 -0.4606  0.4510
  868MPD2     H12793   0.269   2.375  13.234  1.7763  1.4758  0.1347
  868MPD2    H112794   4.700   2.448  12.949 -0.9420  0.1327  3.6295
  868MPD2    H212795   0.357   2.364  12.822 -0.1438 -0.9976 -0.2312
  868MPD2    H312796   0.131   2.410  12.763  1.4124  1.3093  0.3275
  868MPD2     N12797   0.031   2.460  13.217  0.4339 -0.0045  0.4289
  868MPD2    H512798   0.065   2.440  13.311  2.3331  0.5247 -0.1479
  868MPD2    N112799   0.465   2.358  13.040  0.5164  0.2886 -0.2766
  868MPD2    H712800   0.518   2.360  12.954  2.2535 -1.8771  0.7673
  869MPD2     C12801   2.144   4.513   1.395 -0.4875 -1.0021 -0.0623
  869MPD2    C112802   2.025   4.474   1.336 -0.2789 -0.8310  0.0961
  869MPD2    C212803   1.954   4.574   1.267  0.4619  0.1551 -0.2707
  869MPD2    C312804   1.994   4.707   1.274  0.1154 -0.4417 -0.8018
  869MPD2    C412805   2.120   4.733   1.319 -0.2973  0.2375 -0.5377
  869MPD2    C512806   2.195   4.638   1.381 -0.9639  0.5737  0.9750
  869MPD2     H12807   1.865   4.542   1.215 -0.0060  2.3808 -0.8234
  869MPD2    H112808   2.162   0.094   1.318 -2.5646  1.2038  1.1600
  869MPD2    H212809   2.200   4.440   1.452 -0.1724  0.8024  1.9495
  869MPD2    H312810   2.295   4.659   1.419 -1.2008  0.6252  1.5602
  869MPD2     N12811   1.917   0.070   1.217  0.5560  0.3962  0.2661
  869MPD2    H512812   1.960   0.161   1.208  1.5102 -0.0044  0.8272
  869MPD2    N112813   1.983   4.340   1.346 -0.2799  0.0120 -1.0782
  869MPD2    H712814   2.044   4.275   1.395  0.8573  1.8268 -0.1173
  870MPD2     C12815   1.297   4.451   0.784  0.6608 -0.2421 -0.2552
  870MPD2    C112816   1.213   4.355   0.735 -0.0389 -0.3208 -0.0802
  870MPD2    C212817   1.129   4.390   0.637 -0.5110  0.3076 -0.0443
  870MPD2    C312818   1.124   4.519   0.585  0.6291  0.2711  0.3341
  870MPD2    C412819   1.212   4.611   0.621  1.0506  0.8710  0.2230
  870MPD2    C512820   1.295   4.574   0.726  0.4733 -0.4400  0.4751
  870MPD2     H12821   1.051   4.325   0.599 -1.1206  1.5263 -0.8648
  870MPD2    H112822   1.213   4.714   0.586  2.7653 -0.1185 -2.5968
  870MPD2    H212823   1.379   4.441   0.854 -0.6648  2.2154  1.6449
  870MPD2    H312824   1.383   4.636   0.741 -0.5043  1.4815 -1.7290
  870MPD2     N12825   1.028   4.541   0.490 -0.5441  0.5793  0.4325
  870MPD2    H512826   0.970   4.460   0.471 -0.3874  0.4004  0.7065
  870MPD2    N112827   1.223   4.219   0.778  0.4120 -0.5530 -0.8136
  870MPD2    H712828   1.310   4.193   0.824  0.7459  1.9804  0.0157
  871MPD2     C12829   2.537   3.651  17.027  0.0599 -1.2459  0.0576
  871MPD2    C112830   2.466   3.686  16.909 -0.1505 -0.6555  0.3629
  871MPD2    C212831   2.520   3.641  16.790 -0.0197 -0.4273 -0.7818
  871MPD2    C312832   2.634   3.566  16.781  0.0230  0.2377  0.2804
  871MPD2    C412833   2.703   3.535  16.895  0.5662  0.1026 -0.9211
  871MPD2    C512834   2.657   3.584  17.019 -0.1904  0.8219 -0.8133
  871MPD2     H12835   2.473   3.671  16.696  0.3213 -0.5934 -1.0046
  871MPD2    H112836   2.796   3.480  16.897 -0.1550 -1.0675  0.8277
  871MPD2    H212837   2.490   3.676  17.121 -1.4102 -0.1165 -0.9666
  871MPD2    H312838   2.704   3.545  17.108 -0.9051 -3.5215 -2.3301
  871MPD2     N12839   2.682   3.517  16.656 -0.0029  0.0191  0.3992
  871MPD2    H512840   2.634   3.551  16.573  0.3559  0.6107  0.4348
  871MPD2    N112841   2.351   3.764  16.921  0.4049 -0.5218 -0.2721
  871MPD2    H712842   2.302   3.741  17.007  1.3914 -1.9772 -0.1104
  872MPD2     C12843   3.117   1.477  14.044  0.3409  0.4132  0.0647
  872MPD2    C112844   3.090   1.615  14.034 -0.0669 -0.0994  0.0788
  872MPD2    C212845   2.959   1.651  14.056 -0.0657  0.1159 -0.4259
  872MPD2    C312846   2.869   1.555  14.087  0.2142 -0.1873 -0.4236
  872MPD2    C412847   2.904   1.419  14.102 -0.4550  0.5129  0.4270
  872MPD2    C512848   3.027   1.380  14.069 -0.2442  0.9770  0.2906
  872MPD2     H12849   2.942   1.757  14.046  0.9018  0.3237  0.0714
  872MPD2    H112850   2.830   1.345  14.131 -2.0104  1.8942  0.0107
  872MPD2    H212851   3.216   1.441  14.023  0.1351  0.5039 -1.0627
  872MPD2    H312852   3.062   1.277  14.071 -0.5006  0.8693 -1.0883
  872MPD2     N12853   2.735   1.584  14.131 -0.5945 -0.5378 -0.0226
  872MPD2    H512854   2.677   1.503  14.151 -2.0727  0.4323 -0.3275
  872MPD2    N112855   3.184   1.709  13.995 -0.0149  0.1910  0.1295
  872MPD2    H712856   3.155   1.801  13.964 -0.6854  0.5250  1.8043
  873MPD2     C12857   4.513   0.368   0.580  0.3758  0.1690 -0.3829
  873MPD2    C112858   4.523   0.367   0.719  0.1314 -0.2203  0.8689
  873MPD2    C212859   4.557   0.244   0.773 -0.0002 -0.0955 -0.0423
  873MPD2    C312860   4.557   0.127   0.697 -0.8475  0.0150 -0.0222
  873MPD2    C412861   4.551   0.130   0.558 -0.0087  0.0160 -0.1277
  873MPD2    C512862   4.518   0.252   0.508  0.5020 -0.1754 -0.2814
  873MPD2     H12863   4.566   0.236   0.881 -0.0787  1.2726  0.0680
  873MPD2    H112864   4.553   0.047   0.489  2.1338  0.7135 -0.9243
  873MPD2    H212865   4.483   0.454   0.520 -0.1282  0.9980  1.0599
  873MPD2    H312866   4.489   0.254   0.403 -1.2484  1.6883  0.2177
  873MPD2     N12867   4.561   4.737   0.753  0.2297  0.5178  0.0358
  873MPD2    H512868   4.541   4.661   0.689 -1.2153 -1.7175  3.1620
  873MPD2    N112869   4.489   0.478   0.800 -0.3177  0.1201 -1.0705
  873MPD2    H712870   4.486   0.464   0.901  1.6891 -0.1382 -1.0480
  874MPD2     C12871   4.461   1.167  15.398  0.5980  0.6275  0.1935
  874MPD2    C112872   4.473   1.043  15.458 -0.3247 -0.1913  0.3660
  874MPD2    C212873   4.592   0.991  15.502  0.7618  1.2625  0.1309
  874MPD2    C312874   4.703   1.073  15.495  0.1124  0.8000  0.1871
  874MPD2    C412875   4.697   1.204  15.444  0.0413  0.6704  0.5769
  874MPD2    C512876   4.568   1.248  15.385 -0.0155 -0.4814 -0.2096
  874MPD2     H12877   4.589   0.906  15.569  1.0237  2.0683  1.1579
  874MPD2    H112878   0.042   1.272  15.444 -0.2484  1.0259 -0.3022
  874MPD2    H212879   4.365   1.194  15.354  0.2661 -2.1518 -0.7867
  874MPD2    H312880   4.566   1.345  15.337 -1.7005 -0.0733  0.6754
  874MPD2     N12881   0.072   1.018  15.570  0.1874 -0.3665 -0.2598
  874MPD2    H512882   0.068   0.921  15.600 -2.1163  0.1263  1.0084
  874MPD2    N112883   4.357   0.972  15.469 -0.6466 -0.3650 -0.9762
  874MPD2    H712884   4.269   1.020  15.451 -1.1409 -1.1588 -0.6906
  875MPD2     C12885   0.445   4.284  14.626  0.6863 -0.8392  0.0509
  875MPD2    C112886   0.546   4.373  14.591  0.0795  1.1592 -0.1793
  875MPD2    C212887   0.627   4.429  14.690 -0.0162 -0.3669 -0.2114
  875MPD2    C312888   0.614   4.397  14.820  0.1325 -0.3458 -0.9710
  875MPD2    C412889   0.515   4.309  14.852  0.2441 -0.9194  0.2385
  875MPD2    C512890   0.441   4.237  14.760 -0.0636  0.6084 -0.3391
  875MPD2     H12891   0.702   4.504  14.667  1.7677 -1.8797  0.7397
  875MPD2    H112892   0.506   4.278  14.955 -2.2685  0.3130  0.3676
  875MPD2    H212893   0.375   4.245  14.554  0.9677 -2.5929  0.7253
  875MPD2    H312894   0.364   4.171  14.797 -0.1690  1.7312  1.4788
  875MPD2     N12895   0.690   4.443  14.931 -0.3709 -0.0776 -1.0949
  875MPD2    H512896   0.667   4.401  15.021  3.4098  0.6688  0.2474
  875MPD2    N112897   0.555   4.413  14.451  0.4541 -0.1542  0.4240
  875MPD2    H712898   0.492   4.371  14.383  0.4309 -2.9792  2.2278
  876MPD2     C12899   3.934   0.446  15.284  0.1278  0.4311 -0.4066
  876MPD2    C112900   4.072   0.438  15.309  0.1849 -0.1744  0.1282
  876MPD2    C212901   4.108   0.354  15.410 -0.5102 -0.2947 -0.4655
  876MPD2    C312902   4.023   0.263  15.471 -0.5010  0.2804  0.5244
  876MPD2    C412903   3.890   0.275  15.446 -0.0728  0.6541  0.7435
  876MPD2    C512904   3.847   0.365  15.355  0.1014  0.2292  0.5125
  876MPD2     H12905   4.210   0.357  15.448 -0.2282 -0.8013 -1.1984
  876MPD2    H112906   3.825   0.210  15.504  0.2228 -2.0024 -1.8688
  876MPD2    H212907   3.907   0.525  15.215  1.7385  0.8944 -0.5049
  876MPD2    H312908   3.740   0.371  15.336  0.2951  1.8363 -0.0063
  876MPD2     N12909   4.077   0.178  15.572  0.1189 -0.0073 -0.1208
  876MPD2    H512910   4.177   0.187  15.585  0.3825  0.5260 -2.3972
  876MPD2    N112911   4.160   0.524  15.238 -0.5620  1.2698  0.0855
  876MPD2    H712912   4.113   0.579  15.166  0.3114  1.8340 -0.0635
  877MPD2     C12913   4.212   1.259  14.993 -0.2237 -0.1563  0.1987
  877MPD2    C112914   4.340   1.214  15.022 -0.1921 -0.2024  0.7108
  877MPD2    C212915   4.444   1.300  15.007  0.0233  0.2988  0.2875
  877MPD2    C312916   4.421   1.423  14.947  0.6881 -0.4295  0.3881
  877MPD2    C412917   4.293   1.462  14.912  0.5207  0.5150  0.7356
  877MPD2    C512918   4.187   1.382  14.937 -0.1370 -0.8115 -0.4157
  877MPD2     H12919   4.543   1.270  15.040  0.1388 -1.6438 -1.8572
  877MPD2    H112920   4.270   1.564  14.884 -2.2866 -0.5154 -0.6659
  877MPD2    H212921   4.128   1.191  15.006 -0.4733  0.0072 -0.5796
  877MPD2    H312922   4.086   1.421  14.929  0.2673  0.0062 -1.5955
  877MPD2     N12923   4.512   1.515  14.914  0.4345 -0.7855 -0.1775
  877MPD2    H512924   4.484   1.576  14.838 -1.2425 -0.4909  0.6585
  877MPD2    N112925   4.374   1.086  15.059 -0.2911 -0.3551 -0.8062
  877MPD2    H712926   4.469   1.062  15.086 -0.4178  0.2691  0.2324
  878MPD2     C12927   4.168   0.611  12.871 -0.0378  0.0392  0.8667
  878MPD2    C112928   4.209   0.740  12.872 -0.2224 -0.3732  0.8664
  878MPD2    C212929   4.224   0.809  12.997  0.2013  0.4088 -0.1135
  878MPD2    C312930   4.187   0.740  13.109  0.0628 -0.8436 -0.4159
  878MPD2    C412931   4.162   0.602  13.110 -0.2261 -0.1492 -0.3133
  878MPD2    C512932   4.147   0.536  12.989  0.2598 -0.3769 -0.3880
  878MPD2     H12933   4.270   0.907  13.001 -0.4867  0.7464 -0.3531
  878MPD2    H112934   4.138   0.547  13.201  1.1853 -1.3019 -0.6546
  878MPD2    H212935   4.153   0.562  12.776 -2.0177  0.9679  0.6946
  878MPD2    H312936   4.125   0.431  12.981  0.0432 -0.3240 -0.4805
  878MPD2     N12937   4.211   0.804  13.233 -0.4155 -0.1437  0.5373
  878MPD2    H512938   4.263   0.891  13.231  2.0952 -1.6542  0.2168
  878MPD2    N112939   4.234   0.800  12.748  0.3734 -0.9846 -0.2304
  878MPD2    H712940   4.201   0.743  12.671  1.5135 -1.3867 -0.4205
  879MPD2     C12941   4.718   2.082  16.807 -0.1903 -0.0525  0.0890
  879MPD2    C112942   0.008   1.962  16.862  0.3803  0.1270  0.0922
  879MPD2    C212943   4.713   1.848  16.792  0.0959  0.8601 -0.8123
  879MPD2    C312944   4.653   1.852  16.667 -0.0238 -0.2566  0.1995
  879MPD2    C412945   4.610   1.980  16.618  0.1653 -0.3849  0.6060
  879MPD2    C512946   4.649   2.089  16.686  0.6980 -0.5786  0.1371
  879MPD2     H12947   4.726   1.752  16.840  0.4773  2.6133  2.6095
  879MPD2    H112948   4.550   1.999  16.529  1.5999 -0.7224 -0.4395
  879MPD2    H212949   4.724   2.182  16.848 -0.6187  1.1388 -2.7746
  879MPD2    H312950   4.618   2.189  16.659 -0.4770 -1.4109 -1.6001
  879MPD2     N12951   4.618   1.736  16.594  0.3679  0.7557  0.2021
  879MPD2    H512952   4.554   1.743  16.516 -0.4489  0.0039  0.7998
  879MPD2    N112953   0.089   1.970  16.982  0.0986  0.4302  0.0450
  879MPD2    H712954   0.115   2.059  17.024 -0.1824 -0.0292  1.1924
  880MPD2     C12955   1.105   3.318  17.275  0.1138  0.1951 -0.3482
  880MPD2    C112956   1.031   3.407  17.352  0.7956  0.1337 -0.1874
  880MPD2    C212957   1.032   3.401  17.489 -0.1876 -0.3368 -0.5450
  880MPD2    C312958   1.107   3.297  17.550 -0.5863  0.7683  0.4016
  880MPD2    C412959   1.190   3.214  17.478  0.5487 -0.0313  0.4541
  880MPD2    C512960   1.167   3.215  17.342  0.3849  0.2599 -0.4154
  880MPD2     H12961   0.989   3.472  17.559  0.8918  2.0470 -2.2839
  880MPD2    H112962   1.263   3.149  17.526  0.1004  0.6396  2.0414
  880MPD2    H212963   1.093   3.316  17.167  0.5469  0.9170 -0.4083
  880MPD2    H312964   1.224   3.140  17.287 -2.0365 -2.5659  0.8916
  880MPD2     N12965   1.116   3.298  17.689  0.3102  0.1998 -0.5488
  880MPD2    H512966   1.067   3.371  17.741  0.2202 -0.7028  0.6248
  880MPD2    N112967   0.967   3.520  17.291 -0.9380  0.0491  0.7122
  880MPD2    H712968   0.966   3.523  17.189 -1.4289 -2.4085  0.6319
  881MPD2     C12969   1.340   4.372  17.099  0.8423 -0.7730 -0.1167
  881MPD2    C112970   1.291   4.297  16.989 -0.3299  0.4315  0.0638
  881MPD2    C212971   1.182   4.208  17.018 -0.7648  0.2933  0.3298
  881MPD2    C312972   1.144   4.193  17.154  0.1556 -0.0162 -0.7475
  881MPD2    C412973   1.179   4.286  17.248 -0.5122  0.0230  0.0904
  881MPD2    C512974   1.281   4.372  17.221  0.1459  0.1338  0.3887
  881MPD2     H12975   1.144   4.145  16.939  0.2157 -1.0773  0.9392
  881MPD2    H112976   1.131   4.274  17.344  0.4523 -0.4104  0.5173
  881MPD2    H212977   1.418   4.445  17.083  1.9073 -1.5752  1.3622
  881MPD2    H312978   1.314   4.445  17.294 -0.8926  0.5919  0.4009
  881MPD2     N12979   1.047   4.103  17.194  0.3517 -0.8044 -0.0819
  881MPD2    H512980   1.009   4.111  17.288  0.0445  1.5053 -0.3883
  881MPD2    N112981   1.306   4.359  16.859 -0.8477 -0.3425 -0.0072
  881MPD2    H712982   1.364   4.442  16.851  0.1442 -1.0113  0.2806
  882MPD2     C12983   4.705   1.456  14.224  0.2056  0.7941  0.1364
  882MPD2    C112984   4.635   1.532  14.317 -0.0110 -0.3004 -0.2249
  882MPD2    C212985   4.499   1.556  14.287  0.5467  0.2165  0.4742
  882MPD2    C312986   4.438   1.514  14.178 -0.3384  0.3145  0.1179
  882MPD2    C412987   4.516   1.444  14.085 -0.2647  0.1405  0.2572
  882MPD2    C512988   4.651   1.423  14.100 -0.0706  0.1369  0.6623
  882MPD2     H12989   4.439   1.593  14.369  0.2416  3.0722 -1.0641
  882MPD2    H112990   4.478   1.407  13.991  0.7686 -0.2210 -0.0096
  882MPD2    H212991   0.072   1.434  14.238  0.4255  1.0921 -1.0343
  882MPD2    H312992   4.707   1.368  14.024  1.4459  0.7816  1.2976
  882MPD2     N12993   4.299   1.541  14.152 -0.5610 -0.4177  0.1244
  882MPD2    H512994   4.247   1.488  14.082  0.0122  0.0558 -0.6555
  882MPD2    N112995   4.707   1.584  14.427  0.2708 -0.2002  0.1519
  882MPD2    H712996   0.063   1.554  14.444  0.1847 -0.9844 -0.7304
  883MPD2     C12997   1.831   0.924  15.970  0.2249  0.2406  0.5288
  883MPD2    C112998   1.835   1.058  15.954 -0.6688  0.8743 -0.1724
  883MPD2    C212999   1.905   1.134  16.048  0.0983 -0.3880 -0.4318
  883MPD2    C313000   1.960   1.077  16.159 -0.2471 -0.3570 -0.0260
  883MPD2    C413001   1.956   0.937  16.174  0.5010  0.1637 -0.1463
  883MPD2    C513002   1.886   0.867  16.081 -0.2821  0.1268 -0.2531
  883MPD2     H13003   1.928   1.240  16.042  1.4612 -0.6450  0.4720
  883MPD2    H113004   2.002   0.889  16.260 -0.6099 -0.8762 -0.1409
  883MPD2    H213005   1.794   0.847  15.902  0.0672  1.4416 -0.7330
  883MPD2    H313006   1.876   0.760  16.098 -1.9631  0.1354 -1.1631
  883MPD2     N13007   2.027   1.165  16.250 -0.3853 -0.0846  0.7391
  883MPD2    H513008   2.037   1.262  16.220 -0.8684  0.4887  2.4401
  883MPD2    N113009   1.769   1.120  15.852  0.0365  0.3378 -0.4704
  883MPD2    H713010   1.760   1.221  15.848 -0.3154  0.3657  1.0077
  884MPD2     C13011   3.659   2.115  15.081  0.1091 -0.5858 -0.0262
  884MPD2    C113012   3.626   2.228  15.002  0.3399 -0.4239  0.1349
  884MPD2    C213013   3.497   2.267  14.988  0.0185  0.5618 -0.0927
  884MPD2    C313014   3.400   2.214  15.069  0.0746  0.5679  0.3931
  884MPD2    C413015   3.431   2.100  15.139  0.8718 -0.1316 -0.5527
  884MPD2    C513016   3.558   2.052  15.154 -0.1293  0.4804 -0.3641
  884MPD2     H13017   3.478   2.346  14.917  0.5821  0.2900 -0.5444
  884MPD2    H113018   3.352   2.059  15.201  0.4350  1.7405  0.1134
  884MPD2    H213019   3.756   2.067  15.085  0.4971 -0.1909 -4.8581
  884MPD2    H313020   3.570   1.961  15.211  0.6487  1.0311  0.3416
  884MPD2     N13021   3.280   2.280  15.081 -0.1295  0.7261  0.3631
  884MPD2    H513022   3.274   2.374  15.043  1.0343  1.1238  1.1555
  884MPD2    N113023   3.728   2.295  14.927  0.3493 -0.0833  0.3510
  884MPD2    H713024   3.691   2.372  14.871 -1.1022 -0.4943  0.7621
  885MPD2     C13025   1.824   2.464   0.204  0.5746 -0.0127  0.0746
  885MPD2    C113026   1.907   2.363   0.155 -0.2922 -0.0192 -0.0273
  885MPD2    C213027   1.958   2.381   0.028  0.7202  0.1433 -0.4478
  885MPD2    C313028   1.916   2.486  17.699 -0.0948  0.3047 -0.2594
  885MPD2    C413029   1.854   2.593   0.001 -0.3423 -0.2823 -0.8129
  885MPD2    C513030   1.814   2.579   0.130  0.3741  0.1612  0.3469
  885MPD2     H13031   2.032   2.312  17.742 -1.4582 -0.1295 -4.0563
  885MPD2    H113032   1.824   2.683  17.702  1.0985  0.4292 -0.4303
  885MPD2    H213033   1.761   2.462   0.293 -2.2964 -3.5142 -2.0348
  885MPD2    H313034   1.760   2.657   0.181  0.9719 -1.1883  3.0443
  885MPD2     N13035   1.944   2.470  17.560  0.7299 -0.3463  0.1733
  885MPD2    H513036   2.001   2.392  17.529  0.3538  0.0243 -1.4320
  885MPD2    N113037   1.928   2.252   0.234 -0.0032 -0.0070  0.2119
  885MPD2    H713038   1.887   2.249   0.327  1.5001  1.4982  0.9363
  886MPD2     C13039   2.978   1.218  15.204 -0.1773  0.2152 -0.3486
  886MPD2    C113040   3.089   1.164  15.147 -0.0921 -0.3376 -0.6885
  886MPD2    C213041   3.174   1.229  15.061 -0.9720 -0.5258  0.3039
  886MPD2    C313042   3.136   1.355  15.012  0.2124 -0.0894 -0.3337
  886MPD2    C413043   3.027   1.409  15.069  0.0367 -0.1569 -0.2704
  886MPD2    C513044   2.942   1.348  15.159 -0.4824 -0.2082  0.5343
  886MPD2     H13045   3.250   1.162  15.023 -1.0700 -0.2208 -0.4182
  886MPD2    H113046   3.001   1.504  15.026 -1.7851  0.4647  2.2141
  886MPD2    H213047   2.924   1.178  15.289 -0.1219 -1.1464 -0.9519
  886MPD2    H313048   2.851   1.400  15.188 -0.2554  0.2408  0.4452
  886MPD2     N13049   3.209   1.430  14.911  0.0424  0.3614  0.6604
  886MPD2    H513050   3.185   1.527  14.897 -1.0658  0.0624  0.5133
  886MPD2    N113051   3.131   1.035  15.182 -0.1265  0.2406  0.2070
  886MPD2    H713052   3.220   1.017  15.137 -0.6731 -1.0451 -0.3530
  887MPD2     C13053   3.773   0.773  15.310 -0.4229 -0.2158 -0.9597
  887MPD2    C113054   3.684   0.874  15.339  0.9876 -0.0136  0.2437
  887MPD2    C213055   3.734   1.000  15.331  1.0669  0.2227  0.1785
  887MPD2    C313056   3.866   1.020  15.305  0.5854 -0.1527 -0.3037
  887MPD2    C413057   3.953   0.919  15.286  0.5695  0.5890 -0.3243
  887MPD2    C513058   3.904   0.787  15.285  0.0110 -0.8408 -0.1424
  887MPD2     H13059   3.667   1.081  15.355  1.0334  0.2963 -0.1677
  887MPD2    H113060   4.056   0.938  15.258  0.5558  0.2393 -0.6191
  887MPD2    H213061   3.743   0.669  15.312 -0.3264 -0.2208  0.0729
  887MPD2    H313062   3.971   0.704  15.266  0.6122  0.0584 -1.9157
  887MPD2     N13063   3.907   1.155  15.294  0.0210  0.1691 -0.8075
  887MPD2    H513064   3.832   1.221  15.278  0.1056  0.2281 -0.9564
  887MPD2    N113065   3.549   0.857  15.361 -0.1593 -0.0681  0.2986
  887MPD2    H713066   3.489   0.938  15.351 -0.7667 -1.0695 -4.2763
  888MPD2     C13067   0.927   0.724  14.702  0.1316  0.0181 -0.1186
  888MPD2    C113068   0.938   0.762  14.830  0.2690 -0.0625  0.0548
  888MPD2    C213069   0.953   0.896  14.864 -0.0285  0.0296 -0.0499
  888MPD2    C313070   0.976   0.991  14.764  0.1453 -0.0670 -0.3252
  888MPD2    C413071   0.952   0.946  14.637  0.7357 -0.2431 -0.5559
  888MPD2    C513072   0.922   0.819  14.608 -0.8199 -0.2095  0.1153
  888MPD2     H13073   0.968   0.929  14.966 -0.0879 -2.7249  0.8396
  888MPD2    H113074   0.945   1.015  14.553  0.2861  0.2630 -0.1030
  888MPD2    H213075   0.911   0.620  14.674 -0.1813 -0.4954  1.9252
  888MPD2    H313076   0.908   0.789  14.505 -0.1820 -0.7448  0.1849
  888MPD2     N13077   1.017   1.122  14.792 -0.7974  0.5366 -0.4544
  888MPD2    H513078   1.036   1.146  14.889 -2.3959 -1.3527  0.3350
  888MPD2    N113079   0.933   0.675  14.939  0.4858 -0.0234  0.1131
  888MPD2    H713080   0.927   0.718  15.030 -1.7359  0.1254 -0.1168
  889MPD2     C13081   4.582   0.483  13.096  0.6234 -0.6738 -0.5654
  889MPD2    C113082   4.697   0.444  13.156  0.6198 -0.3403  0.0961
  889MPD2    C213083   0.027   0.540  13.218 -0.4217  0.5682 -0.0741
  889MPD2    C313084   4.712   0.670  13.241  0.4728  0.5102  0.3783
  889MPD2    C413085   4.591   0.705  13.182  0.5268 -0.4796  0.1899
  889MPD2    C513086   4.525   0.611  13.111  0.2919 -0.8200  0.4406
  889MPD2     H13087   0.117   0.514  13.272 -0.8512  0.2880  0.5140
  889MPD2    H113088   4.546   0.803  13.191 -0.6972 -0.9683 -0.5761
  889MPD2    H213089   4.541   0.421  13.016  0.0966  0.0762 -0.8798
  889MPD2    H313090   4.436   0.638  13.055 -1.3558 -2.3214  2.3422
  889MPD2     N13091   0.060   0.763  13.307 -0.5165  0.1415  0.0749
  889MPD2    H513092   0.152   0.730  13.335 -0.4781  0.2714  0.1049
  889MPD2    N113093   0.012   0.315  13.129 -0.1399 -0.3228  0.0251
  889MPD2    H713094   4.693   0.260  13.067  0.3230  1.9733 -2.4634
  890MPD2     C13095   4.180   2.621  14.467 -0.2208 -0.1724 -0.1606
  890MPD2    C113096   4.315   2.636  14.448  0.1260 -0.2239 -0.6326
  890MPD2    C213097   4.401   2.533  14.465 -0.1988  0.3898  0.2340
  890MPD2    C313098   4.362   2.416  14.521 -0.4890 -0.0684  0.7246
  890MPD2    C413099   4.230   2.395  14.554  0.0607  0.3111  0.6188
  890MPD2    C513100   4.141   2.495  14.522 -0.2882  0.1974 -0.1756
  890MPD2     H13101   4.509   2.545  14.455 -0.1105 -0.0205  0.7167
  890MPD2    H113102   4.184   2.306  14.596  0.1056 -0.3016 -0.6600
  890MPD2    H213103   4.097   2.690  14.456  0.0656  0.4228  1.3913
  890MPD2    H313104   4.035   2.483  14.542  0.4437 -2.0276  2.2684
  890MPD2     N13105   4.457   2.319  14.543 -0.3483  0.0019  0.0652
  890MPD2    H513106   4.550   2.340  14.508  0.0297 -1.9208 -0.0871
  890MPD2    N113107   4.365   2.761  14.394 -0.3357  0.7371  0.7765
  890MPD2    H713108   4.294   2.833  14.380 -0.4322  1.0132  2.6400
  891MPD2     C13109   2.964   0.991  16.437  0.9704 -0.1016  0.5861
  891MPD2    C113110   2.850   0.966  16.510  0.0281  0.2897  0.3501
  891MPD2    C213111   2.864   0.952  16.647 -0.0880 -0.3352  0.0644
  891MPD2    C313112   2.992   0.937  16.712  0.2621  0.8917  0.2166
  891MPD2    C413113   3.099   0.936  16.635  0.7108  0.2618 -0.5240
  891MPD2    C513114   3.083   0.975  16.501  0.5430 -0.3117  0.7774
  891MPD2     H13115   2.772   0.938  16.702  0.7124 -0.9973  1.2361
  891MPD2    H113116   3.201   0.943  16.670  1.6909  0.5291 -3.4969
  891MPD2    H213117   2.959   1.011  16.331  1.3333 -0.3188  0.5278
  891MPD2    H313118   3.172   1.008  16.449 -0.6696  0.4681 -0.8011
  891MPD2     N13119   2.995   0.908  16.853  0.4285 -0.2576 -0.1788
  891MPD2    H513120   2.908   0.926  16.902  0.8120  3.2159 -0.7596
  891MPD2    N113121   2.725   0.959  16.443 -0.4697  0.1038  0.2756
  891MPD2    H713122   2.722   0.986  16.345 -1.0132  0.1177  0.2939
  892MPD2     C13123   3.666   2.259  14.435 -0.6966 -0.4218  0.5110
  892MPD2    C113124   3.591   2.146  14.456  0.2267 -0.3422 -0.0808
  892MPD2    C213125   3.649   2.031  14.424  0.1663  0.4114 -0.1604
  892MPD2    C313126   3.765   2.023  14.347 -0.2451  0.4731 -0.0033
  892MPD2    C413127   3.836   2.143  14.331  0.4388  0.4595  0.0268
  892MPD2    C513128   3.781   2.263  14.358 -0.6104  0.3069 -0.0067
  892MPD2     H13129   3.605   1.937  14.454 -2.2082  1.5958  0.0351
  892MPD2    H113130   3.936   2.149  14.288  0.3663  0.3283 -0.1604
  892MPD2    H213131   3.615   2.352  14.459 -0.9555  0.1091 -2.0687
  892MPD2    H313132   3.837   2.353  14.340 -1.6021  1.0969  0.8794
  892MPD2     N13133   3.826   1.905  14.289 -0.1191  0.4638  0.1796
  892MPD2    H513134   3.918   1.929  14.255 -0.0006  0.4579  0.4953
  892MPD2    N113135   3.468   2.143  14.520  0.5890  0.0174 -0.3403
  892MPD2    H713136   3.427   2.051  14.530 -1.1590  0.9554  0.8881
  893MPD2     C13137   0.652   4.638   0.488  0.1501 -0.0129  0.7141
  893MPD2    C113138   0.678   4.524   0.567 -0.1743 -0.0423  0.1943
  893MPD2    C213139   0.651   4.396   0.521  0.4426  0.4336  0.6227
  893MPD2    C313140   0.587   4.384   0.397  0.2404 -1.3302 -0.0413
  893MPD2    C413141   0.550   4.499   0.323 -0.4257  0.8715 -0.0281
  893MPD2    C513142   0.584   4.625   0.369 -0.3797 -0.5431 -0.9277
  893MPD2     H13143   0.682   4.309   0.578 -1.1108 -0.3483  0.2802
  893MPD2    H113144   0.509   4.493   0.223 -0.9877  2.1032  0.1225
  893MPD2    H213145   0.671   4.737   0.529  1.5791 -0.5134  1.2275
  893MPD2    H313146   0.562   4.712   0.308  0.0234 -0.1424 -0.4995
  893MPD2     N13147   0.553   4.264   0.333  0.7905 -0.0921  0.2059
  893MPD2    H513148   0.509   4.267   0.242 -1.1968  4.0384  1.3373
  893MPD2    N113149   0.732   4.547   0.694  0.1741  0.3836 -0.6895
  893MPD2    H713150   0.761   4.643   0.711 -3.9743  1.5791 -0.5653
  894MPD2     C13151   3.342   1.918   0.880 -0.0476 -0.7148 -0.3376
  894MPD2    C113152   3.325   2.047   0.931 -0.6959 -0.1242 -0.1182
  894MPD2    C213153   3.426   2.118   0.983  0.1689  0.2676 -0.2686
  894MPD2    C313154   3.559   2.073   0.980 -0.3435  0.0342 -0.2793
  894MPD2    C413155   3.580   1.943   0.941  0.7084 -0.7642  0.6039
  894MPD2    C513156   3.478   1.872   0.882 -0.3677 -0.0722  0.1072
  894MPD2     H13157   3.402   2.219   1.012 -0.7550  0.2075 -0.8407
  894MPD2    H113158   3.676   1.895   0.958  1.0290  0.0919  1.1725
  894MPD2    H213159   3.268   1.848   0.844 -1.9698  1.0008  0.2753
  894MPD2    H313160   3.496   1.776   0.834 -0.7478 -0.5278  0.8766
  894MPD2     N13161   3.662   2.162   1.026  0.1459  0.0343  0.5152
  894MPD2    H513162   3.632   2.254   1.056  0.6441  0.5168 -0.4699
  894MPD2    N113163   3.194   2.090   0.961  0.5551 -0.0856  0.2230
  894MPD2    H713164   3.183   2.177   1.013 -3.3192 -1.5142  1.7864
  895MPD2     C13165   2.835   1.066  13.843  0.4612 -0.4256  0.1634
  895MPD2    C113166   2.754   1.009  13.744  0.0190 -0.8414 -0.0266
  895MPD2    C213167   2.803   0.904  13.670  0.3082 -0.5815 -0.6445
  895MPD2    C313168   2.933   0.854  13.690 -0.1580  0.2946 -0.6169
  895MPD2    C413169   3.009   0.922  13.788  0.2203  0.0063  0.1401
  895MPD2    C513170   2.957   1.026  13.860 -0.0770  0.6528 -0.8104
  895MPD2     H13171   2.745   0.868  13.586 -0.7579 -1.0806  0.3037
  895MPD2    H113172   3.114   0.897  13.798  0.4704  1.7755  1.7772
  895MPD2    H213173   2.807   1.147  13.909  2.0975 -1.0748  1.6454
  895MPD2    H313174   3.023   1.068  13.936 -3.4333  2.1741  1.2515
  895MPD2     N13175   2.976   0.747  13.610 -0.0879 -0.6757  0.1767
  895MPD2    H513176   2.912   0.715  13.539  0.1582 -1.1402  0.1658
  895MPD2    N113177   2.621   1.039  13.719 -0.2346  0.1452 -0.3492
  895MPD2    H713178   2.581   0.985  13.643  0.1783  0.7701 -1.0126
  896MPD2     C13179   0.750   2.609   1.444  0.3761  0.4110  0.8307
  896MPD2    C113180   0.707   2.590   1.317  0.4163 -0.4148 -0.1140
  896MPD2    C213181   0.584   2.532   1.285  0.0167 -0.1760 -0.7212
  896MPD2    C313182   0.509   2.483   1.390 -0.3385  0.0562  0.2548
  896MPD2    C413183   0.557   2.501   1.516  0.4369 -0.2255 -0.3079
  896MPD2    C513184   0.680   2.551   1.544  0.9024  0.1436 -0.1068
  896MPD2     H13185   0.556   2.530   1.180  2.4940  3.1832 -1.4520
  896MPD2    H113186   0.501   2.464   1.601  2.1661 -0.5943  0.6796
  896MPD2    H213187   0.846   2.652   1.470  0.4631  1.4922 -1.3398
  896MPD2    H313188   0.721   2.569   1.642  2.2242 -1.7230 -0.3129
  896MPD2     N13189   0.385   2.428   1.352 -0.1855 -0.0416  0.2057
  896MPD2    H513190   0.374   2.426   1.251  0.7024  4.0689  0.0219
  896MPD2    N113191   0.786   2.654   1.216 -0.8149  0.3194  0.8676
  896MPD2    H713192   0.871   2.697   1.251 -0.0022  0.1403 -0.8564
  897MPD2     C13193   1.500   0.876  10.955 -0.3281 -0.5488  1.2181
  897MPD2    C113194   1.421   0.830  10.857  0.5036 -0.1666  0.3040
  897MPD2    C213195   1.288   0.788  10.885 -0.0638  0.5836  0.2795
  897MPD2    C313196   1.233   0.801  11.010  0.1080  0.2109 -0.3078
  897MPD2    C413197   1.316   0.850  11.109  0.5289 -0.8546  0.1673
  897MPD2    C513198   1.449   0.884  11.084  0.1472 -0.0598 -0.4885
  897MPD2     H13199   1.219   0.747  10.813 -0.1087 -2.4752  2.0830
  897MPD2    H113200   1.285   0.882  11.208  0.2934 -0.6373  0.0201
  897MPD2    H213201   1.601   0.908  10.930 -1.2173  2.1548  1.0884
  897MPD2    H313202   1.500   0.932  11.166 -0.9358  0.9692 -0.4117
  897MPD2     N13203   1.100   0.780  11.034  0.2337 -0.0200  0.1798
  897MPD2    H513204   1.043   0.766  10.951 -0.2487  0.0705  0.4909
  897MPD2    N113205   1.480   0.821  10.729 -0.4661  0.0400  0.4786
  897MPD2    H713206   1.568   0.871  10.723 -0.2714 -0.5566 -1.5274
  898MPD2     C13207   3.333   0.612  17.219 -0.4520 -0.0515  1.1384
  898MPD2    C113208   3.457   0.623  17.162 -0.3179  0.1167  0.6204
  898MPD2    C213209   3.524   0.740  17.174  0.2659 -0.5244 -0.0209
  898MPD2    C313210   3.466   0.846  17.239  0.4036 -0.5766  0.0561
  898MPD2    C413211   3.344   0.840  17.296 -0.8057 -0.8523  0.0212
  898MPD2    C513212   3.274   0.722  17.282 -0.3534 -0.3294  0.6194
  898MPD2     H13213   3.615   0.757  17.118  0.4238 -3.6683 -0.7408
  898MPD2    H113214   3.303   0.921  17.356 -0.6281 -1.7626  1.3748
  898MPD2    H213215   3.272   0.523  17.221  0.0726 -0.4499 -0.6563
  898MPD2    H313216   3.178   0.721  17.332 -0.5731  3.3781  0.2553
  898MPD2     N13217   3.545   0.966  17.245  0.2354 -0.4240 -0.0571
  898MPD2    H513218   3.630   0.972  17.190 -0.4325  3.8160 -0.5694
  898MPD2    N113219   3.525   0.508  17.104  0.5148  0.5319  0.5252
  898MPD2    H713220   3.619   0.530  17.075 -0.7459  2.1722 -2.2598
  899MPD2     C13221   4.424   0.971  16.921  0.2119 -0.6231 -0.2262
  899MPD2    C113222   4.423   1.053  17.026  0.4395  0.3831  0.1320
  899MPD2    C213223   4.408   1.002  17.154  0.4729 -0.5765 -0.3713
  899MPD2    C313224   4.389   0.864  17.173  0.4672 -0.3791  0.0844
  899MPD2    C413225   4.378   0.788  17.056 -0.0457 -0.5071 -0.4007
  899MPD2    C513226   4.405   0.836  16.932 -0.1853 -0.7037 -0.0777
  899MPD2     H13227   4.399   1.067  17.240  0.3501 -2.0987  0.7656
  899MPD2    H113228   4.368   0.681  17.062  3.0408 -0.7880 -0.2639
  899MPD2    H213229   4.425   1.013  16.821  0.0643 -2.9057 -1.2068
  899MPD2    H313230   4.424   0.777  16.843 -0.3950  1.4208 -1.5364
  899MPD2     N13231   4.351   0.799  17.288  0.3853  0.0217  0.2561
  899MPD2    H513232   4.327   0.701  17.283 -0.0476  0.1883 -1.1304
  899MPD2    N113233   4.444   1.189  17.000 -0.0474  0.2664 -0.3881
  899MPD2    H713234   4.459   1.210  16.902  0.8231  0.2752 -0.2595
  900MPD2     C13235   3.760   3.477  12.451 -0.1552  0.5254 -0.4458
  900MPD2    C113236   3.657   3.388  12.438 -0.1589  0.4071 -0.0167
  900MPD2    C213237   3.554   3.423  12.345  0.2343 -0.5286  0.0981
  900MPD2    C313238   3.556   3.537  12.272  0.3187  0.3944  0.3960
  900MPD2    C413239   3.664   3.618  12.280  0.4548  0.4532 -0.0278
  900MPD2    C513240   3.769   3.582  12.368  0.0760  0.1187 -0.3859
  900MPD2     H13241   3.466   3.361  12.333 -0.7758  0.3185  2.9333
  900MPD2    H113242   3.675   3.707  12.219  1.6896  0.7344  0.6089
  900MPD2    H213243   3.843   3.466  12.520 -1.1755  1.1187  0.8654
  900MPD2    H313244   3.856   3.645  12.375  0.0698  0.5301 -4.1767
  900MPD2     N13245   3.455   3.552  12.171 -0.4136  0.4415 -0.5316
  900MPD2    H513246   3.375   3.490  12.168 -0.5514  0.6255 -0.6440
  900MPD2    N113247   3.662   3.276  12.523 -0.2268 -0.2745 -0.3182
  900MPD2    H713248   3.744   3.266  12.583 -1.7094 -0.4205  1.7118
  901MPD2     C13249   3.169   2.352  12.882 -0.1628 -0.1297 -0.5240
  901MPD2    C113250   3.307   2.330  12.880  0.1139 -0.3259  1.5923
  901MPD2    C213251   3.386   2.437  12.845  0.4386 -1.3632 -0.0657
  901MPD2    C313252   3.339   2.563  12.826 -0.7724  0.5019  0.3621
  901MPD2    C413253   3.201   2.586  12.841  0.4903  0.8966 -0.5999
  901MPD2    C513254   3.120   2.476  12.848 -0.4832 -0.3805 -0.1379
  901MPD2     H13255   3.492   2.421  12.836  0.6124 -0.8446  1.0337
  901MPD2    H113256   3.148   2.680  12.829  0.7997  1.7363  4.4754
  901MPD2    H213257   3.101   2.270  12.899  0.7491 -1.1717 -1.8919
  901MPD2    H313258   3.017   2.509  12.838  0.3707  2.2579 -0.2664
  901MPD2     N13259   3.425   2.667  12.784  0.3395 -0.2927 -0.1958
  901MPD2    H513260   3.519   2.637  12.758 -1.3762 -2.5176 -3.9324
  901MPD2    N113261   3.348   2.194  12.894 -0.4504 -0.5771  0.4963
  901MPD2    H713262   3.268   2.132  12.906 -0.6024  0.2640  3.9794
  902MPD2     C13263   2.375   1.346  13.239  0.2535  0.5135  0.2796
  902MPD2    C113264   2.379   1.458  13.159 -0.1785 -1.0113  0.7389
  902MPD2    C213265   2.375   1.439  13.020 -0.3877 -0.4413  0.1154
  902MPD2    C313266   2.377   1.307  12.966  0.0813 -0.1619 -0.2219
  902MPD2    C413267   2.383   1.196  13.047  1.0240 -0.2071  0.6306
  902MPD2    C513268   2.381   1.220  13.186 -0.4197  0.7067  0.3725
  902MPD2     H13269   2.372   1.521  12.949  1.3506 -0.3581  0.1372
  902MPD2    H113270   2.385   1.092  13.014  1.3659 -0.6394  2.0120
  902MPD2    H213271   2.375   1.364  13.346  0.5241  1.9945  0.0249
  902MPD2    H313272   2.379   1.131  13.248 -2.6582 -0.1509 -0.9461
  902MPD2     N13273   2.402   1.283  12.830 -0.4659 -0.4307  0.4069
  902MPD2    H513274   2.408   1.187  12.798  0.3227 -0.1796 -0.1954
  902MPD2    N113275   2.418   1.572  13.220  0.9048  0.1066  0.0965
  902MPD2    H713276   2.436   1.564  13.320  0.0892 -2.5471  0.0377
  903MPD2     C13277   2.746   1.309  11.967  0.0081 -0.2981 -0.1862
  903MPD2    C113278   2.636   1.354  12.047  0.3081 -0.2151  0.1753
  903MPD2    C213279   2.525   1.412  11.988  0.0235  0.1497  0.2717
  903MPD2    C313280   2.522   1.415  11.846 -0.8027 -0.1744 -0.0190
  903MPD2    C413281   2.631   1.371  11.767  0.1697  0.0545  0.2090
  903MPD2    C513282   2.738   1.318  11.828 -0.4130  0.0010 -0.2276
  903MPD2     H13283   2.436   1.430  12.047 -0.7393 -2.1531 -0.1748
  903MPD2    H113284   2.631   1.377  11.659  1.7903 -2.0012  0.0936
  903MPD2    H213285   2.827   1.256  12.015  1.1613  1.9262  0.3459
  903MPD2    H313286   2.824   1.295  11.767 -0.7118  1.5694 -1.2238
  903MPD2     N13287   2.405   1.457  11.794 -0.6228 -0.1124 -0.5044
  903MPD2    H513288   2.335   1.495  11.857 -1.5390 -2.8052  0.1428
  903MPD2    N113289   2.650   1.331  12.186  0.2847  0.0169  0.0562
  903MPD2    H713290   2.739   1.290  12.212  0.4185  1.2238  1.5323
  904MPD2     C13291   2.635   0.057  13.994  0.2039  0.1717  0.2815
  904MPD2    C113292   2.703   0.179  13.986 -0.4490  0.1133 -0.3175
  904MPD2    C213293   2.839   0.189  14.013 -0.1110  0.0794 -0.4078
  904MPD2    C313294   2.910   0.069  14.046 -0.0551  0.3096 -0.2116
  904MPD2    C413295   2.838   4.689  14.055 -0.1436 -0.4539  0.0650
  904MPD2    C513296   2.704   4.689  14.033 -0.2631 -0.5638 -0.4341
  904MPD2     H13297   2.899   0.279  14.001  0.0757  0.1864  1.3935
  904MPD2    H113298   2.872   4.595  14.097  3.8543  0.7302 -0.4666
  904MPD2    H213299   2.528   0.048  13.980  0.4472 -0.5708 -1.0784
  904MPD2    H313300   2.651   4.596  14.050 -0.0031 -0.6517 -0.0968
  904MPD2     N13301   3.049   0.086  14.067 -0.6759 -0.7191  0.0612
  904MPD2    H513302   3.070   0.184  14.082 -3.1029 -0.2738  0.5801
  904MPD2    N113303   2.631   0.300  13.950  0.5183  1.1030 -0.1085
  904MPD2    H713304   2.678   0.388  13.968 -0.2169  1.4896 -0.0611
  905MPD2     C13305   2.329   0.433  13.282 -0.1203  0.6952 -0.8772
  905MPD2    C113306   2.393   0.512  13.372  0.2998  0.0907 -0.6310
  905MPD2    C213307   2.524   0.550  13.355 -0.4455  0.3012  0.8928
  905MPD2    C313308   2.599   0.497  13.252  0.2084 -0.0007  0.1077
  905MPD2    C413309   2.541   0.417  13.159 -0.3372  0.8932 -0.2639
  905MPD2    C513310   2.402   0.391  13.173  0.0577  0.5113  0.3171
  905MPD2     H13311   2.566   0.613  13.433  0.3773 -0.1712  0.8321
  905MPD2    H113312   2.606   0.375  13.084 -1.8129 -0.9820 -0.4883
  905MPD2    H213313   2.225   0.408  13.301  0.2454 -0.2227 -0.0904
  905MPD2    H313314   2.350   0.321  13.108 -0.4517 -0.5954  1.9095
  905MPD2     N13315   2.745   0.514  13.246 -0.1934  0.0327 -0.3341
  905MPD2    H513316   2.786   0.460  13.170 -0.2582 -0.5445  0.0412
  905MPD2    N113317   2.329   0.539  13.492  0.4584  0.0950 -0.4543
  905MPD2    H713318   2.271   0.467  13.535  0.1564  1.2210  1.0549
  906MPD2     C13319   4.611   0.706  11.128 -0.1803 -0.2492  0.0463
  906MPD2    C113320   4.583   0.584  11.069 -0.6727  0.8749 -0.2408
  906MPD2    C213321   4.492   0.500  11.134 -0.5233 -0.5045 -0.2935
  906MPD2    C313322   4.449   0.533  11.265 -0.2851 -0.0087 -0.7799
  906MPD2    C413323   4.481   0.655  11.321 -0.0503  1.1041  0.3807
  906MPD2    C513324   4.556   0.744  11.249  0.3505  0.1133 -0.1967
  906MPD2     H13325   4.474   0.405  11.086  1.1093 -1.5550  1.1737
  906MPD2    H113326   4.446   0.684  11.420  1.2001 -1.2816  1.5031
  906MPD2    H213327   4.677   0.776  11.079  0.8892 -2.3574 -1.5268
  906MPD2    H313328   4.585   0.837  11.298  0.2179 -0.5225  1.0754
  906MPD2     N13329   4.359   0.456  11.340  0.1006  0.2250 -0.3079
  906MPD2    H513330   4.333   0.490  11.432  1.3392 -0.8414  0.4292
  906MPD2    N113331   4.627   0.542  10.944  0.0502 -0.2615  0.1763
  906MPD2    H713332   4.593   0.450  10.918 -0.0636 -0.3405  0.5971
  907MPD2     C13333   3.843   4.232  15.857  0.0769  0.1166 -0.1587
  907MPD2    C113334   3.863   4.108  15.797  0.3334  0.1549  0.1484
  907MPD2    C213335   3.932   4.014  15.876 -0.1637  0.2624  0.0051
  907MPD2    C313336   3.962   4.040  16.008  0.2995 -0.2944 -0.5257
  907MPD2    C413337   3.948   4.168  16.063  0.0592 -0.0763  0.1983
  907MPD2    C513338   3.891   4.261  15.980  0.2305 -0.2021  0.0864
  907MPD2     H13339   3.948   3.913  15.840 -0.1083  0.9113 -1.7803
  907MPD2    H113340   3.970   4.195  16.165 -0.6048 -1.1569  0.6240
  907MPD2    H213341   3.814   4.317  15.796 -1.5457 -0.7148 -0.5411
  907MPD2    H313342   3.859   4.359  16.014  1.3787  0.4705 -0.7593
  907MPD2     N13343   4.008   3.932  16.086  0.3272  0.4262 -0.4545
  907MPD2    H513344   4.004   3.839  16.046  1.8796  0.0558  0.2685
  907MPD2    N113345   3.818   4.080  15.674  0.3819  0.3881  0.6212
  907MPD2    H713346   3.840   3.986  15.644 -0.3103  0.1721  0.7815
  908MPD2     C13347   1.046   0.704   9.806  0.0247  0.2342  0.1242
  908MPD2    C113348   1.075   0.606   9.894 -0.2209  0.5967  0.8225
  908MPD2    C213349   1.139   0.640  10.016 -0.1216  0.1197  0.1499
  908MPD2    C313350   1.181   0.770  10.033 -0.0035 -0.5313 -1.3705
  908MPD2    C413351   1.155   0.864   9.933  0.2397 -0.3077  0.0099
  908MPD2    C513352   1.077   0.838   9.825 -0.8904  0.3602  0.1963
  908MPD2     H13353   1.159   0.568  10.094 -1.5086  1.0255  1.3401
  908MPD2    H113354   1.195   0.965   9.935  1.7808 -1.0215  3.7037
  908MPD2    H213355   1.006   0.687   9.707 -0.4151  1.3630  0.1031
  908MPD2    H313356   1.065   0.910   9.744 -0.8009 -0.6178 -0.6749
  908MPD2     N13357   1.240   0.814  10.155  0.3111 -0.6009 -0.2148
  908MPD2    H513358   1.303   0.750  10.201 -0.7749  0.0868  2.1874
  908MPD2    N113359   1.049   0.478   9.853  0.7769 -0.8391 -0.6853
  908MPD2    H713360   0.995   0.465   9.769 -1.8957  1.1642  0.6969
  909MPD2     C13361   1.691   3.014  11.575 -0.0816  0.1458 -0.4191
  909MPD2    C113362   1.686   3.146  11.549 -0.1750  0.1450  0.6354
  909MPD2    C213363   1.650   3.243  11.642  0.1644 -0.5229 -0.1007
  909MPD2    C313364   1.619   3.207  11.773 -0.3415 -0.1275 -0.0340
  909MPD2    C413365   1.620   3.069  11.801 -0.0738 -0.1260  0.1768
  909MPD2    C513366   1.665   2.976  11.703 -0.2166  0.0107  0.0134
  909MPD2     H13367   1.647   3.348  11.615 -1.2160 -0.5504 -0.0352
  909MPD2    H113368   1.601   3.032  11.901  0.0218 -1.4034 -0.2801
  909MPD2    H213369   1.721   2.930  11.514  2.0249  0.2259  0.4772
  909MPD2    H313370   1.669   2.869  11.719  1.3160  0.4012  2.1400
  909MPD2     N13371   1.578   3.303  11.880  0.4488  0.0691  0.2906
  909MPD2    H513372   1.569   3.400  11.851 -1.3424 -0.0601  0.4180
  909MPD2    N113373   1.717   3.205  11.423  0.3728  0.0179  0.2539
  909MPD2    H713374   1.729   3.306  11.419  0.8252  0.0930  3.7407
  910MPD2     C13375   3.343   4.542  15.835 -0.1982  0.2267 -0.0761
  910MPD2    C113376   3.413   4.439  15.766  0.5313 -1.0738  0.3265
  910MPD2    C213377   3.418   4.448  15.627 -0.5094 -0.6557  0.9769
  910MPD2    C313378   3.354   4.557  15.566  0.1893  0.2346 -0.0343
  910MPD2    C413379   3.293   4.660  15.640 -0.2843 -0.0858 -0.4650
  910MPD2    C513380   3.285   4.654  15.776 -0.3042 -0.0880  0.3084
  910MPD2     H13381   3.469   4.376  15.563  0.4556 -0.5986  1.6784
  910MPD2    H113382   3.251   0.009  15.595 -0.8806 -0.7797 -1.2695
  910MPD2    H213383   3.330   4.540  15.943  2.4795 -1.3269  0.2215
  910MPD2    H313384   3.244   4.739  15.829  1.1473 -0.6749  2.3668
  910MPD2     N13385   3.353   4.573  15.424  0.5127  0.0144  0.4668
  910MPD2    H513386   3.321   4.661  15.385  0.5075 -0.9796 -1.7829
  910MPD2    N113387   3.474   4.326  15.838  0.0788 -0.7378  1.0143
  910MPD2    H713388   3.511   4.254  15.776  0.4926  0.6502 -0.3520
  911MPD2     C13389   1.318   0.809  16.505  0.1644 -0.2417  0.6902
  911MPD2    C113390   1.303   0.692  16.429 -0.2232 -0.6584  0.3989
  911MPD2    C213391   1.194   0.680  16.346 -0.5692  0.1315  0.8091
  911MPD2    C313392   1.131   0.795  16.320 -0.1705  0.1831  0.0888
  911MPD2    C413393   1.148   0.910  16.393  0.5593  0.5815 -0.2654
  911MPD2    C513394   1.246   0.917  16.483 -0.0220  0.1499  0.3216
  911MPD2     H13395   1.172   0.587  16.295  1.5466  0.3363 -0.5051
  911MPD2    H113396   1.081   0.993  16.378  1.5804  1.4490 -0.0034
  911MPD2    H213397   1.396   0.806  16.581  0.0093 -2.3663  0.7686
  911MPD2    H313398   1.257   1.010  16.537 -1.9066  0.0615  0.8628
  911MPD2     N13399   1.030   0.810  16.223  0.6079  0.6158 -0.0915
  911MPD2    H513400   1.007   0.906  16.199  2.1746  0.3993 -2.5248
  911MPD2    N113401   1.391   0.588  16.470 -0.0436 -0.0647 -0.1959
  911MPD2    H713402   1.438   0.594  16.559  0.9843 -2.8177 -0.5552
  912MPD2     C13403   0.663   0.546  15.414  0.0427 -0.7353 -0.5317
  912MPD2    C113404   0.677   0.509  15.547  0.7540  0.0940  0.1759
  912MPD2    C213405   0.623   0.391  15.591  0.3699  0.7588 -0.0021
  912MPD2    C313406   0.558   0.305  15.502 -0.8035  0.3008  0.1674
  912MPD2    C413407   0.536   0.352  15.369  0.5320 -0.1699 -0.0906
  912MPD2    C513408   0.593   0.470  15.331  0.1106 -0.7014  0.2895
  912MPD2     H13409   0.646   0.354  15.691 -0.7808 -2.7898 -1.0654
  912MPD2    H113410   0.481   0.290  15.299  0.6452 -1.7448  1.2205
  912MPD2    H213411   0.700   0.642  15.382 -1.7713 -0.1188 -0.7934
  912MPD2    H313412   0.570   0.504  15.230  1.4885 -1.9030 -0.4281
  912MPD2     N13413   0.500   0.182  15.540  0.0790 -0.3962  0.0388
  912MPD2    H513414   0.529   0.145  15.630  1.1368  1.8781  0.6222
  912MPD2    N113415   0.737   0.599  15.629  0.2675  0.2807 -0.3305
  912MPD2    H713416   0.771   0.683  15.583  0.5299  1.1706  1.4887
  913MPD2     C13417   0.705   2.018  10.380  0.2195 -0.3459  0.2958
  913MPD2    C113418   0.804   2.102  10.430  0.1861  0.3877 -0.6716
  913MPD2    C213419   0.853   2.200  10.345  0.0631  0.7119  0.3738
  913MPD2    C313420   0.799   2.220  10.219  0.8442  0.1452 -0.7739
  913MPD2    C413421   0.697   2.134  10.174  0.5165 -0.3800  0.1890
  913MPD2    C513422   0.651   2.033  10.256 -0.1474  0.1660 -0.3435
  913MPD2     H13423   0.926   2.270  10.384  0.6255 -0.5733  1.6571
  913MPD2    H113424   0.662   2.150  10.073  1.0258 -0.8312 -0.0600
  913MPD2    H213425   0.668   1.930  10.430 -0.4824 -0.8389 -1.0705
  913MPD2    H313426   0.567   1.972  10.224 -0.6515 -0.0922  1.5097
  913MPD2     N13427   0.838   2.320  10.131 -0.7237  0.6068 -0.1698
  913MPD2    H513428   0.802   2.319  10.036 -2.0673 -2.8486  0.3829
  913MPD2    N113429   0.844   2.077  10.560  0.4729 -0.0829  0.0759
  913MPD2    H713430   0.783   2.014  10.612 -2.1116 -0.3360 -3.2768
  914MPD2     C13431   3.169   2.011  12.290  0.8231  0.4529  0.0796
  914MPD2    C113432   3.187   2.106  12.393 -0.3667 -0.0766  0.4627
  914MPD2    C213433   3.257   2.068  12.505  0.1046  0.0852  0.2608
  914MPD2    C313434   3.293   1.939  12.520  0.8161  0.0649 -0.4428
  914MPD2    C413435   3.275   1.842  12.419 -0.1970 -0.0463 -0.3568
  914MPD2    C513436   3.214   1.885  12.304  0.3105 -0.3520  0.1966
  914MPD2     H13437   3.280   2.129  12.592 -0.4094 -0.1955  0.6014
  914MPD2    H113438   3.307   1.739  12.419  0.6545  0.2160  0.6688
  914MPD2    H213439   3.101   2.018  12.207  0.6068 -1.8618  0.0527
  914MPD2    H313440   3.195   1.810  12.228 -2.5392 -0.4700  1.0314
  914MPD2     N13441   3.360   1.908  12.635 -0.1131  0.6224 -0.9755
  914MPD2    H513442   3.377   1.985  12.699  1.1146  0.2815 -0.8882
  914MPD2    N113443   3.130   2.231  12.375 -0.2638  0.4489  0.3154
  914MPD2    H713444   3.078   2.247  12.289  2.3666  1.3012 -1.0968
  915MPD2     C13445   2.341   1.704  15.626  0.0794  0.4744 -0.8118
  915MPD2    C113446   2.227   1.764  15.583 -0.7376 -0.0160  0.7712
  915MPD2    C213447   2.151   1.833  15.671  0.0721 -0.2712  0.0186
  915MPD2    C313448   2.184   1.842  15.805  0.0960 -0.1312 -0.5187
  915MPD2    C413449   2.306   1.790  15.843  0.4093 -0.3057  0.7243
  915MPD2    C513450   2.379   1.717  15.755 -0.0651 -0.6215 -0.0101
  915MPD2     H13451   2.055   1.871  15.638  0.0876  1.6497  2.1637
  915MPD2    H113452   2.335   1.804  15.947 -0.2589 -1.4179  1.0662
  915MPD2    H213453   2.403   1.639  15.566  0.6094  0.7414 -0.5643
  915MPD2    H313454   2.478   1.681  15.781 -1.4175 -2.4819  2.5850
  915MPD2     N13455   2.090   1.911  15.889 -0.2174 -0.3666  0.3235
  915MPD2    H513456   2.007   1.947  15.843 -1.3422  0.0828  2.7109
  915MPD2    N113457   2.185   1.748  15.452 -0.5345 -0.2395 -0.1940
  915MPD2    H713458   2.237   1.682  15.395 -0.8935  0.8643 -1.7931
  916MPD2     C13459   4.629   0.042  15.478  0.3879 -0.4918  0.1309
  916MPD2    C113460   4.593   4.666  15.552 -0.8604 -0.1964  0.2938
  916MPD2    C213461   4.629   4.542  15.510 -0.5081 -0.3652 -0.0006
  916MPD2    C313462   4.711   4.541  15.396 -0.1758  0.1200 -0.0846
  916MPD2    C413463   0.015   4.648  15.328 -0.2975 -0.2298 -0.5099
  916MPD2    C513464   4.711   0.027  15.375 -0.0291  0.1965  0.0500
  916MPD2     H13465   4.591   4.451  15.555 -0.4823  0.3467  1.4646
  916MPD2    H113466   0.076   4.652  15.239  0.2965  0.4811 -0.0676
  916MPD2    H213467   4.580   0.137  15.496  0.8723 -0.1812 -0.2227
  916MPD2    H313468   0.007   0.113  15.320 -1.8742  0.1365 -1.2369
  916MPD2     N13469   0.020   4.416  15.348 -0.3445 -0.1479 -0.2584
  916MPD2    H513470   4.736   4.339  15.410 -2.7690  0.3051 -0.6166
  916MPD2    N113471   4.499   4.690  15.658 -0.7271  0.1125  0.6749
  916MPD2    H713472   4.467   0.048  15.663  1.7176  0.9948 -1.1589
  917MPD2     C13473   0.186   2.656  11.379  0.1636  0.3007 -0.2812
  917MPD2    C113474   0.250   2.619  11.495 -0.2446 -0.2669 -0.0325
  917MPD2    C213475   0.386   2.648  11.510 -0.6483  0.9308  0.1592
  917MPD2    C313476   0.457   2.716  11.411  0.0178  0.3736  0.1199
  917MPD2    C413477   0.398   2.758  11.300 -0.3947  0.1027 -0.3833
  917MPD2    C513478   0.266   2.724  11.284 -0.7371  1.0422  0.1847
  917MPD2     H13479   0.437   2.618  11.601  0.4042  3.2668  0.3446
  917MPD2    H113480   0.449   2.821  11.227 -1.2947  0.7968 -0.4107
  917MPD2    H213481   0.083   2.635  11.353 -0.1729  0.6222  0.7761
  917MPD2    H313482   0.218   2.751  11.190 -0.5398 -1.2807 -0.5817
  917MPD2     N13483   0.592   2.754  11.413  0.4922  0.1625 -0.3583
  917MPD2    H513484   0.623   2.817  11.340 -0.8946  1.6116  0.2991
  917MPD2    N113485   0.155   2.580  11.595 -0.6175  0.9171  0.8728
  917MPD2    H713486   0.066   2.543  11.563  0.0571  1.4734 -1.6489
  918MPD2     C13487   0.181   3.021  12.504 -0.1395  0.7172 -0.3575
  918MPD2    C113488   0.274   2.984  12.412  0.0072  0.7933 -0.4855
  918MPD2    C213489   0.242   2.889  12.315 -0.1275  0.0396  0.2133
  918MPD2    C313490   0.119   2.833  12.305  0.0119 -0.0191 -0.2318
  918MPD2    C413491   0.033   2.861  12.403  0.3409  0.6120  0.3022
  918MPD2    C513492   0.055   2.956  12.501 -0.0503  0.1011 -0.3905
  918MPD2     H13493   0.316   2.865  12.239  0.4174 -1.7933  1.3103
  918MPD2    H113494   4.671   2.822  12.397 -0.1880  1.8815  0.9479
  918MPD2    H213495   0.197   3.101  12.576  0.6753 -1.8470  2.2985
  918MPD2    H313496   4.711   2.981  12.566 -0.2715 -0.2562 -0.5374
  918MPD2     N13497   0.101   2.735  12.198  0.0033  0.1969  0.0232
  918MPD2    H513498   0.184   2.706  12.147  0.0608 -0.2231  0.3505
  918MPD2    N113499   0.409   3.033  12.412  0.3014 -0.0500  0.7619
  918MPD2    H713500   0.455   3.014  12.324  1.9712 -1.5168  1.9504
  919MPD2     C13501   0.769   1.930  12.101 -0.3513 -0.4012  0.0357
  919MPD2    C113502   0.678   1.836  12.069  0.0087 -0.0643  0.0114
  919MPD2    C213503   0.611   1.860  11.951 -0.6719 -0.1447 -0.2070
  919MPD2    C313504   0.644   1.962  11.854  0.3517  0.4984  0.1905
  919MPD2    C413505   0.743   2.051  11.888  0.5713 -0.1353  0.5202
  919MPD2    C513506   0.801   2.038  12.014  0.0873 -0.4535  0.0587
  919MPD2     H13507   0.538   1.782  11.931 -1.1913  0.0921  0.7653
  919MPD2    H113508   0.772   2.130  11.821  0.8889 -0.3196  0.4367
  919MPD2    H213509   0.804   1.933  12.204  0.0911 -0.1464 -0.1205
  919MPD2    H313510   0.878   2.109  12.043  1.1134 -2.3071  1.8080
  919MPD2     N13511   0.592   1.968  11.729 -0.1129 -0.0779  0.2438
  919MPD2    H513512   0.622   2.040  11.664 -0.6436  1.7009  1.9948
  919MPD2    N113513   0.662   1.713  12.142  0.0532 -0.0488  0.1337
  919MPD2    H713514   0.576   1.661  12.126 -0.4070  0.4035  1.1414
  920MPD2     C13515   0.694   2.306  10.800 -0.0151 -0.1331 -0.1419
  920MPD2    C113516   0.583   2.227  10.781  0.7649  0.1212 -0.1983
  920MPD2    C213517   0.536   2.156  10.886  0.1582  0.1591  0.6586
  920MPD2    C313518   0.602   2.154  11.009 -0.6930 -0.0239  0.2891
  920MPD2    C413519   0.721   2.226  11.019  0.0281 -0.6974  0.0362
  920MPD2    C513520   0.758   2.306  10.917 -0.6595  0.2242  0.0010
  920MPD2     H13521   0.452   2.089  10.877 -0.2598  0.8070 -0.2754
  920MPD2    H113522   0.771   2.232  11.115  1.3891  0.0297 -0.7197
  920MPD2    H213523   0.733   2.363  10.716 -0.7814  1.0433  0.2968
  920MPD2    H313524   0.848   2.365  10.930  2.1168 -3.8461 -0.5263
  920MPD2     N13525   0.538   2.092  11.112 -0.1794 -0.5795 -0.2987
  920MPD2    H513526   0.454   2.040  11.087  0.6356 -2.2441  0.4649
  920MPD2    N113527   0.516   2.216  10.656 -0.2134 -0.1220  0.2492
  920MPD2    H713528   0.469   2.128  10.636 -3.5466  1.4696  1.1603
  921MPD2     C13529   2.094   0.806  16.837  0.3920 -0.5240 -0.2717
  921MPD2    C113530   2.098   0.731  16.720 -0.2968 -0.2025 -0.2706
  921MPD2    C213531   1.995   0.640  16.702 -0.9880  0.1124 -0.3400
  921MPD2    C313532   1.895   0.623  16.795 -0.1086  0.2015 -0.4044
  921MPD2    C413533   1.891   0.702  16.913 -0.8206  0.0494  0.3317
  921MPD2    C513534   2.005   0.782  16.936 -0.1288 -0.4549 -0.2324
  921MPD2     H13535   1.990   0.569  16.620 -0.9459 -0.7024  0.3642
  921MPD2    H113536   1.809   0.687  16.983 -2.6524  1.0770 -1.6152
  921MPD2    H213537   2.174   0.873  16.863 -0.3756  0.6967 -1.0674
  921MPD2    H313538   2.004   0.842  17.026 -1.8831 -3.1081  1.5246
  921MPD2     N13539   1.785   0.532  16.773  0.1938 -0.5215  0.0685
  921MPD2    H513540   1.702   0.535  16.831  0.0438  0.9961 -0.2155
  921MPD2    N113541   2.199   0.754  16.626  0.2806 -0.6623  0.0335
  921MPD2    H713542   2.280   0.798  16.667  0.4351  0.6946 -1.7058
  922MPD2     C13543   2.355   2.713  17.434  0.2430  0.5207 -0.6187
  922MPD2    C113544   2.250   2.793  17.482  0.1293 -0.4944  0.2810
  922MPD2    C213545   2.151   2.839  17.390  0.0188 -0.0514  0.2402
  922MPD2    C313546   2.163   2.805  17.257  0.1375  0.5499 -0.2476
  922MPD2    C413547   2.267   2.728  17.217  0.0709  0.5220  0.0381
  922MPD2    C513548   2.365   2.687  17.296 -0.1286  0.5111 -0.3484
  922MPD2     H13549   2.077   2.915  17.413  0.9907  0.0611  2.9735
  922MPD2    H113550   2.287   2.711  17.112 -0.7797  0.9895 -0.1943
  922MPD2    H213551   2.439   2.677  17.492 -1.0621 -0.9454  0.3373
  922MPD2    H313552   2.451   2.630  17.263 -0.7176 -0.6878  0.1689
  922MPD2     N13553   2.066   2.851  17.165 -0.0271  0.0763 -0.2193
  922MPD2    H513554   1.990   2.907  17.203  0.5319  0.3922  0.4365
  922MPD2    N113555   2.227   2.819  17.619  0.0637  0.0458 -0.0798
  922MPD2    H713556   2.159   2.883  17.659  1.6640  0.4845  1.9285
  923MPD2     C13557   3.809   0.726   9.059  0.2774 -0.5814 -0.3334
  923MPD2    C113558   3.740   0.734   9.182 -0.9884  0.1400 -0.9521
  923MPD2    C213559   3.808   0.703   9.300  0.2318 -0.0678 -0.5778
  923MPD2    C313560   3.940   0.671   9.284  0.1987  0.5110  0.2549
  923MPD2    C413561   3.996   0.635   9.163  0.0510 -0.3916  0.5650
  923MPD2    C513562   3.934   0.670   9.047 -0.2303 -0.0830  0.0076
  923MPD2     H13563   3.767   0.703   9.400  1.3763  0.9368 -0.1181
  923MPD2    H113564   4.095   0.595   9.149 -0.9404 -2.8224  0.4426
  923MPD2    H213565   3.768   0.755   8.963  2.8892 -1.4140 -1.6952
  923MPD2    H313566   3.974   0.652   8.948 -0.6480  2.5486 -0.6225
  923MPD2     N13567   4.021   0.633   9.392 -0.0193 -0.2930  0.2166
  923MPD2    H513568   4.114   0.591   9.384  0.9329  1.7903  0.2499
  923MPD2    N113569   3.608   0.784   9.180 -0.0210 -0.6983  0.3480
  923MPD2    H713570   3.562   0.776   9.090  1.5989  0.3581 -0.5686
  924MPD2     C13571   4.002   3.195  15.834  0.1750 -0.2135 -0.1356
  924MPD2    C113572   4.014   3.160  15.970  0.1045 -0.2399 -0.6826
  924MPD2    C213573   4.073   3.256  16.049  0.1379  0.9199  0.7512
  924MPD2    C313574   4.119   3.380  16.000 -0.0520  0.1075  0.2201
  924MPD2    C413575   4.089   3.405  15.870 -0.3444  0.0928  0.4922
  924MPD2    C513576   4.038   3.313  15.779 -0.7043  0.1942  0.5228
  924MPD2     H13577   4.082   3.236  16.155 -1.3638  3.0445  1.2583
  924MPD2    H113578   4.122   3.500  15.829 -2.8108 -0.1989 -2.1416
  924MPD2    H213579   3.961   3.122  15.766  2.5685 -0.7048 -1.0723
  924MPD2    H313580   4.019   3.336  15.674  0.0407 -3.5226 -0.4289
  924MPD2     N13581   4.169   3.489  16.080 -0.3261 -0.5169  0.1210
  924MPD2    H513582   4.148   3.583  16.045 -1.1172 -0.6989  0.0983
  924MPD2    N113583   3.954   3.047  16.017  0.3063 -0.1625 -0.2543
  924MPD2    H713584   3.890   2.995  15.957  0.0711  0.0154 -0.1558
  925MPD2     C13585   2.722   1.587  14.933  0.4209 -0.0415  0.4238
  925MPD2    C113586   2.613   1.529  14.874  0.5578 -0.8085 -0.2071
  925MPD2    C213587   2.520   1.469  14.954 -0.4888 -0.3650  0.2106
  925MPD2    C313588   2.531   1.464  15.090  0.3960 -0.5766 -0.0585
  925MPD2    C413589   2.625   1.543  15.147 -0.5780 -1.4269 -0.1400
  925MPD2    C513590   2.729   1.603  15.070 -0.8209  0.0865 -0.6101
  925MPD2     H13591   2.444   1.416  14.899 -0.8171  1.6554 -1.3143
  925MPD2    H113592   2.621   1.559  15.254 -1.2513  1.2587 -0.5496
  925MPD2    H213593   2.805   1.627  14.876 -1.5344  1.7833 -1.1343
  925MPD2    H313594   2.803   1.656  15.129 -2.1432  1.7569 -0.4627
  925MPD2     N13595   2.431   1.401  15.161  0.1444 -0.1716  0.0399
  925MPD2    H513596   2.365   1.339  15.115  1.1943 -1.2680  0.0278
  925MPD2    N113597   2.588   1.531  14.734  0.3672 -0.4699  0.3044
  925MPD2    H713598   2.512   1.467  14.711 -1.5874  1.5436  1.1397
  926MPD2     C13599   1.586   4.540  13.301 -0.1221 -0.2094 -0.2095
  926MPD2    C113600   1.474   4.619  13.294  0.4146 -0.8340 -0.3756
  926MPD2    C213601   1.482   4.724  13.210  0.1225 -0.1320 -0.3356
  926MPD2    C313602   1.586   0.010  13.123 -0.3980  0.1255  0.0195
  926MPD2    C413603   1.706   4.673  13.137  0.2554  0.5716 -0.1081
  926MPD2    C513604   1.698   4.568  13.227 -0.5192 -0.2147  0.3569
  926MPD2     H13605   1.390   0.041  13.203 -1.3435 -2.5137  0.1415
  926MPD2    H113606   1.798   4.694  13.083  0.8104  2.8887  1.7221
  926MPD2    H213607   1.596   4.445  13.353  1.1801 -0.8893 -1.7199
  926MPD2    H313608   1.781   4.499  13.240  2.1283  2.3910 -2.5655
  926MPD2     N13609   1.589   0.119  13.026 -0.0395 -0.8753  0.2372
  926MPD2    H513610   1.674   0.130  12.972 -0.2921 -0.8823 -0.1639
  926MPD2    N113611   1.355   4.597  13.371  0.2610  0.8705  0.4687
  926MPD2    H713612   1.283   4.660  13.339  1.3528  0.5454 -2.6826
  927MPD2     C13613   1.200   0.763   0.512 -0.1060  0.2029 -0.5366
  927MPD2    C113614   1.085   0.793   0.449 -0.4103 -0.2686  0.2239
  927MPD2    C213615   1.082   0.913   0.376  0.3814 -0.6339  0.1964
  927MPD2    C313616   1.189   1.000   0.364 -0.7344  0.1768 -0.5539
  927MPD2    C413617   1.307   0.958   0.420 -0.5142  0.1504 -0.3572
  927MPD2    C513618   1.310   0.848   0.498 -0.1192  0.3181  0.3019
  927MPD2     H13619   0.988   0.932   0.325  1.3349  0.5511 -1.1225
  927MPD2    H113620   1.388   1.029   0.409  0.3882 -0.6061  1.4328
  927MPD2    H213621   1.213   0.676   0.575  2.7255  0.8239 -0.2364
  927MPD2    H313622   1.405   0.836   0.549  0.1812 -0.5962 -0.4803
  927MPD2     N13623   1.152   1.121   0.303  0.8264  0.1916  0.3336
  927MPD2    H513624   1.053   1.121   0.279  0.7532  0.0363  0.6277
  927MPD2    N113625   0.967   0.715   0.455  0.9609  0.0512  0.3096
  927MPD2    H713626   0.890   0.740   0.393 -1.2879 -1.3142  2.5600
  928MPD2     C13627   3.550   4.199   0.125 -0.1274  0.4257 -0.3466
  928MPD2    C113628   3.628   4.299   0.179  0.0592 -0.7008 -0.4075
  928MPD2    C213629   3.742   4.349   0.117 -0.0127 -0.0517 -0.1037
  928MPD2    C313630   3.777   4.306  17.749 -0.1323  0.0127  0.0324
  928MPD2    C413631   3.691   4.217  17.688  0.0641  0.6746 -0.7810
  928MPD2    C513632   3.582   4.169  17.753  0.1072 -0.3355  0.4860
  928MPD2     H13633   3.800   4.423   0.171 -0.3003  0.0839  0.0202
  928MPD2    H113634   3.684   4.189  17.583  0.3235 -1.3608 -0.2455
  928MPD2    H213635   3.463   4.158   0.175 -0.1663 -0.0149 -0.7727
  928MPD2    H313636   3.511   4.117  17.689  3.3124 -2.3799 -1.4140
  928MPD2     N13637   3.881   4.349  17.671  0.6680  0.0203 -0.9061
  928MPD2    H513638   3.895   4.315  17.576  0.4380 -1.4584 -0.4089
  928MPD2    N113639   3.593   4.346   0.308 -0.0627  0.5525 -0.7805
  928MPD2    H713640   3.536   4.285   0.366  0.3501  2.1010  1.2413
  929MPD2     C13641   3.822   0.603   9.936  0.3747 -1.0257  0.2368
  929MPD2    C113642   3.737   0.521  10.013  0.2552  0.3066 -0.2302
  929MPD2    C213643   3.601   0.533   9.998 -0.4233  0.0505 -0.0374
  929MPD2    C313644   3.549   0.630   9.912 -0.2655  0.0639 -0.4039
  929MPD2    C413645   3.635   0.709   9.844 -0.5414  0.4784  0.2988
  929MPD2    C513646   3.773   0.699   9.851  0.0444  0.6384  0.2965
  929MPD2     H13647   3.547   0.442  10.024 -1.4692  0.2728 -1.3954
  929MPD2    H113648   3.597   0.776   9.768  1.1354 -0.2999 -1.2249
  929MPD2    H213649   3.930   0.599   9.939  0.5661  2.4806 -1.6097
  929MPD2    H313650   3.836   0.772   9.802 -0.9766  1.6326  0.4653
  929MPD2     N13651   3.410   0.664   9.899  0.0058 -0.1903  0.2561
  929MPD2    H513652   3.392   0.760   9.871  1.6214  0.7575  2.5188
  929MPD2    N113653   3.798   0.416  10.087  0.4012  0.4131 -0.3897
  929MPD2    H713654   3.898   0.418  10.100  0.4861  1.5276 -1.1915
  930MPD2     C13655   0.909   2.433  13.852 -0.9294 -0.7614  0.2269
  930MPD2    C113656   0.787   2.503  13.850 -0.1510 -0.0610  0.5687
  930MPD2    C213657   0.675   2.430  13.817 -0.5446 -0.5559  0.1824
  930MPD2    C313658   0.684   2.307  13.765  0.2026  0.1512 -0.3652
  930MPD2    C413659   0.795   2.233  13.786 -0.4035  0.4771  0.0749
  930MPD2    C513660   0.908   2.296  13.826 -0.2816  0.3676 -0.3626
  930MPD2     H13661   0.576   2.475  13.820 -0.8188 -1.3226  3.1034
  930MPD2    H113662   0.809   2.130  13.755  1.7454  0.6763  0.3572
  930MPD2    H213663   0.999   2.491  13.864  0.2611 -2.7018  0.5687
  930MPD2    H313664   1.001   2.240  13.822  0.0101  0.5748  3.8015
  930MPD2     N13665   0.578   2.247  13.693 -0.3179 -0.0063  0.3459
  930MPD2    H513666   0.577   2.146  13.685  2.4485  0.1350 -1.7459
  930MPD2    N113667   0.785   2.647  13.873  0.1383 -0.2924  0.1665
  930MPD2    H713668   0.870   2.693  13.906 -1.3554  2.6878 -0.1987
  931MPD2     C13669   0.266   0.155   0.693  1.0077  0.4997  0.2052
  931MPD2    C113670   0.396   0.181   0.721  0.0932  0.7521 -0.5843
  931MPD2    C213671   0.456   0.129   0.838  0.1704  0.5855 -0.1909
  931MPD2    C313672   0.375   0.076   0.935 -0.5925  0.6530 -0.2168
  931MPD2    C413673   0.241   0.061   0.917  0.4900 -0.0922  0.5613
  931MPD2    C513674   0.188   0.099   0.796  0.0947 -0.7678  0.0326
  931MPD2     H13675   0.559   0.145   0.868  0.2408 -1.0913  0.4438
  931MPD2    H113676   0.176   0.023   0.995 -0.3838 -2.2010 -1.1823
  931MPD2    H213677   0.218   0.185   0.600 -0.2065  0.7584  0.9174
  931MPD2    H313678   0.082   0.098   0.777  0.2320 -0.0229 -0.7639
  931MPD2     N13679   0.417   0.054   1.069  0.3746  0.1638 -0.4119
  931MPD2    H513680   0.342   0.055   1.138 -2.4258  1.8453 -3.4179
  931MPD2    N113681   0.472   0.264   0.632  0.3857  1.0534 -0.0781
  931MPD2    H713682   0.437   0.287   0.540 -1.1445  0.6485  0.4042
  932MPD2     C13683   2.844   0.870  11.266 -0.5291 -0.0089  0.1884
  932MPD2    C113684   2.862   0.969  11.362 -0.3557  0.2736  0.3618
  932MPD2    C213685   2.936   0.936  11.471  0.0495  0.1896 -0.3350
  932MPD2    C313686   2.979   0.802  11.490  0.3242 -0.2815 -0.9291
  932MPD2    C413687   2.961   0.708  11.389 -0.2658 -0.3438  0.1266
  932MPD2    C513688   2.895   0.746  11.273  0.3854 -0.2648  0.4425
  932MPD2     H13689   2.950   1.009  11.550 -1.3559 -1.3783  1.3959
  932MPD2    H113690   3.001   0.608  11.396  0.6407  0.0457  0.4479
  932MPD2    H213691   2.808   0.903  11.169  1.6422  1.3066 -0.1773
  932MPD2    H313692   2.887   0.680  11.187 -2.3355  1.0364 -0.3331
  932MPD2     N13693   3.038   0.777  11.616  0.0250 -0.7865 -0.2841
  932MPD2    H513694   3.019   0.842  11.691  1.3840  0.0273 -0.6587
  932MPD2    N113695   2.827   1.102  11.350 -0.3722 -0.2096 -0.5499
  932MPD2    H713696   2.858   1.164  11.425 -1.0415 -0.7281  0.1651
  933MPD2     C13697   3.554   0.035   1.132 -0.4123  0.3478 -0.2719
  933MPD2    C113698   3.544   0.063   0.999  0.2715 -0.3212 -0.1099
  933MPD2    C213699   3.508   0.190   0.959  0.4851  0.0877  0.4567
  933MPD2    C313700   3.465   0.283   1.046 -0.2889  0.6045  0.1679
  933MPD2    C413701   3.459   0.248   1.177 -0.4860  0.3815 -1.1032
  933MPD2    C513702   3.519   0.130   1.221  0.1485 -0.0901 -0.0770
  933MPD2     H13703   3.503   0.217   0.854  0.4384 -0.9733  0.1802
  933MPD2    H113704   3.422   0.318   1.251  1.3636  0.5848 -0.3648
  933MPD2    H213705   3.591   4.680   1.171  2.2360  1.5636  0.1740
  933MPD2    H313706   3.515   0.104   1.326  0.0848 -3.6682 -0.9899
  933MPD2     N13707   3.404   0.403   0.993  0.1361  0.3570  0.7997
  933MPD2    H513708   3.423   0.424   0.896 -0.8567 -1.7247  0.1715
  933MPD2    N113709   3.560   4.696   0.907 -0.4144 -0.1800  0.1123
  933MPD2    H713710   3.563   4.604   0.950 -0.4245  0.1716  0.8674
  934MPD2     C13711   0.659   2.188   1.503 -0.1918 -0.1728 -0.2087
  934MPD2    C113712   0.668   2.171   1.367 -0.7726  0.1353  0.3031
  934MPD2    C213713   0.576   2.092   1.304 -0.1445  0.2383  0.2451
  934MPD2    C313714   0.472   2.040   1.378  0.1923 -0.2809  0.5805
  934MPD2    C413715   0.461   2.063   1.507 -0.3465  0.4253  0.4179
  934MPD2    C513716   0.549   2.144   1.570  0.1444 -0.0337  0.2792
  934MPD2     H13717   0.589   2.083   1.197 -0.6015 -1.2132  0.3070
  934MPD2    H113718   0.377   2.024   1.564 -1.2548  1.7609 -0.0346
  934MPD2    H213719   0.734   2.239   1.563 -1.0026  0.2872  0.4088
  934MPD2    H313720   0.543   2.155   1.677  2.4615  0.6057  0.3327
  934MPD2     N13721   0.371   1.961   1.319 -0.0490  0.0826  0.2146
  934MPD2    H513722   0.289   1.932   1.372 -0.2091  0.6658  0.2838
  934MPD2    N113723   0.784   2.217   1.296  0.2811 -0.2909 -0.2258
  934MPD2    H713724   0.766   2.218   1.196 -0.2680  1.4638 -0.1190
  935MPD2     C13725   0.419   1.169   0.782 -0.2961  0.0821 -0.5112
  935MPD2    C113726   0.281   1.186   0.798 -0.0575 -0.4033  0.2247
  935MPD2    C213727   0.227   1.316   0.823 -0.6421 -0.5351 -0.6189
  935MPD2    C313728   0.312   1.419   0.852 -0.6952  0.0175  0.2749
  935MPD2    C413729   0.450   1.397   0.863  0.7611 -0.1544  0.6554
  935MPD2    C513730   0.500   1.276   0.822  0.0681  0.5448  0.6370
  935MPD2     H13731   0.121   1.331   0.809 -0.8965  0.8368  2.7546
  935MPD2    H113732   0.529   1.468   0.886  0.8632  0.0411 -0.2917
  935MPD2    H213733   0.473   1.081   0.748  1.2521 -0.5850  3.7105
  935MPD2    H313734   0.608   1.262   0.819 -0.0890 -0.7065  1.0511
  935MPD2     N13735   0.272   1.548   0.884  0.0164 -0.5704  1.0867
  935MPD2    H513736   0.343   1.614   0.914  1.0830 -1.2893  0.1431
  935MPD2    N113737   0.199   1.077   0.770  0.1241 -0.1574 -0.3805
  935MPD2    H713738   0.104   1.109   0.752  0.7027  1.3738 -0.7540
  936MPD2     C13739   2.947   4.711  12.802  0.3914  1.0020  0.3009
  936MPD2    C113740   3.074   4.653  12.821 -0.8270 -0.5039 -0.2796
  936MPD2    C213741   3.185   4.738  12.826  0.0584 -0.2433  0.5953
  936MPD2    C313742   3.168   0.134  12.827  0.3135  0.3852 -0.1979
  936MPD2    C413743   3.044   0.191  12.809  0.6800  0.1099  0.0266
  936MPD2    C513744   2.929   0.111  12.798 -0.4690  0.5073  0.6267
  936MPD2     H13745   3.284   4.693  12.828 -0.7715 -2.1628 -1.2638
  936MPD2    H113746   3.020   0.297  12.806 -2.6380 -0.6000  1.6326
  936MPD2    H213747   2.860   4.647  12.792  1.2814  0.0495 -1.2893
  936MPD2    H313748   2.828   0.151  12.795 -1.0372 -0.9118  0.7045
  936MPD2     N13749   3.283   0.210  12.829 -0.2018  0.3126 -0.6488
  936MPD2    H513750   3.371   0.159  12.826 -1.1219 -1.1254 -2.8146
  936MPD2    N113751   3.107   4.512  12.815  0.3011 -0.0677  0.0236
  936MPD2    H713752   3.207   4.501  12.814  0.5314  1.7027  2.0088
  937MPD2     C13753   0.859   0.969  12.013 -0.2436 -0.0573 -0.4142
  937MPD2    C113754   0.926   1.088  12.048  0.1845 -0.2967  0.1921
  937MPD2    C213755   1.029   1.126  11.954  0.0003 -0.2406 -0.3979
  937MPD2    C313756   1.062   1.037  11.852  0.3492  0.3676 -0.3605
  937MPD2    C413757   1.001   0.914  11.843 -0.0898  0.3379  0.8588
  937MPD2    C513758   0.901   0.879  11.924 -0.3929 -0.0034  1.1211
  937MPD2     H13759   1.070   1.225  11.967 -0.1126 -0.4716  1.7338
  937MPD2    H113760   1.024   0.839  11.768 -1.5809  1.6744 -0.9362
  937MPD2    H213761   0.774   0.942  12.075  0.7768 -0.7987  0.6623
  937MPD2    H313762   0.848   0.786  11.906 -0.9401  0.3442  0.9412
  937MPD2     N13763   1.138   1.077  11.739  0.2065 -0.2013  0.7328
  937MPD2    H513764   1.122   1.031  11.650  0.4931  2.2117 -0.5529
  937MPD2    N113765   0.881   1.187  12.138  0.1217 -0.0099 -0.0384
  937MPD2    H713766   0.929   1.276  12.131 -4.3060  2.2959 -0.8709
  938MPD2     C13767   4.062   1.504   0.564 -0.1322 -0.0023 -0.7334
  938MPD2    C113768   3.955   1.590   0.577  0.8947 -0.8107 -0.6031
  938MPD2    C213769   3.834   1.544   0.629  0.0751 -0.5648 -0.2487
  938MPD2    C313770   3.815   1.402   0.649 -0.1386  0.0116 -0.2277
  938MPD2    C413771   3.919   1.314   0.623 -0.1039 -0.0847 -0.4129
  938MPD2    C513772   4.045   1.370   0.578 -0.3529 -0.9572 -0.2272
  938MPD2     H13773   3.753   1.615   0.642  1.0449  0.0852  2.1971
  938MPD2    H113774   3.905   1.206   0.615 -2.7009  0.2382 -0.3928
  938MPD2    H213775   4.163   1.539   0.543  0.8222 -3.6783 -2.3339
  938MPD2    H313776   4.133   1.309   0.565  1.0934  1.1375 -0.3397
  938MPD2     N13777   3.694   1.339   0.676  0.3326  0.0270  0.5045
  938MPD2    H513778   3.693   1.238   0.668 -0.3804  0.1349 -0.7035
  938MPD2    N113779   3.959   1.731   0.545  0.0734 -0.0611 -0.6003
  938MPD2    H713780   3.877   1.783   0.574  0.3394  0.0621 -0.0816
  939MPD2     C13781   0.307   3.325   1.294 -0.0558  0.6464 -0.3531
  939MPD2    C113782   0.367   3.210   1.278 -0.1845 -0.0839  0.3564
  939MPD2    C213783   0.452   3.190   1.172  0.9044  0.0976 -0.4541
  939MPD2    C313784   0.481   3.296   1.084 -0.4878 -0.0373  0.5815
  939MPD2    C413785   0.417   3.419   1.101  0.6507 -1.1199  0.7043
  939MPD2    C513786   0.331   3.430   1.207  0.0315  0.3595 -0.5345
  939MPD2     H13787   0.495   3.092   1.154  0.5514 -0.0285 -0.6117
  939MPD2    H113788   0.444   3.500   1.034  1.9292 -1.3706  0.9238
  939MPD2    H213789   0.244   3.345   1.379  0.5100  1.7176 -0.1894
  939MPD2    H313790   0.272   3.520   1.217 -0.3305 -0.0406  0.8643
  939MPD2     N13791   0.571   3.285   0.976  0.4101  0.7516  0.0845
  939MPD2    H513792   0.587   3.377   0.936 -2.2332  0.3395 -1.9688
  939MPD2    N113793   0.339   3.121   1.378  0.3360 -0.3291  0.7243
  939MPD2    H713794   0.271   3.140   1.451 -1.4819 -1.1069 -0.7521
  940MPD2     C13795   4.120   4.485  13.692 -0.3205 -0.0999  0.4151
  940MPD2    C113796   4.112   4.370  13.614 -0.8324  0.4812 -0.4057
  940MPD2    C213797   4.060   4.380  13.489  0.0531  0.6884  0.1338
  940MPD2    C313798   4.011   4.502  13.438  0.4840 -0.0047  0.9918
  940MPD2    C413799   4.025   4.619  13.517  0.0924 -0.2009 -0.0110
  940MPD2    C513800   4.076   4.604  13.642 -0.2872  0.2440  0.0974
  940MPD2     H13801   4.051   4.287  13.433  0.5746  1.3369 -1.0334
  940MPD2    H113802   3.998   4.716  13.478 -1.6902 -0.8520 -0.3847
  940MPD2    H213803   4.164   4.473  13.790 -0.6003  0.0547  0.5566
  940MPD2    H313804   4.092   4.688  13.709  2.0063  1.1031 -1.5041
  940MPD2     N13805   3.967   4.510  13.304  0.0077 -0.2811 -0.8013
  940MPD2    H513806   3.951   4.604  13.270  1.7787  0.6090  0.8356
  940MPD2    N113807   4.159   4.243  13.644 -0.5140 -0.6345 -0.3522
  940MPD2    H713808   4.140   4.172  13.574  0.6305  0.9766 -2.2770
  941MPD2     C13809   3.221   3.942   9.867  0.8441  0.4942  0.4873
  941MPD2    C113810   3.292   3.923   9.986 -0.2730  0.6821  0.1117
  941MPD2    C213811   3.264   3.804  10.054 -0.2431  0.0830 -0.0267
  941MPD2    C313812   3.156   3.720  10.026 -0.3263 -0.5865 -0.5068
  941MPD2    C413813   3.079   3.757   9.907 -0.1272  0.3645  0.9902
  941MPD2    C513814   3.117   3.862   9.824  0.3066 -0.3585 -0.2392
  941MPD2     H13815   3.336   3.772  10.129 -0.2650 -2.6250 -1.1419
  941MPD2    H113816   2.998   3.691   9.879  2.8683 -2.5697 -0.7766
  941MPD2    H213817   3.239   4.027   9.803  0.7681  0.4631  0.4258
  941MPD2    H313818   3.062   3.891   9.735 -0.0303  2.0255  0.7408
  941MPD2     N13819   3.123   3.603  10.094 -0.1748  0.2101 -0.3724
  941MPD2    H513820   3.053   3.540  10.056 -1.4871  0.8302  1.0188
  941MPD2    N113821   3.395   4.001  10.028 -0.7571  0.1258  0.0730
  941MPD2    H713822   3.450   3.975  10.109 -0.3300 -1.7716 -0.8398
  942MPD2     C13823   1.892   1.012   9.819  0.1865  0.0649 -0.3033
  942MPD2    C113824   1.976   1.115   9.800  0.7034  0.1361  0.4325
  942MPD2    C213825   2.105   1.086   9.755  0.5337  0.3465  0.0016
  942MPD2    C313826   2.152   0.957   9.730  0.4259 -0.0897  0.2792
  942MPD2    C413827   2.068   0.855   9.775 -0.5527  0.2794 -0.3293
  942MPD2    C513828   1.943   0.887   9.812 -0.3780 -0.6758  0.2465
  942MPD2     H13829   2.159   1.173   9.719  0.9832 -0.8189 -2.1890
  942MPD2    H113830   2.098   0.751   9.765  0.8270  0.7234 -0.7490
  942MPD2    H213831   1.788   1.015   9.850  0.2807 -2.9307  0.3530
  942MPD2    H313832   1.874   0.805   9.826 -0.7818 -0.3670  0.0909
  942MPD2     N13833   2.273   0.922   9.663  0.4084 -0.2264  0.1253
  942MPD2    H513834   2.305   0.827   9.674  2.2290  0.4685  0.9191
  942MPD2    N113835   1.941   1.248   9.814 -0.0563  0.0706 -0.7243
  942MPD2    H713836   2.013   1.319   9.810  1.8363 -1.7982  0.3864
  943MPD2     C13837   1.627   4.073   9.896 -0.2241 -0.2260  0.0818
  943MPD2    C113838   1.594   3.984   9.990 -0.0344 -0.0391 -0.1690
  943MPD2    C213839   1.601   4.015  10.123  0.0410  0.3791 -0.0058
  943MPD2    C313840   1.649   4.142  10.166  0.6353  0.1273  0.6260
  943MPD2    C413841   1.696   4.224  10.067 -0.3064  0.4771 -0.6337
  943MPD2    C513842   1.680   4.194   9.930 -0.4781 -0.7153  0.1258
  943MPD2     H13843   1.556   3.942  10.189  2.5649 -0.4673  0.7882
  943MPD2    H113844   1.732   4.325  10.084  2.1256 -0.8701  2.1529
  943MPD2    H213845   1.628   4.055   9.789  0.4920 -3.1005  0.5914
  943MPD2    H313846   1.728   4.257   9.856  0.9490  1.5773  2.9793
  943MPD2     N13847   1.659   4.185  10.302  0.7857  0.2006  0.1828
  943MPD2    H513848   1.714   4.266  10.330 -1.1238  1.0996  1.3503
  943MPD2    N113849   1.542   3.866   9.926 -0.6376  0.2785 -0.1889
  943MPD2    H713850   1.557   3.848   9.828  0.1841 -0.1098  0.0055
  944MPD2     C13851   1.467   3.099  11.050 -0.4866 -0.1869 -0.3051
  944MPD2    C113852   1.405   3.037  11.158  0.2451  0.4019  0.1892
  944MPD2    C213853   1.379   3.113  11.274  0.7252  0.2146 -0.1795
  944MPD2    C313854   1.408   3.244  11.278  0.6414  0.0079 -0.0812
  944MPD2    C413855   1.463   3.305  11.167 -0.0309  0.0229 -0.4698
  944MPD2    C513856   1.491   3.235  11.050 -0.3074  0.1977  0.1021
  944MPD2     H13857   1.321   3.079  11.360  0.2492 -0.1598 -0.6423
  944MPD2    H113858   1.481   3.412  11.166 -2.0645  0.3541 -0.2105
  944MPD2    H213859   1.489   3.039  10.962  1.1711  3.0854 -2.1171
  944MPD2    H313860   1.534   3.280  10.961 -1.6762 -1.0392 -1.1828
  944MPD2     N13861   1.357   3.313  11.397 -0.9770  0.3033 -0.0445
  944MPD2    H513862   1.306   3.258  11.467  0.4797 -0.8128  0.1372
  944MPD2    N113863   1.359   2.903  11.149 -0.1418  0.1664 -0.5677
  944MPD2    H713864   1.383   2.861  11.059  0.8716 -0.2852 -0.0892
    1TMC1    C113865   0.179   3.405  14.693  0.3623 -1.1496 -0.7363
    1TMC1    C213866   0.065   3.355  14.635 -0.0282  0.3568 -0.5757
    1TMC1    C313867   0.005   3.242  14.697 -0.1607 -0.1115  0.3640
    1TMC1    C413868   0.223   3.355  14.814  0.3623  0.0852 -0.0892
    1TMC1    C513869   0.167   3.243  14.866 -0.1985  0.1806  0.0283
    1TMC1    C613870   0.052   3.191  14.808 -0.3481  0.5775 -0.2125
    1TMC1     C13871   0.211   3.543  14.671 -0.1314  0.7743  0.4616
    1TMC1     O13872   0.293   3.595  14.748 -0.3400 -0.2389 -0.4721
    1TMC1     H13873   0.036   3.382  14.534  1.5936  0.0202 -1.1359
    1TMC1    H113874   0.309   3.398  14.865  0.7602 -0.2959 -0.4354
    1TMC1    H213875   0.003   3.107  14.856 -0.0310  0.6167  0.1859
    1TMC1    C713876   0.224   3.180  14.981 -0.1420  0.3960 -0.1593
    1TMC1    C813877   4.643   3.164  14.620  0.6499 -0.1474  0.0456
    1TMC1    O113878   0.343   3.159  14.989  0.1230 -0.7556  0.7709
    1TMC1    O213879   4.659   3.041  14.611  0.2050  0.1966 -0.0080
    1TMC1    O313880   0.129   3.176  15.073  0.8220  0.3327 -0.1131
    1TMC1    H313881   0.052   3.222  15.036  0.9137  0.8912  0.3975
    1TMC1    O513882   4.566   3.245  14.542 -0.0374 -0.0273  0.1926
    1TMC1    H513883   4.564   3.338  14.573  0.3818 -0.1378  0.5617
    2MPD2     C13884   0.153   4.009  14.480  0.3272  0.0434 -0.3110
    2MPD2    C113885   0.050   3.924  14.430  0.5337  0.3557 -0.5917
    2MPD2    C213886   0.054   3.790  14.449  1.3099 -0.7058 -0.8490
    2MPD2    C313887   0.151   3.745  14.540  0.1976 -0.2527  0.1652
    2MPD2    C413888   0.251   3.827  14.588  0.6467  0.1498  0.2141
    2MPD2    C513889   0.257   3.963  14.559  0.0117  0.4855  0.0234
    2MPD2     H13890   4.724   3.720  14.403 -1.2957  3.1736 -2.8512
    2MPD2    H113891   0.324   3.801  14.664  0.3321 -0.5398  0.2782
    2MPD2    H213892   0.142   4.114  14.456 -1.6573  0.1975  1.3484
    2MPD2    H313893   0.334   4.029  14.595  1.8403 -0.9739 -1.2233
    2MPD2     N13894   0.141   3.606  14.569 -0.0177 -0.2486  0.4884
    2MPD2    H513895   0.067   3.560  14.518 -0.1882  0.7921 -0.1908
    2MPD2    N113896   4.675   3.983  14.373  0.2222  0.3562  0.1681
    2MPD2    H713897   4.677   4.085  14.368  0.2128  0.4377  1.7603
    3TMC2    C113898   4.459   4.032  14.314  0.2295 -0.1037  0.1353
    3TMC2    C213899   4.469   4.150  14.385  0.0199  0.1686  0.0476
    3TMC2    C313900   4.358   4.234  14.373 -0.2231 -0.3415 -0.0345
    3TMC2    C413901   4.356   4.013  14.223 -0.2693  0.4091 -0.1622
    3TMC2    C513902   4.255   4.112  14.207  0.1883 -0.0190  0.2979
    3TMC2    C613903   4.254   4.218  14.289 -0.3177 -0.2316  0.0141
    3TMC2     C13904   4.565   3.928  14.325 -0.1284 -0.7807 -0.1421
    3TMC2     O13905   4.543   3.819  14.273  0.2679 -0.3145  0.4426
    3TMC2     H13906   4.541   4.177  14.462  0.5164  1.2910 -0.8167
    3TMC2    H113907   4.354   3.928  14.156 -2.9689  0.7478 -0.5045
    3TMC2    H213908   4.192   4.306  14.290  2.2557  1.6513 -2.8024
    3TMC2    C713909   4.144   4.082  14.113  0.5234 -0.4456  0.0450
    3TMC2    C813910   4.366   4.365  14.435  0.0524 -0.1323 -0.1000
    3TMC2    O113911   4.147   3.974  14.056  0.0792  0.1453  0.2656
    3TMC2    O213912   4.334   4.468  14.374 -0.1854  0.7212 -0.2464
    3TMC2    O513913   4.331   4.346  14.565  0.0072  0.3886 -0.0483
    3TMC2    H513914   4.328   4.250  14.585 -0.2242 -0.1382 -2.6698
    4TMC2    C113915   3.641   0.033  13.590  0.5531 -0.5324 -0.3468
    4TMC2    C213916   3.733   0.133  13.571  0.8416  0.3177 -0.1378
    4TMC2    C313917   3.825   0.148  13.670  0.1294  0.4143 -0.6513
    4TMC2    C413918   3.648   4.676  13.692  0.2233  0.0289  0.0108
    4TMC2    C513919   3.756   4.690  13.774 -0.1901  0.3565  0.3587
    4TMC2    C613920   3.841   0.062  13.772 -0.9470  0.2784  0.3306
    4TMC2     C13921   3.521   0.011  13.506 -0.1138  1.1420 -0.7183
    4TMC2     O13922   3.466   4.645  13.524 -0.1534 -0.5305  0.6960
    4TMC2     H13923   3.715   0.201  13.489 -0.0339  2.9676  2.2724
    4TMC2    H113924   3.585   4.589  13.704  0.8328 -0.2199  1.4652
    4TMC2    H213925   3.928   0.079  13.834 -0.7039  1.0094 -0.2103
    4TMC2    C713926   3.800   4.590  13.867 -0.3417 -0.5180  0.3143
    4TMC2    C813927   3.879   0.283  13.689 -0.2350  0.0977  0.2332
    4TMC2    O113928   3.872   4.637  13.959 -0.5197 -0.3904 -0.6041
    4TMC2    O213929   3.895   0.323  13.802 -0.3015  0.0583 -0.0088
    4TMC2    O513930   3.881   0.347  13.568  1.0375 -1.2052 -0.5447
    4TMC2    H513931   3.880   0.286  13.491 -0.0461 -0.9910 -0.7029
    5MPD2     C13932   3.165   0.155  13.170 -0.2285  0.5107 -0.4329
    5MPD2    C113933   3.255   0.267  13.184 -0.2275 -0.3850 -0.3383
    5MPD2    C213934   3.368   0.244  13.266  0.3870 -0.0591 -0.2841
    5MPD2    C313935   3.384   0.128  13.340 -0.6153 -0.6770 -0.2173
    5MPD2    C413936   3.289   0.028  13.329  0.6025 -0.4587  0.0537
    5MPD2    C513937   3.188   0.040  13.240  0.5012 -0.0442  0.7369
    5MPD2     H13938   3.431   0.330  13.284 -0.0594  0.4232 -1.0300
    5MPD2    H113939   3.298   4.674  13.384  0.4352 -0.4968  0.0187
    5MPD2    H213940   3.087   0.159  13.095  0.4943 -0.8100 -1.2438
    5MPD2    H313941   3.121   4.695  13.225  1.3174 -0.1211 -2.3646
    5MPD2     N13942   3.488   0.122  13.434  0.0010  0.6800 -0.0485
    5MPD2    H513943   3.535   0.212  13.447 -1.5645  1.3986  0.6055
    5MPD2    N113944   3.225   0.386  13.117 -0.1624 -0.4910  0.0616
    5MPD2    H713945   3.152   0.387  13.046 -1.3057  0.4140  1.2615
    6MPD1     C13946   2.813   2.159  13.665  0.3913 -0.4330  0.4995
    6MPD1    C113947   2.925   2.110  13.609  0.3157  0.2499  0.3535
    6MPD1    C213948   2.954   1.969  13.626 -0.0852  0.7273 -0.2889
    6MPD1    C313949   2.859   1.886  13.699 -0.1036 -0.6762 -0.0383
    6MPD1    C413950   2.742   1.939  13.748 -0.2717 -0.0780  0.0435
    6MPD1    C513951   2.722   2.076  13.725  0.0986  0.2163 -0.7747
    6MPD1     H13952   3.039   1.926  13.574 -0.5797  1.9875 -2.1412
    6MPD1    H113953   2.671   1.884  13.809  0.9437  0.0532  1.6008
    6MPD1    H213954   2.801   2.266  13.654  0.5711 -0.4646 -0.0123
    6MPD1    H313955   2.623   2.117  13.741 -0.1241 -0.2127 -1.0334
    6MPD1     N13956   2.861   1.741  13.716  0.6143  0.7051 -0.3101
    6MPD1    H513957   2.784   1.681  13.744 -0.2511  1.9036 -0.1244
    6MPD1    N113958   3.024   2.201  13.558  0.3718 -0.2453 -0.4024
    6MPD1    H613959   3.067   2.153  13.480 -1.9010 -2.0963 -0.5001
    6MPD1    H713960   2.983   2.290  13.531 -0.5512 -0.9581 -1.3507
    7MPD2     C13961   2.653   1.077  13.332 -0.2867 -0.4219 -0.0012
    7MPD2    C113962   2.784   1.126  13.314 -0.2296 -0.0781  0.3579
    7MPD2    C213963   2.873   1.061  13.234 -0.5439 -0.5639  0.6839
    7MPD2    C313964   2.834   0.959  13.158  0.0167  0.2426  0.2067
    7MPD2    C413965   2.703   0.914  13.164 -0.0073  0.5291  1.5856
    7MPD2    C513966   2.616   0.973  13.253 -0.3656  0.4865 -0.0296
    7MPD2     H13967   2.976   1.092  13.226 -0.5492 -0.5658  0.6116
    7MPD2    H113968   2.661   0.827  13.115  1.5088 -0.1333  1.4670
    7MPD2    H213969   2.582   1.131  13.394  0.3295  1.7175 -1.1739
    7MPD2    H313970   2.516   0.931  13.257 -0.7896  1.3173 -1.9008
    7MPD2     N13971   2.937   0.899  13.081 -0.6150 -0.6865 -0.1469
    7MPD2    H513972   3.024   0.950  13.085 -0.7314 -0.7203  2.5807
    7MPD2    N113973   2.838   1.213  13.405  0.0917  0.3510  0.3129
    7MPD2    H713974   2.937   1.235  13.405  0.7406 -2.5357  0.0897
    8TMC3    C113975   3.075   0.749  12.973  1.3327 -0.2875  0.2887
    8TMC3    C213976   3.120   0.623  13.013  0.6302 -0.0808  0.0697
    8TMC3    C313977   3.252   0.616  13.043  0.1414  0.2471 -0.8910
    8TMC3    C413978   3.161   0.853  12.984 -0.0719  0.3963  0.4083
    8TMC3    C513979   3.283   0.842  13.039 -0.3385  1.1678  0.0457
    8TMC3    C613980   3.336   0.721  13.053 -0.9221 -0.3934 -0.4263
    8TMC3     C13981   2.939   0.780  13.010 -0.0935 -0.0439  0.5869
    8TMC3     O13982   2.857   0.690  13.018  0.3013  0.3764  0.0204
    8TMC3     H13983   3.049   0.542  13.006  0.3399  0.1301  0.5920
    8TMC3    H113984   3.129   0.955  12.964 -0.1176  0.2693 -0.1480
    8TMC3    H213985   3.432   0.713  13.101  0.1976 -0.6249 -2.6905
    8TMC3    C713986   3.277   0.922  13.157  0.2261  0.1960  0.3086
    8TMC3    C813987   3.304   0.503  13.119  0.1330  0.2950 -0.1795
    8TMC3    O113988   3.201   1.015  13.164 -0.4403 -0.2860  0.1537
    8TMC3    O213989   3.406   0.519  13.182 -0.1108  0.0828 -0.5195
    9TMC3    C113990   2.952   1.531  13.694 -0.1544 -0.3623  0.5228
    9TMC3    C213991   3.062   1.455  13.727  0.0648  0.4803  0.2950
    9TMC3    C313992   3.059   1.325  13.695 -0.0293 -0.3897  0.0654
    9TMC3    C413993   2.850   1.480  13.629 -0.0980  0.0821  0.1540
    9TMC3    C513994   2.858   1.343  13.593  0.1894  0.5765 -0.2714
    9TMC3    C613995   2.965   1.263  13.624  0.0116 -0.0777  0.7432
    9TMC3     C13996   2.978   1.670  13.689  0.0429  0.9347  1.1247
    9TMC3     O13997   3.093   1.715  13.670 -0.1709 -0.0502 -0.3960
    9TMC3     H13998   3.157   1.489  13.765 -0.4127  1.3051  0.7630
    9TMC3    H113999   2.774   1.541  13.581 -0.1977  1.7813  2.4777
    9TMC3    H214000   2.969   1.155  13.613  0.1050 -0.0632  0.6190
    9TMC3    C714001   2.769   1.295  13.490 -0.4687  0.2066  0.3440
    9TMC3    C814002   3.184   1.246  13.713  0.1356  0.1417 -0.1420
    9TMC3    O114003   2.649   1.327  13.491  0.7589  0.5171 -0.0786
    9TMC3    O214004   3.220   1.206  13.820 -0.1477 -0.0704 -0.0521
   10MPD2     C14005   3.370   0.830  13.501 -0.0110 -0.5217 -0.6032
   10MPD2    C114006   3.334   0.916  13.396  0.5197  0.5733  0.0554
   10MPD2    C214007   3.299   1.047  13.436  0.8654  0.2618  0.4366
   10MPD2    C314008   3.294   1.083  13.568  0.7492  0.5472  0.3156
   10MPD2    C414009   3.343   1.000  13.664  0.7714  0.0596  0.4485
   10MPD2    C514010   3.385   0.873  13.628  0.1310 -0.2806 -0.0234
   10MPD2     H14011   3.262   1.114  13.359  2.1854 -0.5175 -0.8901
   10MPD2    H114012   3.341   1.023  13.770  0.7569  0.7714  0.2970
   10MPD2    H214013   3.396   0.726  13.485 -0.4603 -0.5984 -0.8375
   10MPD2    H314014   3.429   0.804  13.699  0.0156 -1.3350 -0.9837
   10MPD2     N14015   3.209   1.189  13.593  0.5091 -0.6872  0.1736
   10MPD2    H514016   3.165   1.234  13.513  2.3289  0.7886  0.0003
   10MPD2    N114017   3.326   0.859  13.268 -0.0486 -0.4869 -0.8313
   10MPD2    H714018   3.363   0.766  13.255  0.1433 -0.7186  1.2658
   11MPD2     C14019   3.900   4.083  13.958 -0.1013  0.5755  0.1874
   11MPD2    C114020   3.956   4.197  14.018 -0.0850 -0.4059  0.3240
   11MPD2    C214021   3.903   4.323  13.988 -0.0592  0.4875  0.4982
   11MPD2    C314022   3.811   4.337  13.888  0.0134 -0.0224 -0.5272
   11MPD2    C414023   3.761   4.221  13.830  0.1741  0.3055 -0.7107
   11MPD2    C514024   3.804   4.099  13.864 -0.3982  0.1336 -0.1082
   11MPD2     H14025   3.946   4.417  14.020  1.4465  0.2474 -0.8282
   11MPD2    H114026   3.682   4.219  13.755 -1.3885  0.6789  0.9383
   11MPD2    H214027   3.931   3.986  13.995  0.8655  1.1172  0.8120
   11MPD2    H314028   3.766   4.008  13.821  1.0519  0.3555 -1.9141
   11MPD2     N14029   3.768   4.460  13.830 -1.0837  0.1786  1.6204
   11MPD2    H514030   3.709   4.448  13.749  1.7944 -1.0565 -0.2939
   11MPD2    N114031   4.060   4.188  14.113 -0.0992  0.0260 -0.2342
   11MPD2    H714032   4.080   4.264  14.178 -0.7525 -1.5784  1.8160
    1MPD1     C14033   3.810   0.716  17.712  0.0298 -0.2784 -0.7100
    1MPD1    C114034   3.797   0.584  17.734 -0.0323 -0.2032  0.1110
    1MPD1    C214035   3.709   0.507  17.665  0.6642  0.9544 -0.3879
    1MPD1    C314036   3.631   0.577  17.570 -0.3446 -0.6718  0.6952
    1MPD1    C414037   3.636   0.714  17.558 -0.3755  0.1574  0.1652
    1MPD1    C514038   3.732   0.777  17.622  0.0092  0.5096 -0.0247
    1MPD1     H14039   3.700   0.401  17.689  3.0761  1.0564  0.8879
    1MPD1    H114040   3.560   0.759  17.495 -0.2822 -0.1129 -0.1435
    1MPD1    H214041   3.881   0.776   0.014 -0.6684 -2.2870  2.3142
    1MPD1    H314042   3.722   0.885  17.622 -0.3170  0.4829 -0.7268
    1MPD1     N14043   3.530   0.506  17.501  0.5362 -0.4288  0.3353
    1MPD1    H514044   3.466   0.559  17.444 -1.7721 -2.8675  0.6471
    1MPD1    N114045   3.898   0.523   0.059 -0.0825  0.1231 -0.7067
    1MPD1    H614046   3.969   0.487  17.749  0.8311  1.3728 -0.3932
    1MPD1    H714047   3.946   0.595   0.113 -1.3027  0.6844 -0.3718
    2MPD1     C14048   2.539   0.602  17.460 -0.3704 -0.2235  0.5269
    2MPD1    C114049   2.555   0.466  17.455  0.4815 -0.4327  0.0476
    2MPD1    C214050   2.677   0.415  17.497 -0.0385  0.9215  0.1714
    2MPD1    C314051   2.783   0.497  17.506  0.1455  0.1930  0.1815
    2MPD1    C414052   2.769   0.637  17.490  0.7395 -0.6377  0.2579
    2MPD1    C514053   2.643   0.685  17.485  0.2882  0.4447  0.6347
    2MPD1     H14054   2.688   0.307  17.502 -1.3703  0.8195  0.9590
    2MPD1    H114055   2.855   0.703  17.486  0.1641  0.1158  0.3795
    2MPD1    H214056   2.442   0.649  17.447 -0.8492 -2.0146 -2.3164
    2MPD1    H314057   2.653   0.792  17.474 -1.0697  0.5042  0.0657
    2MPD1     N14058   2.914   0.441  17.518  0.6584  0.6857 -0.0747
    2MPD1    H514059   2.905   0.340  17.518 -0.4507  0.7771  0.3821
    2MPD1    N114060   2.439   0.384  17.459  0.4382 -0.5258 -0.1774
    2MPD1    H614061   2.460   0.290  17.426  2.0786 -0.1710 -0.1271
    2MPD1    H714062   2.380   0.427  17.388 -1.1439  1.5026  2.3409
    3TMC3    C114063   3.145   0.399  17.479  0.1507 -0.5442 -0.2026
    3TMC3    C214064   3.111   0.277  17.436  0.0597 -0.2576  0.9291
    3TMC3    C314065   3.210   0.182  17.403  0.4996 -0.3012  0.0832
    3TMC3    C414066   3.275   0.433  17.501  0.7217 -0.0880 -0.6611
    3TMC3    C514067   3.371   0.341  17.485  0.0297 -0.2401 -0.2183
    3TMC3    C614068   3.338   0.221  17.431 -0.5193  0.6966  0.1297
    3TMC3     C14069   3.041   0.498  17.510  1.0826  0.1878  0.7796
    3TMC3     O14070   3.069   0.617  17.520 -0.5703  0.3409  0.1132
    3TMC3     H14071   3.008   0.267  17.401 -0.2593  1.9046  1.2790
    3TMC3    H114072   3.289   0.519  17.565  0.0326 -0.1768 -0.3914
    3TMC3    H214073   3.423   0.161  17.399 -0.8768  0.2128  0.0838
    3TMC3    C714074   3.504   0.373  17.519 -0.3737  0.0455 -0.1419
    3TMC3    C814075   3.179   0.053  17.347 -0.2994 -0.1302  0.6455
    3TMC3    O114076   3.575   0.276  17.549  0.0979 -0.3173 -0.8359
    3TMC3    O214077   3.269   4.725  17.302  0.1935 -0.3087 -0.8514
    4MPD1     C14078   2.856   4.415  17.222  0.6353 -0.2233  0.1661
    4MPD1    C114079   2.785   4.503  17.308 -0.1794  0.0787 -0.0624
    4MPD1    C214080   2.851   4.622  17.348  0.0553 -0.3298  0.2851
    4MPD1    C314081   2.981   4.640  17.317  0.2129 -0.4183  0.6350
    4MPD1    C414082   3.049   4.551  17.239  0.2104 -0.9100 -0.3649
    4MPD1    C514083   2.987   4.441  17.190  0.1417 -0.5879 -0.5914
    4MPD1     H14084   2.802   4.697  17.408 -1.3415 -0.2086 -0.9951
    4MPD1    H114085   3.154   4.564  17.216  0.9174 -1.5769  2.5101
    4MPD1    H214086   2.809   4.329  17.175  0.8615  0.8187 -1.9461
    4MPD1    H314087   3.046   4.381  17.123 -0.2261 -1.8166  0.1913
    4MPD1     N14088   3.044   0.021  17.361 -0.0590 -0.3909  0.2454
    4MPD1    H514089   2.985   0.088  17.408  0.7099 -0.8053  1.8117
    4MPD1    N114090   2.649   4.490  17.330  0.0452  0.3674  0.0950
    4MPD1    H614091   2.619   4.395  17.309  0.7341  0.0235  0.7015
    4MPD1    H714092   2.611   4.525  17.418  4.8916 -0.1723  2.3872
    1TCq1    O114093   2.243   1.120  10.861  0.2519  0.4339 -0.3878
    1TCq1    C114094   2.177   1.234  10.893 -0.4407  0.3982 -0.1812
    1TCq1    O214095   2.221   1.332  10.959 -0.0677  0.0145  0.2695
    1TCq1    C214096   2.038   1.211  10.869 -0.0435  0.0057  0.0136
    1TCq1    C314097   1.995   1.138  10.755  0.1111 -0.2862 -0.4793
    1TCq1    C414098   1.853   1.125  10.740 -0.1892 -0.6450 -0.3086
    1TCq1    C514099   1.769   1.165  10.836  0.6446 -0.8820  0.4618
    1TCq1    C614100   1.809   1.242  10.937  0.5091 -0.3516  0.1345
    1TCq1    C714101   1.947   1.274  10.951 -0.4490 -0.0408  0.2826
    1TCq1    C814102   1.703   1.308  11.014  0.1098  0.0892  0.0626
    1TCq1    O414103   1.607   1.234  11.044  0.1620  0.1334  0.1376
    1TCq1    C914104   1.812   1.003  10.669  0.7604 -0.5268 -0.1124
    1TCq1    O514105   1.717   0.937  10.721 -0.1568 -0.3164 -0.8332
    1TCq1    O614106   1.870   0.977  10.561  0.0106  0.4649  0.1257
    1TCq1    H114107   2.178   1.048  10.851  2.5869 -1.5323 -1.3569
    1TCq1    H214108   2.054   1.073  10.692  0.4470 -0.2305 -0.2238
    1TCq1    H314109   1.665   1.138  10.830  0.2046  0.3976  2.2071
    1TCq1    H414110   1.981   1.331  11.038 -1.1174 -0.7129  0.9802
    2MPD1     C14111   1.513   1.681  11.329 -0.2276  0.2422 -0.6005
    2MPD1    C114112   1.638   1.727  11.296  0.0846  0.5612 -0.3990
    2MPD1    C214113   1.708   1.634  11.215 -0.4627  0.2355  0.2357
    2MPD1    C314114   1.658   1.517  11.150 -0.0400  0.1314  0.7982
    2MPD1    C414115   1.527   1.489  11.179 -0.2961  0.0588 -0.3679
    2MPD1    C514116   1.459   1.564  11.271 -0.0975 -0.4418  0.0641
    2MPD1     H14117   1.812   1.657  11.197 -0.3447 -0.7518 -0.3854
    2MPD1    H114118   1.477   1.414  11.119  2.3973 -2.2065  0.2791
    2MPD1    H214119   1.448   1.739  11.393 -1.9553 -1.4672 -0.7902
    2MPD1    H314120   1.361   1.534  11.308  0.6117  1.2729  3.3872
    2MPD1     N14121   1.736   1.437  11.064  0.0934  0.1158 -0.1312
    2MPD1    H514122   1.828   1.473  11.041  1.1931 -1.7587  1.4120
    2MPD1    N114123   1.695   1.834  11.358  0.2988  0.6760  0.2132
    2MPD1    H614124   1.762   1.879  11.295  1.0196 -1.6963 -0.7073
    2MPD1    H714125   1.627   1.905  11.383 -0.2630  1.3137 -3.1200
    1TMC1    C114126   4.268   4.346   0.191  0.0448  0.3448  0.2179
    1TMC1    C214127   4.326   4.411   0.297  0.2340  0.0200  0.0390
    1TMC1    C314128   4.261   4.415   0.413  0.3078 -0.0421  0.0706
    1TMC1    C414129   4.146   4.285   0.195 -0.3233  0.5598  0.6577
    1TMC1    C514130   4.082   4.298   0.319  0.7082 -0.0237 -0.0562
    1TMC1    C614131   4.138   4.360   0.429  0.5712  0.0079  0.5507
    1TMC1     C14132   4.321   4.384   0.063  0.4423  0.2884  0.4543
    1TMC1     O14133   4.362   4.501   0.060 -0.3267 -0.5203  0.0122
    1TMC1     H14134   4.414   4.473   0.282 -0.7082  1.6446  1.2092
    1TMC1    H114135   4.099   4.242   0.107  0.4707  1.0680 -0.0192
    1TMC1    H214136   4.081   4.366   0.522 -1.0467 -2.3997 -0.2817
    1TMC1    C714137   3.964   4.218   0.336  0.1594 -0.2524 -0.6094
    1TMC1    C814138   4.321   4.500   0.514 -0.5264  0.7241 -0.3610
    1TMC1    O114139   3.958   4.101   0.306  0.1303  0.3420  0.0958
    1TMC1    O214140   4.403   4.585   0.489 -0.0877 -0.5365  0.0877
    1TMC1    O314141   3.884   4.288   0.427  0.1001 -0.2668 -0.0931
    1TMC1    H314142   3.909   4.382   0.416 -1.0757 -0.0892 -1.2142
    1TMC1    O514143   4.280   4.464   0.641 -0.3559  0.5418 -0.5965
    1TMC1    H514144   4.255   4.369   0.646  1.4894 -0.1374 -3.5767
    2MPD1     C14145   4.338   4.424  17.318  0.4458 -0.4150  0.8073
    2MPD1    C114146   4.281   4.298  17.344  0.2112 -0.0965 -0.1290
    2MPD1    C214147   4.273   4.262  17.482 -0.1397 -0.6497 -0.6634
    2MPD1    C314148   4.320   4.343  17.575 -0.0441 -0.2705 -0.5492
    2MPD1    C414149   4.398   4.452  17.536  0.4434  0.2856  0.3588
    2MPD1    C514150   4.400   4.500  17.411  0.5845 -0.4335 -0.2762
    2MPD1     H14151   4.207   4.181  17.512  2.1476 -2.6199 -1.0147
    2MPD1    H114152   4.445   4.517  17.609  1.7966 -0.9282  0.5724
    2MPD1    H214153   4.346   4.445  17.212 -1.9947  0.3339  0.7893
    2MPD1    H314154   4.465   4.580  17.377 -2.3194  1.1940 -1.9695
    2MPD1     N14155   4.292   4.304  17.709  0.3059  0.5091 -0.3423
    2MPD1    H514156   4.266   4.210  17.736 -3.5393  1.4087 -0.9643
    2MPD1    N114157   4.240   4.210  17.239 -0.0090  0.0801 -0.4438
    2MPD1    H614158   4.178   4.131  17.255  1.8103 -1.4528 -0.9736
    2MPD1    H714159   4.204   4.266  17.162 -0.6976  2.6520  1.7662
    1MPD1     C14160   0.043   0.770  12.882 -0.4182  0.4882 -0.1224
    1MPD1    C114161   0.149   0.736  12.802 -0.1658  0.3984  0.0927
    1MPD1    C214162   0.123   0.782  12.668 -0.5000  0.5442 -0.1945
    1MPD1    C314163   0.011   0.854  12.617 -0.5379  0.3625 -0.0283
    1MPD1    C414164   4.657   0.879  12.712 -0.1718 -0.1723 -0.2827
    1MPD1    C514165   4.681   0.844  12.848  0.7096 -0.4317  0.1231
    1MPD1     H14166   0.195   0.768  12.588 -0.0226  0.4147  0.2604
    1MPD1    H114167   4.578   0.952  12.697 -0.7887 -0.8985 -0.6072
    1MPD1    H214168   0.043   0.739  12.986  3.8576 -0.2413 -0.3404
    1MPD1    H314169   4.609   0.873  12.923  0.4398  0.5487 -0.5063
    1MPD1     N14170   0.004   0.909  12.483 -0.5090 -0.8249 -0.1174
    1MPD1    H514171   0.078   0.885  12.419 -1.8186 -0.5147 -1.7477
    1MPD1    N114172   0.247   0.640  12.831  0.3764  0.5712  0.4283
    1MPD1    H614173   0.271   0.641  12.930  1.8863  1.5232  0.0442
    1MPD1    H714174   0.331   0.661  12.778 -0.7215  0.9555 -1.1656
    2MPD1     C14175   4.203   1.295  11.573  0.2215 -0.1531 -0.0487
    2MPD1    C114176   4.117   1.222  11.488 -0.1107  0.4724 -0.5341
    2MPD1    C214177   4.178   1.151  11.387  0.2346 -0.4437  0.8176
    2MPD1    C314178   4.321   1.165  11.356 -0.2224 -0.0253 -0.9387
    2MPD1    C414179   4.392   1.255  11.427 -0.1568  0.1611 -0.2522
    2MPD1    C514180   4.333   1.323  11.537  0.7788  1.0776 -0.5644
    2MPD1     H14181   4.120   1.076  11.334 -2.3482  0.3594  2.5535
    2MPD1    H114182   4.492   1.275  11.392 -1.1426  1.8883 -2.0627
    2MPD1    H214183   4.175   1.357  11.657 -1.5446  0.9643 -1.4690
    2MPD1    H314184   4.396   1.386  11.599  2.4648  0.2062 -1.3779
    2MPD1     N14185   4.391   1.105  11.249 -0.0907 -1.0040  0.3476
    2MPD1    H514186   4.491   1.094  11.243 -0.1352 -1.4171  0.3338
    2MPD1    N114187   3.981   1.226  11.515  0.4193  0.0054  0.2957
    2MPD1    H614188   3.954   1.310  11.567  0.1908  1.1605 -1.6668
    2MPD1    H714189   3.925   1.210  11.431 -0.1531  1.4519  0.3951
    3MPD1     C14190   4.367   0.332  10.558  0.5305 -0.0178  0.0038
    3MPD1    C114191   4.318   0.340  10.686 -0.2451  0.2021  0.0229
    3MPD1    C214192   4.329   0.465  10.747  0.7051 -1.0376 -0.3588
    3MPD1    C314193   4.370   0.576  10.683  0.5426 -0.5281  0.0015
    3MPD1    C414194   4.409   0.564  10.550 -0.8424 -0.1539 -0.0406
    3MPD1    C514195   4.415   0.446  10.499 -0.7837 -0.1230 -0.5439
    3MPD1     H14196   4.298   0.468  10.851  1.4869 -1.4459 -0.1145
    3MPD1    H114197   4.452   0.645  10.493 -1.1690  0.3231  0.3961
    3MPD1    H214198   4.370   0.236  10.508 -2.8627 -0.0509 -0.1681
    3MPD1    H314199   4.446   0.430  10.396 -1.4746  0.2311 -0.8074
    3MPD1     N14200   4.378   0.693  10.765  0.1471  0.1653 -0.1688
    3MPD1    H514201   4.338   0.683  10.858 -3.3804 -0.0563 -1.7141
    3MPD1    N114202   4.296   0.222  10.757 -0.4555 -0.2106  1.0459
    3MPD1    H614203   4.259   0.153  10.691  0.6673  1.3877 -1.2215
    3MPD1    H714204   4.217   0.236  10.820 -0.0798 -0.4379  1.5719
    4MPD2     C14205   4.539   1.418  11.820 -0.7427  0.1160 -0.6595
    4MPD2    C114206   4.634   1.323  11.856 -0.7150 -0.3629 -0.7373
    4MPD2    C214207   0.018   1.331  11.795  0.6570 -0.1648 -0.0869
    4MPD2    C314208   0.057   1.425  11.707 -0.3819 -0.4887 -0.3384
    4MPD2    C414209   4.693   1.508  11.663  0.0521  0.0849  0.4011
    4MPD2    C514210   4.568   1.502  11.718  0.7715  0.4376 -0.5823
    4MPD2     H14211   0.084   1.248  11.819  0.4571 -0.1078  0.6325
    4MPD2    H114212   4.691   1.567  11.572 -1.8054 -0.9388 -0.2148
    4MPD2    H214213   4.449   1.425  11.880  0.3383 -1.2292  1.1343
    4MPD2    H314214   4.497   1.572  11.674  1.0184 -0.7709 -2.9517
    4MPD2     N14215   0.182   1.436  11.641  0.2530  0.4844  0.2318
    4MPD2    H514216   0.188   1.507  11.569  2.8542  0.2057  0.1478
    4MPD2    N114217   4.610   1.229  11.959  0.6399  0.0087  0.3341
    4MPD2    H714218   4.688   1.165  11.970  0.3041 -0.6134 -0.8934
    5TMC3    C114219   4.510   1.073  12.104 -0.3899 -0.6008  0.6970
    5TMC3    C214220   4.540   1.077  12.240 -0.0596 -0.1232  0.3246
    5TMC3    C314221   4.640   1.000  12.289  0.2943  0.0387  0.1542
    5TMC3    C414222   4.580   0.990  12.022  0.4305  0.2365 -0.2542
    5TMC3    C514223   4.691   0.922  12.075  0.1817 -0.1668 -0.4079
    5TMC3    C614224   4.724   0.925  12.210  0.0518  0.5529 -0.4505
    5TMC3     C14225   4.495   1.205  12.036  0.0255 -0.2846  0.1581
    5TMC3     O14226   4.383   1.256  12.035  0.3592  0.5443 -0.4192
    5TMC3     H14227   4.481   1.145  12.300  2.7718  1.5292  1.2302
    5TMC3    H114228   4.551   0.981  11.918 -0.7156  1.6582 -0.0678
    5TMC3    H214229   0.068   0.864  12.241  0.9587  1.2019 -1.6053
    5TMC3    C714230   0.059   0.928  11.983  0.4569  0.3041 -0.1724
    5TMC3    C814231   4.638   0.985  12.437  0.1597 -0.2878 -0.6495
    5TMC3    O114232   0.037   1.020  11.903 -0.3391 -0.2506  0.3000
    5TMC3    O214233   4.534   1.011  12.493 -0.0658 -0.2864 -0.2286
    6TMC3    C114234   4.419   0.996  11.048  0.7554  0.0028  0.8557
    6TMC3    C214235   4.384   0.906  10.953  0.7862 -0.9430  0.4875
    6TMC3    C314236   4.463   0.903  10.832  0.6218  0.1810  0.7303
    6TMC3    C414237   4.521   1.084  11.020 -0.6564 -0.2524 -0.5919
    6TMC3    C514238   4.596   1.073  10.913 -0.6232  0.3527  0.2195
    6TMC3    C614239   4.573   0.983  10.815 -0.0371  0.3725 -0.0781
    6TMC3     C14240   4.319   1.039  11.145  0.5072  0.4222 -0.1784
    6TMC3     O14241   4.207   0.999  11.138 -0.8251 -0.7230 -0.3103
    6TMC3     H14242   4.296   0.843  10.963 -0.2709  0.2368 -1.4369
    6TMC3    H114243   4.547   1.157  11.096  1.9941 -1.9712  0.1465
    6TMC3    H214244   4.636   0.988  10.727 -0.7499 -0.1486 -0.6185
    6TMC3    C714245   0.002   1.097  10.943  0.4911  0.4976  0.4567
    6TMC3    C814246   4.446   0.805  10.729 -0.3577 -0.0339  0.3322
    6TMC3    O114247   0.024   1.202  11.000  0.4945  0.0047  0.1945
    6TMC3    O214248   4.516   0.827  10.632  0.2867 -0.5814 -0.4907
    7MPD2     C14249   0.546   0.875  11.850 -0.0185 -0.3437 -0.1567
    7MPD2    C114250   0.474   0.987  11.838 -0.2650 -0.2382  0.6423
    7MPD2    C214251   0.349   0.977  11.886 -0.5263 -0.7320  0.2837
    7MPD2    C314252   0.300   0.867  11.956 -0.7070  0.4647 -0.6525
    7MPD2    C414253   0.387   0.763  11.978  0.8206 -0.0215 -0.5013
    7MPD2    C514254   0.508   0.768  11.919  0.4736  0.0414 -0.0392
    7MPD2     H14255   0.275   1.056  11.892 -0.1957 -0.6656  3.4392
    7MPD2    H114256   0.355   0.668  12.019  1.1596 -0.3313 -0.9613
    7MPD2    H214257   0.643   0.857  11.806  1.3146  0.3675  2.4842
    7MPD2    H314258   0.581   0.688  11.921 -1.5470 -1.7729  1.4749
    7MPD2     N14259   0.170   0.847  12.007  0.0747 -0.4048 -0.0059
    7MPD2    H514260   0.153   0.776  12.078 -1.4025 -1.7753 -1.7182
    7MPD2    N114261   0.514   1.098  11.766  0.6461 -0.4469 -0.0226
    7MPD2    H714262   0.451   1.178  11.766  1.9737  0.5866 -1.7681
    8TMC3    C114263   0.575   1.222  11.586 -0.3243 -0.5781 -0.2714
    8TMC3    C214264   0.553   1.196  11.457  0.0490  0.1430 -0.0493
    8TMC3    C314265   0.453   1.268  11.396  0.3366  0.3932 -0.4823
    8TMC3    C414266   0.509   1.316  11.658  0.4148 -0.6336 -0.0668
    8TMC3    C514267   0.402   1.378  11.597 -0.2351 -0.3138 -0.1454
    8TMC3    C614268   0.379   1.366  11.460 -0.1072  0.2019 -0.1394
    8TMC3     C14269   0.606   1.104  11.665  0.4577  0.1635  0.8116
    8TMC3     O14270   0.673   1.017  11.615  0.0907 -0.1635 -0.4990
    8TMC3     H14271   0.605   1.110  11.416  0.6116  0.4693 -0.0149
    8TMC3    H114272   0.539   1.340  11.760 -2.4666  2.5863  0.0134
    8TMC3    H214273   0.285   1.397  11.417  0.6304  0.3283 -1.6379
    8TMC3    C714274   0.296   1.374  11.688 -0.3091 -0.0074 -0.1967
    8TMC3    C814275   0.404   1.231  11.267  0.1179  0.1778 -0.3225
    8TMC3    O114276   0.305   1.288  11.773  0.2165  0.4250  0.9728
    8TMC3    O214277   0.322   1.304  11.208 -0.1815 -0.4049 -0.2522
    9MPD2     C14278   0.446   0.895  11.112 -0.1952  0.6361 -0.4707
    9MPD2    C114279   0.392   1.021  11.132 -0.1847 -0.0104 -0.2430
    9MPD2    C214280   0.280   1.054  11.063 -0.5774 -0.1147 -0.4015
    9MPD2    C314281   0.217   0.971  10.975 -0.3702  0.3287  0.1872
    9MPD2    C414282   0.267   0.843  10.956 -0.2913 -0.0207  0.3396
    9MPD2    C514283   0.371   0.810  11.038 -0.7510 -0.5724  0.0371
    9MPD2     H14284   0.222   1.144  11.082 -0.3669  0.2204 -1.3353
    9MPD2    H114285   0.219   0.764  10.899  1.1018 -0.7161  0.1076
    9MPD2    H214286   0.527   0.860  11.176  0.1778  1.7738 -0.3229
    9MPD2    H314287   0.401   0.706  11.026  0.1578 -0.1403 -1.4467
    9MPD2     N14288   0.083   0.988  10.924 -0.0496 -0.9841  0.1744
    9MPD2    H514289   0.050   0.903  10.879  0.3642 -0.6653 -0.7220
    9MPD2    N114290   0.446   1.109  11.233  0.0681 -0.3018  0.1403
    9MPD2    H714291   0.516   1.066  11.292  0.5485  0.0529 -0.1803
    1MPD1     C14292   4.529   3.496  15.642 -0.8279 -0.3115  0.1975
    1MPD1    C114293   4.460   3.460  15.757  0.5120 -0.1411  0.4486
    1MPD1    C214294   4.486   3.522  15.878 -0.6309  0.3891  0.0900
    1MPD1    C314295   4.571   3.627  15.882  0.5197 -0.7200  0.0392
    1MPD1    C414296   4.637   3.672  15.767 -0.7753  0.0237 -0.2000
    1MPD1    C514297   4.614   3.600  15.649 -0.2252 -0.2846  0.1048
    1MPD1     H14298   4.439   3.492  15.971 -0.6559 -1.2975 -0.4742
    1MPD1    H114299   4.714   3.748  15.766 -0.0093 -0.7397  0.7187
    1MPD1    H214300   4.515   3.453  15.544  0.4128 -0.2080 -0.0240
    1MPD1    H314301   4.655   3.637  15.556 -1.2226  1.8151  0.5095
    1MPD1     N14302   4.596   3.706  16.001  0.1735  0.1834 -0.0157
    1MPD1    H514303   4.648   3.792  15.990  1.4018 -0.3624  1.4657
    1MPD1    N114304   4.380   3.346  15.768  0.4296 -0.4021  0.3786
    1MPD1    H614305   4.302   3.356  15.833 -0.2375 -2.4488 -0.0948
    1MPD1    H714306   4.336   3.317  15.680  1.0363  2.3409 -0.8341
    2TMC2    C114307   4.508   3.793  16.453  0.5057  0.4929 -0.1277
    2TMC2    C214308   4.465   3.910  16.431 -0.3604  0.2198  0.6001
    2TMC2    C314309   4.480   3.963  16.307  0.7578  0.4154 -1.1646
    2TMC2    C414310   4.575   3.720  16.356  0.1982 -0.6117  0.5358
    2TMC2    C514311   4.580   3.773  16.227 -0.1317  0.2176  0.8423
    2TMC2    C614312   4.530   3.894  16.207  0.2407 -0.2469  0.1531
    2TMC2     C14313   4.471   3.728  16.576 -1.8165  0.2700  0.1727
    2TMC2     O14314   4.430   3.796  16.674  0.1694 -0.8583  0.8898
    2TMC2     H14315   4.417   3.968  16.510 -0.6072  0.1526  0.4981
    2TMC2    H114316   4.606   3.619  16.382 -0.3229 -1.4357 -2.0826
    2TMC2    H214317   4.524   3.943  16.111 -2.0907 -0.2184  0.3180
    2TMC2    C714318   4.567   3.668  16.133 -0.6628 -0.4285  0.4050
    2TMC2    C814319   4.401   4.079  16.269  0.6856  0.2408 -0.1004
    2TMC2    O114320   4.514   3.566  16.169 -0.0140  0.4153 -0.2661
    2TMC2    O214321   4.324   4.067  16.173  0.5662 -0.7949 -0.0596
    2TMC2    O514322   4.450   4.185  16.325  0.0237 -0.0590 -0.1836
    2TMC2    H514323   4.525   4.157  16.382 -0.0910  0.8682  0.4076
    3MPD1     C14324   4.324   3.304  16.832 -0.0496  0.3689  0.1602
    3MPD1    C114325   4.308   3.288  16.696  0.3354  0.1432 -0.2758
    3MPD1    C214326   4.345   3.390  16.608 -0.1263  0.1837 -0.2908
    3MPD1    C314327   4.395   3.507  16.660  0.3905  0.3355 -0.5907
    3MPD1    C414328   4.409   3.529  16.794  0.3285  0.5151 -0.6552
    3MPD1    C514329   4.376   3.422  16.876  0.1531  0.2717 -0.0663
    3MPD1     H14330   4.333   3.378  16.501 -1.1275 -2.4961  0.1182
    3MPD1    H114331   4.454   3.622  16.826  4.0963 -1.3166 -0.5971
    3MPD1    H214332   4.305   3.228  16.906  0.0685 -1.2271 -1.4504
    3MPD1    H314333   4.392   3.425  16.983  0.4832 -2.1552 -0.0535
    3MPD1     N14334   4.441   3.595  16.558  0.1424  0.8632  0.2354
    3MPD1    H514335   4.469   3.557  16.468 -1.0366  0.6554 -0.0447
    3MPD1    N114336   4.296   3.162  16.655 -0.2225 -0.0466 -0.3159
    3MPD1    H614337   4.251   3.089  16.710  0.2529 -0.9561 -1.1489
    3MPD1    H714338   4.256   3.163  16.561 -0.7127 -2.4785 -0.1408
    1TMC1    C114339   2.354   3.586  12.846  0.2165 -0.0268  0.7786
    1TMC1    C214340   2.300   3.601  12.970 -0.5212 -0.0571  0.0614
    1TMC1    C314341   2.159   3.591  12.970  0.1635 -0.1145 -0.1234
    1TMC1    C414342   2.279   3.560  12.738  0.1577  0.0246  0.0200
    1TMC1    C514343   2.140   3.559  12.741  0.9531 -0.4880 -0.3650
    1TMC1    C614344   2.081   3.574  12.863 -0.4305  0.2975  0.7470
    1TMC1     C14345   2.500   3.596  12.819  0.3225  0.5826  0.3375
    1TMC1     O14346   2.545   3.590  12.704 -0.1659 -0.3490  0.3714
    1TMC1     H14347   2.365   3.606  13.056 -0.7660  1.1733  0.1745
    1TMC1    H114348   2.327   3.554  12.641  0.4118 -1.5863  0.2480
    1TMC1    H214349   1.973   3.580  12.872 -0.6987 -1.6098 -1.3013
    1TMC1    C714350   2.077   3.609  12.620 -0.1029  0.6978 -0.1366
    1TMC1    C814351   2.086   3.599  13.099 -0.9722  0.4822 -0.2148
    1TMC1    O114352   2.146   3.646  12.526 -0.0053 -0.0933  0.0276
    1TMC1    O214353   1.967   3.618  13.101 -0.7580 -0.3448  0.1337
    1TMC1    O314354   1.962   3.539  12.597  0.0874  0.4890 -0.0207
    1TMC1    H314355   1.912   3.509  12.676 -0.7605  2.4666  0.2041
    1TMC1    O514356   2.186   3.650  13.182 -0.1296  0.4563 -0.8674
    1TMC1    H514357   2.149   3.671  13.271 -0.7321  0.8608 -1.2120
    2MPD2     C14358   2.787   3.658  12.824  0.7394 -0.1029 -0.0311
    2MPD2    C114359   2.705   3.652  12.931  0.2418 -0.2565 -0.3383
    2MPD2    C214360   2.764   3.673  13.052 -0.3480 -0.3585 -0.1483
    2MPD2    C314361   2.898   3.695  13.068 -0.7007  0.0988 -0.1084
    2MPD2    C414362   2.971   3.718  12.962  0.8223 -0.3517  0.2194
    2MPD2    C514363   2.925   3.692  12.835 -0.1186 -0.8088 -0.2608
    2MPD2     H14364   2.709   3.669  13.145  1.4745  1.8149  1.0182
    2MPD2    H114365   3.079   3.729  12.966  0.8060  0.2049 -0.7876
    2MPD2    H214366   2.758   3.640  12.721  0.6603 -1.3090  0.1984
    2MPD2    H314367   2.985   3.704  12.746 -1.5625 -0.8553 -1.2413
    2MPD2     N14368   2.942   3.718  13.204  0.3436 -0.6208  0.2135
    2MPD2    H514369   2.876   3.730  13.279  1.4277  0.5539  0.9884
    2MPD2    N114370   2.570   3.623  12.932 -0.5033 -0.6593  0.1054
    2MPD2    H714371   2.521   3.629  13.021  0.7848 -0.1054  0.7790
    3TCq1    O114372   2.926   4.071  13.547  0.4308 -0.5089  0.0045
    3TCq1    C114373   2.992   3.988  13.636  0.0755 -0.6267  0.0601
    3TCq1    O214374   2.992   4.003  13.761 -0.1668  0.0503 -0.1691
    3TCq1    C214375   3.071   3.898  13.558  0.0539 -0.5446 -0.4524
    3TCq1    C314376   3.181   3.845  13.619  0.3779 -0.0885  0.3130
    3TCq1    C414377   3.255   3.755  13.547 -0.1353  0.9750  0.2031
    3TCq1    C514378   3.219   3.723  13.421 -0.5463 -0.7252  1.0814
    3TCq1    C614379   3.110   3.778  13.365  0.4722  0.2656 -0.3963
    3TCq1    C714380   3.033   3.869  13.435  0.0001  0.1709 -0.1913
    3TCq1    C814381   3.079   3.736  13.230 -0.0067  0.0787 -0.0815
    3TCq1    O414382   3.171   3.706  13.159  0.0948  0.6050 -0.2920
    3TCq1    C914383   3.365   3.685  13.610  0.2792  0.2736  0.5726
    3TCq1    O514384   3.431   3.611  13.536  0.4393  0.2162  0.6897
    3TCq1    O614385   3.391   3.710  13.728 -0.5340 -0.5475  0.0807
    3TCq1    H114386   2.970   4.080  13.460  0.6493 -0.0344  0.1651
    3TCq1    H214387   3.205   3.871  13.721  0.0350 -2.5053  1.0118
    3TCq1    H314388   3.275   3.650  13.364  0.1670 -1.1172  2.2702
    3TCq1    H414389   2.940   3.909  13.396 -0.1685  0.5032  0.5364
    1MPD2     C14390   2.759   4.249  15.322 -0.0489  0.9235  0.1767
    1MPD2    C114391   2.632   4.283  15.272 -0.0225 -0.5583 -0.0631
    1MPD2    C214392   2.529   4.186  15.272  0.2649 -0.5439  0.2051
    1MPD2    C314393   2.554   4.070  15.339 -0.4089 -0.4557 -0.1933
    1MPD2    C414394   2.674   4.036  15.391 -0.0325  0.8446  0.3722
    1MPD2    C514395   2.780   4.128  15.383 -0.1751 -0.0343  0.0784
    1MPD2     H14396   2.432   4.207  15.228 -0.3310 -2.2528  0.7128
    1MPD2    H114397   2.683   3.939  15.439 -1.4442  0.4642 -0.1422
    1MPD2    H214398   2.837   4.322  15.308 -2.3084  3.4921  0.9042
    1MPD2    H314399   2.880   4.106  15.419 -0.8831 -0.2454  1.8890
    1MPD2     N14400   2.455   3.975  15.359  0.2350  0.1795 -0.1220
    1MPD2    H514401   2.486   3.893  15.410 -1.7118 -0.8195 -0.5497
    1MPD2    N114402   2.619   4.409  15.206  0.0493  0.5516 -0.1986
    1MPD2    H714403   2.703   4.462  15.187 -0.5642  1.4513 -0.4214
    2TMC3    C114404   2.504   4.601  15.108 -0.5083 -0.3950  0.5190
    2TMC3    C214405   2.381   4.644  15.115 -0.0605 -0.9732  0.3036
    2TMC3    C314406   2.323   4.711  15.009  0.2543  0.0722 -0.0198
    2TMC3    C414407   2.580   4.613  14.991  0.6628  0.2515  0.4031
    2TMC3    C514408   2.521   4.688  14.889  0.5011 -0.1988 -0.6906
    2TMC3    C614409   2.398   0.002  14.904 -0.0777  0.0971 -0.3237
    2TMC3     C14410   2.499   4.466  15.166 -0.2247  0.3675 -0.0705
    2TMC3     O14411   2.390   4.425  15.210 -0.4545 -0.9196  0.5189
    2TMC3     H14412   2.328   4.635  15.209  1.3812 -2.3928  0.9904
    2TMC3    H114413   2.683   4.588  14.968  0.3913 -0.1724 -0.3275
    2TMC3    H214414   2.355   0.052  14.818  1.1751  0.7511 -0.5698
    2TMC3    C714415   2.603   4.732  14.776 -0.3447 -0.1590 -0.8518
    2TMC3    C814416   2.200   4.651  14.973  0.1893  0.0850 -0.3252
    2TMC3    O114417   2.701   4.666  14.754  0.2270 -0.0361  0.9329
    2TMC3    O214418   2.148   4.692  14.873  0.1341 -0.1240  0.0389
    3TCq1    O114419   2.816   1.172  14.762  0.5154  0.0671  0.1407
    3TCq1    C114420   2.761   1.055  14.805 -0.2631 -0.8253 -0.0288
    3TCq1    O214421   2.649   1.038  14.846  0.2043  0.0740 -0.2979
    3TCq1    C214422   2.836   0.951  14.735 -1.0172 -0.0517 -0.1720
    3TCq1    C314423   2.978   0.946  14.751  0.1711  0.1073  0.9297
    3TCq1    C414424   3.045   0.837  14.704 -0.6769 -0.1383 -0.1206
    3TCq1    C514425   2.975   0.737  14.648  0.6472 -0.3126  0.2846
    3TCq1    C614426   2.836   0.737  14.651  0.2229  0.4287 -0.0053
    3TCq1    C714427   2.762   0.843  14.696 -0.3390  0.2984  0.7172
    3TCq1    C814428   2.755   0.609  14.643 -0.4337 -0.1946 -0.0760
    3TCq1    O414429   2.666   0.602  14.726 -0.3236 -0.1447 -0.1349
    3TCq1    C914430   3.189   0.820  14.724  0.4899 -0.0821 -0.1653
    3TCq1    O514431   3.246   0.911  14.793  0.0295 -0.1525 -0.1181
    3TCq1    O614432   3.240   0.707  14.698 -0.1179 -0.2535  0.2183
    3TCq1    H114433   2.896   1.161  14.707  0.4837 -0.3035  0.1704
    3TCq1    H214434   3.035   1.030  14.789 -1.2904  1.5207 -0.0073
    3TCq1    H314435   3.030   0.654  14.607  1.6496  0.8695 -0.7661
    3TCq1    H414436   2.655   0.848  14.677 -0.4683 -0.2579  1.3167
    4MPD2     C14437   2.817   0.303  14.440 -0.0970  0.3469 -0.1217
    4MPD2    C114438   2.760   0.382  14.540 -0.0457 -0.2828  0.3262
    4MPD2    C214439   2.674   0.316  14.636 -0.6651  0.5302  0.1728
    4MPD2    C314440   2.655   0.182  14.630  0.1270 -0.2578 -0.1999
    4MPD2    C414441   2.715   0.110  14.531 -0.1729  0.6115  0.5372
    4MPD2    C514442   2.796   0.167  14.435 -0.1329 -0.3343  0.2660
    4MPD2     H14443   2.638   0.371  14.722  1.3286  1.9917  0.0644
    4MPD2    H114444   2.692   0.004  14.530  0.3601  0.5345 -2.1351
    4MPD2    H214445   2.884   0.350  14.370  2.3825  0.0229  2.0420
    4MPD2    H314446   2.833   0.108  14.352  1.3632  0.0233  0.6889
    4MPD2     N14447   2.576   0.121  14.730  0.4609  1.2152 -0.3333
    4MPD2    H514448   2.508   0.182  14.774 -0.0499  1.9637 -2.1666
    4MPD2    N114449   2.793   0.521  14.550 -0.3675  0.3001 -0.4189
    4MPD2    H714450   2.856   0.551  14.476  1.3805  0.6409  1.2018
    5TMC2    C114451   2.054   3.880  15.200 -0.1837 -0.5015  0.7201
    5TMC2    C214452   2.095   3.764  15.143 -0.6421  0.1809  0.4545
    5TMC2    C314453   2.208   3.709  15.197 -0.3053  0.6915  0.0740
    5TMC2    C414454   2.116   3.936  15.312 -0.1860  0.1122  0.5225
    5TMC2    C514455   2.234   3.890  15.354  0.0460  0.4467  0.2226
    5TMC2    C614456   2.283   3.779  15.290 -0.5699 -0.5314 -0.3579
    5TMC2     C14457   1.990   3.973  15.115  0.1208  0.1401  0.1355
    5TMC2     O14458   1.930   3.934  15.019  0.6245 -0.3200 -0.6558
    5TMC2     H14459   2.062   3.729  15.046  1.9207 -3.5340  0.9179
    5TMC2    H114460   2.058   4.007  15.370  0.8203  2.1386 -0.9494
    5TMC2    H214461   2.379   3.744  15.327 -1.5474 -1.5505  1.2191
    5TMC2    C714462   2.320   4.005  15.344 -0.0384  0.3786 -0.5375
    5TMC2    C814463   2.276   3.604  15.129  0.3122  0.3733  0.5881
    5TMC2    O114464   2.259   4.105  15.302  0.0675 -0.1904  0.0216
    5TMC2    O214465   2.394   3.586  15.143  0.5819 -0.3764  0.0009
    5TMC2    O514466   2.182   3.506  15.133  0.1390 -0.3153 -0.1609
    5TMC2    H514467   2.089   3.536  15.140 -0.2021 -1.4795  0.2385
    6MPD2     C14468   1.976   4.456  14.936  0.1733  0.2154 -0.5132
    6MPD2    C114469   2.079   4.439  15.027 -0.0946 -0.1976 -0.1349
    6MPD2    C214470   2.103   4.320  15.094  0.3133 -0.6846 -0.6052
    6MPD2    C314471   2.013   4.209  15.070 -0.5935 -0.1811  0.0109
    6MPD2    C414472   1.902   4.234  14.992  0.9746 -0.1392 -0.7339
    6MPD2    C514473   1.883   4.351  14.920 -0.1096 -0.2686 -0.7619
    6MPD2     H14474   2.193   4.302  15.152  0.5707 -2.0535 -1.4324
    6MPD2    H114475   1.828   4.156  14.977  0.8072 -0.2230  0.5194
    6MPD2    H214476   1.957   4.548  14.882 -1.8620  1.1021  1.7080
    6MPD2    H314477   1.789   4.366  14.869 -0.6426 -1.1517 -0.0333
    6MPD2     N14478   2.036   4.097  15.144 -0.1520  0.1243  0.1115
    6MPD2    H514479   2.117   4.103  15.205  2.1568 -2.1117 -2.6775
    6MPD2    N114480   2.177   4.535  15.050 -0.0411  0.4438  0.4554
    6MPD2    H714481   2.245   4.503  15.119 -0.0135  0.7132  0.5540
  945NH3     N114482   0.061   3.502   0.510  0.1092  0.4229 -0.0357
  945NH3     H214483   0.126   3.484   0.434  0.0028  0.1783 -0.0706
  945NH3     H314484   4.721   3.492   0.447  0.8975 -1.4415 -0.7556
  945NH3     H414485   0.062   3.600   0.535  0.0024  0.3435  0.2785
  946SOD     NA14486   4.153   1.940  16.727 -0.2969 -0.3329 -0.2004
  947SOD     NA14487   1.239   3.961  10.379 -0.0372 -0.2412  0.1494
  948SOD     NA14488   0.109   4.529   8.825 -0.2391 -0.4075 -0.0059
  949SOD     NA14489   3.711   0.968   5.528 -0.6084 -0.2544 -0.0661
  950SOD     NA14490   1.856   2.704   9.426 -0.3023  0.0749  0.1080
  951SOD     NA14491   2.014   0.922  11.815  0.3529  0.6865  0.7099
  952SOD     NA14492   0.767   0.146  12.665  0.0281  0.0451 -0.0892
  953SOD     NA14493   3.104   4.073  15.227 -0.3104  0.2106  0.3732
  954SOL     OW14494   4.461   1.774   7.331  0.6304 -0.4579 -0.3232
  954SOL    HW114495   4.390   1.834   7.352  0.9734  0.3162 -1.4016
  954SOL    HW214496   4.461   1.726   7.414  0.4559 -0.6997 -0.4638
  955SOL     OW14497   1.767   2.166   4.019 -0.1156  0.2401  0.0233
  955SOL    HW114498   1.712   2.100   3.977 -1.4871  0.6146  1.2460
  955SOL    HW214499   1.702   2.218   4.065  0.5492 -1.2056  2.5966
  956SOL     OW14500   1.881   3.156  14.156 -0.2426 -0.3624  0.4294
  956SOL    HW114501   1.965   3.174  14.198 -1.2935  0.8665  2.0164
  956SOL    HW214502   1.907   3.121  14.070  0.5755  1.0067  0.1141
  957SOL     OW14503   4.012   3.353  10.685  0.6827  0.4746 -0.3532
  957SOL    HW114504   4.102   3.354  10.652  1.0054 -0.0345  0.5157
  957SOL    HW214505   4.027   3.326  10.776  1.1431  0.7734 -0.3426
  958SOL     OW14506   3.985   2.330  13.786  0.5833 -0.4009 -0.1453
  958SOL    HW114507   4.013   2.378  13.708  1.3323  0.6324  0.7558
  958SOL    HW214508   3.910   2.283  13.750  0.0348 -0.7468  1.4440
  959SOL     OW14509   3.294   3.470  16.122 -0.2998 -0.0302 -0.0839
  959SOL    HW114510   3.276   3.423  16.041  0.9940  0.7902 -0.8547
  959SOL    HW214511   3.368   3.424  16.161 -0.6038  0.6444  1.2776
  960SOL     OW14512   0.968   3.519   4.013 -0.0643  0.5178 -0.5670
  960SOL    HW114513   0.894   3.540   3.956 -0.0792  2.0362  0.0119
  960SOL    HW214514   0.920   3.460   4.071 -0.0420  1.8986  0.8727
  961SOL     OW14515   2.350   0.069   3.407 -0.4127  0.1352 -0.0216
  961SOL    HW114516   2.316   0.133   3.469 -0.5305  0.6754 -0.6453
  961SOL    HW214517   2.373   0.127   3.334  0.0287  0.6522  0.5209
  962SOL     OW14518   3.544   1.742   2.974 -0.4741  0.5390  0.0988
  962SOL    HW114519   3.604   1.748   3.049 -0.0313 -1.1071 -0.1222
  962SOL    HW214520   3.501   1.657   2.988 -2.6071  2.1573  3.4854
  963SOL     OW14521   1.651   2.117   2.317  0.2590 -0.9979  0.4114
  963SOL    HW114522   1.659   2.034   2.363 -1.9738 -0.6509  1.4271
  963SOL    HW214523   1.569   2.100   2.271  1.7338 -2.3928 -1.6970
  964SOL     OW14524   2.547   4.633   2.528  0.2721 -0.3488 -0.2939
  964SOL    HW114525   2.555   4.673   2.614  2.2506 -1.4090  0.0067
  964SOL    HW214526   2.638   4.637   2.497  0.7130 -0.4485  0.9947
  965SOL     OW14527   0.454   1.857   9.334 -0.1250 -0.0687  0.4078
  965SOL    HW114528   0.545   1.826   9.338 -0.0431  0.0464 -0.7273
  965SOL    HW214529   0.453   1.907   9.253  2.1202 -0.5081  0.1018
  966SOL     OW14530   0.629   0.646   9.414 -0.0429  0.2202  0.0183
  966SOL    HW114531   0.649   0.552   9.415  0.5896  0.3661  0.4123
  966SOL    HW214532   0.598   0.658   9.503  1.8458  2.6377  0.3467
  967SOL     OW14533   3.273   4.172  15.114 -0.2641 -0.3075 -0.2192
  967SOL    HW114534   3.247   4.245  15.058  1.2354  0.8063  0.5471
  967SOL    HW214535   3.367   4.167  15.098 -0.3290 -2.5753  0.2048
  968SOL     OW14536   3.310   0.219  10.799  0.2921  0.5472 -0.1595
  968SOL    HW114537   3.317   0.127  10.824  0.2448  1.3064  2.6166
  968SOL    HW214538   3.227   0.229  10.754  0.2427  0.9689  0.0253
  969SOL     OW14539   2.851   4.486   8.526 -0.2946  0.5893 -0.0489
  969SOL    HW114540   2.856   4.577   8.498 -0.6085  1.2030  1.9018
  969SOL    HW214541   2.853   4.499   8.621 -1.0429  0.6456 -0.0412
  970SOL     OW14542   1.280   3.948  15.994  0.4977  0.0495  0.6493
  970SOL    HW114543   1.200   3.931  16.044 -0.4388  1.1852 -0.4483
  970SOL    HW214544   1.268   3.871  15.938 -1.1496  1.8120 -1.4524
  971SOL     OW14545   0.904   1.631   6.589  0.0551  0.2482  0.2996
  971SOL    HW114546   0.860   1.582   6.658 -1.8353 -0.6400 -1.5461
  971SOL    HW214547   0.968   1.570   6.552  0.3990  1.2273 -0.7125
  972SOL     OW14548   0.318   3.510   3.909 -0.1807 -0.2340  0.2918
  972SOL    HW114549   0.311   3.605   3.898 -0.4801  0.0612  2.8517
  972SOL    HW214550   0.225   3.495   3.930 -0.6589  3.0877  0.5671
  973SOL     OW14551   0.596   2.810  17.640  0.3647  0.1627 -0.2681
  973SOL    HW114552   0.624   2.724  17.609  2.2074  0.5171  0.3861
  973SOL    HW214553   0.560   2.846  17.559 -1.9989 -0.0253  0.7041
  974SOL     OW14554   4.538   2.472   2.536  0.1229 -0.0334 -0.4464
  974SOL    HW114555   4.554   2.378   2.529  0.6579  0.0161  0.0939
  974SOL    HW214556   4.442   2.473   2.535  0.1158 -1.8212 -1.4407
  975SOL     OW14557   1.164   2.940   9.625  0.0391 -0.0018 -0.6151
  975SOL    HW114558   1.243   2.893   9.599  0.5285 -0.9997  2.6302
  975SOL    HW214559   1.172   2.951   9.720 -0.4228 -0.5747 -0.5162
  976SOL     OW14560   3.606   3.893   5.754  0.2222  0.0033  0.3367
  976SOL    HW114561   3.657   3.904   5.674  0.2527 -0.5163  0.2872
  976SOL    HW214562   3.675   3.854   5.807 -0.5594 -1.1525  0.5070
  977SOL     OW14563   0.110   2.033   8.507  0.0044 -0.2166  0.5506
  977SOL    HW114564   0.128   2.127   8.506  2.8083 -0.7885 -1.8987
  977SOL    HW214565   0.195   1.992   8.496  0.8450  1.2992  1.3412
  978SOL     OW14566   1.770   3.552   4.043  0.2586 -0.3001  0.2295
  978SOL    HW114567   1.841   3.565   3.980  1.9491  0.3406  2.2705
  978SOL    HW214568   1.696   3.598   4.003  0.5472 -0.4960 -0.5330
  979SOL     OW14569   1.215   0.243   2.710 -0.7406  0.4070 -0.1154
  979SOL    HW114570   1.228   0.330   2.671 -2.1117 -0.3493 -2.2798
  979SOL    HW214571   1.121   0.237   2.721 -1.1195  0.7329 -2.9955
  980SOL     OW14572   2.785   0.799   8.625 -0.0491 -0.9357 -0.1295
  980SOL    HW114573   2.846   0.783   8.697  1.8959  3.2139 -0.8529
  980SOL    HW214574   2.709   0.780   8.681  0.3185 -1.2621  0.2510
  981SOL     OW14575   3.863   2.765   3.496 -0.4043  0.2011 -0.5150
  981SOL    HW114576   3.793   2.713   3.537  0.4546 -1.4742 -1.1713
  981SOL    HW214577   3.849   2.850   3.537  0.6489 -0.3177  0.9058
  982SOL     OW14578   0.741   4.493   1.231 -0.2250 -0.1626  0.1578
  982SOL    HW114579   0.721   4.527   1.144  0.9637  1.6613  0.5916
  982SOL    HW214580   0.804   4.552   1.272 -0.8804  0.4598  0.2619
  983SOL     OW14581   2.293   4.346  11.563  0.0868  0.1799 -0.3781
  983SOL    HW114582   2.248   4.318  11.643  2.1621 -2.2374 -0.0644
  983SOL    HW214583   2.330   4.263  11.533  2.3326  0.3650  1.8393
  984SOL     OW14584   2.952   3.522   4.777  0.0896  0.0856 -0.3108
  984SOL    HW114585   2.860   3.511   4.752  0.3502 -1.4932 -0.5872
  984SOL    HW214586   2.940   3.608   4.819 -2.0206 -1.0683  1.4679
  985SOL     OW14587   0.890   0.810  15.175  0.5076  0.0260  0.3219
  985SOL    HW114588   0.809   0.855  15.199  0.5042  1.0705 -1.6958
  985SOL    HW214589   0.919   0.787  15.264 -0.1124  0.1493  0.5530
  986SOL     OW14590   2.870   3.016   6.003  0.9966  0.2442 -0.5723
  986SOL    HW114591   2.805   3.040   5.937 -1.3057 -0.2774  1.4635
  986SOL    HW214592   2.854   2.922   6.015  0.2119  0.5786  1.0534
  987SOL     OW14593   0.185   3.241   9.489 -0.1569 -0.3274 -0.4299
  987SOL    HW114594   0.124   3.279   9.552 -0.0003  1.9129 -1.6182
  987SOL    HW214595   0.241   3.312   9.458 -2.3387  0.8823 -1.5963
  988SOL     OW14596   2.068   3.594   2.276 -0.0387  0.5481 -0.3118
  988SOL    HW114597   1.991   3.585   2.219 -1.2360  1.2393  1.2169
  988SOL    HW214598   2.022   3.589   2.359  2.0271  1.2731  0.8683
  989SOL     OW14599   0.579   3.122   7.837  0.0999  0.1235 -0.3881
  989SOL    HW114600   0.595   3.033   7.806 -2.9817 -0.4518 -0.3032
  989SOL    HW214601   0.489   3.119   7.870 -0.2560 -1.8978 -1.5644
  990SOL     OW14602   3.861   4.469  12.022 -0.1825  0.5955 -0.5929
  990SOL    HW114603   3.944   4.430  12.049 -0.7570  0.3556  0.7973
  990SOL    HW214604   3.796   4.401  12.042  0.2810  0.7205  1.3245
  991SOL     OW14605   2.091   3.991  10.429  0.0373 -0.0909 -0.1714
  991SOL    HW114606   2.059   4.026  10.346  2.7094  0.3251 -1.0028
  991SOL    HW214607   2.010   3.989  10.481  0.3358 -0.8002  0.2707
  992SOL     OW14608   2.695   1.688   9.652 -0.0146 -0.5929  0.3312
  992SOL    HW114609   2.698   1.601   9.689  1.3009 -0.7235 -0.0812
  992SOL    HW214610   2.767   1.681   9.589  2.0006  3.1811  2.1914
  993SOL     OW14611   1.108   4.606   7.736 -0.1206 -0.0834  0.4311
  993SOL    HW114612   1.196   4.591   7.700 -0.9962  0.1294 -1.8223
  993SOL    HW214613   1.121   4.588   7.829 -0.0547  2.0678  0.8403
  994SOL     OW14614   1.126   0.543   2.653 -1.2334  0.3205 -0.2432
  994SOL    HW114615   1.113   0.490   2.574  0.7709  2.2552 -1.8962
  994SOL    HW214616   1.056   0.524   2.715 -0.9263 -1.0251 -0.3083
  995SOL     OW14617   4.147   1.803   8.236 -0.3161  0.4137  0.7443
  995SOL    HW114618   4.154   1.897   8.220  0.7068 -0.1266 -1.8759
  995SOL    HW214619   4.220   1.796   8.298 -0.0254 -0.4271  0.3028
  996SOL     OW14620   0.059   2.004   3.887 -0.2441 -0.3261  0.2768
  996SOL    HW114621   0.024   2.080   3.933  3.1379  1.6233 -0.4242
  996SOL    HW214622   4.727   1.942   3.905 -0.2743 -0.9342 -1.9177
  997SOL     OW14623   0.777   3.811   0.547 -0.1332  0.2310  0.3908
  997SOL    HW114624   0.791   3.733   0.600  0.1835  0.3664  0.5059
  997SOL    HW214625   0.779   3.873   0.620  0.6932 -1.5985  1.9312
  998SOL     OW14626   0.996   4.517  14.673  0.7211 -0.5949 -0.1201
  998SOL    HW114627   1.063   4.574  14.713 -1.2089  0.9348  0.9068
  998SOL    HW214628   0.913   4.559  14.692 -1.0449 -3.6440 -1.2085
  999SOL     OW14629   3.926   0.485   5.020 -0.1804 -0.1405 -0.1219
  999SOL    HW114630   3.959   0.558   5.072 -2.3746  0.9725 -0.2907
  999SOL    HW214631   3.848   0.517   4.975 -0.0736 -1.0353 -0.9705
 1000SOL     OW14632   2.276   3.029   4.821 -0.3271  0.3509  0.5156
 1000SOL    HW114633   2.214   3.091   4.782  0.2073 -0.8940 -2.2754
 1000SOL    HW214634   2.262   3.046   4.914  1.8726 -1.6743  1.2142
 1001SOL     OW14635   2.263   0.303   6.192 -0.1732  0.2102 -1.0093
 1001SOL    HW114636   2.202   0.366   6.153  0.3135  0.4118 -1.4308
 1001SOL    HW214637   2.246   0.232   6.129  0.1933 -0.1333 -0.7241
 1002SOL     OW14638   1.998   0.698   7.993  0.1289  0.0553  0.5668
 1002SOL    HW114639   1.937   0.691   8.066 -0.9792  1.1866 -0.2514
 1002SOL    HW214640   1.938   0.736   7.929 -0.5383  0.4693  1.4386
 1003SOL     OW14641   1.558   2.518   8.107 -0.2946 -0.5824 -0.0049
 1003SOL    HW114642   1.650   2.491   8.103  0.3223  1.6070 -1.2027
 1003SOL    HW214643   1.541   2.554   8.020 -1.0084 -1.4387 -0.2177
 1004SOL     OW14644   2.191   0.757   5.886 -0.0848  0.4367 -0.0885
 1004SOL    HW114645   2.129   0.815   5.931 -0.9350 -1.0985  0.7127
 1004SOL    HW214646   2.207   0.814   5.810  2.3317 -0.6013 -0.3600
 1005SOL     OW14647   4.576   3.202   6.309  0.8118 -0.2400  0.1373
 1005SOL    HW114648   4.656   3.165   6.272  1.2794  2.0242 -1.0672
 1005SOL    HW214649   4.555   3.136   6.376  0.8465 -0.3487  0.0423
 1006SOL     OW14650   0.245   1.071   5.593  0.8160  0.2567  0.1398
 1006SOL    HW114651   0.193   1.055   5.672  0.7274 -1.1624 -0.1945
 1006SOL    HW214652   0.290   0.988   5.577  1.2612  0.8917 -2.0251
 1007SOL     OW14653   3.879   2.566   5.251  0.0559  0.4256  0.1449
 1007SOL    HW114654   3.881   2.473   5.230  0.9197  0.9374 -1.9658
 1007SOL    HW214655   3.969   2.596   5.238  0.5382 -1.2419 -0.2881
 1008SOL     OW14656   2.092   1.445   5.605  0.6255  0.7646  0.2380
 1008SOL    HW114657   2.077   1.507   5.675 -2.3323  1.7333 -1.2346
 1008SOL    HW214658   2.177   1.404   5.620  0.7551  1.0629  0.3104
 1009SOL     OW14659   4.254   0.176  13.924 -0.0009 -0.2482  0.1004
 1009SOL    HW114660   4.313   0.212  13.990 -2.5309  1.1418  1.6087
 1009SOL    HW214661   4.189   0.122  13.968  0.4064 -2.8390 -2.5187
 1010SOL     OW14662   0.845   4.167  10.920 -0.3542  0.3797  0.1570
 1010SOL    HW114663   0.848   4.104  10.848  0.3752 -0.0386  0.5625
 1010SOL    HW214664   0.833   4.111  10.996  3.7907  2.0028  2.0117
 1011SOL     OW14665   3.106   2.124   5.397 -0.5165 -0.0575 -0.0592
 1011SOL    HW114666   3.112   2.140   5.303 -1.2189 -0.2901 -0.1416
 1011SOL    HW214667   3.162   2.046   5.395  0.7198  0.9259 -2.4178
 1012SOL     OW14668   0.797   2.580   7.040  0.0831 -0.1387 -0.1121
 1012SOL    HW114669   0.874   2.633   7.022  1.2626 -1.1231  2.1363
 1012SOL    HW214670   0.735   2.653   7.050  1.4757  1.3732 -2.5655
 1013SOL     OW14671   2.846   1.188   8.378  0.2219 -0.3295 -0.4832
 1013SOL    HW114672   2.768   1.233   8.409  0.2903 -1.1825  0.9058
 1013SOL    HW214673   2.901   1.248   8.326  0.1334  1.6363  1.6745
 1014SOL     OW14674   2.376   1.027   0.188  0.3069  0.1858 -0.5265
 1014SOL    HW114675   2.371   1.089   0.115 -0.2588  1.7347  0.8084
 1014SOL    HW214676   2.282   1.012   0.201  0.0458  0.4115 -2.1047
 1015SOL     OW14677   2.588   0.181   3.143  0.1471  0.1008 -0.8977
 1015SOL    HW114678   2.511   0.202   3.196 -0.3857 -1.8123 -0.9093
 1015SOL    HW214679   2.606   0.254   3.083  2.4494 -0.9115 -1.4687
 1016SOL     OW14680   3.132   2.447  15.814 -0.3110  0.4001  0.4354
 1016SOL    HW114681   3.161   2.387  15.744 -1.9716 -0.6271  0.6286
 1016SOL    HW214682   3.186   2.522  15.789  0.8056  0.1986  2.2827
 1017SOL     OW14683   0.255   1.499   9.688 -0.2465 -0.3877  0.3413
 1017SOL    HW114684   0.233   1.492   9.595  1.2509 -3.2424  0.2041
 1017SOL    HW214685   0.189   1.443   9.729  0.9432 -0.9303  1.5092
 1018SOL     OW14686   3.811   0.913   8.246 -0.8636  0.1559  0.3926
 1018SOL    HW114687   3.790   1.006   8.244  0.8570  0.5276  0.0065
 1018SOL    HW214688   3.739   0.889   8.188 -0.3126  1.3250 -0.7585
 1019SOL     OW14689   3.698   4.272   8.203 -0.6244 -0.0213 -0.7701
 1019SOL    HW114690   3.789   4.251   8.224  0.1147  0.4897 -3.4096
 1019SOL    HW214691   3.716   4.312   8.117  1.0190 -2.0091 -1.3496
 1020SOL     OW14692   2.075   0.244   2.224  0.1563  0.3070  0.4749
 1020SOL    HW114693   1.992   0.248   2.177  0.1953  1.2512  0.4787
 1020SOL    HW214694   2.118   0.329   2.210 -1.7626  1.0257 -1.1342
 1021SOL     OW14695   0.293   2.261   6.877  0.1840 -0.1366  0.1289
 1021SOL    HW114696   0.276   2.339   6.823 -1.1734 -1.3025 -1.1395
 1021SOL    HW214697   0.212   2.209   6.875  1.7123 -2.4943 -0.4468
 1022SOL     OW14698   4.565   3.081   0.713 -0.0346 -0.2609  0.7494
 1022SOL    HW114699   4.565   2.998   0.665  0.1851 -0.5256  1.2148
 1022SOL    HW214700   4.654   3.090   0.747  0.9625  0.3356 -1.9543
 1023SOL     OW14701   0.996   1.994  12.885 -0.2729 -0.2972 -0.1196
 1023SOL    HW114702   1.004   1.899  12.877  0.1416 -0.3086  0.4284
 1023SOL    HW214703   1.085   2.022  12.906 -0.0793 -0.7785 -0.3212
 1024SOL     OW14704   1.330   1.602   2.138  0.0115  0.1304  0.0679
 1024SOL    HW114705   1.274   1.620   2.213  1.2649  1.4260  0.6911
 1024SOL    HW214706   1.310   1.508   2.131 -1.0891  0.3516  0.3016
 1025SOL     OW14707   2.112   3.242   1.227  0.0944 -0.7496 -0.0061
 1025SOL    HW114708   2.045   3.207   1.168 -0.2531  0.3690 -0.2765
 1025SOL    HW214709   2.104   3.336   1.211  0.2054 -1.2422 -2.8484
 1026SOL     OW14710   4.146   1.593   2.586  0.1011  0.4525  0.3067
 1026SOL    HW114711   4.184   1.507   2.566 -1.2751  0.5616 -2.7662
 1026SOL    HW214712   4.222   1.648   2.605  1.2129 -1.1520  0.5858
 1027SOL     OW14713   1.941   3.886   8.408 -0.3775 -0.3629 -0.2177
 1027SOL    HW114714   1.933   3.870   8.314  1.3046  0.8989 -0.5831
 1027SOL    HW214715   1.862   3.939   8.421 -0.0936  0.6203 -2.4109
 1028SOL     OW14716   0.186   1.687   5.353  0.1461  0.0697 -0.1197
 1028SOL    HW114717   0.219   1.767   5.313 -0.5948  0.5775  0.2676
 1028SOL    HW214718   0.260   1.627   5.344  0.5199  0.7881 -1.8395
 1029SOL     OW14719   3.984   0.742   1.957  0.2438  0.2978  0.0348
 1029SOL    HW114720   4.014   0.816   1.904  2.6369 -1.2005 -0.7150
 1029SOL    HW214721   4.038   0.668   1.926  0.8210  0.8705 -0.3335
 1030SOL     OW14722   1.902   1.706   8.747  0.0877 -0.1355 -0.5800
 1030SOL    HW114723   1.888   1.675   8.836 -0.3383  0.0185 -0.5929
 1030SOL    HW214724   1.987   1.750   8.748  0.6290 -1.1873 -0.1689
 1031SOL     OW14725   3.063   3.575  16.305  0.7029  0.4452 -0.6693
 1031SOL    HW114726   3.146   3.529  16.291 -0.0003  0.2052 -4.2000
 1031SOL    HW214727   3.072   3.578  16.400  0.5706  1.3791 -0.6923
 1032SOL     OW14728   2.760   4.604  16.657  0.1206 -0.1395 -0.0265
 1032SOL    HW114729   2.743   4.687  16.611  0.6361  0.7680  1.3996
 1032SOL    HW214730   2.774   4.637  16.746  1.9026  0.0173 -0.3762
 1033SOL     OW14731   1.264   2.313   6.970  0.1098  0.1963  1.0891
 1033SOL    HW114732   1.197   2.370   6.932 -0.9009 -1.2227  0.7199
 1033SOL    HW214733   1.321   2.284   6.899 -1.5359 -2.4751  0.8374
 1034SOL     OW14734   1.388   3.635  14.666 -0.6306  0.7585  0.3478
 1034SOL    HW114735   1.483   3.624  14.660 -0.4701  2.2003  0.2437
 1034SOL    HW214736   1.378   3.671  14.577  2.8463 -1.9264 -1.1388
 1035SOL     OW14737   4.488   2.705   7.623 -0.4336 -1.0156 -0.1543
 1035SOL    HW114738   4.520   2.615   7.620 -0.1336 -0.8901 -0.6887
 1035SOL    HW214739   4.408   2.688   7.572 -1.5204  1.3922  0.7513
 1036SOL     OW14740   0.097   3.201   1.853  0.4580  0.3241  0.5084
 1036SOL    HW114741   0.084   3.108   1.871 -1.0284  0.6909  1.3376
 1036SOL    HW214742   0.146   3.235   1.928 -0.7217  1.7102  0.6404
 1037SOL     OW14743   1.689   3.893  14.940  0.1670 -0.0120  0.6082
 1037SOL    HW114744   1.779   3.903  14.972 -0.0564 -0.0750  1.2515
 1037SOL    HW214745   1.693   3.802  14.910 -0.0306  0.0302  0.4508
 1038SOL     OW14746   1.192   1.955   4.636 -0.1582  0.2342  0.1411
 1038SOL    HW114747   1.233   2.017   4.697  0.1548  0.3468 -0.1780
 1038SOL    HW214748   1.151   2.015   4.574  0.2644 -0.7823 -1.1179
 1039SOL     OW14749   2.086   2.491   4.201 -0.2859 -0.5887 -0.1471
 1039SOL    HW114750   2.096   2.585   4.210  0.4440 -0.7183  0.4506
 1039SOL    HW214751   2.167   2.464   4.157 -0.7159 -2.2304  0.0403
 1040SOL     OW14752   0.184   2.364   1.813 -0.0573  0.0898  0.1468
 1040SOL    HW114753   0.239   2.407   1.748  0.2918 -0.3758  0.1293
 1040SOL    HW214754   0.220   2.399   1.894 -0.1174  1.3112 -0.3592
 1041SOL     OW14755   3.647   2.600   9.305  0.2119 -0.4912 -0.1421
 1041SOL    HW114756   3.555   2.579   9.323  0.1764  0.4886  0.8369
 1041SOL    HW214757   3.675   2.525   9.253  0.9279 -1.8748  2.2483
 1042SOL     OW14758   1.581   0.051   0.706 -0.4485 -0.1304  0.1457
 1042SOL    HW114759   1.622   4.732   0.642  2.2144  0.3560  1.4232
 1042SOL    HW214760   1.646   0.051   0.777 -0.3593  0.8074  0.0684
 1043SOL     OW14761   3.487   2.557   7.261  0.3496  0.4204  0.1713
 1043SOL    HW114762   3.463   2.609   7.337 -0.6522  2.1197 -1.3254
 1043SOL    HW214763   3.406   2.555   7.210  0.9192  1.2648 -0.7605
 1044SOL     OW14764   0.404   0.120   2.714  0.6715  0.8548  0.6817
 1044SOL    HW114765   0.463   0.045   2.714 -0.5113 -0.0797  2.8884
 1044SOL    HW214766   0.387   0.141   2.623  0.2977 -2.0154  0.0824
 1045SOL     OW14767   1.193   4.548   6.984  0.2458 -0.7648 -0.0470
 1045SOL    HW114768   1.235   4.499   7.054  0.0329  0.6931  1.1140
 1045SOL    HW214769   1.255   4.531   6.913 -0.6500  1.0196 -1.2709
 1046SOL     OW14770   4.337   0.758   6.689  0.2525 -0.2157 -0.3005
 1046SOL    HW114771   4.372   0.681   6.734  2.9237 -0.5632 -2.9079
 1046SOL    HW214772   4.411   0.772   6.629  0.9118  1.2848  0.8677
 1047SOL     OW14773   2.175   0.977   4.004  0.3817 -0.0531  0.5975
 1047SOL    HW114774   2.118   1.019   3.940  0.5981  0.2578  0.6058
 1047SOL    HW214775   2.249   1.038   4.013  0.5336 -0.0299 -0.8938
 1048SOL     OW14776   0.179   1.060   9.341 -0.5945  0.0198  0.0260
 1048SOL    HW114777   0.104   1.033   9.288 -0.4206 -2.2253  0.9287
 1048SOL    HW214778   0.135   1.089   9.420  0.8643  0.4444  0.6784
 1049SOL     OW14779   2.928   2.970   2.702  0.3673  0.0671  0.2218
 1049SOL    HW114780   2.882   3.043   2.661 -1.3050 -0.0747  1.8793
 1049SOL    HW214781   2.978   2.932   2.629 -0.2392  0.9962 -0.6704
 1050SOL     OW14782   3.402   4.186   9.454  0.3399  0.2011 -0.6898
 1050SOL    HW114783   3.410   4.111   9.513  0.5717 -0.2363 -1.2650
 1050SOL    HW214784   3.389   4.251   9.522  0.2276  0.5254 -1.0208
 1051SOL     OW14785   0.212   2.364   8.381 -0.7110  0.0008  0.3396
 1051SOL    HW114786   0.144   2.413   8.335 -1.2181 -0.7708  0.2672
 1051SOL    HW214787   0.225   2.295   8.316  1.9828  2.5446 -1.8335
 1052SOL     OW14788   1.336   2.991   2.258 -0.0324 -0.0302  0.5244
 1052SOL    HW114789   1.419   3.011   2.215 -0.7262  0.8022 -0.4125
 1052SOL    HW214790   1.279   3.061   2.226 -0.0412  0.2844  1.2483
 1053SOL     OW14791   2.452   0.446   7.797  0.3562  0.2047  0.1302
 1053SOL    HW114792   2.468   0.483   7.711  0.4863 -0.0307  0.0516
 1053SOL    HW214793   2.440   0.525   7.849 -1.9865  0.3810 -0.6506
 1054SOL     OW14794   0.443   3.856   2.357 -0.1500  0.3348 -0.1053
 1054SOL    HW114795   0.511   3.915   2.323  0.2788 -1.1487 -1.8687
 1054SOL    HW214796   0.381   3.921   2.389  0.5797 -0.4757  2.9766
 1055SOL     OW14797   1.456   3.508  10.373 -0.4417 -0.4964 -0.1309
 1055SOL    HW114798   1.548   3.485  10.378 -0.0300  0.9349 -1.2247
 1055SOL    HW214799   1.418   3.445  10.434 -0.7603 -1.0934 -0.9374
 1056SOL     OW14800   2.364   2.367   2.846 -0.4572  1.0126  0.3546
 1056SOL    HW114801   2.438   2.310   2.864 -0.7166  0.5465 -0.0553
 1056SOL    HW214802   2.364   2.357   2.751  1.3280  0.0613  0.4577
 1057SOL     OW14803   0.487   0.571   1.908 -0.1802 -0.4136  0.2910
 1057SOL    HW114804   0.441   0.608   1.983 -0.5141 -1.1972  0.4712
 1057SOL    HW214805   0.457   0.637   1.846 -1.9846 -2.5262 -1.0906
 1058SOL     OW14806   3.487   1.529   1.509 -0.1877  0.4232  0.0682
 1058SOL    HW114807   3.412   1.483   1.471 -0.1770 -0.5145  1.1989
 1058SOL    HW214808   3.515   1.479   1.586 -3.9364  2.0293  2.4732
 1059SOL     OW14809   2.651   4.356   7.985  0.2572 -0.7550 -0.9735
 1059SOL    HW114810   2.742   4.385   7.986 -0.5474  1.8330 -1.4266
 1059SOL    HW214811   2.614   4.435   7.946 -0.0757  0.1223  1.1027
 1060SOL     OW14812   2.531   3.797  11.148 -0.1023  0.3587  0.6440
 1060SOL    HW114813   2.626   3.790  11.155 -0.1564 -0.4607  0.5069
 1060SOL    HW214814   2.513   3.770  11.058  0.8398  2.4313 -0.1461
 1061SOL     OW14815   1.487   2.938   6.047 -0.3509  0.0661  0.0927
 1061SOL    HW114816   1.416   2.878   6.069  0.9241 -1.4006  0.1662
 1061SOL    HW214817   1.558   2.915   6.106  0.4853 -0.1068 -0.9807
 1062SOL     OW14818   0.207   0.612   5.008 -0.4481  0.8833  0.0520
 1062SOL    HW114819   0.241   0.576   4.927  0.1891 -0.8714  1.0962
 1062SOL    HW214820   0.168   0.531   5.041 -2.4816  1.6515 -0.4339
 1063SOL     OW14821   2.783   1.641   4.755 -0.1853 -0.2298  0.5183
 1063SOL    HW114822   2.874   1.617   4.776  0.2963 -0.5963 -1.9253
 1063SOL    HW214823   2.787   1.611   4.664 -2.6362 -1.7070  0.8868
 1064SOL     OW14824   4.109   1.848   5.899 -0.5198  0.3462 -0.1090
 1064SOL    HW114825   4.197   1.856   5.863 -0.5798 -0.0671 -0.3382
 1064SOL    HW214826   4.060   1.899   5.834 -0.1087 -1.5294 -1.8545
 1065SOL     OW14827   0.541   4.315  12.718 -0.1902 -0.0965 -0.2429
 1065SOL    HW114828   0.472   4.251  12.737 -0.0168 -0.8602 -2.1002
 1065SOL    HW214829   0.591   4.270  12.650  1.5091  0.9809  0.2994
 1066SOL     OW14830   4.086   2.880  16.512 -0.6168  0.1041  0.0000
 1066SOL    HW114831   4.104   2.884  16.606 -0.0487 -2.6328  0.0073
 1066SOL    HW214832   4.111   2.970  16.489 -0.3921 -0.0463 -0.3297
 1067SOL     OW14833   3.289   1.713   3.246  0.4750  0.2000  0.4548
 1067SOL    HW114834   3.218   1.682   3.190  2.6271 -0.7458 -1.7386
 1067SOL    HW214835   3.354   1.644   3.252 -0.0764 -0.4297 -0.8030
 1068SOL     OW14836   3.904   0.242   2.229  0.3921 -0.3156  0.4764
 1068SOL    HW114837   3.969   0.172   2.234  0.3219 -0.3110  1.4720
 1068SOL    HW214838   3.916   0.273   2.319  0.8475  0.5618  0.1174
 1069SOL     OW14839   2.960   4.292   0.279 -0.3626  0.1960 -0.4073
 1069SOL    HW114840   2.897   4.357   0.310  2.0362  2.1941  0.2818
 1069SOL    HW214841   3.046   4.320   0.309 -0.7952 -0.4741  1.4646
 1070SOL     OW14842   0.832   0.715   6.160 -0.2971  0.5970  0.0907
 1070SOL    HW114843   0.910   0.683   6.115  0.0950  3.4516 -1.2591
 1070SOL    HW214844   0.869   0.774   6.226  0.5263 -0.1827  0.3157
 1071SOL     OW14845   2.859   4.623   9.087 -0.3735  0.0334  0.2590
 1071SOL    HW114846   2.881   4.548   9.031 -1.5084 -1.8389  2.3104
 1071SOL    HW214847   2.766   4.605   9.100 -0.8580  2.5775  0.2093
 1072SOL     OW14848   0.388   2.388   4.268 -0.0679  0.1590 -0.7682
 1072SOL    HW114849   0.391   2.457   4.201  1.2874  0.2882 -0.5777
 1072SOL    HW214850   0.366   2.319   4.206 -0.5820 -0.1018 -0.2944
 1073SOL     OW14851   2.451   0.140   7.123  0.4069 -0.2365  0.0043
 1073SOL    HW114852   2.369   0.113   7.165  0.1481 -1.4829 -1.3136
 1073SOL    HW214853   2.512   0.094   7.180 -1.0801  0.0447  1.8359
 1074SOL     OW14854   2.425   0.646   6.890 -0.4127  0.2342 -0.5568
 1074SOL    HW114855   2.451   0.557   6.912  2.0832  1.0646 -0.0933
 1074SOL    HW214856   2.502   0.698   6.913  0.1089 -0.5479 -0.5373
 1075SOL     OW14857   0.492   0.219   8.359 -0.1544 -0.8485  0.1984
 1075SOL    HW114858   0.585   0.226   8.340  0.0351  0.1798  1.5565
 1075SOL    HW214859   0.465   0.141   8.310 -2.8802  1.0272 -1.2730
 1076SOL     OW14860   2.309   2.386   5.245 -0.5897 -0.2031 -0.3642
 1076SOL    HW114861   2.247   2.453   5.217 -0.6153 -0.0231  0.1248
 1076SOL    HW214862   2.369   2.381   5.170  1.1714 -0.9225  1.0896
 1077SOL     OW14863   2.790   0.604   7.728  0.0376  0.5347 -0.2502
 1077SOL    HW114864   2.840   0.523   7.730  0.2909  0.6815 -0.5658
 1077SOL    HW214865   2.728   0.586   7.799 -0.6102 -0.5382 -1.0911
 1078SOL     OW14866   2.356   2.324   2.570  0.3510 -0.1287  0.7952
 1078SOL    HW114867   2.353   2.406   2.520  2.2497 -0.3638  0.2862
 1078SOL    HW214868   2.398   2.273   2.500 -0.8287 -0.0543  0.0354
 1079SOL     OW14869   0.831   3.138  11.897 -0.7369  0.3429 -0.1833
 1079SOL    HW114870   0.757   3.079  11.910  0.1770 -0.6220  0.6636
 1079SOL    HW214871   0.861   3.156  11.986  0.4027 -1.6424 -0.1661
 1080SOL     OW14872   4.573   4.032  14.696 -0.6588  0.2328  0.1600
 1080SOL    HW114873   4.585   4.123  14.725  1.4151  0.5014 -1.5708
 1080SOL    HW214874   4.625   3.995  14.767 -0.3376  0.5505  0.0930
 1081SOL     OW14875   1.383   3.938  16.329  0.6831 -0.0772 -0.2016
 1081SOL    HW114876   1.342   3.927  16.243 -0.4228  1.1001  0.1641
 1081SOL    HW214877   1.414   4.029  16.326  0.5933 -0.0199  0.7618
 1082SOL     OW14878   2.055   2.712   9.760  0.0646  0.6841 -0.0087
 1082SOL    HW114879   1.982   2.651   9.764  0.8779 -0.3057 -0.4632
 1082SOL    HW214880   2.127   2.654   9.736  0.8953  2.2229 -1.2434
 1083SOL     OW14881   3.155   3.338  16.756 -0.1645  0.1012 -0.2880
 1083SOL    HW114882   3.189   3.396  16.825 -0.3465 -0.4727  0.2902
 1083SOL    HW214883   3.061   3.333  16.773 -0.6912  3.1892 -2.4451
 1084SOL     OW14884   0.832   3.186   2.764  0.2846  0.2379  0.0571
 1084SOL    HW114885   0.880   3.230   2.834 -0.1970 -1.7281  1.6376
 1084SOL    HW214886   0.895   3.119   2.738 -0.3593 -0.1992 -0.3760
 1085SOL     OW14887   3.283   0.493   6.546 -0.2060 -0.4324 -0.6053
 1085SOL    HW114888   3.361   0.539   6.516 -0.2892 -0.3556 -0.7035
 1085SOL    HW214889   3.312   0.403   6.561 -1.0440 -0.4676  0.8931
 1086SOL     OW14890   2.065   2.910   3.635  0.3067  0.1642  0.8592
 1086SOL    HW114891   1.972   2.928   3.649  0.7034  1.1938  2.2389
 1086SOL    HW214892   2.074   2.822   3.670  1.2104  0.7877  2.2111
 1087SOL     OW14893   0.717   3.098   5.106  0.0144  0.3963  0.2072
 1087SOL    HW114894   0.726   3.193   5.094  0.3351  0.5198  1.3878
 1087SOL    HW214895   0.807   3.073   5.085 -0.0968  1.7434 -1.9069
 1088SOL     OW14896   2.038   2.593   9.267 -0.6559 -0.5773 -0.3921
 1088SOL    HW114897   2.059   2.520   9.208  1.8469  0.3391 -0.6338
 1088SOL    HW214898   2.124   2.617   9.300 -0.7075  2.3803 -2.3572
 1089SOL     OW14899   4.519   0.690   2.173 -0.2616 -0.0395 -0.3094
 1089SOL    HW114900   4.450   0.725   2.117 -2.6808 -2.2837  1.2414
 1089SOL    HW214901   4.467   0.684   2.253 -0.8579 -1.5866 -0.7948
 1090SOL     OW14902   2.299   2.349   3.126  0.7566 -0.7016 -0.0322
 1090SOL    HW114903   2.212   2.330   3.089  0.6566  0.0398 -0.1842
 1090SOL    HW214904   2.344   2.380   3.048  1.6589  0.3746  0.9181
 1091SOL     OW14905   2.509   1.741   9.056  0.3352 -0.1434  0.1811
 1091SOL    HW114906   2.528   1.761   9.148 -0.4291  1.4372 -0.0028
 1091SOL    HW214907   2.569   1.804   9.018  1.1326 -1.0635 -0.0778
 1092SOL     OW14908   4.199   1.965   7.654  0.0262  0.0672 -0.5666
 1092SOL    HW114909   4.237   1.960   7.566  0.4820  0.5155 -0.3919
 1092SOL    HW214910   4.258   1.905   7.701  0.0176  0.2538 -0.3165
 1093SOL     OW14911   0.506   1.792   5.056  0.0668  0.7252  0.2309
 1093SOL    HW114912   0.565   1.730   5.099  0.2825 -1.3747 -3.1129
 1093SOL    HW214913   0.560   1.824   4.983 -2.1636  0.5218 -1.5102
 1094SOL     OW14914   2.208   2.369   0.437  0.1387  0.1700 -0.0735
 1094SOL    HW114915   2.261   2.449   0.444 -0.0258  0.3841 -1.1899
 1094SOL    HW214916   2.204   2.361   0.341 -2.3698 -1.6662  0.1910
 1095SOL     OW14917   1.493   3.038  12.307 -0.3091 -0.6943  0.0325
 1095SOL    HW114918   1.550   3.098  12.354  0.0800  0.0904 -1.4365
 1095SOL    HW214919   1.496   3.065  12.215 -1.2621 -1.5221 -0.2365
 1096SOL     OW14920   0.209   1.218   3.951 -0.4956  0.6817 -0.0097
 1096SOL    HW114921   0.279   1.154   3.940 -0.0428  1.5106 -2.1208
 1096SOL    HW214922   0.209   1.231   4.045  0.4891  2.5905 -0.2677
 1097SOL     OW14923   3.760   0.982   8.755 -0.3707 -0.4870 -0.1542
 1097SOL    HW114924   3.786   1.050   8.818 -0.9969 -1.6309  1.3349
 1097SOL    HW214925   3.668   0.981   8.781  0.0522 -5.0556  1.1426
 1098SOL     OW14926   2.758   1.913  16.357  0.1922  0.2467  0.3778
 1098SOL    HW114927   2.791   1.829  16.392 -2.0535 -0.0347  1.8520
 1098SOL    HW214928   2.789   1.970  16.428 -0.6386  0.0441  0.9006
 1099SOL     OW14929   1.397   1.454   3.176  0.3075 -0.6483 -0.5855
 1099SOL    HW114930   1.400   1.380   3.115  1.3169 -0.4397 -0.7839
 1099SOL    HW214931   1.307   1.430   3.198 -0.7112  3.5540 -0.1817
 1100SOL     OW14932   3.771   1.987   8.636  0.5129  0.4393  0.0596
 1100SOL    HW114933   3.750   1.915   8.577 -0.2070 -0.8099  1.8510
 1100SOL    HW214934   3.765   2.057   8.570  1.0912  0.8869  0.4740
 1101SOL     OW14935   4.678   2.454  11.446 -0.3564  0.0817  0.2719
 1101SOL    HW114936   4.627   2.469  11.366  0.1152 -0.9173 -0.2067
 1101SOL    HW214937   4.694   2.361  11.432  1.7858  0.7294 -1.4659
 1102SOL     OW14938   4.179   1.227   2.178 -0.0285  0.1194 -0.0769
 1102SOL    HW114939   4.144   1.139   2.190 -1.1913  0.6580  0.5502
 1102SOL    HW214940   4.110   1.286   2.209 -1.0539 -1.0249 -0.1850
 1103SOL     OW14941   0.059   2.243   5.170  0.4750 -0.0245 -0.4324
 1103SOL    HW114942   0.132   2.204   5.123 -0.1158 -1.4078 -0.1826
 1103SOL    HW214943   0.103   2.257   5.254  1.6221  1.3262 -1.2532
 1104SOL     OW14944   4.363   4.121   8.033  0.0996  0.3559  0.3618
 1104SOL    HW114945   4.436   4.141   8.093  0.8715  0.1426 -0.5095
 1104SOL    HW214946   4.294   4.148   8.094 -0.4940  3.0176 -1.5096
 1105SOL     OW14947   4.148   2.940  14.405  0.2485  0.5537 -0.2374
 1105SOL    HW114948   4.187   3.000  14.468 -1.3626  1.0057  0.3170
 1105SOL    HW214949   4.098   2.999  14.348 -0.5385  0.2862  0.1743
 1106SOL     OW14950   3.692   0.521   6.997  0.9769 -0.1671  0.1480
 1106SOL    HW114951   3.605   0.499   6.965  1.1632 -0.9435  0.1724
 1106SOL    HW214952   3.661   0.572   7.071  1.6514 -0.2556  0.4917
 1107SOL     OW14953   4.691   2.332   8.082 -0.1287 -0.1801  0.2008
 1107SOL    HW114954   4.701   2.262   8.018 -1.3538  0.1240 -0.3052
 1107SOL    HW214955   0.041   2.315   8.115 -0.4678 -1.1937  0.6159
 1108SOL     OW14956   4.217   3.017   5.670  0.4883  0.4022  0.4694
 1108SOL    HW114957   4.185   3.059   5.749 -3.1606 -2.0201  0.2637
 1108SOL    HW214958   4.135   2.974   5.646  0.7323  1.2731 -1.9492
 1109SOL     OW14959   1.712   3.936   8.841  0.8801 -0.7273 -0.7114
 1109SOL    HW114960   1.618   3.945   8.860  0.6534  0.9613 -2.5848
 1109SOL    HW214961   1.739   3.986   8.917  0.2582 -0.9231 -0.3624
 1110SOL     OW14962   1.551   2.049  14.057 -0.0199  0.0746  0.5726
 1110SOL    HW114963   1.562   1.966  14.011  2.2287  1.2489 -1.0010
 1110SOL    HW214964   1.624   2.047  14.119  0.0846  1.3025  0.4994
 1111SOL     OW14965   4.526   3.508  14.575  0.6380 -0.2461 -0.0056
 1111SOL    HW114966   4.548   3.582  14.631 -1.0571  2.3062 -2.7154
 1111SOL    HW214967   4.465   3.547  14.512 -2.5345 -0.9499  2.5537
 1112SOL     OW14968   3.881   0.330   5.228 -0.2038  0.2163 -0.6968
 1112SOL    HW114969   3.877   0.376   5.144  1.4636  1.1328 -0.2738
 1112SOL    HW214970   3.962   0.280   5.219 -1.4791 -2.8079  4.4269
 1113SOL     OW14971   2.102   2.039   6.390  0.0598 -0.0390 -0.0392
 1113SOL    HW114972   2.052   1.979   6.445 -0.7861  3.1204  2.6313
 1113SOL    HW214973   2.057   2.030   6.306 -0.0560  0.2261 -0.0073
 1114SOL     OW14974   3.268   3.816   1.699  0.2780 -0.1835  0.0051
 1114SOL    HW114975   3.307   3.903   1.699 -1.2281  0.4905  0.0334
 1114SOL    HW214976   3.337   3.764   1.740  0.2670  0.1387  0.4365
 1115SOL     OW14977   1.244   4.135   1.711 -0.1914 -0.3214  0.5385
 1115SOL    HW114978   1.254   4.230   1.707 -4.0137  0.1985  2.9049
 1115SOL    HW214979   1.331   4.109   1.680 -0.8644  0.1798 -1.7098
 1116SOL     OW14980   0.958   3.635   7.367  0.3164  0.8175  0.1304
 1116SOL    HW114981   0.961   3.659   7.274  0.2933 -1.7425 -0.5235
 1116SOL    HW214982   0.893   3.566   7.355 -2.1181  3.0862  0.3398
 1117SOL     OW14983   0.198   2.433  15.631 -0.3670  1.0486  0.1390
 1117SOL    HW114984   0.231   2.500  15.691 -0.4244  2.6048 -1.5574
 1117SOL    HW214985   0.108   2.423  15.664 -0.0835 -0.6957  0.3537
 1118SOL     OW14986   3.211   0.433   7.030 -0.0862  0.4984  0.2854
 1118SOL    HW114987   3.125   0.473   7.016  0.8204  2.2200 -0.3013
 1118SOL    HW214988   3.193   0.339   7.035  0.1634  0.4686  0.6251
 1119SOL     OW14989   1.573   0.754   8.315  0.5257  0.0053 -0.3822
 1119SOL    HW114990   1.574   0.703   8.396  1.9181  1.9065  0.8048
 1119SOL    HW214991   1.650   0.811   8.319  0.0752  0.7607 -2.3017
 1120SOL     OW14992   3.459   0.432   3.059 -0.2392 -0.4736  0.0318
 1120SOL    HW114993   3.445   0.430   3.154  0.5852 -0.4504  0.1535
 1120SOL    HW214994   3.441   0.523   3.035  2.3518  0.1672  0.5332
 1121SOL     OW14995   4.136   4.363  10.021  0.4262  0.4540 -0.0896
 1121SOL    HW114996   4.206   4.308   9.984  0.0023 -2.4582  3.4406
 1121SOL    HW214997   4.169   4.389  10.107  0.8996 -1.5198  0.3308
 1122SOL     OW14998   0.401   4.639   4.279  0.4202  0.1018 -0.2013
 1122SOL    HW114999   0.437   4.574   4.340 -1.9099 -0.2567  0.7982
 1122SOL    HW215000   0.312   4.610   4.258  1.0117 -1.3527 -0.6860
 1123SOL     OW15001   3.335   2.608   5.614  0.4534  0.0535 -0.8996
 1123SOL    HW115002   3.408   2.658   5.649 -0.3736  0.5057  0.1712
 1123SOL    HW215003   3.267   2.674   5.623 -0.1612 -0.6606 -0.3009
 1124SOL     OW15004   2.449   0.758  16.825  0.1995  0.1283 -0.3272
 1124SOL    HW115005   2.415   0.790  16.909 -0.5951 -0.7370 -0.3103
 1124SOL    HW215006   2.523   0.815  16.806  0.7732 -0.0343  1.3803
 1125SOL     OW15007   0.148   4.613  16.930  0.0718  0.0699  0.7978
 1125SOL    HW115008   0.144   4.647  17.019  2.9205 -0.3882  1.0986
 1125SOL    HW215009   0.085   4.675  16.893  1.1719  0.1303 -0.9786
 1126SOL     OW15010   3.907   1.946   4.433  0.4179  0.8740 -0.1508
 1126SOL    HW115011   3.823   1.978   4.397  0.4570  0.0843 -0.9508
 1126SOL    HW215012   3.918   2.011   4.502  1.9292  1.8276 -1.2699
 1127SOL     OW15013   4.514   3.055   7.827 -0.3999 -0.1410 -0.0589
 1127SOL    HW115014   4.451   3.047   7.899  1.7028 -1.6555  1.6021
 1127SOL    HW215015   4.573   3.119   7.867  0.6576 -1.7720  0.9799
 1128SOL     OW15016   0.166   1.157  12.202  0.7618  0.5518 -0.3192
 1128SOL    HW115017   0.137   1.124  12.287  2.7804  0.8582  0.4898
 1128SOL    HW215018   0.257   1.126  12.197  0.8654  1.0355 -1.2318
 1129SOL     OW15019   3.582   4.636   8.115 -0.2796 -0.1865 -0.0443
 1129SOL    HW115020   3.527   4.682   8.179 -2.1210  0.2226 -1.9350
 1129SOL    HW215021   3.557   4.550   8.149  0.6446 -0.9936 -1.4295
 1130SOL     OW15022   3.625   1.766   5.077  0.0601 -0.3220  0.1765
 1130SOL    HW115023   3.617   1.800   5.166 -0.4808  0.2458 -0.0900
 1130SOL    HW215024   3.537   1.770   5.040 -0.0397 -1.0496  0.3317
 1131SOL     OW15025   0.742   2.237   0.997 -0.1377 -0.5031 -0.2180
 1131SOL    HW115026   0.653   2.202   0.995  0.7811 -2.8517 -0.2010
 1131SOL    HW215027   0.733   2.292   0.919  0.9098 -0.3765 -0.2433
 1132SOL     OW15028   3.340   1.850   7.090 -0.0938  0.0883  0.5103
 1132SOL    HW115029   3.251   1.842   7.125  0.8849 -2.5392  2.3940
 1132SOL    HW215030   3.335   1.790   7.016  0.6464  0.3298  0.2635
 1133SOL     OW15031   1.765   0.636   0.005 -0.1784 -0.2082 -0.2453
 1133SOL    HW115032   1.713   0.568   0.046 -1.4130  0.3127 -0.9430
 1133SOL    HW215033   1.730   0.639  17.670 -1.9060  0.8267  0.4546
 1134SOL     OW15034   3.095   4.333   4.155  0.0172  0.3223 -0.0256
 1134SOL    HW115035   3.007   4.326   4.191  0.3845  0.1440  0.8416
 1134SOL    HW215036   3.152   4.339   4.232  1.1832 -2.0671 -0.6941
 1135SOL     OW15037   2.421   4.640   5.184 -0.3222  0.2857 -0.2329
 1135SOL    HW115038   2.365   4.677   5.252  1.1819  2.6736 -0.2857
 1135SOL    HW215039   2.496   4.699   5.179 -1.1281  1.3075 -0.4093
 1136SOL     OW15040   1.339   1.522   1.614 -0.2794  0.2582  0.2095
 1136SOL    HW115041   1.259   1.511   1.665 -1.5802  0.3096 -1.7882
 1136SOL    HW215042   1.375   1.435   1.599  0.5581  0.8097 -1.0066
 1137SOL     OW15043   1.376   1.055  15.923 -0.3237  0.1772 -0.3567
 1137SOL    HW115044   1.399   1.022  16.009  0.4856  0.9929 -0.2510
 1137SOL    HW215045   1.290   1.019  15.902 -0.4709  0.1063  0.3659
 1138SOL     OW15046   3.606   0.639   7.220  0.7842 -0.2234 -0.1002
 1138SOL    HW115047   3.513   0.656   7.205  0.7437 -0.6499 -0.3599
 1138SOL    HW215048   3.612   0.574   7.290  1.0208  0.8686  0.8751
 1139SOL     OW15049   1.830   3.885   2.737  0.1025  0.4274 -0.4067
 1139SOL    HW115050   1.920   3.910   2.757 -0.6319  2.4463  0.3328
 1139SOL    HW215051   1.778   3.933   2.801  1.4167  0.3894  0.6866
 1140SOL     OW15052   2.409   2.212   6.477 -0.2146  0.5005  0.3781
 1140SOL    HW115053   2.451   2.133   6.511 -3.4886 -1.7847 -0.8936
 1140SOL    HW215054   2.335   2.168   6.436  0.5331  0.0230 -0.4569
 1141SOL     OW15055   4.131   0.612   3.008 -0.3861 -0.5726 -0.1525
 1141SOL    HW115056   4.094   0.628   3.095 -0.2702  2.2948 -0.6193
 1141SOL    HW215057   4.052   0.614   2.954 -0.4458  2.9636  0.1004
 1142SOL     OW15058   1.605   1.892   3.818 -0.0666  0.0836  0.6239
 1142SOL    HW115059   1.551   1.897   3.897  0.8856 -2.9088  1.4807
 1142SOL    HW215060   1.576   1.808   3.782  3.5055 -0.6052 -0.6133
 1143SOL     OW15061   4.623   2.010   3.124  0.8365  0.1367  0.1502
 1143SOL    HW115062   4.570   1.979   3.050 -1.3846  0.2982  1.6460
 1143SOL    HW215063   4.627   1.925   3.169 -0.9852 -0.4705 -0.8120
 1144SOL     OW15064   0.177   4.037  16.442  0.5989  0.0442 -0.5157
 1144SOL    HW115065   0.171   4.029  16.538  1.3533  2.1499 -0.2946
 1144SOL    HW215066   0.270   4.016  16.431  0.8638 -0.7101  2.9337
 1145SOL     OW15067   0.467   0.852  11.447 -0.1343 -0.0933  0.7736
 1145SOL    HW115068   0.474   0.768  11.400  1.8517  1.3133 -1.4302
 1145SOL    HW215069   0.549   0.857  11.496 -1.0643  0.9895  2.2256
 1146SOL     OW15070   0.823   1.555   7.396  0.4735  0.2072 -0.5854
 1146SOL    HW115071   0.736   1.561   7.356  0.1732  2.1506  0.3687
 1146SOL    HW215072   0.807   1.546   7.490  1.7014  0.1060 -0.3868
 1147SOL     OW15073   1.501   4.020  17.000 -0.0993  0.6029 -0.0371
 1147SOL    HW115074   1.556   3.969  16.940 -1.5527  0.1335 -0.9759
 1147SOL    HW215075   1.413   3.992  16.976 -0.4166  1.1279  0.5190
 1148SOL     OW15076   3.630   3.519  16.750  0.3006  0.4905 -0.2872
 1148SOL    HW115077   3.716   3.477  16.747 -0.0253 -0.1046 -1.1451
 1148SOL    HW215078   3.657   3.607  16.777  1.0287 -0.0561  0.7718
 1149SOL     OW15079   3.819   4.224   2.335 -0.0681  0.0813  0.2414
 1149SOL    HW115080   3.909   4.234   2.368 -0.0650 -0.3249  0.3655
 1149SOL    HW215081   3.773   4.190   2.412 -0.0726 -1.2084 -0.3355
 1150SOL     OW15082   0.662   3.356  12.122 -0.4199  0.4046 -0.9478
 1150SOL    HW115083   0.701   3.274  12.152  0.4825  0.9760 -0.5665
 1150SOL    HW215084   0.662   3.407  12.203 -2.0885  0.0827 -0.7320
 1151SOL     OW15085   2.563   1.230  16.025  0.3888 -0.2096  0.3006
 1151SOL    HW115086   2.492   1.173  16.055 -1.4561  1.7411 -0.3494
 1151SOL    HW215087   2.523   1.271  15.948  0.0559 -1.2206 -0.0595
 1152SOL     OW15088   0.833   0.479   5.214  0.0725  0.0857  0.4653
 1152SOL    HW115089   0.803   0.497   5.124  3.0663  0.7260 -0.3988
 1152SOL    HW215090   0.862   0.388   5.206  2.4835  1.1793 -3.0880
 1153SOL     OW15091   3.146   1.004   8.937  0.7056 -0.3459 -0.5530
 1153SOL    HW115092   3.181   0.928   8.891 -0.8759 -2.2358  1.3832
 1153SOL    HW215093   3.064   0.970   8.971  0.3250  1.7700  0.6524
 1154SOL     OW15094   4.308   1.453   5.115  0.0225 -0.3340  0.1699
 1154SOL    HW115095   4.238   1.452   5.049  0.8009 -0.5847 -0.6441
 1154SOL    HW215096   4.257   1.434   5.194  1.5959  1.0506  1.4998
 1155SOL     OW15097   3.652   4.197   6.683 -0.0813 -0.1510 -0.2454
 1155SOL    HW115098   3.571   4.162   6.721  0.3353  0.3263  1.0896
 1155SOL    HW215099   3.658   4.287   6.715  0.8759 -0.3935  0.2716
 1156SOL     OW15100   1.480   3.047   3.661 -0.1782  0.7421  0.1125
 1156SOL    HW115101   1.528   3.084   3.587  0.8296 -0.0001  0.3892
 1156SOL    HW215102   1.406   3.000   3.624  0.5390 -0.5350  0.2677
 1157SOL     OW15103   2.909   2.985   2.006  0.2650  0.2461  0.4867
 1157SOL    HW115104   2.883   2.942   1.924 -2.4872  1.8073  0.5286
 1157SOL    HW215105   2.887   2.920   2.073 -0.4583  0.7915  0.7814
 1158SOL     OW15106   3.205   4.609  11.335  0.1564  0.0926 -0.0224
 1158SOL    HW115107   3.169   4.524  11.311 -3.1219  0.7691  2.5015
 1158SOL    HW215108   3.262   4.626  11.259  2.2221 -1.7296  1.0910
 1159SOL     OW15109   1.683   3.063   7.133 -0.3056  0.2221  0.3796
 1159SOL    HW115110   1.647   3.057   7.044 -1.2157  0.7275  0.7114
 1159SOL    HW215111   1.645   2.978   7.159 -2.9749  0.7127 -1.8449
 1160SOL     OW15112   1.927   4.518  13.924 -0.4664  0.5033 -0.0597
 1160SOL    HW115113   1.904   4.426  13.933  0.1705  0.5815  2.1840
 1160SOL    HW215114   1.940   4.511  13.829  2.2309  0.0946  0.3436
 1161SOL     OW15115   1.634   3.963   8.406  0.2641 -0.2535 -0.5453
 1161SOL    HW115116   1.650   3.875   8.442 -0.7201 -0.1082  0.2208
 1161SOL    HW215117   1.565   3.951   8.341  0.5219  3.0389 -1.3927
 1162SOL     OW15118   2.702   4.701   4.345 -0.1287  0.0702  0.4322
 1162SOL    HW115119   2.778   4.715   4.403 -0.8333  1.2858  1.0575
 1162SOL    HW215120   2.748   4.653   4.276  2.9220  2.0084  1.0811
 1163SOL     OW15121   0.820   3.405   7.371 -0.3361 -0.2071 -0.0784
 1163SOL    HW115122   0.889   3.354   7.330 -0.6992 -0.7487 -0.0188
 1163SOL    HW215123   0.777   3.342   7.428  0.3129  1.1216  1.8821
 1164SOL     OW15124   2.415   2.057   2.131  0.1153 -0.0132  0.1104
 1164SOL    HW115125   2.333   2.013   2.108  0.0880 -0.6225  1.3950
 1164SOL    HW215126   2.481   1.989   2.120  0.0761 -0.1951  0.9958
 1165SOL     OW15127   4.720   0.507   8.152  0.3040  0.6066 -0.0515
 1165SOL    HW115128   0.010   0.522   8.242  1.6374 -1.4177 -0.1309
 1165SOL    HW215129   0.034   0.428   8.138 -0.2920  0.3858 -1.0638
 1166SOL     OW15130   3.128   1.182   6.331  0.1196  0.5277 -0.5009
 1166SOL    HW115131   3.156   1.266   6.367 -0.0349  0.4316 -0.1466
 1166SOL    HW215132   3.122   1.128   6.411  1.5774  0.8241 -0.1919
 1167SOL     OW15133   2.035   1.068  14.984 -0.6452  0.2207 -0.5407
 1167SOL    HW115134   1.954   1.093  15.028 -1.3289 -1.9773 -0.5958
 1167SOL    HW215135   2.018   0.979  14.956 -0.4889 -0.2236  0.7556
 1168SOL     OW15136   4.392   2.076   4.053  0.8314  0.0574 -0.2476
 1168SOL    HW115137   4.436   2.013   4.110 -3.3380 -2.3035  0.3511
 1168SOL    HW215138   4.341   2.017   3.997  0.0172  1.3344 -0.8430
 1169SOL     OW15139   4.443   4.722  14.428 -0.2084 -0.8338 -0.3359
 1169SOL    HW115140   4.404   4.645  14.388 -2.6045 -0.6057  1.5569
 1169SOL    HW215141   4.407   0.056  14.377  0.9744  0.3547  0.5517
 1170SOL     OW15142   4.122   0.353  14.938 -0.1183 -0.5156  0.2973
 1170SOL    HW115143   4.071   0.431  14.959 -1.3819 -1.2563 -0.0111
 1170SOL    HW215144   4.068   0.283  14.974  3.1554 -1.9755  2.3203
 1171SOL     OW15145   2.086   2.094   3.134  0.2678  0.0144  0.0175
 1171SOL    HW115146   2.015   2.052   3.085 -0.4996  1.9995 -0.5392
 1171SOL    HW215147   2.073   2.173   3.082 -2.0138  0.9781  2.0868
 1172SOL     OW15148   1.796   3.718   1.954 -0.1540 -0.9117  0.3490
 1172SOL    HW115149   1.841   3.642   1.992 -1.2607 -0.9604  1.5482
 1172SOL    HW215150   1.707   3.685   1.947  0.9431 -3.9464  0.7008
 1173SOL     OW15151   2.022   3.937  14.753  0.7521 -0.1359  0.0948
 1173SOL    HW115152   2.116   3.938  14.771  0.3667  0.5581  2.0745
 1173SOL    HW215153   1.988   3.902  14.836 -0.5762 -1.8761 -1.1966
 1174SOL     OW15154   1.104   1.630   2.743 -0.7304 -0.5850 -0.5018
 1174SOL    HW115155   1.130   1.722   2.742  2.9210 -1.6643 -3.3450
 1174SOL    HW215156   1.118   1.601   2.652  0.1113  0.0072 -0.5555
 1175SOL     OW15157   3.349   1.527   5.219  0.2064  0.3450 -0.2827
 1175SOL    HW115158   3.330   1.612   5.179 -0.2430 -1.9016 -4.7658
 1175SOL    HW215159   3.332   1.467   5.147 -0.0192  0.9872 -0.7613
 1176SOL     OW15160   4.419   1.071   6.884  1.1129 -0.3374 -0.5626
 1176SOL    HW115161   4.346   1.122   6.850  1.6006  1.0024  0.4069
 1176SOL    HW215162   4.399   1.043   6.973  0.2637 -0.0796 -0.6738
 1177SOL     OW15163   1.565   2.752   8.393  0.5129  0.0792  0.3895
 1177SOL    HW115164   1.657   2.776   8.402  1.1809 -2.1790 -0.3274
 1177SOL    HW215165   1.563   2.657   8.381  0.5559  0.1625 -0.2610
 1178SOL     OW15166   1.913   3.175   8.973 -0.3321  0.5228  0.3998
 1178SOL    HW115167   1.860   3.141   8.901 -0.7031 -1.0433  1.4191
 1178SOL    HW215168   1.939   3.255   8.927  0.0662  0.4233  0.4472
 1179SOL     OW15169   1.886   0.354   2.854 -0.1414  0.0151 -0.6019
 1179SOL    HW115170   1.857   0.377   2.766 -0.0134  0.6960 -0.4610
 1179SOL    HW215171   1.822   0.284   2.867  1.0177 -0.7862  0.8259
 1180SOL     OW15172   1.491   0.395   5.510 -0.0565  0.2750 -0.0915
 1180SOL    HW115173   1.468   0.482   5.541 -1.1997 -0.4082  0.9666
 1180SOL    HW215174   1.486   0.355   5.597  0.9706 -2.1831 -1.1491
 1181SOL     OW15175   2.218   1.952   8.611 -0.1275 -0.6509  0.4965
 1181SOL    HW115176   2.259   2.015   8.671 -0.5368  1.8039 -1.7663
 1181SOL    HW215177   2.291   1.891   8.604  0.4397 -0.1774  2.1849
 1182SOL     OW15178   4.372   3.038   7.344 -0.7865  0.0106  0.0725
 1182SOL    HW115179   4.354   3.066   7.434 -0.5273 -0.6739  0.3332
 1182SOL    HW215180   4.298   2.978   7.341 -0.3402 -0.3641 -3.0430
 1183SOL     OW15181   4.254   4.409   3.509 -0.1124 -0.0730  0.0953
 1183SOL    HW115182   4.249   4.463   3.588 -0.5615  0.0549 -0.0229
 1183SOL    HW215183   4.187   4.342   3.520 -1.7169  1.6083  0.6193
 1184SOL     OW15184   4.250   4.091  15.896  0.2973  0.0099 -0.0524
 1184SOL    HW115185   4.228   4.099  15.989  0.5937 -0.7800  0.0879
 1184SOL    HW215186   4.341   4.122  15.897  0.0967  0.5415  1.6368
 1185SOL     OW15187   0.277   1.004   7.643  0.2433  0.2570  0.2241
 1185SOL    HW115188   0.326   1.084   7.622  1.1289 -0.5023 -0.5959
 1185SOL    HW215189   0.195   1.021   7.596 -0.7980 -2.0631  1.1971
 1186SOL     OW15190   0.934   2.055   8.553  0.0410  0.2948 -0.1728
 1186SOL    HW115191   0.986   2.042   8.632 -0.9436 -0.4979  0.3497
 1186SOL    HW215192   0.865   1.990   8.571  0.2532 -0.2148 -1.1541
 1187SOL     OW15193   0.816   3.389   0.309  0.1653 -0.3360  0.4810
 1187SOL    HW115194   0.806   3.484   0.316 -0.6377 -0.3635 -0.2186
 1187SOL    HW215195   0.890   3.381   0.249 -0.5500  1.5475 -0.6489
 1188SOL     OW15196   3.475   0.567   5.570  0.5923 -0.1595  0.0587
 1188SOL    HW115197   3.518   0.482   5.576  0.3772 -0.4647 -2.8488
 1188SOL    HW215198   3.399   0.546   5.516  0.5382  0.7579 -0.2157
 1189SOL     OW15199   3.400   0.165   4.357  0.4601 -0.1177 -0.2855
 1189SOL    HW115200   3.489   0.153   4.390  1.1582  3.7091 -0.8259
 1189SOL    HW215201   3.399   0.104   4.283  1.4606  1.6213 -1.7529
 1190SOL     OW15202   3.426   2.877   7.207 -0.5906  0.2228 -0.6864
 1190SOL    HW115203   3.363   2.812   7.176 -0.3235 -0.6210  0.5612
 1190SOL    HW215204   3.466   2.826   7.277  1.1428 -0.6631 -2.2986
 1191SOL     OW15205   2.912   4.518   2.830  0.1524 -0.0125  0.4185
 1191SOL    HW115206   2.858   4.494   2.754  0.0906 -0.2278  0.5282
 1191SOL    HW215207   2.864   4.594   2.863  1.2731  1.4006 -1.2222
 1192SOL     OW15208   3.637   2.399   8.560  0.2452 -0.8067 -0.1007
 1192SOL    HW115209   3.547   2.366   8.557  0.2416 -0.6728 -1.6969
 1192SOL    HW215210   3.625   2.492   8.541  0.9045 -0.3501  1.7820
 1193SOL     OW15211   3.557   2.395  12.576 -0.2905  0.3434 -0.0891
 1193SOL    HW115212   3.574   2.303  12.593  0.2117  0.6683  1.1968
 1193SOL    HW215213   3.463   2.384  12.562  0.3092 -2.9595 -1.5545
 1194SOL     OW15214   3.782   1.806   3.946 -0.0140 -0.1986 -0.0088
 1194SOL    HW115215   3.806   1.894   3.974  0.2512 -0.8920  1.9066
 1194SOL    HW215216   3.814   1.751   4.017  0.1446 -0.4655 -0.2876
 1195SOL     OW15217   0.884   3.215   7.209 -0.7320 -0.2937  0.0878
 1195SOL    HW115218   0.909   3.257   7.126 -0.4472  0.0486  0.3452
 1195SOL    HW215219   0.804   3.172   7.180 -0.8436  0.7677 -1.2138
 1196SOL     OW15220   2.474   1.737  10.604 -0.2324  0.1041 -0.0662
 1196SOL    HW115221   2.497   1.645  10.618 -0.9770 -0.0468  0.1661
 1196SOL    HW215222   2.560   1.776  10.585 -1.2752  2.0186 -0.8516
 1197SOL     OW15223   3.008   3.308   4.588  0.3179  0.1756  0.2356
 1197SOL    HW115224   3.007   3.391   4.637 -0.0806  1.8222 -2.5658
 1197SOL    HW215225   3.049   3.327   4.504  3.0591  0.7829  1.7055
 1198SOL     OW15226   3.537   3.973   2.882 -0.6875  0.3918  0.4151
 1198SOL    HW115227   3.568   4.039   2.944  0.0855  1.3072 -0.9449
 1198SOL    HW215228   3.582   3.894   2.909  0.3833  0.5037 -1.0799
 1199SOL     OW15229   3.126   2.927   3.117 -0.5716 -0.6316  0.5659
 1199SOL    HW115230   3.195   2.967   3.064 -0.6448  0.4162  1.2597
 1199SOL    HW215231   3.061   2.905   3.050  1.3597 -1.0734 -1.1592
 1200SOL     OW15232   2.340   3.767   5.571 -0.1763 -0.2496 -0.1904
 1200SOL    HW115233   2.427   3.777   5.531  0.0031  0.4002  0.3698
 1200SOL    HW215234   2.283   3.730   5.504  0.3182 -0.9634 -0.2168
 1201SOL     OW15235   4.667   3.498   2.821 -0.5813  0.5275  0.8168
 1201SOL    HW115236   4.669   3.440   2.898 -0.3626 -1.1955 -0.4839
 1201SOL    HW215237   4.604   3.562   2.854 -1.1180  0.1398  0.5456
 1202SOL     OW15238   4.130   3.604   3.574 -0.1485 -0.1096  0.3385
 1202SOL    HW115239   4.036   3.605   3.559 -0.2175  2.6602  1.0258
 1202SOL    HW215240   4.140   3.681   3.629 -1.7981  0.8818 -0.7732
 1203SOL     OW15241   0.512   1.235   4.942 -0.1456  0.2231 -0.1843
 1203SOL    HW115242   0.598   1.261   4.910 -0.0623 -2.0100 -1.7877
 1203SOL    HW215243   0.531   1.264   5.032 -2.3912  1.4942 -0.1222
 1204SOL     OW15244   0.190   3.591   9.366 -0.8771  0.2453  0.1668
 1204SOL    HW115245   0.148   3.535   9.432 -1.1771 -0.3685 -0.5401
 1204SOL    HW215246   0.281   3.567   9.384 -1.9940 -2.4922  2.1821
 1205SOL     OW15247   1.758   3.501   9.209  0.1945  0.2564  0.4377
 1205SOL    HW115248   1.772   3.467   9.298  0.0528  0.8829  0.6995
 1205SOL    HW215249   1.846   3.491   9.172 -0.4563 -0.8951 -0.7491
 1206SOL     OW15250   1.376   1.285   4.406  0.1497  0.4020  0.1977
 1206SOL    HW115251   1.357   1.264   4.314  1.6013  1.4889 -0.3462
 1206SOL    HW215252   1.389   1.198   4.443 -0.2323 -0.4325 -1.6287
 1207SOL     OW15253   0.779   0.230  15.929  0.4815  0.0173 -0.6751
 1207SOL    HW115254   0.833   0.246  16.006  0.0198  0.5896 -0.4727
 1207SOL    HW215255   0.752   0.318  15.904 -2.7260 -0.8231 -0.1550
 1208SOL     OW15256   4.367   3.447  12.660  0.1922 -0.7403 -0.1492
 1208SOL    HW115257   4.439   3.389  12.683  0.1653 -1.2037 -1.2226
 1208SOL    HW215258   4.370   3.509  12.733  1.6120 -0.5735 -0.3521
 1209SOL     OW15259   3.054   1.692  14.898  0.0513  0.0629  0.6795
 1209SOL    HW115260   3.008   1.721  14.976  0.2361 -0.8373  1.1282
 1209SOL    HW215261   3.087   1.777  14.870 -1.9248 -0.1379 -2.3508
 1210SOL     OW15262   2.189   3.943   2.085 -0.7125  0.4518  0.0910
 1210SOL    HW115263   2.233   4.014   2.132  1.0169 -3.2949  4.1581
 1210SOL    HW215264   2.101   3.972   2.108 -0.0275  1.2182  1.8617
 1211SOL     OW15265   3.001   0.257   3.174 -0.3919  0.1784 -0.1781
 1211SOL    HW115266   3.050   0.289   3.098 -0.4154  0.5589 -0.0359
 1211SOL    HW215267   2.960   0.180   3.135  2.8560 -0.5864 -2.1638
 1212SOL     OW15268   0.690   0.691   6.761 -0.0799 -0.5093  0.0114
 1212SOL    HW115269   0.672   0.768   6.815  2.7460 -0.6064  1.0791
 1212SOL    HW215270   0.737   0.650   6.833 -0.2681 -0.3404  0.2284
 1213SOL     OW15271   2.659   1.141  15.337  0.5871 -0.4027 -0.5640
 1213SOL    HW115272   2.717   1.217  15.342 -2.2551  1.6183  1.5657
 1213SOL    HW215273   2.641   1.142  15.243  0.1774 -0.7812 -0.4872
 1214SOL     OW15274   3.024   0.738   4.499  0.0731  0.0162 -0.2525
 1214SOL    HW115275   2.931   0.741   4.474 -0.2999 -0.5656  1.0618
 1214SOL    HW215276   3.055   0.813   4.448 -1.5558  1.1521  0.4088
 1215SOL     OW15277   4.087   4.384   8.281 -0.2205  0.0622  0.2389
 1215SOL    HW115278   4.006   4.435   8.282 -0.8281 -0.9052 -0.5152
 1215SOL    HW215279   4.126   4.429   8.357 -0.2709 -0.2092  0.4255
 1216SOL     OW15280   2.596   0.294   2.772  0.5744 -0.6112 -0.6021
 1216SOL    HW115281   2.665   0.302   2.838  1.7819  0.3054 -1.9889
 1216SOL    HW215282   2.649   0.320   2.697  0.9246  0.8344  0.1625
 1217SOL     OW15283   0.954   2.104  17.664 -0.4523 -1.0496  0.7376
 1217SOL    HW115284   1.018   2.079  17.597 -1.4271  0.1762 -0.6383
 1217SOL    HW215285   0.968   2.050  17.742  2.3565 -1.0199  0.2767
 1218SOL     OW15286   4.340   0.902   4.203  0.7098  0.4255  0.2360
 1218SOL    HW115287   4.259   0.876   4.247  0.4417 -0.5872 -0.8564
 1218SOL    HW215288   4.368   0.970   4.264 -1.4101  2.6576 -1.2813
 1219SOL     OW15289   4.003   1.754   9.244  0.0349  0.2168 -0.1088
 1219SOL    HW115290   4.074   1.796   9.294 -0.8207 -1.4794  2.4985
 1219SOL    HW215291   3.975   1.824   9.185  1.8326  1.2266  0.2066
 1220SOL     OW15292   2.982   3.831  10.960 -0.3453  0.0995 -0.5440
 1220SOL    HW115293   2.995   3.857  10.869 -2.3094 -1.9142 -1.3791
 1220SOL    HW215294   3.018   3.743  10.957  0.1507  0.2579  0.5951
 1221SOL     OW15295   1.079   1.635   1.675 -0.0726  0.7252 -0.3783
 1221SOL    HW115296   0.984   1.635   1.672 -0.0986  0.8031  0.3980
 1221SOL    HW215297   1.103   1.654   1.585 -1.2380 -0.4693 -0.9352
 1222SOL     OW15298   0.874   0.388   4.273  0.3679 -0.2963 -0.2121
 1222SOL    HW115299   0.826   0.305   4.275 -0.2799  0.1405  2.4879
 1222SOL    HW215300   0.954   0.349   4.239  1.7600  1.3613  1.1939
 1223SOL     OW15301   1.504   2.622   0.469 -0.6455 -0.1102  0.4779
 1223SOL    HW115302   1.575   2.580   0.517 -1.2122 -2.0204 -0.3512
 1223SOL    HW215303   1.505   2.707   0.513 -1.8800  0.3388 -0.3584
 1224SOL     OW15304   1.356   3.256   6.050  0.1952 -0.0684 -0.1387
 1224SOL    HW115305   1.427   3.241   6.113 -0.5013  0.6858  0.8256
 1224SOL    HW215306   1.369   3.187   5.985  1.2432  0.9719 -1.0242
 1225SOL     OW15307   3.647   2.260   1.835 -0.5123  0.4071 -0.1467
 1225SOL    HW115308   3.742   2.263   1.847 -0.5117 -0.9088  0.2114
 1225SOL    HW215309   3.645   2.220   1.748  2.3766  0.0338 -0.0435
 1226SOL     OW15310   2.910   2.775   2.363  0.1324  0.2893 -0.2821
 1226SOL    HW115311   2.974   2.845   2.374  1.4781 -1.1532  1.1710
 1226SOL    HW215312   2.922   2.731   2.447  1.1147  2.4055  0.6641
 1227SOL     OW15313   3.416   0.547   8.463  0.3462  0.2234  0.1880
 1227SOL    HW115314   3.465   0.477   8.507  1.6880  1.9103  1.4085
 1227SOL    HW215315   3.482   0.611   8.433 -1.0038  0.8103 -1.4657
 1228SOL     OW15316   4.371   2.046   9.097 -0.5418  0.2589  0.0498
 1228SOL    HW115317   4.386   2.136   9.067  1.5251 -0.8339 -2.1740
 1228SOL    HW215318   4.314   2.028   9.023  0.6716 -1.0187 -0.5886
 1229SOL     OW15319   4.667   0.041   4.009  0.6749  0.1156  0.3117
 1229SOL    HW115320   4.626   4.693   4.010  0.2860  0.2546 -3.4621
 1229SOL    HW215321   4.620   0.083   4.081  1.8755 -1.0643  1.7800
 1230SOL     OW15322   2.337   2.923  10.309 -0.0279 -0.2039 -0.4441
 1230SOL    HW115323   2.361   3.007  10.270 -0.6915 -0.0156 -0.4468
 1230SOL    HW215324   2.371   2.931  10.398 -1.4478  1.1114  0.0001
 1231SOL     OW15325   1.115   2.037   3.911  0.0809 -0.1559  0.4265
 1231SOL    HW115326   1.181   2.107   3.908 -0.2772  0.1028 -1.1975
 1231SOL    HW215327   1.099   2.048   4.005 -1.2001  0.7080  0.0991
 1232SOL     OW15328   3.309   1.100  14.630  0.2348  0.1155 -0.7663
 1232SOL    HW115329   3.354   1.161  14.688 -0.2445 -0.0858 -0.1849
 1232SOL    HW215330   3.302   1.026  14.690  0.8329  1.5424  1.0863
 1233SOL     OW15331   2.354   2.700   6.586  0.3358  0.7341  0.2952
 1233SOL    HW115332   2.343   2.762   6.514 -0.3381 -0.1358 -0.3623
 1233SOL    HW215333   2.338   2.618   6.540 -0.3006  2.1893 -2.0691
 1234SOL     OW15334   4.140   1.933   2.713  0.1972 -0.3613  0.0425
 1234SOL    HW115335   4.215   1.902   2.763  1.2365  1.7931 -0.1573
 1234SOL    HW215336   4.080   1.964   2.781 -0.7803  0.4461 -1.1935
 1235SOL     OW15337   0.457   1.887   7.059  0.4333  0.1143  0.2483
 1235SOL    HW115338   0.369   1.850   7.048  0.7326 -0.7366  0.7359
 1235SOL    HW215339   0.507   1.840   6.992  0.7523 -1.0218  1.2866
 1236SOL     OW15340   2.278   1.001   7.224  0.1502 -0.1053 -0.2522
 1236SOL    HW115341   2.359   0.990   7.273  0.0672 -0.8555 -0.2833
 1236SOL    HW215342   2.313   1.059   7.156 -0.3549  1.0014  0.4338
 1237SOL     OW15343   1.726   2.252  10.273 -0.5668 -0.1516  0.9567
 1237SOL    HW115344   1.660   2.301  10.323 -1.2418 -0.9633  0.8621
 1237SOL    HW215345   1.682   2.227  10.192  1.7320 -0.9552 -0.0515
 1238SOL     OW15346   1.822   3.937  17.621  0.2607 -0.5878 -0.2641
 1238SOL    HW115347   1.736   3.964  17.588 -0.0579 -1.2879 -0.0103
 1238SOL    HW215348   1.810   3.955  17.714  0.2354 -0.2409 -0.3327
 1239SOL     OW15349   1.570   2.471   1.895 -0.1169 -0.0041 -0.4966
 1239SOL    HW115350   1.657   2.452   1.859 -0.0124 -1.3041  0.4355
 1239SOL    HW215351   1.521   2.402   1.850  1.3613  0.0945 -2.2754
 1240SOL     OW15352   1.214   3.990   7.416  0.0082  0.2392  0.5887
 1240SOL    HW115353   1.239   3.969   7.506  1.1416  0.9384  0.4481
 1240SOL    HW215354   1.126   4.025   7.427 -0.6866 -1.7937  1.4430
 1241SOL     OW15355   4.662   2.254  16.135 -0.0617  0.2896  0.1734
 1241SOL    HW115356   4.631   2.175  16.178  0.2677  0.8564  1.4510
 1241SOL    HW215357   4.589   2.290  16.084 -0.9729  0.0088  1.2731
 1242SOL     OW15358   0.811   4.529  15.863  0.1887  0.0498 -0.3647
 1242SOL    HW115359   0.856   4.520  15.947  0.7906  0.4299 -0.6466
 1242SOL    HW215360   0.840   4.451  15.815 -1.0904 -1.2645  1.0030
 1243SOL     OW15361   1.208   2.529  11.727  0.8351  0.1180  0.3242
 1243SOL    HW115362   1.172   2.513  11.640  1.0089  1.3729  0.0210
 1243SOL    HW215363   1.147   2.597  11.755  1.2693  0.2295  1.0089
 1244SOL     OW15364   2.437   2.561   8.481  0.4790  0.3655 -0.2263
 1244SOL    HW115365   2.444   2.580   8.575 -1.0267 -0.8833  0.1501
 1244SOL    HW215366   2.461   2.646   8.446  0.3387  0.1009 -0.9661
 1245SOL     OW15367   4.371   1.355   2.812  0.3275  0.0856 -0.1338
 1245SOL    HW115368   4.375   1.259   2.814 -2.0400  0.0186  0.6264
 1245SOL    HW215369   4.387   1.366   2.718 -2.0558  0.5182 -0.4685
 1246SOL     OW15370   0.110   2.432   4.055  0.0557  0.2434 -0.0245
 1246SOL    HW115371   0.075   2.401   3.972  1.9643  1.5863 -1.3441
 1246SOL    HW215372   0.193   2.476   4.037  0.0085  1.0578  1.7868
 1247SOL     OW15373   3.509   4.173   8.487  0.2247  0.3772 -0.1490
 1247SOL    HW115374   3.448   4.100   8.478 -0.5831  0.9543  0.6698
 1247SOL    HW215375   3.469   4.235   8.425  0.0751  1.4226  0.9958
 1248SOL     OW15376   3.063   3.438   2.443  0.9891 -0.4580  0.2724
 1248SOL    HW115377   3.095   3.348   2.456  2.4862  0.0511  0.0548
 1248SOL    HW215378   2.967   3.431   2.446  0.9518  2.1491  4.7816
 1249SOL     OW15379   0.165   4.482   8.604 -0.1580  0.0893 -0.4040
 1249SOL    HW115380   0.177   4.531   8.523 -1.0650  0.9026 -0.0529
 1249SOL    HW215381   0.254   4.450   8.615 -0.5914 -1.0049 -0.0265
 1250SOL     OW15382   0.085   0.000   2.412  0.0511 -0.4001 -0.0345
 1250SOL    HW115383   0.053   4.656   2.378  0.2261  0.1059 -1.4458
 1250SOL    HW215384   0.175   0.008   2.381 -0.0758  1.2424 -0.0118
 1251SOL     OW15385   1.361   1.311   2.784  0.0914 -0.1865 -0.0550
 1251SOL    HW115386   1.384   1.316   2.692 -1.1547  0.5796 -0.3324
 1251SOL    HW215387   1.332   1.220   2.787  2.1043 -0.7856  0.8463
 1252SOL     OW15388   2.192   4.124   6.512 -0.2922  0.2209 -0.3455
 1252SOL    HW115389   2.127   4.093   6.450  0.1736  0.4030 -0.9189
 1252SOL    HW215390   2.224   4.043   6.553 -0.8922  0.0015 -0.3184
 1253SOL     OW15391   2.676   2.749  13.671  0.3780 -0.2199  0.4001
 1253SOL    HW115392   2.684   2.655  13.688  2.2472  0.3132  2.3222
 1253SOL    HW215393   2.619   2.755  13.594 -0.9777  0.1866  1.4291
 1254SOL     OW15394   1.445   4.242   4.051  0.4250  0.0849  0.3148
 1254SOL    HW115395   1.479   4.179   4.114 -1.1234  0.3509  1.4217
 1254SOL    HW215396   1.356   4.251   4.085  1.3778  0.6068  2.6586
 1255SOL     OW15397   2.335   4.661   9.118  0.5242  0.0616 -0.8918
 1255SOL    HW115398   2.280   4.737   9.102  0.9741  1.1142  2.5305
 1255SOL    HW215399   2.275   4.599   9.160  3.3073 -0.9593  1.6320
 1256SOL     OW15400   2.545   3.192   0.942 -0.1891  0.5422  0.0278
 1256SOL    HW115401   2.487   3.166   1.014  0.4848 -2.2829 -0.4849
 1256SOL    HW215402   2.618   3.245   0.974 -0.8296  1.2323  0.3419
 1257SOL     OW15403   1.022   4.729  15.748  0.2138  0.1413 -0.3945
 1257SOL    HW115404   1.071   4.647  15.752 -1.2150 -0.7264 -0.8425
 1257SOL    HW215405   0.956   4.717  15.816  0.1659  0.9180 -0.2975
 1258SOL     OW15406   0.866   1.038   8.892 -0.2035  0.4601  0.3516
 1258SOL    HW115407   0.812   0.973   8.847  2.9709 -2.6653  1.0406
 1258SOL    HW215408   0.952   1.022   8.854 -0.3230 -3.4388  1.7261
 1259SOL     OW15409   1.836   4.495   5.376  0.4420  0.6608 -0.0112
 1259SOL    HW115410   1.756   4.487   5.325  1.4935  1.3722 -1.7655
 1259SOL    HW215411   1.889   4.419   5.354 -0.3902  0.1475 -0.2280
 1260SOL     OW15412   0.711   2.169   6.174  0.1531  0.1121  0.5448
 1260SOL    HW115413   0.690   2.112   6.100  0.4880  1.3416 -0.5066
 1260SOL    HW215414   0.665   2.118   6.240  1.7635 -2.2204 -0.1354
 1261SOL     OW15415   3.324   3.796  17.463 -0.0760 -0.0536 -0.5112
 1261SOL    HW115416   3.366   3.882  17.453 -0.2019  0.0133 -0.4596
 1261SOL    HW215417   3.234   3.820  17.483 -0.1011 -0.0190 -0.6656
 1262SOL     OW15418   2.233   2.754   9.082  1.0455 -0.2602 -0.3945
 1262SOL    HW115419   2.321   2.751   9.044  0.7514 -2.2720 -0.8864
 1262SOL    HW215420   2.242   2.705   9.164  3.7207  1.3203  0.2532
 1263SOL     OW15421   3.809   3.018   1.393  0.1515  0.2655  0.6181
 1263SOL    HW115422   3.720   3.051   1.408 -0.8304 -2.0232 -0.1596
 1263SOL    HW215423   3.795   2.930   1.428 -2.7439  0.2183 -0.6781
 1264SOL     OW15424   2.489   2.559   7.948 -0.5497 -0.1839  0.1840
 1264SOL    HW115425   2.523   2.647   7.960  1.2980 -0.7785 -0.5780
 1264SOL    HW215426   2.549   2.507   8.001  1.2257  0.3888 -1.2719
 1265SOL     OW15427   0.684   2.326  14.159  0.1311  0.4019  0.0036
 1265SOL    HW115428   0.652   2.251  14.109  1.8819  0.8374 -1.8213
 1265SOL    HW215429   0.659   2.299  14.247  1.7727  0.7731  0.5868
 1266SOL     OW15430   2.909   2.375  13.892  0.0138 -0.4689 -0.5463
 1266SOL    HW115431   2.892   2.288  13.928  1.6520  0.1343  1.6593
 1266SOL    HW215432   2.932   2.421  13.972  0.4220 -1.0168 -0.3439
 1267SOL     OW15433   1.259   0.862   2.016 -0.0230  0.3862 -0.4034
 1267SOL    HW115434   1.226   0.940   1.971 -2.0995  0.6367  1.5740
 1267SOL    HW215435   1.181   0.808   2.002 -0.3269  0.6313  0.3703
 1268SOL     OW15436   2.198   2.038  16.800 -0.0942 -0.1918 -0.1000
 1268SOL    HW115437   2.255   2.079  16.865  0.2393 -0.4517 -0.2283
 1268SOL    HW215438   2.252   2.050  16.722  2.0765  1.1663  1.5914
 1269SOL     OW15439   4.152   2.014   2.125 -1.1706 -0.0009 -0.4433
 1269SOL    HW115440   4.242   1.999   2.153 -0.7164  1.3049 -1.1921
 1269SOL    HW215441   4.152   2.107   2.101  3.7337  0.4287  1.2826
 1270SOL     OW15442   2.889   0.934   3.916  0.7501 -0.1969  0.2719
 1270SOL    HW115443   2.951   0.873   3.876  0.6132 -1.6498  2.2547
 1270SOL    HW215444   2.897   0.906   4.008  1.6920  2.2259  0.9055
 1271SOL     OW15445   0.988   3.640   9.017  0.0004  0.5714 -0.0586
 1271SOL    HW115446   1.012   3.553   9.050  1.7597  1.4718  1.0364
 1271SOL    HW215447   0.946   3.623   8.933  0.6155  1.0809 -0.4668
 1272SOL     OW15448   0.118   4.343   4.159 -0.0973  0.3137  0.1164
 1272SOL    HW115449   0.093   4.265   4.109  1.5200  0.3867 -0.7967
 1272SOL    HW215450   0.135   4.314   4.249  0.4724  2.3648  0.6697
 1273SOL     OW15451   2.452   0.556  14.304  0.1663  0.4123  0.0968
 1273SOL    HW115452   2.373   0.531  14.351  0.1839 -0.5743 -0.3945
 1273SOL    HW215453   2.451   0.651  14.317  0.0486  0.4315 -0.0594
 1274SOL     OW15454   2.944   2.616   7.058 -0.5052  0.9837 -0.0443
 1274SOL    HW115455   2.934   2.704   7.019  0.3383  0.8305 -0.6045
 1274SOL    HW215456   2.932   2.561   6.981  0.7408 -0.4080  0.7778
 1275SOL     OW15457   0.079   2.230   7.179 -0.0491  0.8334 -0.7022
 1275SOL    HW115458   0.096   2.197   7.091 -3.0807 -4.3874  0.7358
 1275SOL    HW215459   4.727   2.203   7.185  0.7360 -1.2094  2.0879
 1276SOL     OW15460   0.747   1.029   6.791 -0.5253  0.4256  0.0974
 1276SOL    HW115461   0.787   1.087   6.726 -0.6792  1.6909  1.1221
 1276SOL    HW215462   0.672   1.004   6.737 -1.5223  1.8667  0.8036
 1277SOL     OW15463   2.551   4.630   3.462 -0.3456  0.4215 -0.6534
 1277SOL    HW115464   2.556   4.578   3.381 -2.0584 -0.0156 -0.4666
 1277SOL    HW215465   2.476   4.683   3.437 -1.2989 -0.9729 -0.7644
 1278SOL     OW15466   2.514   1.212   0.675  0.0366  0.0978  0.0372
 1278SOL    HW115467   2.442   1.197   0.736 -0.0681  0.1613 -0.0682
 1278SOL    HW215468   2.543   1.295   0.714  2.4479 -0.9360  0.4135
 1279SOL     OW15469   0.029   4.216  15.610  0.3912 -0.1761 -0.7686
 1279SOL    HW115470   0.102   4.157  15.593  2.2013  1.9533 -0.3697
 1279SOL    HW215471   0.057   4.261  15.690 -0.2249 -1.4308  0.1452
 1280SOL     OW15472   4.541   0.251  10.908 -0.3408 -0.2708 -0.0479
 1280SOL    HW115473   4.481   0.228  10.837 -2.0000 -0.4301  1.4255
 1280SOL    HW215474   4.539   0.183  10.975 -0.6972 -0.5999 -0.3916
 1281SOL     OW15475   2.144   3.388   3.633  0.8550  0.2000 -0.9725
 1281SOL    HW115476   2.098   3.469   3.610  0.1964  0.1389  0.1533
 1281SOL    HW215477   2.084   3.351   3.698  0.5722 -0.7655 -1.7768
 1282SOL     OW15478   4.462   0.797   4.965 -0.2861  0.3701 -0.4201
 1282SOL    HW115479   4.535   0.735   4.957 -0.6138 -0.1452  0.5920
 1282SOL    HW215480   4.472   0.846   4.883  0.1436  2.1099  0.6779
 1283SOL     OW15481   1.495   1.343   7.578 -0.2134  0.2522  0.4665
 1283SOL    HW115482   1.574   1.324   7.630  0.7548 -0.5698 -1.3000
 1283SOL    HW215483   1.530   1.393   7.504  0.7762 -1.2779 -0.1046
 1284SOL     OW15484   2.405   4.475   6.619  0.2310  0.1591 -0.6005
 1284SOL    HW115485   2.366   4.537   6.680  0.9749 -0.0187  0.0648
 1284SOL    HW215486   2.374   4.509   6.535  1.0584  0.8019 -0.6494
 1285SOL     OW15487   3.022   4.565   7.319 -0.3530 -0.2979  0.2889
 1285SOL    HW115488   3.025   4.655   7.286  0.0456 -0.2898  0.3384
 1285SOL    HW215489   2.931   4.561   7.346 -0.2547 -1.6825  0.4074
 1286SOL     OW15490   4.326   2.934   6.030 -0.6005 -0.4819 -0.1042
 1286SOL    HW115491   4.258   2.894   6.085  1.9000 -2.5733  1.4812
 1286SOL    HW215492   4.274   3.002   5.988 -0.1687 -0.4994 -0.6640
 1287SOL     OW15493   1.585   2.818  10.365 -0.5904 -0.2173 -0.5899
 1287SOL    HW115494   1.648   2.747  10.371 -0.1755  0.1050 -1.1272
 1287SOL    HW215495   1.517   2.789  10.426  0.3069 -1.0657  0.0159
 1288SOL     OW15496   2.714   1.570   9.312 -0.2209 -0.1563  0.0712
 1288SOL    HW115497   2.777   1.641   9.321  0.9000 -0.9658 -1.2540
 1288SOL    HW215498   2.633   1.618   9.301  0.8377  1.8392  1.1692
 1289SOL     OW15499   3.438   0.838  16.809  0.0571  0.0032  0.2045
 1289SOL    HW115500   3.353   0.813  16.847 -0.3745 -0.1938 -0.8997
 1289SOL    HW215501   3.420   0.922  16.767 -2.5094  0.6622  2.5782
 1290SOL     OW15502   2.099   2.900   1.399  0.1592 -0.5312  0.1519
 1290SOL    HW115503   2.008   2.874   1.388 -0.4830  1.0635  1.7013
 1290SOL    HW215504   2.152   2.820   1.408 -0.3561 -1.1183 -1.8827
 1291SOL     OW15505   1.334   0.086   5.485 -0.0419  0.3023 -0.0455
 1291SOL    HW115506   1.339   0.134   5.568  1.3891  1.0778 -0.5722
 1291SOL    HW215507   1.425   0.057   5.482  0.2112  1.0727  0.0205
 1292SOL     OW15508   0.341   4.568   5.321  0.3748  0.4013  0.3499
 1292SOL    HW115509   0.247   4.562   5.299  0.5309 -0.5394 -0.0942
 1292SOL    HW215510   0.361   4.661   5.327  0.1092  0.4220  0.9230
 1293SOL     OW15511   2.805   2.211   6.565 -0.2484 -0.0661  0.6489
 1293SOL    HW115512   2.741   2.277   6.538 -1.1367 -0.2156  2.4538
 1293SOL    HW215513   2.825   2.181   6.476 -0.2869  0.6824  0.3876
 1294SOL     OW15514   4.210   1.613  11.384  0.3549  0.1379 -0.4134
 1294SOL    HW115515   4.131   1.564  11.363 -0.7253  0.9191  1.8104
 1294SOL    HW215516   4.201   1.633  11.477 -2.5409 -1.3731 -0.3953
 1295SOL     OW15517   2.993   4.143   4.564  0.2172 -0.0532  0.2172
 1295SOL    HW115518   3.042   4.125   4.484 -1.3459  2.6713 -1.3442
 1295SOL    HW215519   2.909   4.161   4.522  0.8464  0.3440 -0.8690
 1296SOL     OW15520   1.323   4.047   8.324 -0.3825 -0.2912 -0.6174
 1296SOL    HW115521   1.271   3.967   8.335  1.2338 -1.2623 -0.0584
 1296SOL    HW215522   1.274   4.104   8.266  0.5446  1.2818  0.1351
 1297SOL     OW15523   3.222   1.160  10.450  0.2119  0.1446  0.4873
 1297SOL    HW115524   3.165   1.176  10.375 -0.1454  0.4174  0.8173
 1297SOL    HW215525   3.154   1.159  10.517  1.8238 -0.1736  2.1166
 1298SOL     OW15526   2.298   1.260   5.581 -0.0491 -0.7288  0.2390
 1298SOL    HW115527   2.362   1.233   5.515  1.5622 -0.0489  1.5354
 1298SOL    HW215528   2.356   1.292   5.649  0.4816 -0.5172 -0.3156
 1299SOL     OW15529   1.786   1.324   2.654  0.2290 -1.1464  0.4370
 1299SOL    HW115530   1.722   1.394   2.672 -0.0090 -1.3424  0.3538
 1299SOL    HW215531   1.867   1.357   2.692  0.2401  0.4175 -0.9803
 1300SOL     OW15532   1.628   2.832  17.493  0.2040  0.3771 -0.0770
 1300SOL    HW115533   1.575   2.802  17.567  1.3697  0.9396  0.9826
 1300SOL    HW215534   1.686   2.756  17.485  0.1664  0.1793  1.5530
 1301SOL     OW15535   0.463   2.730  14.479 -0.1009 -0.4499 -0.3700
 1301SOL    HW115536   0.382   2.772  14.450  1.6019  1.3119 -2.4926
 1301SOL    HW215537   0.452   2.635  14.473  2.1583 -0.7573  0.3865
 1302SOL     OW15538   4.143   2.851   4.815 -0.3408  0.3189 -0.6289
 1302SOL    HW115539   4.117   2.933   4.858 -0.5615 -0.1090  0.0473
 1302SOL    HW215540   4.199   2.888   4.747  1.3322 -1.5932 -0.2958
 1303SOL     OW15541   3.078   3.926   3.710  0.3217 -0.0230  0.1299
 1303SOL    HW115542   3.080   4.016   3.740 -1.8867 -0.1681  0.7099
 1303SOL    HW215543   2.987   3.912   3.684  0.0642 -0.0151  1.0228
 1304SOL     OW15544   3.868   1.602   4.202 -0.1349 -0.2048  0.1535
 1304SOL    HW115545   3.843   1.548   4.277 -1.9674 -0.8145 -0.8982
 1304SOL    HW215546   3.937   1.543   4.173 -1.3734 -0.8785 -1.3923
 1305SOL     OW15547   2.607   3.163   6.845  0.5192 -0.1968  1.0545
 1305SOL    HW115548   2.689   3.200   6.880  0.5171  0.4669  0.3340
 1305SOL    HW215549   2.548   3.155   6.920 -0.7926 -0.1967  0.0045
 1306SOL     OW15550   1.430   2.336   3.989  0.2352  1.0188 -0.2846
 1306SOL    HW115551   1.340   2.304   3.996  1.6103 -2.1309  3.2407
 1306SOL    HW215552   1.476   2.312   4.070 -0.5514 -1.1600 -0.4869
 1307SOL     OW15553   0.604   2.138   4.563 -0.2300  1.0195 -0.0073
 1307SOL    HW115554   0.633   2.224   4.533 -0.8891  1.7662  1.4949
 1307SOL    HW215555   0.679   2.125   4.622 -0.6540 -0.5219  0.1913
 1308SOL     OW15556   2.587   4.688   7.268  0.4956  0.0708  0.1139
 1308SOL    HW115557   2.510   4.638   7.292  1.3021 -0.7789  0.9180
 1308SOL    HW215558   2.661   4.627   7.270 -0.2662 -0.8832 -0.5985
 1309SOL     OW15559   0.140   3.571   2.104  0.2459  0.2842  0.5054
 1309SOL    HW115560   0.179   3.603   2.185 -0.5717  2.4438  0.0705
 1309SOL    HW215561   0.173   3.644   2.052 -1.6912 -0.5535 -1.9131
 1310SOL     OW15562   2.439   1.023   8.211  0.5404 -0.3931 -0.2383
 1310SOL    HW115563   2.511   0.999   8.270  0.3862  1.4751  0.7180
 1310SOL    HW215564   2.364   1.046   8.265  1.2131  0.1274  0.4679
 1311SOL     OW15565   3.792   4.338   8.531  0.6132  0.7009  0.4342
 1311SOL    HW115566   3.702   4.305   8.540  0.8562 -0.3912 -1.1732
 1311SOL    HW215567   3.779   4.420   8.483 -0.5813 -0.2657 -0.8998
 1312SOL     OW15568   2.263   2.557   1.563 -0.0221  0.6624  0.4049
 1312SOL    HW115569   2.176   2.526   1.536  1.5593 -0.8054 -3.0268
 1312SOL    HW215570   2.274   2.503   1.641  1.3581 -0.7011 -0.7338
 1313SOL     OW15571   3.305   0.621   5.899 -0.1970 -0.0676 -0.0222
 1313SOL    HW115572   3.276   0.668   5.820  1.9270  0.9950 -0.1547
 1313SOL    HW215573   3.306   0.530   5.867  0.8284  0.5003 -1.6149
 1314SOL     OW15574   0.484   2.348   5.784 -0.5988  0.2162  0.6198
 1314SOL    HW115575   0.502   2.255   5.774  1.0209  0.3579  2.2974
 1314SOL    HW215576   0.416   2.355   5.717 -1.1510  0.5693  1.2162
 1315SOL     OW15577   2.305   3.368   2.612 -0.0723  0.2762  0.3332
 1315SOL    HW115578   2.281   3.394   2.523  1.3018 -1.1344 -0.4386
 1315SOL    HW215579   2.317   3.449   2.663 -0.5424  0.9549 -0.6401
 1316SOL     OW15580   2.281   1.778   1.623 -0.3509 -0.2010 -0.2017
 1316SOL    HW115581   2.215   1.714   1.596  0.1606 -0.8382  0.0684
 1316SOL    HW215582   2.332   1.772   1.543  1.5973  2.1742  0.8674
 1317SOL     OW15583   3.499   1.199   9.294 -0.2370  0.0492  0.1043
 1317SOL    HW115584   3.424   1.164   9.246  0.4844  1.1361 -1.8105
 1317SOL    HW215585   3.485   1.290   9.270  1.8633 -0.0860 -1.6479
 1318SOL     OW15586   1.695   1.829   3.154 -0.9045  0.6866  0.3855
 1318SOL    HW115587   1.619   1.771   3.147  0.1381 -0.5230 -0.8615
 1318SOL    HW215588   1.715   1.823   3.247  0.1306 -1.9758 -0.0077
 1319SOL     OW15589   0.033   1.763   5.570  0.4565  0.0907 -0.3454
 1319SOL    HW115590   0.112   1.763   5.624 -0.6964  1.4284  1.3100
 1319SOL    HW215591   0.066   1.719   5.491  0.6645 -2.3365  1.1045
 1320SOL     OW15592   1.090   0.458  11.085 -0.3427 -0.1493 -0.0486
 1320SOL    HW115593   1.135   0.420  11.009  3.6897  1.1158  1.7171
 1320SOL    HW215594   1.055   0.389  11.142  1.1978 -0.3869  0.5924
 1321SOL     OW15595   0.110   2.219   8.828 -0.0356  0.4393 -0.5883
 1321SOL    HW115596   0.163   2.259   8.760  1.7515  0.5272  0.8282
 1321SOL    HW215597   0.087   2.302   8.869  1.6519  0.6347 -0.0133
 1322SOL     OW15598   1.009   0.567   9.308  0.3572  0.0154  0.1113
 1322SOL    HW115599   0.934   0.509   9.317 -0.3856  1.4197  3.0881
 1322SOL    HW215600   0.964   0.645   9.274 -1.8600 -2.4578 -2.5799
 1323SOL     OW15601   1.159   0.666   8.616  0.2480  0.7030  1.2872
 1323SOL    HW115602   1.117   0.608   8.553 -0.4352  0.1367  2.2876
 1323SOL    HW215603   1.104   0.658   8.693 -0.2128  2.2715  1.1333
 1324SOL     OW15604   2.418   0.207   9.999  0.0517  0.3510  0.2901
 1324SOL    HW115605   2.477   0.278   9.974 -1.8361  1.7735 -0.1280
 1324SOL    HW215606   2.333   0.251   9.995 -1.7314 -3.1488  0.5145
 1325SOL     OW15607   2.677   0.278   3.817 -0.7454 -0.1144  0.6222
 1325SOL    HW115608   2.766   0.263   3.785 -1.8800 -1.5771 -1.8056
 1325SOL    HW215609   2.630   0.222   3.755  0.8362  2.5580 -2.9859
 1326SOL     OW15610   0.121   1.164   6.600 -0.3117 -0.2397  0.0554
 1326SOL    HW115611   0.137   1.071   6.586  1.3013 -0.0104  0.4260
 1326SOL    HW215612   0.195   1.202   6.648 -0.1370  1.8497 -1.8994
 1327SOL     OW15613   4.420   2.552   5.515  0.5639  0.0771 -0.2501
 1327SOL    HW115614   4.503   2.504   5.519 -0.3136 -1.4657 -0.5660
 1327SOL    HW215615   4.443   2.635   5.557 -1.9294  0.3199  0.6081
 1328SOL     OW15616   2.452   3.502   6.878 -0.3585  0.0746  0.2461
 1328SOL    HW115617   2.388   3.431   6.869 -0.5980  0.3891 -0.5492
 1328SOL    HW215618   2.435   3.535   6.966  0.5372  1.9407 -0.2672
 1329SOL     OW15619   0.363   2.922   7.344  0.1258  0.0936  0.6603
 1329SOL    HW115620   0.329   2.981   7.411  0.3812 -0.5230  1.3380
 1329SOL    HW215621   0.349   2.970   7.263  1.8300 -0.3327  0.1132
 1330SOL     OW15622   0.029   0.277   4.229  0.1226 -0.5740 -0.5395
 1330SOL    HW115623   0.100   0.221   4.196  0.6255 -0.3674  0.1927
 1330SOL    HW215624   4.693   0.217   4.224 -1.8956  2.0382 -1.5277
 1331SOL     OW15625   0.254   4.417   3.805  0.5061 -0.2981 -0.2256
 1331SOL    HW115626   0.177   4.367   3.831  0.6735 -1.1987 -1.4444
 1331SOL    HW215627   0.322   4.350   3.798  0.7035  0.0655 -1.8420
 1332SOL     OW15628   4.585   4.218   2.464  0.8964 -0.0718 -0.3299
 1332SOL    HW115629   4.522   4.277   2.423  0.6804 -0.7632 -0.9850
 1332SOL    HW215630   4.592   4.250   2.554 -2.6688 -0.5129  0.1099
 1333SOL     OW15631   1.058   1.067  13.015  0.2232  0.0559  0.0549
 1333SOL    HW115632   1.059   1.095  13.107  2.2467 -2.3059  0.7533
 1333SOL    HW215633   0.978   1.015  13.004  0.5921 -0.6382  0.6423
 1334SOL     OW15634   0.411   0.780   8.084 -0.4675 -0.4188  0.5654
 1334SOL    HW115635   0.491   0.832   8.096 -0.2768 -0.6991  0.5189
 1334SOL    HW215636   0.351   0.840   8.129 -0.3393  0.5649 -0.5826
 1335SOL     OW15637   4.051   2.436   2.846  0.1930 -0.4519  0.0153
 1335SOL    HW115638   4.032   2.384   2.924 -1.9237  0.8151  0.3353
 1335SOL    HW215639   4.022   2.374   2.779  0.4098  0.5250 -0.9895
 1336SOL     OW15640   0.601   2.516  14.740 -0.2061  0.2792  0.3833
 1336SOL    HW115641   0.562   2.471  14.815  1.2700  1.8955  2.1305
 1336SOL    HW215642   0.629   2.600  14.778  1.5535  0.5661 -1.5627
 1337SOL     OW15643   0.721   2.568   7.855 -0.0664 -0.1205 -0.2391
 1337SOL    HW115644   0.782   2.512   7.807 -1.4364  1.5593 -3.9469
 1337SOL    HW215645   0.656   2.589   7.787  2.9441 -0.4211 -3.2612
 1338SOL     OW15646   3.245   1.453  17.689  0.6656 -0.5695  0.7805
 1338SOL    HW115647   3.173   1.412  17.737  0.6567 -0.2543  1.0375
 1338SOL    HW215648   3.306   1.380  17.682  1.8586  0.4849  0.1491
 1339SOL     OW15649   2.196   1.624   3.670 -0.1855 -0.7535  0.1199
 1339SOL    HW115650   2.190   1.718   3.654  2.0415 -0.5878  0.2431
 1339SOL    HW215651   2.268   1.618   3.733 -0.6940  0.3924  0.8108
 1340SOL     OW15652   3.175   1.681   2.900 -0.0227 -0.7958 -0.0302
 1340SOL    HW115653   3.113   1.655   2.833 -0.1964  0.2176 -0.2612
 1340SOL    HW215654   3.225   1.754   2.863 -0.1181 -0.6325  0.1658
 1341SOL     OW15655   0.177   0.707   6.277  0.1165 -0.2880  0.3167
 1341SOL    HW115656   0.142   0.760   6.205 -0.4374 -0.0188  0.7833
 1341SOL    HW215657   0.106   0.645   6.293 -0.7289  0.2231 -1.4610
 1342SOL     OW15658   0.978   4.349  17.553 -0.3469  0.0086  0.6208
 1342SOL    HW115659   0.990   4.258  17.529 -1.1240  0.0948 -0.0766
 1342SOL    HW215660   1.015   4.352  17.642  0.8165 -1.2064  0.1681
 1343SOL     OW15661   3.607   3.811   7.729 -0.3061 -0.2645  0.4040
 1343SOL    HW115662   3.582   3.902   7.746 -0.2012  0.2818 -2.3542
 1343SOL    HW215663   3.522   3.768   7.732 -0.1192 -0.5729  1.0951
 1344SOL     OW15664   2.265   1.409   9.060  0.9805 -0.3412 -0.1628
 1344SOL    HW115665   2.246   1.420   9.153 -1.1282  0.6207 -0.6999
 1344SOL    HW215666   2.184   1.431   9.014  2.4158  1.4032 -1.8389
 1345SOL     OW15667   3.802   2.808  15.523 -0.1237 -0.5931  0.0319
 1345SOL    HW115668   3.874   2.784  15.465 -1.0934 -0.5274 -1.2077
 1345SOL    HW215669   3.726   2.784  15.470 -0.2695  0.1960 -0.1110
 1346SOL     OW15670   1.425   4.650   7.949  0.2837  0.0899 -0.9614
 1346SOL    HW115671   1.405   4.720   7.887 -0.7700 -0.4119 -1.1854
 1346SOL    HW215672   1.356   4.588   7.923 -1.3734  0.7203  2.0320
 1347SOL     OW15673   1.775   1.854   4.405  0.0079 -0.3703 -0.4068
 1347SOL    HW115674   1.837   1.784   4.385  0.0005  0.0025 -1.7162
 1347SOL    HW215675   1.812   1.922   4.349 -1.9007  0.2379 -0.9019
 1348SOL     OW15676   1.817   4.339  13.699  0.7856 -0.3692 -0.0440
 1348SOL    HW115677   1.889   4.364  13.641  1.1814  0.1538  0.6720
 1348SOL    HW215678   1.755   4.297  13.640  0.8329  2.1838 -1.9549
 1349SOL     OW15679   3.255   2.521   1.035 -0.2844 -0.2414 -0.3950
 1349SOL    HW115680   3.297   2.607   1.041  0.0927 -0.4244 -0.4395
 1349SOL    HW215681   3.165   2.553   1.030  0.2222  1.3871  0.9134
 1350SOL     OW15682   2.637   2.605   0.558 -0.2179 -0.0142  0.0134
 1350SOL    HW115683   2.690   2.681   0.580 -1.5253  1.5657 -2.3028
 1350SOL    HW215684   2.661   2.599   0.465 -0.1603 -2.5348  0.1754
 1351SOL     OW15685   1.785   0.172   5.626 -0.0355  0.1076  0.3704
 1351SOL    HW115686   1.846   0.245   5.630  1.8231 -1.2946 -1.6660
 1351SOL    HW215687   1.770   0.146   5.716 -1.5467  1.5806  0.5353
 1352SOL     OW15688   2.460   1.702   5.963 -0.0627  0.0384 -0.1865
 1352SOL    HW115689   2.540   1.716   6.014  1.0806 -1.0073 -1.6578
 1352SOL    HW215690   2.481   1.609   5.953 -0.5410 -0.2453  1.4486
 1353SOL     OW15691   1.130   1.294  12.849  0.5533 -0.1135 -0.2957
 1353SOL    HW115692   1.046   1.303  12.805  0.3993  0.3835  0.0871
 1353SOL    HW215693   1.109   1.233  12.920  1.0047 -0.7631 -0.7212
 1354SOL     OW15694   0.374   2.768   5.906 -0.5665 -0.1592  0.3636
 1354SOL    HW115695   0.412   2.681   5.913  1.7562  0.7188 -1.3649
 1354SOL    HW215696   0.379   2.778   5.811  4.3218 -1.0101  0.5352
 1355SOL     OW15697   3.002   2.159   8.324 -0.2223 -0.3093  0.1702
 1355SOL    HW115698   3.049   2.096   8.270  0.2354  0.7694 -0.6789
 1355SOL    HW215699   2.935   2.199   8.269 -0.0202  1.7672  1.4412
 1356SOL     OW15700   3.181   1.994   8.187  0.0901  0.3540  0.0977
 1356SOL    HW115701   3.159   2.003   8.094 -1.8353  0.9119  0.6172
 1356SOL    HW215702   3.255   2.055   8.186  0.4841 -0.1060  1.0115
 1357SOL     OW15703   4.515   4.562  14.744 -0.0521  0.0992 -0.3303
 1357SOL    HW115704   4.468   4.644  14.755 -1.9405 -0.7980 -1.7524
 1357SOL    HW215705   4.549   4.566  14.654 -0.2605 -0.5335 -0.4346
 1358SOL     OW15706   4.491   0.504  15.604 -0.4542  0.0178 -0.5378
 1358SOL    HW115707   4.526   0.521  15.691 -0.3548  0.3296 -0.6407
 1358SOL    HW215708   4.472   0.593  15.575  1.8979  0.5363 -0.4282
 1359SOL     OW15709   0.171   1.789   7.093  0.8569  0.4486 -0.4520
 1359SOL    HW115710   0.095   1.803   7.149  1.4251  1.5125  0.0674
 1359SOL    HW215711   0.156   1.843   7.015 -0.7270  0.8660  0.1503
 1360SOL     OW15712   2.309   3.106  10.088  0.1641 -0.0775  0.3195
 1360SOL    HW115713   2.218   3.134  10.077  0.6551  1.6394  0.5551
 1360SOL    HW215714   2.303   3.019  10.048  0.3250  0.2134 -0.3420
 1361SOL     OW15715   3.647   4.520   5.533  0.1241 -0.2762 -0.0453
 1361SOL    HW115716   3.698   4.590   5.574 -2.1234  2.2914 -1.6415
 1361SOL    HW215717   3.560   4.521   5.571 -0.0926 -1.1846 -0.5272
 1362SOL     OW15718   1.845   2.427   8.046  0.4860 -0.3477 -0.0369
 1362SOL    HW115719   1.841   2.336   8.018 -0.2928 -0.3422  0.0662
 1362SOL    HW215720   1.938   2.449   8.033  0.2608  0.6890  0.0867
 1363SOL     OW15721   2.002   1.199  14.577 -0.1250  0.3582 -0.0860
 1363SOL    HW115722   2.033   1.121  14.530  0.5894  1.1091 -0.8553
 1363SOL    HW215723   2.049   1.191  14.660 -0.1423 -1.9892 -0.3104
 1364SOL     OW15724   4.020   3.791  15.429 -0.3099  0.3152  0.2963
 1364SOL    HW115725   4.106   3.751  15.426 -0.1871  0.6605 -1.1782
 1364SOL    HW215726   3.968   3.711  15.442 -0.5862  0.6155  1.0479
 1365SOL     OW15727   4.324   3.112   0.884 -0.1854  0.0952 -0.4845
 1365SOL    HW115728   4.272   3.139   0.808 -3.0831 -0.4021  1.3287
 1365SOL    HW215729   4.410   3.088   0.850 -0.1133 -1.0925  0.5406
 1366SOL     OW15730   2.108   0.738  14.294  0.1116 -0.2443  0.0270
 1366SOL    HW115731   2.156   0.655  14.297 -3.5533 -2.4299 -1.4175
 1366SOL    HW215732   2.019   0.704  14.302 -0.4196  0.8382 -1.3321
 1367SOL     OW15733   1.992   3.485   9.088 -0.2693 -0.1625  0.1846
 1367SOL    HW115734   2.060   3.552   9.086 -1.6329  1.2000 -1.2658
 1367SOL    HW215735   2.048   3.408   9.077  0.5065  0.4419 -0.1323
 1368SOL     OW15736   1.714   4.713   3.645  0.2964  0.2470 -0.3497
 1368SOL    HW115737   1.739   4.635   3.695 -2.1162  0.1280  0.6617
 1368SOL    HW215738   1.620   4.713   3.659  0.4652 -2.6942  0.9041
 1369SOL     OW15739   0.684   0.346   6.711 -0.1440  0.5242  0.1564
 1369SOL    HW115740   0.657   0.254   6.704 -1.9046  0.9434  1.5254
 1369SOL    HW215741   0.632   0.365   6.789 -1.0044 -1.8740  0.1627
 1370SOL     OW15742   0.795   3.692   4.442  0.0146  0.1394 -0.2517
 1370SOL    HW115743   0.806   3.717   4.350  1.1749 -0.4302 -0.2707
 1370SOL    HW215744   0.840   3.760   4.492 -0.3492 -0.1178  0.4214
 1371SOL     OW15745   3.219   4.265  17.602  0.1775  0.2347 -0.7307
 1371SOL    HW115746   3.271   4.195  17.561  1.4704  1.5966 -1.4160
 1371SOL    HW215747   3.252   4.255  17.691  0.0165 -1.0770 -0.8106
 1372SOL     OW15748   4.246   3.337  17.419 -0.2961 -0.1874  0.0923
 1372SOL    HW115749   4.252   3.245  17.447 -0.6681 -0.5025 -0.8440
 1372SOL    HW215750   4.298   3.387  17.481  2.3429 -0.2475 -2.0878
 1373SOL     OW15751   0.760   2.428  11.949 -0.1559  0.1617 -0.1944
 1373SOL    HW115752   0.678   2.472  11.926 -0.0049  0.8771  0.6410
 1373SOL    HW215753   0.755   2.418  12.044 -1.0224 -1.5380 -0.4071
 1374SOL     OW15754   0.881   1.975   2.683 -0.1873  0.4531 -0.3793
 1374SOL    HW115755   0.898   1.995   2.591  0.4672  0.7969 -0.1804
 1374SOL    HW215756   0.800   2.025   2.674 -0.2358  0.4395 -0.0252
 1375SOL     OW15757   0.319   0.671   2.076 -0.0485  0.6014  0.2523
 1375SOL    HW115758   0.314   0.757   2.117 -2.9584 -0.1729  1.5310
 1375SOL    HW215759   0.228   0.652   2.053  1.1054 -0.4750 -3.4690
 1376SOL     OW15760   0.272   1.563   5.039  0.4631 -0.4449 -0.8286
 1376SOL    HW115761   0.310   1.509   4.970  0.7225  0.6331 -1.5315
 1376SOL    HW215762   0.341   1.629   5.046 -0.1167  0.1236 -0.4834
 1377SOL     OW15763   0.817   4.402   4.901  0.1792 -0.4154  0.0812
 1377SOL    HW115764   0.867   4.411   4.982 -0.1144  0.0759  0.2116
 1377SOL    HW215765   0.735   4.437   4.937  0.6028  0.2230  0.4366
 1378SOL     OW15766   4.286   2.936  12.188 -0.4272  0.3679  0.0718
 1378SOL    HW115767   4.340   3.015  12.193 -0.2722  0.3824 -1.7036
 1378SOL    HW215768   4.279   2.911  12.280 -1.3700  1.4549  0.3035
 1379SOL     OW15769   4.647   2.023  13.760  0.4761 -0.1715  0.3215
 1379SOL    HW115770   4.679   2.105  13.722 -0.5480 -0.3476 -0.9065
 1379SOL    HW215771   4.557   2.047  13.780  0.1538  3.6997 -5.9379
 1380SOL     OW15772   4.109   1.866   3.633 -0.3345 -0.6333  0.6179
 1380SOL    HW115773   4.134   1.832   3.547  2.7294 -2.0576  2.0868
 1380SOL    HW215774   4.045   1.799   3.657 -0.0490 -1.0163  0.3152
 1381SOL     OW15775   1.605   1.490   8.247  0.4182 -0.5992 -0.4510
 1381SOL    HW115776   1.632   1.421   8.308 -0.6800 -0.9637 -0.3806
 1381SOL    HW215777   1.543   1.446   8.188  2.6178  0.0113 -3.2322
 1382SOL     OW15778   3.480   0.131   5.381 -0.2353  0.3835 -0.0563
 1382SOL    HW115779   3.423   0.075   5.327  0.0139  0.1691 -0.0961
 1382SOL    HW215780   3.465   0.088   5.466 -1.3409  0.5531 -0.1609
 1383SOL     OW15781   3.699   2.302   8.794 -0.2106  0.0148  0.1693
 1383SOL    HW115782   3.698   2.328   8.702 -0.6482  1.0259  0.4640
 1383SOL    HW215783   3.662   2.374   8.845 -3.2597 -0.4344 -1.3592
 1384SOL     OW15784   2.862   0.631   7.412 -0.9801  0.1315  0.3402
 1384SOL    HW115785   2.914   0.691   7.360  1.4442 -1.2480  1.1707
 1384SOL    HW215786   2.897   0.550   7.375 -1.8402 -1.3332  2.6728
 1385SOL     OW15787   3.438   3.731  17.087 -0.6753  0.3904  0.2404
 1385SOL    HW115788   3.343   3.720  17.087 -0.4507 -1.6586 -0.6825
 1385SOL    HW215789   3.453   3.779  17.006 -3.1515 -0.8907 -0.9840
 1386SOL     OW15790   0.167   0.646  12.199 -0.3633 -0.2629  0.1598
 1386SOL    HW115791   0.235   0.683  12.256  1.6135 -2.4147 -0.7689
 1386SOL    HW215792   0.123   0.586  12.259  1.8324 -2.8127 -0.7159
 1387SOL     OW15793   1.945   0.029  10.017 -0.2653 -0.3979 -0.3175
 1387SOL    HW115794   1.918   0.102   9.961  1.2600 -0.7447 -1.5103
 1387SOL    HW215795   1.986   0.070  10.093 -0.6178 -0.7569  0.0653
 1388SOL     OW15796   2.646   4.230  12.574  0.1348  0.0994 -0.2199
 1388SOL    HW115797   2.578   4.250  12.510  1.0404 -0.9856 -1.5117
 1388SOL    HW215798   2.666   4.143  12.541  0.4306 -0.4030  1.3093
 1389SOL     OW15799   3.186   0.658   2.861 -0.4323  0.0402 -0.5304
 1389SOL    HW115800   3.129   0.655   2.938 -0.5390 -1.3123 -0.6591
 1389SOL    HW215801   3.127   0.703   2.801  1.2477  0.2137 -2.0385
 1390SOL     OW15802   1.712   4.176   3.550  0.1448 -0.3262  0.2860
 1390SOL    HW115803   1.721   4.161   3.644 -1.0012 -2.9971 -0.0428
 1390SOL    HW215804   1.621   4.152   3.533 -0.0280  1.7148 -1.7429
 1391SOL     OW15805   2.639   2.296   8.675  0.0172 -0.1344 -0.5261
 1391SOL    HW115806   2.675   2.284   8.763  0.3388 -1.6283 -0.8553
 1391SOL    HW215807   2.567   2.355   8.693  1.8507  1.5943  1.0656
 1392SOL     OW15808   2.179   2.488  16.821 -0.2935 -0.3188 -0.2181
 1392SOL    HW115809   2.143   2.554  16.879  0.2646 -0.9488  0.8418
 1392SOL    HW215810   2.215   2.423  16.881  0.4716 -0.7584 -1.1366
 1393SOL     OW15811   1.546   2.302   0.776 -0.5662  0.0570 -1.0774
 1393SOL    HW115812   1.496   2.381   0.754 -3.6023 -2.0926 -1.8497
 1393SOL    HW215813   1.604   2.306   0.700  0.2681  0.9132 -0.3891
 1394SOL     OW15814   0.446   3.214  12.070 -0.7705  0.1828 -0.1223
 1394SOL    HW115815   0.455   3.218  11.975 -0.3663 -2.7403 -0.2216
 1394SOL    HW215816   0.507   3.282  12.098 -0.9392 -0.3221  1.4999
 1395SOL     OW15817   1.686   3.504   0.760  0.3130 -0.0377 -0.0130
 1395SOL    HW115818   1.768   3.511   0.808 -0.7457 -0.3795  1.8570
 1395SOL    HW215819   1.629   3.570   0.800  1.9904  1.5876 -0.3262
 1396SOL     OW15820   4.460   4.691  16.213 -0.2993  0.1398 -0.1608
 1396SOL    HW115821   4.430   4.600  16.210  0.3976 -0.1177  0.8393
 1396SOL    HW215822   4.500   4.701  16.127  2.4212 -0.5974  1.0207
 1397SOL     OW15823   2.517   1.431   9.002  0.6301  0.5253  0.4868
 1397SOL    HW115824   2.423   1.440   9.018  0.4453 -1.6548  0.6939
 1397SOL    HW215825   2.548   1.519   9.022  1.5335 -0.1917  2.2582
 1398SOL     OW15826   2.118   2.531   8.441  0.0056  0.0314 -0.8721
 1398SOL    HW115827   2.156   2.608   8.399  2.5486 -0.3708  0.7067
 1398SOL    HW215828   2.114   2.467   8.370  1.9848 -0.4917 -0.5239
 1399SOL     OW15829   0.177   0.492   2.629 -0.0788 -0.2541 -0.4257
 1399SOL    HW115830   0.215   0.574   2.659 -1.5527 -0.1613  1.1942
 1399SOL    HW215831   0.180   0.437   2.707  1.2795 -1.3041 -1.2180
 1400SOL     OW15832   1.635   1.183   4.704 -0.1833 -0.3928 -0.6865
 1400SOL    HW115833   1.640   1.269   4.661 -0.1565 -0.6533 -1.2083
 1400SOL    HW215834   1.685   1.133   4.639  2.5907  1.5847 -0.0812
 1401SOL     OW15835   0.990   2.144   9.255  0.1660 -0.1848  0.2764
 1401SOL    HW115836   0.900   2.119   9.274  0.4506 -0.9297  0.6612
 1401SOL    HW215837   1.010   2.072   9.194  0.4611 -1.5226  1.9608
 1402SOL     OW15838   2.346   2.752   5.061 -0.2817 -0.3048 -0.3026
 1402SOL    HW115839   2.438   2.733   5.080 -0.3637 -0.6075 -0.2026
 1402SOL    HW215840   2.341   2.827   5.120 -1.0120  2.2366 -3.5587
 1403SOL     OW15841   0.373   2.404   7.601 -0.0891  0.0866 -0.7418
 1403SOL    HW115842   0.331   2.366   7.524  0.4161 -1.1776 -0.3833
 1403SOL    HW215843   0.384   2.494   7.570 -1.8200  0.4072 -0.4145
 1404SOL     OW15844   0.933   1.713  16.357  0.1077  0.1240 -0.2350
 1404SOL    HW115845   0.886   1.786  16.397  1.2752  1.5604 -1.4514
 1404SOL    HW215846   0.922   1.743  16.267 -0.8576  2.4948  0.6781
 1405SOL     OW15847   1.543   4.009   6.812  0.7112  0.0025  0.2942
 1405SOL    HW115848   1.496   3.942   6.763  1.0271 -1.2202  1.6679
 1405SOL    HW215849   1.494   4.091   6.805  1.7927  0.7100  0.9216
 1406SOL     OW15850   4.094   2.673  15.863  0.3577 -0.1397 -0.3802
 1406SOL    HW115851   4.175   2.676  15.915 -0.7106 -0.4705  1.2834
 1406SOL    HW215852   4.116   2.723  15.784  1.7984  0.1109  0.1690
 1407SOL     OW15853   0.928   4.017  12.594  0.1424 -0.1544  0.1301
 1407SOL    HW115854   0.876   4.002  12.515 -1.6665  0.6498  1.1714
 1407SOL    HW215855   0.940   4.112  12.597 -0.3671  0.0333 -3.6858
 1408SOL     OW15856   2.744   4.707   0.560  0.3197 -0.0426 -0.1691
 1408SOL    HW115857   2.791   0.000   0.637 -0.2120 -0.2066  0.2303
 1408SOL    HW215858   2.732   0.053   0.517 -1.0553  1.0607  2.3989
 1409SOL     OW15859   2.240   2.866   3.948  0.0208 -0.3333  0.1042
 1409SOL    HW115860   2.164   2.808   3.950 -0.1275 -0.2187 -1.6711
 1409SOL    HW215861   2.288   2.811   3.887  1.1581  0.3637  0.3814
 1410SOL     OW15862   1.905   4.575   7.080  0.2530  0.7041  0.5089
 1410SOL    HW115863   1.974   4.551   7.142 -0.1665  0.6148  0.9424
 1410SOL    HW215864   1.909   4.504   7.017  0.0074  0.0659  1.2093
 1411SOL     OW15865   0.141   3.234   3.801  0.0324  0.5552  0.0093
 1411SOL    HW115866   0.174   3.176   3.871  0.9866  0.0389 -0.8712
 1411SOL    HW215867   0.094   3.169   3.749  1.4351 -0.2608 -0.2523
 1412SOL     OW15868   3.427   2.683   5.261  0.0927  0.7912  0.1948
 1412SOL    HW115869   3.502   2.675   5.202 -0.4573 -0.3543 -0.3622
 1412SOL    HW215870   3.459   2.759   5.309  0.5019  0.7440  0.0039
 1413SOL     OW15871   4.174   2.497  12.869  0.5466 -0.5483 -0.1332
 1413SOL    HW115872   4.085   2.477  12.839  0.4326 -1.0951  0.5729
 1413SOL    HW215873   4.157   2.567  12.932 -1.0813 -1.0237 -0.0315
 1414SOL     OW15874   0.210   1.633   0.186  0.5481  0.2934  0.4696
 1414SOL    HW115875   0.151   1.636   0.262 -0.1153  1.5421 -0.0935
 1414SOL    HW215876   0.148   1.605   0.120 -0.0776  0.4172  1.0001
 1415SOL     OW15877   2.289   1.092   1.097  0.3442 -0.3366  0.1558
 1415SOL    HW115878   2.322   1.087   1.007  1.7539  0.8773  0.6049
 1415SOL    HW215879   2.229   1.166   1.096  0.5190 -0.2119 -0.7300
 1416SOL     OW15880   3.277   2.769   7.947  0.3144  0.5186  0.5686
 1416SOL    HW115881   3.327   2.702   7.993 -0.9722 -1.0525 -0.3376
 1416SOL    HW215882   3.306   2.842   8.001 -1.4405  1.1511  0.6654
 1417SOL     OW15883   2.201   3.138   1.454  0.3445 -0.1055 -0.3772
 1417SOL    HW115884   2.151   3.058   1.440  1.7087 -1.2218  1.1413
 1417SOL    HW215885   2.173   3.174   1.370  3.1441  2.3022 -0.2580
 1418SOL     OW15886   1.873   4.510   9.962  0.0412  0.1040  0.1237
 1418SOL    HW115887   1.894   4.603   9.964 -2.2607  0.5304  2.6662
 1418SOL    HW215888   1.897   4.488  10.052  3.4529 -0.3444 -0.8693
 1419SOL     OW15889   1.479   3.350   9.237 -0.5397 -0.1755  0.4258
 1419SOL    HW115890   1.554   3.405   9.215 -0.7475 -0.9085 -2.0754
 1419SOL    HW215891   1.462   3.389   9.323  1.2350  1.2355  0.1363
 1420SOL     OW15892   4.428   4.161  12.000 -0.0397 -0.7077  0.0108
 1420SOL    HW115893   4.406   4.230  11.937  3.6670 -0.5736 -1.1524
 1420SOL    HW215894   4.340   4.125  12.006 -1.3007  2.8359  2.6172
 1421SOL     OW15895   3.170   4.215   2.805 -0.3744  0.1899  0.0874
 1421SOL    HW115896   3.105   4.170   2.751  1.0189 -0.6828 -0.8628
 1421SOL    HW215897   3.240   4.150   2.800 -0.8469 -0.3261  0.2235
 1422SOL     OW15898   2.203   2.602   8.686  0.2739 -0.4142 -0.2308
 1422SOL    HW115899   2.162   2.580   8.602 -1.3076 -0.5353  0.5809
 1422SOL    HW215900   2.157   2.683   8.709 -0.2667 -0.4186 -1.3183
 1423SOL     OW15901   0.389   2.028   4.420 -0.5626 -0.0970 -0.4495
 1423SOL    HW115902   0.325   2.000   4.486  0.4777 -3.5970 -0.9169
 1423SOL    HW215903   0.439   2.085   4.479 -2.1396 -1.3411  2.0961
 1424SOL     OW15904   2.874   4.674  11.442 -0.2120  0.3627  0.4998
 1424SOL    HW115905   2.921   4.669  11.525  0.1783  2.1557  0.4023
 1424SOL    HW215906   2.929   4.615  11.389  1.2282  3.4229 -1.4406
 1425SOL     OW15907   1.454   2.023   8.132  0.4437 -0.6662  0.2430
 1425SOL    HW115908   1.536   1.978   8.111 -0.1894 -2.5165  1.7807
 1425SOL    HW215909   1.468   2.095   8.070 -1.4860  1.5363  2.3870
 1426SOL     OW15910   1.453   4.207   8.016  0.3428  0.4759  0.4507
 1426SOL    HW115911   1.509   4.163   8.079  2.5856  1.6065 -0.7464
 1426SOL    HW215912   1.506   4.287   8.016  1.5680 -0.3068 -1.5320
 1427SOL     OW15913   3.519   1.075  11.154  0.1768  0.3883 -0.5358
 1427SOL    HW115914   3.601   1.066  11.201  0.2546  0.8558 -0.5848
 1427SOL    HW215915   3.498   1.167  11.166 -0.8570 -0.2898  2.6879
 1428SOL     OW15916   0.116   2.103  13.162  0.6269  0.0528  0.0456
 1428SOL    HW115917   0.025   2.097  13.133 -0.7182  3.4013  3.4669
 1428SOL    HW215918   0.149   2.156  13.089 -1.4852  0.4684 -0.6104
 1429SOL     OW15919   2.102   3.805   9.661  0.2309 -0.0451 -0.4299
 1429SOL    HW115920   2.015   3.768   9.676 -0.5797  2.0121 -0.0797
 1429SOL    HW215921   2.160   3.736   9.694  0.8498  0.9235  0.5254
 1430SOL     OW15922   0.646   2.938   8.125 -0.8662 -0.3500 -0.7537
 1430SOL    HW115923   0.607   2.852   8.137 -1.3632 -0.1559 -0.9643
 1430SOL    HW215924   0.580   3.007   8.135  0.0488  0.5485 -0.8244
 1431SOL     OW15925   1.058   2.323   2.985 -0.5034 -0.2185  0.1177
 1431SOL    HW115926   1.137   2.369   3.016 -0.4762 -2.1549  2.8599
 1431SOL    HW215927   1.108   2.244   2.965  1.8596  1.5868 -1.2363
 1432SOL     OW15928   4.715   3.542  11.787 -0.0825  0.1995 -0.3221
 1432SOL    HW115929   0.026   3.624  11.791  1.8336 -0.9138 -1.6271
 1432SOL    HW215930   4.719   3.547  11.692 -1.4071  0.7263 -0.3494
 1433SOL     OW15931   3.544   0.801   7.610 -0.3524  0.2881  0.2015
 1433SOL    HW115932   3.595   0.878   7.585  1.7062 -1.8107 -1.9540
 1433SOL    HW215933   3.465   0.845   7.641 -0.0608  0.4736  0.6719
 1434SOL     OW15934   1.855   3.687   8.956  0.1534  1.1099 -0.7977
 1434SOL    HW115935   1.790   3.620   8.936  1.4587 -0.5309  0.5179
 1434SOL    HW215936   1.919   3.628   8.994 -0.6810  0.3327 -0.6042
 1435SOL     OW15937   2.322   2.664  11.417 -0.2079  0.1324 -0.0681
 1435SOL    HW115938   2.261   2.609  11.367 -1.5500  1.2190  0.3926
 1435SOL    HW215939   2.330   2.612  11.497 -0.1687 -1.0680 -0.8533
 1436SOL     OW15940   1.137   4.401   9.285 -0.5219  0.2835  0.2308
 1436SOL    HW115941   1.210   4.365   9.235 -1.2556 -2.6877  1.3203
 1436SOL    HW215942   1.118   4.475   9.227  1.3971  0.9258  0.4388
 1437SOL     OW15943   4.164   2.757  15.624  0.0308 -0.3825  0.4128
 1437SOL    HW115944   4.149   2.696  15.552  0.7164  1.6557 -1.4560
 1437SOL    HW215945   4.157   2.845  15.588 -2.5940 -0.9577 -0.4827
 1438SOL     OW15946   2.556   1.618   2.296 -0.1430 -0.2450 -0.0042
 1438SOL    HW115947   2.472   1.581   2.269  0.2025 -1.9973  1.3926
 1438SOL    HW215948   2.614   1.569   2.237  0.4286  0.2407  0.1495
 1439SOL     OW15949   4.474   2.577   6.891 -0.2743  0.0724  0.2502
 1439SOL    HW115950   4.428   2.608   6.813 -0.3907 -0.4613  0.1027
 1439SOL    HW215951   4.401   2.556   6.950 -0.8776 -1.2469 -0.9364
 1440SOL     OW15952   1.917   2.667   4.519  0.0694 -0.2966 -0.4374
 1440SOL    HW115953   1.867   2.705   4.447  0.6045 -1.8324 -1.6248
 1440SOL    HW215954   1.866   2.699   4.594  0.1247 -0.0686 -0.4962
 1441SOL     OW15955   4.374   0.881   3.079  0.0162  0.3878  0.5604
 1441SOL    HW115956   4.409   0.970   3.081  2.7581 -0.6730  0.4022
 1441SOL    HW215957   4.432   0.835   3.140 -0.5350  1.1181  1.6409
 1442SOL     OW15958   2.366   4.146   2.227 -0.5423  0.5383  0.2840
 1442SOL    HW115959   2.459   4.125   2.225 -0.3977  1.2876 -0.6191
 1442SOL    HW215960   2.363   4.240   2.238  0.7999  0.7861 -1.4531
 1443SOL     OW15961   1.140   3.926   2.145 -0.4262 -0.3836  0.3134
 1443SOL    HW115962   1.131   3.998   2.083  1.8553 -0.2540  0.1245
 1443SOL    HW215963   1.050   3.896   2.154 -0.0605 -1.7710 -0.6839
 1444SOL     OW15964   1.308   1.432   5.682  0.0316 -0.5590 -0.1223
 1444SOL    HW115965   1.224   1.445   5.727  0.4230  1.3629  0.0490
 1444SOL    HW215966   1.355   1.515   5.671  1.0393 -1.3275 -1.5118
 1445SOL     OW15967   2.806   2.664   4.346  0.1940 -0.0232 -0.0492
 1445SOL    HW115968   2.794   2.669   4.251  4.1390  0.1905 -0.5356
 1445SOL    HW215969   2.777   2.576   4.367 -2.0213  0.8633  0.6209
 1446SOL     OW15970   0.249   3.228   0.142 -0.1652  0.6445  0.1549
 1446SOL    HW115971   0.241   3.161   0.210 -2.0476 -0.6850 -1.3762
 1446SOL    HW215972   0.195   3.299   0.178 -1.3594 -1.7900  3.2145
 1447SOL     OW15973   0.448   0.688   6.248  0.2922  0.1802  0.0576
 1447SOL    HW115974   0.358   0.720   6.247 -0.1156 -0.9541 -0.2688
 1447SOL    HW215975   0.443   0.637   6.167 -1.2949 -0.4995  0.5649
 1448SOL     OW15976   0.466   4.195   4.783 -0.0966  0.6407 -0.5840
 1448SOL    HW115977   0.556   4.167   4.799 -0.6231 -0.3034  0.7690
 1448SOL    HW215978   0.442   4.242   4.863  1.0044 -2.4137  1.5724
 1449SOL     OW15979   3.214   1.586  16.744 -0.7177  0.4681 -0.4649
 1449SOL    HW115980   3.171   1.509  16.707 -1.1450  2.0375 -3.1797
 1449SOL    HW215981   3.291   1.590  16.688 -0.4611  0.4399 -0.1126
 1450SOL     OW15982   1.182   1.755   5.476  0.3204  0.0803  0.6684
 1450SOL    HW115983   1.216   1.705   5.402 -3.1025  1.5667 -1.8809
 1450SOL    HW215984   1.249   1.737   5.543  0.7258 -0.5759  0.0804
 1451SOL     OW15985   2.493   3.386   8.195 -0.0880  0.2977  0.0450
 1451SOL    HW115986   2.402   3.400   8.168 -0.3907 -1.4797  0.1393
 1451SOL    HW215987   2.491   3.291   8.186 -0.7525  0.3935 -0.7619
 1452SOL     OW15988   3.671   4.050   2.649 -0.2191  0.5807  0.0263
 1452SOL    HW115989   3.600   4.009   2.699 -1.8683 -1.0372 -3.6724
 1452SOL    HW215990   3.638   4.139   2.636  0.0720  0.7611  0.4809
 1453SOL     OW15991   1.840   3.464   4.541 -0.2352  0.0402  0.1313
 1453SOL    HW115992   1.887   3.457   4.458 -1.6796 -0.9728 -0.6133
 1453SOL    HW215993   1.816   3.371   4.543 -0.6503  0.1040 -1.8463
 1454SOL     OW15994   3.380   3.801   7.495 -0.0637 -0.0287  0.8819
 1454SOL    HW115995   3.325   3.876   7.518  0.2935  1.1052 -1.9643
 1454SOL    HW215996   3.336   3.731   7.543  0.6921  0.4880  2.3303
 1455SOL     OW15997   4.365   4.520   8.742 -0.3037 -0.5292  0.0978
 1455SOL    HW115998   4.389   4.606   8.777 -0.0903 -0.7634  0.5170
 1455SOL    HW215999   4.426   4.467   8.792  0.8396  1.2336  0.5926
 1456SOL     OW16000   2.779   3.983   2.769 -0.0230  0.0007  0.2253
 1456SOL    HW116001   2.696   3.995   2.721  0.8311 -0.8079 -1.4555
 1456SOL    HW216002   2.801   3.895   2.739 -0.8175  0.3008 -1.2444
 1457SOL     OW16003   2.837   4.030   6.228  0.1868  0.2515  0.1478
 1457SOL    HW116004   2.906   4.096   6.218 -1.2177  1.6990  0.1093
 1457SOL    HW216005   2.795   4.033   6.142  1.8389  1.4659 -0.6104
 1458SOL     OW16006   0.743   0.522   7.883 -0.2090 -0.2089  0.0250
 1458SOL    HW116007   0.651   0.549   7.881 -0.8509 -2.1580  2.2480
 1458SOL    HW216008   0.751   0.521   7.979 -0.1560  0.3868  0.0304
 1459SOL     OW16009   0.397   3.564   1.645 -0.3543 -0.1267 -0.1752
 1459SOL    HW116010   0.443   3.556   1.562  2.8124  0.4097  1.5342
 1459SOL    HW216011   0.463   3.543   1.711 -0.1334 -1.0157 -0.6827
 1460SOL     OW16012   1.133   4.454  11.236 -0.4940  0.3139 -0.3699
 1460SOL    HW116013   1.082   4.506  11.299 -0.1556 -1.8488  1.7049
 1460SOL    HW216014   1.069   4.384  11.224 -1.3127  1.4743 -2.6823
 1461SOL     OW16015   4.620   3.838  15.100 -0.0171  0.2227 -0.4130
 1461SOL    HW116016   4.555   3.902  15.128  0.9455  0.4791  1.2049
 1461SOL    HW216017   4.622   3.771  15.169  1.0683 -0.9003 -1.5194
 1462SOL     OW16018   0.761   3.875   1.726 -0.3994  0.4633  0.6200
 1462SOL    HW116019   0.673   3.899   1.697  0.6475  2.0955 -1.1788
 1462SOL    HW216020   0.791   3.954   1.770 -0.4589  0.2632  1.0201
 1463SOL     OW16021   2.553   3.338   8.471 -0.4324  0.0304 -0.4397
 1463SOL    HW116022   2.546   3.358   8.378  1.6827  2.2232 -0.1325
 1463SOL    HW216023   2.490   3.399   8.508  2.4180  2.2089  0.8760
 1464SOL     OW16024   1.863   3.688   6.763 -1.0094 -0.7506 -0.4323
 1464SOL    HW116025   1.801   3.619   6.788 -0.0894 -0.9752  1.1704
 1464SOL    HW216026   1.814   3.709   6.683  1.9592  0.3146 -1.9837
 1465SOL     OW16027   4.039   2.302  12.359 -0.2898 -0.6568 -0.1275
 1465SOL    HW116028   4.119   2.333  12.402  0.1685 -1.5356 -0.3493
 1465SOL    HW216029   3.977   2.298  12.432  1.2107 -2.5646  1.0425
 1466SOL     OW16030   1.204   0.175   8.766 -0.2461  0.2351  0.4259
 1466SOL    HW116031   1.183   0.164   8.859  1.8109 -1.3976  0.6909
 1466SOL    HW216032   1.247   0.091   8.750 -0.6503  0.0336  0.4051
 1467SOL     OW16033   1.277   1.770  11.071  0.1987  0.2393 -0.2770
 1467SOL    HW116034   1.359   1.739  11.109 -0.6076 -0.3125  1.0137
 1467SOL    HW216035   1.239   1.822  11.143  0.0918 -0.3684  0.1041
 1468SOL     OW16036   1.009   3.207   1.728  0.5403 -0.0644  0.0923
 1468SOL    HW116037   1.090   3.166   1.698  1.3927  0.0042  2.2930
 1468SOL    HW216038   0.962   3.131   1.762  0.7052 -0.4019 -0.4328
 1469SOL     OW16039   3.682   4.739  11.295  0.0768  0.5627  0.0365
 1469SOL    HW116040   3.705   0.090  11.274 -2.0669  1.2223  0.5152
 1469SOL    HW216041   3.767   4.696  11.285 -0.0503  0.3970 -0.3293
 1470SOL     OW16042   2.415   3.963   4.736 -0.0925  0.2749  0.0497
 1470SOL    HW116043   2.422   4.029   4.805  0.1906 -0.4162  0.6911
 1470SOL    HW216044   2.504   3.937   4.712  0.1358  0.2048  0.9392
 1471SOL     OW16045   0.995   1.933   0.130 -0.5947  0.4678 -0.1047
 1471SOL    HW116046   0.942   1.869   0.177  0.3896 -0.8425 -0.7869
 1471SOL    HW216047   1.076   1.883   0.126 -1.0965 -0.3893  0.2970
 1472SOL     OW16048   2.128   1.060   4.488  0.0868  0.3787  0.0713
 1472SOL    HW116049   2.103   1.000   4.418  1.8959 -0.0327 -0.2429
 1472SOL    HW216050   2.214   1.090   4.457  0.5238 -0.2152  0.6878
 1473SOL     OW16051   2.362   0.897   5.416 -0.3098 -0.3849  0.5864
 1473SOL    HW116052   2.347   0.963   5.349  1.0347  0.2100  0.8606
 1473SOL    HW216053   2.445   0.930   5.452 -0.8809  0.4579  1.1401
 1474SOL     OW16054   1.022   2.159   8.262 -0.2732  0.1598  0.7123
 1474SOL    HW116055   0.996   2.074   8.224  1.2581  0.0556 -0.0939
 1474SOL    HW216056   1.002   2.146   8.354 -1.1502  0.6778  0.6033
 1475SOL     OW16057   4.084   2.282   4.661  0.2155 -0.3731 -0.3750
 1475SOL    HW116058   4.141   2.270   4.585  1.3237  2.6752 -0.0345
 1475SOL    HW216059   4.157   2.300   4.720 -1.2571  0.5579  1.1844
 1476SOL     OW16060   4.148   1.338   7.582  0.0155  0.1658 -0.2194
 1476SOL    HW116061   4.058   1.304   7.582 -0.4813  1.4550 -1.6631
 1476SOL    HW216062   4.188   1.270   7.636 -1.1314 -1.2297 -1.1357
 1477SOL     OW16063   4.369   2.131   4.496  0.5933  0.4639  0.3190
 1477SOL    HW116064   4.386   2.180   4.416 -0.5069 -1.3249 -1.0104
 1477SOL    HW216065   4.459   2.120   4.525  0.5062  1.4148  0.9700
 1478SOL     OW16066   3.412   2.336  12.018 -0.5531 -0.1974 -0.4708
 1478SOL    HW116067   3.480   2.399  11.994 -0.2841 -0.1461  0.4300
 1478SOL    HW216068   3.359   2.384  12.081  1.4056  1.4483 -0.0581
 1479SOL     OW16069   1.673   4.068   5.156 -0.2367  0.3951  0.9193
 1479SOL    HW116070   1.693   4.132   5.224 -0.3407  1.6028 -0.1902
 1479SOL    HW216071   1.709   4.113   5.079  0.3577 -1.2752  0.2293
 1480SOL     OW16072   4.097   0.102   9.561 -0.2668 -0.0755  0.4890
 1480SOL    HW116073   4.163   0.167   9.584 -1.1168  0.4341  1.4756
 1480SOL    HW216074   4.042   0.116   9.638 -1.4801 -0.9587 -0.2180
 1481SOL     OW16075   3.032   0.780  16.123 -0.1593 -0.5659 -0.3892
 1481SOL    HW116076   2.980   0.858  16.104  0.1544  0.0444  1.3391
 1481SOL    HW216077   3.083   0.772  16.042  0.5575 -0.8665  0.0963
 1482SOL     OW16078   1.245   3.395  13.438  0.3655 -0.0466 -0.0836
 1482SOL    HW116079   1.209   3.410  13.351  0.2516  0.4172  0.0458
 1482SOL    HW216080   1.269   3.485  13.460  1.0833 -0.6464  1.5781
 1483SOL     OW16081   1.345   3.804   8.603  0.2291  0.4628 -0.0923
 1483SOL    HW116082   1.411   3.735   8.598 -1.8857 -1.5786  0.0491
 1483SOL    HW216083   1.266   3.761   8.570 -0.1018 -0.4225  1.8888
 1484SOL     OW16084   3.550   4.363   8.729 -0.1688  0.1109 -0.5755
 1484SOL    HW116085   3.488   4.430   8.699 -0.4506  1.1542  2.3281
 1484SOL    HW216086   3.511   4.276   8.722 -1.6264  0.5693  1.9570
 1485SOL     OW16087   1.099   0.177   6.882 -0.2793 -0.4457  0.5507
 1485SOL    HW116088   1.084   0.119   6.957 -0.2227 -1.3791 -0.1555
 1485SOL    HW216089   1.185   0.147   6.854 -0.1733  0.3164  0.0759
 1486SOL     OW16090   2.636   4.086   9.924  0.4755  0.7181  0.0710
 1486SOL    HW116091   2.726   4.118   9.930  0.8829 -0.3597 -0.1303
 1486SOL    HW216092   2.605   4.138   9.850  1.8048  0.4031 -0.7108
 1487SOL     OW16093   2.541   0.382   1.845  0.0036  0.4707  0.3772
 1487SOL    HW116094   2.609   0.352   1.905  1.5621  0.9423 -1.1512
 1487SOL    HW216095   2.487   0.444   1.893  0.8332  1.0217  0.5828
 1488SOL     OW16096   0.486   0.490  16.023 -0.3208 -0.0403 -0.4751
 1488SOL    HW116097   0.442   0.498  15.939  0.3239  1.7340 -0.6419
 1488SOL    HW216098   0.548   0.420  16.002  0.0386  0.9491 -2.7365
 1489SOL     OW16099   0.445   2.323   6.409 -0.0869  0.3503 -0.4394
 1489SOL    HW116100   0.434   2.265   6.333 -1.5317  1.6631 -1.2291
 1489SOL    HW216101   0.369   2.303   6.464  1.1670 -1.7537  0.5252
 1490SOL     OW16102   3.160   2.064   7.299  0.2321  0.1418 -0.2068
 1490SOL    HW116103   3.130   2.106   7.219  1.3186 -2.1553 -1.8022
 1490SOL    HW216104   3.188   2.142   7.347 -1.6604  0.0992  0.9804
 1491SOL     OW16105   2.612   1.130   0.282  0.2927 -0.5271 -0.5715
 1491SOL    HW116106   2.534   1.105   0.231 -0.8478  0.2473  0.7719
 1491SOL    HW216107   2.593   1.080   0.361 -0.3671 -1.4978 -1.3426
 1492SOL     OW16108   3.714   1.473   7.751 -0.4718  0.8679  0.3386
 1492SOL    HW116109   3.677   1.395   7.791  0.9543  0.8420  1.6268
 1492SOL    HW216110   3.787   1.441   7.697 -1.2854 -0.9397  0.3250
 1493SOL     OW16111   1.562   0.730  12.823  0.0192 -0.0768 -0.4886
 1493SOL    HW116112   1.628   0.710  12.756  0.7378  0.4413  0.0656
 1493SOL    HW216113   1.607   0.777  12.893 -0.0396 -0.3062 -0.2980
 1494SOL     OW16114   2.868   4.496   5.167 -0.1269  0.3440  0.0906
 1494SOL    HW116115   2.820   4.579   5.175  0.3339  0.5694  0.5366
 1494SOL    HW216116   2.908   4.500   5.080  2.2362 -3.1950  1.0465
 1495SOL     OW16117   0.140   2.598   8.876 -0.0578  0.4737 -0.7529
 1495SOL    HW116118   0.186   2.681   8.889  0.1850  0.1114  0.6820
 1495SOL    HW216119   0.154   2.590   8.782  0.6099 -0.0848 -0.6078
 1496SOL     OW16120   2.373   1.467  11.179 -0.2901  0.6405  0.4946
 1496SOL    HW116121   2.418   1.468  11.094 -1.9475  0.4337 -0.3862
 1496SOL    HW216122   2.289   1.431  11.150  0.3840  0.5078 -1.2794
 1497SOL     OW16123   0.182   2.580   6.216  0.1817 -0.2474  0.0741
 1497SOL    HW116124   0.175   2.616   6.128  1.0099  1.9712  0.8880
 1497SOL    HW216125   0.093   2.546   6.222  0.1625 -0.2286 -0.1214
 1498SOL     OW16126   2.566   1.498   6.434  0.7856 -1.1287 -0.0256
 1498SOL    HW116127   2.657   1.498   6.460  0.9507  0.3945 -0.6354
 1498SOL    HW216128   2.577   1.577   6.382 -2.1129 -0.1650  0.8183
 1499SOL     OW16129   0.607   2.630   0.683  0.2823 -1.1121  0.5105
 1499SOL    HW116130   0.626   2.572   0.758 -0.5680 -0.4404  1.2469
 1499SOL    HW216131   0.550   2.690   0.730  0.9669 -1.3472  1.6535
 1500SOL     OW16132   0.583   4.359  13.046  0.1125  0.1721  0.6620
 1500SOL    HW116133   0.553   4.439  13.091 -0.2836  0.9548 -0.9825
 1500SOL    HW216134   0.631   4.402  12.975 -1.9545  0.9783 -0.2384
 1501SOL     OW16135   2.230   2.296   0.822  0.2254 -0.0066  0.3676
 1501SOL    HW116136   2.282   2.216   0.812  2.8117  1.3775  2.5443
 1501SOL    HW216137   2.138   2.273   0.815 -0.6362  3.7741 -0.8086
 1502SOL     OW16138   0.481   3.317   7.115 -0.0836 -0.4415 -0.4120
 1502SOL    HW116139   0.547   3.253   7.138 -0.8843 -0.8413  0.7960
 1502SOL    HW216140   0.404   3.282   7.161 -1.0021  2.9123  0.6081
 1503SOL     OW16141   2.353   2.854   4.328 -0.1946  0.5273  0.6559
 1503SOL    HW116142   2.384   2.935   4.368  1.0355  1.0238 -1.3116
 1503SOL    HW216143   2.423   2.793   4.352  2.1228  2.7020 -0.5613
 1504SOL     OW16144   0.446   4.442   5.545  0.2580 -0.4280 -0.1053
 1504SOL    HW116145   0.517   4.500   5.571 -0.4425 -0.4499  1.8120
 1504SOL    HW216146   0.416   4.483   5.463  1.1616  1.5427  0.5518
 1505SOL     OW16147   3.735   3.936   3.703  0.0936  0.2825 -0.4437
 1505SOL    HW116148   3.687   3.864   3.662  0.6017  1.0448 -2.3424
 1505SOL    HW216149   3.700   4.005   3.647  0.0814  1.9017  1.5908
 1506SOL     OW16150   0.495   3.922   7.995  0.1621  0.5681 -0.0963
 1506SOL    HW116151   0.512   4.015   8.008  1.1827  0.3870 -0.1048
 1506SOL    HW216152   0.477   3.891   8.084 -0.6758 -0.9633 -0.7929
 1507SOL     OW16153   0.953   1.128   6.010  0.2741  0.2287  0.2004
 1507SOL    HW116154   0.967   1.034   6.004 -0.4947  0.0340  1.3929
 1507SOL    HW216155   0.861   1.147   5.989 -0.3088 -1.9701  0.8117
 1508SOL     OW16156   0.765   4.695   6.569  0.1165 -0.9004  0.0643
 1508SOL    HW116157   0.685   0.010   6.576  0.5672 -0.2415  0.1564
 1508SOL    HW216158   0.821   0.001   6.632  1.1126  0.1149 -1.5342
 1509SOL     OW16159   4.611   3.586  15.198  0.2991 -0.0091 -0.6240
 1509SOL    HW116160   4.625   3.542  15.281 -0.5272  0.7801 -0.0653
 1509SOL    HW216161   4.516   3.575  15.204  0.2645  0.1291 -0.9128
 1510SOL     OW16162   1.125   2.486   3.392  0.2708 -0.3394  0.3735
 1510SOL    HW116163   1.083   2.531   3.318 -0.1253 -0.2607  0.6486
 1510SOL    HW216164   1.165   2.408   3.354  0.4365  0.0199 -0.1999
 1511SOL     OW16165   3.704   1.693   5.626 -0.0389 -0.5335  0.4525
 1511SOL    HW116166   3.721   1.695   5.721  0.0605  0.8252  0.3983
 1511SOL    HW216167   3.702   1.786   5.606  1.6912 -0.6862 -0.3948
 1512SOL     OW16168   1.489   3.551   1.215 -0.1167  0.2852  0.5881
 1512SOL    HW116169   1.581   3.531   1.197  0.9998  4.2879  1.8902
 1512SOL    HW216170   1.499   3.630   1.267 -0.2796  0.4568  0.3569
 1513SOL     OW16171   0.909   3.782   6.824 -0.2046  0.3502  0.2582
 1513SOL    HW116172   0.857   3.826   6.756  0.8372  2.5066  0.8609
 1513SOL    HW216173   0.910   3.854   6.887  0.7412  0.3795  0.1989
 1514SOL     OW16174   1.042   1.072   7.340 -0.1468 -0.1373 -0.3274
 1514SOL    HW116175   1.101   1.146   7.353  0.5020 -0.6893 -0.1149
 1514SOL    HW216176   0.964   1.127   7.344 -0.1067 -0.0389 -0.8743
 1515SOL     OW16177   1.503   4.380   4.884  0.5499  0.6219 -0.1403
 1515SOL    HW116178   1.575   4.376   4.821  0.7659  2.0021  0.0350
 1515SOL    HW216179   1.510   4.292   4.922  2.7169  1.7314  2.0542
 1516SOL     OW16180   0.798   0.510   8.138  0.5965 -0.4266  0.4337
 1516SOL    HW116181   0.744   0.539   8.212  1.1248 -0.1578  0.7110
 1516SOL    HW216182   0.877   0.558   8.162 -0.8826  2.1096  0.2159
 1517SOL     OW16183   3.927   3.378   7.469  0.3024  0.1752  0.5067
 1517SOL    HW116184   3.998   3.380   7.405 -2.2835  0.7244 -2.4035
 1517SOL    HW216185   3.907   3.284   7.461  1.4547  0.0933 -1.4312
 1518SOL     OW16186   3.685   4.353  13.522 -0.0648  0.1161 -0.4319
 1518SOL    HW116187   3.621   4.292  13.486 -1.1375  1.1150 -0.2106
 1518SOL    HW216188   3.758   4.329  13.465 -2.3974 -1.7637 -2.5831
 1519SOL     OW16189   1.222   2.807   0.050 -0.4377  0.0916 -0.1227
 1519SOL    HW116190   1.213   2.801   0.145 -4.2294  1.7817 -0.3865
 1519SOL    HW216191   1.192   2.896   0.029 -0.3722  0.0310 -0.4691
 1520SOL     OW16192   1.776   3.644  14.178 -0.2155 -0.5234 -0.3855
 1520SOL    HW116193   1.716   3.623  14.107  0.8360  0.2863 -1.5108
 1520SOL    HW216194   1.719   3.699  14.232 -1.5584 -1.5683 -0.7240
 1521SOL     OW16195   4.643   0.565   9.866 -0.7303  0.2314 -0.1313
 1521SOL    HW116196   4.709   0.629   9.893  0.1026  0.6635 -3.1398
 1521SOL    HW216197   4.631   0.518   9.948  1.5583 -0.8159 -0.4204
 1522SOL     OW16198   0.456   0.629   3.503 -0.5193 -0.2376 -0.5385
 1522SOL    HW116199   0.534   0.612   3.450  1.2581  1.2398  1.6041
 1522SOL    HW216200   0.484   0.607   3.592  3.9759  1.7159 -1.4404
 1523SOL     OW16201   2.298   0.581   8.131  0.1259 -0.4748 -0.4375
 1523SOL    HW116202   2.346   0.662   8.110 -0.9631  0.4263  0.5560
 1523SOL    HW216203   2.252   0.566   8.049  1.4065  3.3603 -1.8739
 1524SOL     OW16204   0.951   3.117   4.027 -0.1916  0.3794  0.4340
 1524SOL    HW116205   0.895   3.195   4.031  1.1136  1.4437 -1.9848
 1524SOL    HW216206   0.970   3.096   4.118 -0.4472 -2.4597 -0.1786
 1525SOL     OW16207   4.384   0.389   2.769  0.1249  0.3848 -0.3929
 1525SOL    HW116208   4.439   0.344   2.832  0.4056 -0.8281 -1.5232
 1525SOL    HW216209   4.366   0.325   2.701 -0.3026 -2.0307  2.0132
 1526SOL     OW16210   3.832   2.636   4.395  0.0762  0.0753 -0.5557
 1526SOL    HW116211   3.819   2.547   4.425 -2.8797 -0.0030 -2.0444
 1526SOL    HW216212   3.916   2.659   4.435 -0.0930  1.4917 -0.9974
 1527SOL     OW16213   0.632   2.951  11.959  0.1035 -0.1714 -0.5123
 1527SOL    HW116214   0.554   2.940  11.904 -0.2499 -1.9367  0.3423
 1527SOL    HW216215   0.599   2.921  12.044 -1.0104 -1.3151 -1.3408
 1528SOL     OW16216   0.676   3.631   2.682  0.3408  0.6285 -0.4289
 1528SOL    HW116217   0.623   3.551   2.677  1.2299  0.0676 -0.8232
 1528SOL    HW216218   0.750   3.601   2.735 -1.5043 -2.0513  0.6173
 1529SOL     OW16219   0.358   4.085   9.039 -0.2649 -0.1020 -0.4785
 1529SOL    HW116220   0.431   4.024   9.031 -0.8065 -0.8681  0.3523
 1529SOL    HW216221   0.344   4.114   8.949 -1.4928 -0.1103 -0.2858
 1530SOL     OW16222   0.910   2.002  11.582  0.2635  0.1116  0.5996
 1530SOL    HW116223   0.875   1.924  11.625 -0.9184  0.2084 -0.1754
 1530SOL    HW216224   0.997   2.020  11.615 -0.1874 -1.8895  2.8827
 1531SOL     OW16225   3.008   1.343  10.262 -0.2918 -0.6595 -0.1371
 1531SOL    HW116226   3.000   1.384  10.176  0.1393  2.4697  1.2755
 1531SOL    HW216227   3.003   1.250  10.242  1.4105 -0.5559 -1.0628
 1532SOL     OW16228   4.632   2.207   2.454 -0.7106 -0.1260 -0.0381
 1532SOL    HW116229   4.607   2.178   2.541 -0.3232 -3.2188 -0.9515
 1532SOL    HW216230   4.549   2.209   2.406 -0.4535  0.1921 -0.4706
 1533SOL     OW16231   3.453   3.349   1.975  0.2694  0.0182 -0.3791
 1533SOL    HW116232   3.368   3.343   1.932 -0.6662  3.3042  0.9815
 1533SOL    HW216233   3.425   3.369   2.065 -1.2411 -0.1022 -0.8213
 1534SOL     OW16234   4.149   0.885   6.930  0.6042  0.1298 -0.0342
 1534SOL    HW116235   4.209   0.892   6.856 -2.4259 -0.5172 -2.5374
 1534SOL    HW216236   4.204   0.835   6.992  0.3718 -0.4993 -0.3412
 1535SOL     OW16237   3.780   2.253  10.792 -0.2918 -0.2920 -0.0093
 1535SOL    HW116238   3.867   2.220  10.812  0.5085  0.2901 -2.4957
 1535SOL    HW216239   3.725   2.175  10.793  0.5301 -0.8511  1.1771
 1536SOL     OW16240   3.922   0.352   3.112 -0.0404  0.1636 -0.2241
 1536SOL    HW116241   3.924   0.396   3.028  0.7404  0.9197  0.1911
 1536SOL    HW216242   3.856   0.286   3.089 -1.1926  0.8261  1.1543
 1537SOL     OW16243   1.762   2.328   7.605 -0.4713  0.0731  0.1608
 1537SOL    HW116244   1.681   2.295   7.644  0.8624 -2.6684  0.6475
 1537SOL    HW216245   1.745   2.372   7.521 -0.8771 -0.5899 -0.1066
 1538SOL     OW16246   1.830   2.766   8.513  0.1775  0.0325  0.7881
 1538SOL    HW116247   1.924   2.773   8.500 -0.3307  0.0873 -2.8545
 1538SOL    HW216248   1.814   2.678   8.479  2.9389  0.1459 -0.7680
 1539SOL     OW16249   2.610   3.624   3.798 -0.3982  0.1627  0.8370
 1539SOL    HW116250   2.587   3.711   3.766  0.0370  0.6272  1.7862
 1539SOL    HW216251   2.677   3.588   3.740  0.2234  1.5211  0.7213
 1540SOL     OW16252   3.223   4.173   0.143 -0.0730  0.1645 -0.3226
 1540SOL    HW116253   3.239   4.261   0.178  0.5935 -0.0098 -0.1997
 1540SOL    HW216254   3.157   4.134   0.200 -1.2577  2.3083 -0.2001
 1541SOL     OW16255   0.057   4.268   3.570  0.2895  0.6196  0.0371
 1541SOL    HW116256   0.076   4.360   3.587 -0.3305  0.3449  2.3416
 1541SOL    HW216257   0.023   4.247   3.658  0.9279  1.9387  0.5941
 1542SOL     OW16258   1.414   3.200   8.495  0.1017 -0.0176 -0.3122
 1542SOL    HW116259   1.458   3.124   8.457  0.3733  0.4315 -0.8892
 1542SOL    HW216260   1.334   3.200   8.442 -0.4059  1.1655  0.4465
 1543SOL     OW16261   4.206   0.266   9.349 -0.2992 -0.1453 -0.5505
 1543SOL    HW116262   4.228   0.266   9.442 -1.4502  1.9700 -0.2573
 1543SOL    HW216263   4.287   0.263   9.299 -0.2545 -0.3997 -0.4587
 1544SOL     OW16264   3.895   1.331   5.701 -0.6119 -0.3186  0.3046
 1544SOL    HW116265   3.892   1.323   5.796  3.1379 -1.3897  0.3301
 1544SOL    HW216266   3.986   1.318   5.673 -0.7486  1.4625 -1.0264
 1545SOL     OW16267   0.916   4.181   9.144  0.6497  0.0500  0.1972
 1545SOL    HW116268   0.992   4.131   9.174 -1.0157 -2.2356  0.6037
 1545SOL    HW216269   0.944   4.272   9.154  1.7132 -0.1095 -1.3653
 1546SOL     OW16270   2.569   0.739  10.659  0.4591  0.4398 -0.5151
 1546SOL    HW116271   2.588   0.712  10.570 -0.2906 -0.1774 -0.4884
 1546SOL    HW216272   2.483   0.782  10.652 -0.0223 -0.4849 -0.2833
 1547SOL     OW16273   0.921   1.267   1.782  0.5724  0.4882 -0.0009
 1547SOL    HW116274   0.939   1.253   1.875  0.4547  0.0368 -0.0484
 1547SOL    HW216275   0.861   1.197   1.758 -1.3759  1.9037  0.7063
 1548SOL     OW16276   1.531   1.889   6.143  0.5585 -0.4873  0.3756
 1548SOL    HW116277   1.515   1.846   6.227  0.9855  0.2455  0.8299
 1548SOL    HW216278   1.508   1.978   6.170 -1.3385 -0.9184  0.1675
 1549SOL     OW16279   4.173   4.168   2.005  0.5107 -0.1930  0.7897
 1549SOL    HW116280   4.173   4.234   1.935  0.0547 -2.3084 -1.1874
 1549SOL    HW216281   4.233   4.104   1.968 -1.5761 -0.7352 -1.6558
 1550SOL     OW16282   0.835   4.268  15.771 -0.4933  0.0146  0.0342
 1550SOL    HW116283   0.902   4.203  15.794  0.5807  0.7690 -0.9730
 1550SOL    HW216284   0.756   4.220  15.750 -0.9890  0.5520  0.6798
 1551SOL     OW16285   0.185   4.058   1.914  0.6766 -0.4169  0.1408
 1551SOL    HW116286   0.145   4.123   1.973 -1.1191  1.0333 -2.7117
 1551SOL    HW216287   0.266   4.032   1.959  1.4875  2.4771  0.4049
 1552SOL     OW16288   1.250   1.857   2.654 -0.6792 -0.1985  0.4187
 1552SOL    HW116289   1.218   1.935   2.608 -0.5524 -1.0046 -1.0482
 1552SOL    HW216290   1.275   1.905   2.733  0.3352 -1.0879  0.6324
 1553SOL     OW16291   1.391   1.223   6.121 -0.4429  0.0306  0.3267
 1553SOL    HW116292   1.472   1.274   6.115 -0.6049  0.4347  1.5404
 1553SOL    HW216293   1.373   1.202   6.030  1.8722  2.4327 -0.6515
 1554SOL     OW16294   3.804   3.820   3.138 -0.1126  0.2646 -0.3970
 1554SOL    HW116295   3.717   3.836   3.175  0.1231 -0.4070  0.4345
 1554SOL    HW216296   3.822   3.735   3.178 -0.7508  0.1980 -0.2398
 1555SOL     OW16297   0.206   3.814   4.482 -0.3308 -0.1693  0.1759
 1555SOL    HW116298   0.257   3.890   4.507  0.2190 -0.2224 -0.7653
 1555SOL    HW216299   0.186   3.772   4.566 -2.2772 -0.2160 -0.3145
 1556SOL     OW16300   1.044   1.340   3.207  0.2446 -0.3247  0.0730
 1556SOL    HW116301   0.991   1.261   3.199  1.0196 -1.0589  2.1411
 1556SOL    HW216302   1.131   1.300   3.213  0.3872  0.1134  0.8543
 1557SOL     OW16303   1.252   4.732  14.836 -0.3249  0.0469  0.3185
 1557SOL    HW116304   1.313   4.679  14.785 -1.3587 -1.3395  0.5288
 1557SOL    HW216305   1.189   0.014  14.768 -1.3742  0.0737  1.3012
 1558SOL     OW16306   4.551   4.613   5.238 -0.0764 -0.1987 -0.4489
 1558SOL    HW116307   4.634   4.581   5.275  0.4402  1.4172 -0.2357
 1558SOL    HW216308   4.569   4.705   5.219 -1.1859  0.1738  0.3499
 1559SOL     OW16309   2.913   2.948  11.283 -0.0088 -0.2597  0.2638
 1559SOL    HW116310   2.827   2.944  11.325 -0.1907 -1.4104 -0.2436
 1559SOL    HW216311   2.889   3.034  11.247 -0.0201 -0.1690  0.4832
 1560SOL     OW16312   4.332   3.245   4.084 -0.3421  0.1644 -0.0812
 1560SOL    HW116313   4.273   3.171   4.068 -0.4648  0.4938 -1.1778
 1560SOL    HW216314   4.419   3.206   4.071 -0.4611 -0.3895  0.7817
 1561SOL     OW16315   3.891   3.598   2.378 -0.2621 -0.2091  0.0577
 1561SOL    HW116316   3.931   3.666   2.432 -0.7014  0.3959 -0.3822
 1561SOL    HW216317   3.957   3.532   2.395  0.7481  0.5710 -0.8541
 1562SOL     OW16318   4.058   1.512   9.053  0.3912 -0.1868 -0.1965
 1562SOL    HW116319   4.018   1.571   9.117  1.8581 -0.6028  1.1047
 1562SOL    HW216320   3.983   1.490   8.998 -1.5028  0.4941  2.1599
 1563SOL     OW16321   3.454   0.055   5.646 -0.1127  0.3187 -0.3062
 1563SOL    HW116322   3.479   0.070   5.737 -1.2246 -0.0618  0.0527
 1563SOL    HW216323   3.382   4.735   5.667  0.7048 -0.1227  1.2890
 1564SOL     OW16324   2.243   2.369   6.805 -0.1101  0.0989 -0.2935
 1564SOL    HW116325   2.204   2.440   6.753 -1.1237 -0.8928 -0.8666
 1564SOL    HW216326   2.196   2.294   6.769 -0.2906 -0.5105  1.2541
 1565SOL     OW16327   2.585   2.814   8.997 -0.2073  0.2355  0.2844
 1565SOL    HW116328   2.585   2.889   8.937 -0.4437  1.0420  1.2947
 1565SOL    HW216329   2.593   2.738   8.940  0.6540 -0.0400  0.7742
 1566SOL     OW16330   0.211   3.656  11.665  0.6006 -0.1784  0.1196
 1566SOL    HW116331   0.239   3.747  11.671 -0.1128  0.1035 -0.7901
 1566SOL    HW216332   0.279   3.622  11.724  0.9667  1.3150  0.5438
 1567SOL     OW16333   4.146   3.147   9.442  0.2243  0.4923  0.0545
 1567SOL    HW116334   4.058   3.114   9.464  2.4229 -3.3861  2.9674
 1567SOL    HW216335   4.164   3.084   9.372  1.9145 -0.2814  1.1987
 1568SOL     OW16336   4.697   2.916   2.536  0.3081  0.0690  0.0408
 1568SOL    HW116337   4.696   2.847   2.470 -2.6351 -0.5107  0.6737
 1568SOL    HW216338   4.603   2.935   2.529  0.3745 -0.2483 -1.7527
 1569SOL     OW16339   0.468   1.585  15.267  0.0003 -0.3208  0.1363
 1569SOL    HW116340   0.389   1.538  15.293 -0.3588  0.6214  0.7394
 1569SOL    HW216341   0.434   1.631  15.190  0.0022 -0.7621 -0.1282
 1570SOL     OW16342   3.346   3.607   2.275  0.3881 -0.0512 -0.0784
 1570SOL    HW116343   3.424   3.623   2.222  1.0053  0.7917  1.0849
 1570SOL    HW216344   3.373   3.518   2.299 -0.7985 -0.3610  0.1385
 1571SOL     OW16345   0.040   4.666  16.389  0.6571  0.7135 -0.3434
 1571SOL    HW116346   0.086   4.649  16.471  1.6093  0.9495 -0.8166
 1571SOL    HW216347   0.052   4.578  16.351  0.4821 -0.2799  1.9240
 1572SOL     OW16348   4.159   3.969   0.589 -0.3582 -0.3922 -0.0317
 1572SOL    HW116349   4.157   3.932   0.677 -2.0447  2.2740  1.0461
 1572SOL    HW216350   4.076   3.944   0.549  1.6272 -3.4595 -2.2411
 1573SOL     OW16351   0.917   0.445  11.466 -0.4279  0.5995  0.2655
 1573SOL    HW116352   0.858   0.382  11.424  2.0080 -2.6186  1.7668
 1573SOL    HW216353   0.989   0.407  11.416 -1.5581  0.5970 -1.3764
 1574SOL     OW16354   3.594   4.147   3.574 -0.4010 -0.7308  0.2361
 1574SOL    HW116355   3.511   4.130   3.618  0.7866  0.2852  2.8340
 1574SOL    HW216356   3.616   4.234   3.605 -2.2063 -0.7963  1.7002
 1575SOL     OW16357   4.605   1.450   8.440  0.6049 -0.3502  0.3395
 1575SOL    HW116358   4.536   1.480   8.500 -0.0413  1.1222 -1.1291
 1575SOL    HW216359   4.610   1.516   8.371  1.1195 -0.4187  0.3067
 1576SOL     OW16360   4.037   1.259   9.634  0.5883  0.2293 -0.4896
 1576SOL    HW116361   3.991   1.342   9.623  1.2550  0.6379 -0.1853
 1576SOL    HW216362   4.034   1.248   9.729 -1.0197  1.4162 -0.4141
 1577SOL     OW16363   0.032   0.825   6.094 -0.9034  0.1335  0.1593
 1577SOL    HW116364   0.105   0.875   6.059 -0.0562 -2.0544 -1.2080
 1577SOL    HW216365   0.015   0.755   6.032  0.2330 -0.1370  0.1590
 1578SOL     OW16366   2.207   0.577   8.419  0.3013 -0.0671  0.1876
 1578SOL    HW116367   2.230   0.538   8.335 -0.0920 -2.9331  1.4178
 1578SOL    HW216368   2.266   0.651   8.406 -1.4908  1.6276  1.5637
 1579SOL     OW16369   3.086   1.638   1.868  0.0876 -0.0478 -0.5929
 1579SOL    HW116370   3.085   1.550   1.830 -0.6448 -0.6027  0.7363
 1579SOL    HW216371   3.096   1.687   1.786  2.6225 -0.8137 -0.7323
 1580SOL     OW16372   2.541   3.165   6.278  0.0758 -0.1476  0.2486
 1580SOL    HW116373   2.586   3.084   6.255  1.3730 -0.0139  2.3063
 1580SOL    HW216374   2.538   3.171   6.374  2.2455 -1.7405  0.4152
 1581SOL     OW16375   4.099   3.624   6.913  0.4003 -0.3471 -0.0623
 1581SOL    HW116376   4.081   3.585   6.828  0.6620 -0.1754 -0.2000
 1581SOL    HW216377   4.011   3.622   6.950 -0.2016  1.3132 -1.3904
 1582SOL     OW16378   4.500   2.948   5.224  0.0881 -0.0796  0.3342
 1582SOL    HW116379   4.406   2.955   5.208  0.1079 -1.2629 -0.3750
 1582SOL    HW216380   4.500   2.858   5.192  5.5420 -0.5343  1.4781
 1583SOL     OW16381   3.532   3.711   2.623 -0.1341 -0.0260  0.8685
 1583SOL    HW116382   3.560   3.674   2.539 -0.6140  0.7500  0.3673
 1583SOL    HW216383   3.463   3.774   2.602  1.0929  1.2950  0.7871
 1584SOL     OW16384   0.956   2.284   6.290  0.6699  0.3983  1.0146
 1584SOL    HW116385   0.866   2.253   6.298  1.3267 -1.9335 -0.6064
 1584SOL    HW216386   0.945   2.378   6.302  0.2177  0.6214 -1.2314
 1585SOL     OW16387   0.732   1.458   1.888 -0.3047 -0.3500  0.5630
 1585SOL    HW116388   0.807   1.510   1.857  0.2437 -1.8340 -0.6030
 1585SOL    HW216389   0.784   1.377   1.886 -1.2488 -1.0216  2.9377
 1586SOL     OW16390   3.890   3.536  15.461  0.1802 -0.0296  0.4325
 1586SOL    HW116391   3.874   3.449  15.497 -1.6471  0.3466  0.5181
 1586SOL    HW216392   3.813   3.584  15.491  2.0909  2.7383  0.8914
 1587SOL     OW16393   0.814   3.058   5.953  0.5704 -0.5153 -0.1473
 1587SOL    HW116394   0.850   2.989   6.008  2.0994  0.1677 -0.2926
 1587SOL    HW216395   0.748   3.004   5.908 -1.6284  2.7814 -0.9066
 1588SOL     OW16396   3.785   1.010   7.176 -0.7077 -0.1129  0.1806
 1588SOL    HW116397   3.773   1.105   7.178  0.2128  0.0270 -1.3793
 1588SOL    HW216398   3.693   0.983   7.173 -0.8988  0.5691 -0.1085
 1589SOL     OW16399   1.550   2.385  10.035  0.3022  0.3183  0.4852
 1589SOL    HW116400   1.488   2.335  10.089 -1.7180 -0.0456 -2.1695
 1589SOL    HW216401   1.517   2.473  10.054  0.2356  0.2229  0.8191
 1590SOL     OW16402   4.281   3.709   5.390  0.4271 -0.4308  0.4617
 1590SOL    HW116403   4.348   3.641   5.382 -0.1518 -0.5670 -3.1417
 1590SOL    HW216404   4.252   3.691   5.479 -1.0059 -0.1668  0.0443
 1591SOL     OW16405   3.077   4.190  11.834 -0.5628  0.3799  0.4360
 1591SOL    HW116406   3.084   4.157  11.745  1.7925  2.1083 -0.0190
 1591SOL    HW216407   3.014   4.123  11.861 -0.7786  0.4859  0.1817
 1592SOL     OW16408   0.425   0.884  16.582 -0.2227  0.3565  0.5407
 1592SOL    HW116409   0.486   0.859  16.512 -0.9039 -0.8689  0.3927
 1592SOL    HW216410   0.430   0.799  16.626  1.6934  0.4532  0.5033
 1593SOL     OW16411   3.271   2.883  10.909  0.2746 -0.5442  0.0216
 1593SOL    HW116412   3.203   2.911  10.970 -0.3239 -2.0260  0.0541
 1593SOL    HW216413   3.321   2.826  10.967 -3.8046 -1.7052  2.4117
 1594SOL     OW16414   3.652   1.712   4.321 -0.0590 -0.2404 -0.0626
 1594SOL    HW116415   3.726   1.689   4.265  0.1686 -1.0634  0.5811
 1594SOL    HW216416   3.641   1.628   4.365 -0.6217  0.5894  1.3802
 1595SOL     OW16417   4.045   2.853   6.902 -0.2422 -0.3590 -0.1747
 1595SOL    HW116418   3.997   2.931   6.931 -0.3484 -0.8804  1.0484
 1595SOL    HW216419   3.974   2.795   6.876  0.8333 -0.9880 -1.7261
 1596SOL     OW16420   0.343   4.494   2.954  0.3107  0.0966  0.1379
 1596SOL    HW116421   0.324   4.402   2.934 -0.0011 -0.0657  1.1644
 1596SOL    HW216422   0.258   4.537   2.966  0.8322  0.9302  0.8333
 1597SOL     OW16423   4.629   3.590   1.723 -0.7704 -0.9325 -0.0689
 1597SOL    HW116424   4.583   3.595   1.806  3.2912  3.8714  1.9017
 1597SOL    HW216425   4.628   3.500   1.691 -0.7868 -0.8355 -0.3504
 1598SOL     OW16426   0.059   1.270   6.879  0.3298  0.2732 -0.4166
 1598SOL    HW116427   0.130   1.214   6.911 -1.6015 -1.2227  1.2494
 1598SOL    HW216428   0.059   1.253   6.785 -1.7338 -1.7186 -0.0438
 1599SOL     OW16429   4.538   0.293   6.338 -0.6450 -0.2017 -0.1566
 1599SOL    HW116430   4.480   0.324   6.269  1.6582  0.4665 -1.7672
 1599SOL    HW216431   4.480   0.230   6.381 -2.3718  1.0474 -0.6852
 1600SOL     OW16432   2.923   1.126   3.444 -0.0844 -0.0874  0.0604
 1600SOL    HW116433   2.948   1.209   3.485  0.2018  0.4320 -1.1552
 1600SOL    HW216434   2.833   1.121   3.474 -0.6052  0.5470 -1.3797
 1601SOL     OW16435   0.561   4.372   6.347  0.1881 -0.5070 -0.4842
 1601SOL    HW116436   0.650   4.371   6.381  0.0346  1.4647 -0.0425
 1601SOL    HW216437   0.548   4.278   6.356  0.0923 -0.1656  2.8544
 1602SOL     OW16438   3.140   2.015   6.874 -0.1434  0.5159  0.0738
 1602SOL    HW116439   3.073   2.024   6.941 -1.5438 -0.2665 -1.2022
 1602SOL    HW216440   3.210   2.078   6.890  1.5361 -1.4958  0.6099
 1603SOL     OW16441   0.007   4.715  14.034  0.3845 -0.3768 -0.0400
 1603SOL    HW116442   0.076   0.029  14.073 -0.0255  0.2318 -0.1379
 1603SOL    HW216443   4.691   0.046  13.997  2.3639  2.6025  2.6492
 1604SOL     OW16444   0.261   1.128   7.053  0.0115 -0.1753 -0.1336
 1604SOL    HW116445   0.349   1.125   7.015  0.1844  0.7561  0.1896
 1604SOL    HW216446   0.235   1.043   7.018  1.9475  0.0246 -2.0902
 1605SOL     OW16447   0.411   3.121  10.581  0.1220  0.4606 -0.1182
 1605SOL    HW116448   0.363   3.199  10.608  0.0747  0.8059 -1.1992
 1605SOL    HW216449   0.489   3.132  10.636  0.6998 -0.5742 -0.7194
 1606SOL     OW16450   0.367   0.827   0.080 -0.4155 -0.1274  0.1779
 1606SOL    HW116451   0.394   0.842  17.743 -1.7357  1.7205  0.0874
 1606SOL    HW216452   0.391   0.910   0.121 -3.2454  1.2025 -0.9188
 1607SOL     OW16453   3.325   4.316   3.379  0.3666  0.0558  0.2425
 1607SOL    HW116454   3.397   4.377   3.361  0.4915 -0.9652 -2.6309
 1607SOL    HW216455   3.290   4.360   3.457 -0.0419  2.0214 -1.0411
 1608SOL     OW16456   2.788   1.632   3.814  0.5568  0.3327 -0.3729
 1608SOL    HW116457   2.872   1.676   3.823  0.1125  0.7474  1.7712
 1608SOL    HW216458   2.787   1.603   3.723 -0.9107 -0.2324 -0.1801
 1609SOL     OW16459   1.353   0.222  15.784  0.1506  0.6266 -0.7848
 1609SOL    HW116460   1.274   0.275  15.776 -0.1602  0.3287  0.2718
 1609SOL    HW216461   1.376   0.248  15.874 -1.7725 -0.4059  0.0023
 1610SOL     OW16462   2.892   0.900   4.711  0.4435 -0.2287  0.8393
 1610SOL    HW116463   2.840   0.838   4.763  1.3150 -1.2283  0.5125
 1610SOL    HW216464   2.943   0.845   4.651 -1.7101  0.1585 -1.3469
 1611SOL     OW16465   0.751   1.910   5.378 -0.2162 -0.0363  0.3842
 1611SOL    HW116466   0.844   1.924   5.399  0.6124 -3.5195 -1.0372
 1611SOL    HW216467   0.766   1.879   5.289 -0.2546 -1.6657  0.9524
 1612SOL     OW16468   4.361   1.082  15.852 -0.3055 -0.3501 -0.2181
 1612SOL    HW116469   4.412   1.060  15.930  0.3484 -0.5180 -0.6982
 1612SOL    HW216470   4.299   1.011  15.864 -1.5562  1.0024  1.3438
 1613SOL     OW16471   1.899   0.828   4.406 -0.3272 -0.3191  0.2317
 1613SOL    HW116472   1.920   0.775   4.483 -0.8872 -1.6889 -0.5475
 1613SOL    HW216473   1.973   0.807   4.349 -0.9285 -2.9687  0.4486
 1614SOL     OW16474   0.744   2.344   6.955 -0.5061 -0.2369  0.4229
 1614SOL    HW116475   0.749   2.432   6.994 -1.8404 -0.0809  0.2435
 1614SOL    HW216476   0.810   2.295   7.005  0.1395  0.4291  0.2368
 1615SOL     OW16477   3.965   0.603   6.894  0.0337  0.0247  0.0537
 1615SOL    HW116478   3.951   0.665   6.965 -1.3015  0.5776 -0.6782
 1615SOL    HW216479   3.874   0.579   6.874  0.7649 -3.6973  1.1855
 1616SOL     OW16480   1.369   3.402  15.307 -0.2366  0.0785  0.0749
 1616SOL    HW116481   1.307   3.464  15.269  0.0301  0.3478  0.0723
 1616SOL    HW216482   1.326   3.321  15.279  1.6454 -1.0043  0.2887
 1617SOL     OW16483   2.464   3.705   9.895  0.7637  0.1322  0.3054
 1617SOL    HW116484   2.432   3.783   9.850  1.1318 -0.0873 -0.3457
 1617SOL    HW216485   2.559   3.706   9.886  0.8529 -0.0569  1.2880
 1618SOL     OW16486   0.125   0.827   1.835  0.2792 -0.2114  1.2049
 1618SOL    HW116487   0.100   0.746   1.791  1.9152 -0.1288  0.1014
 1618SOL    HW216488   0.084   0.808   1.919 -2.2055  1.2335  0.3057
 1619SOL     OW16489   2.341   4.710   6.122 -0.5151  0.0101 -0.0407
 1619SOL    HW116490   2.314   0.008   6.038  1.4162 -0.6117 -0.9144
 1619SOL    HW216491   2.431   4.686   6.102 -0.4867 -0.9139  1.2276
 1620SOL     OW16492   2.484   1.902   8.136 -0.2715  0.1853  0.4336
 1620SOL    HW116493   2.573   1.933   8.119 -0.3039 -1.6211 -2.9675
 1620SOL    HW216494   2.438   1.984   8.122 -0.1909  0.2461  0.5218
 1621SOL     OW16495   3.426   0.666   1.493  0.4474 -0.2584  0.2449
 1621SOL    HW116496   3.332   0.677   1.478  0.6093 -0.7786 -1.2010
 1621SOL    HW216497   3.426   0.572   1.477  3.4880 -0.3580  0.8210
 1622SOL     OW16498   4.513   4.257   8.464 -0.1205  0.6595 -0.2849
 1622SOL    HW116499   4.570   4.192   8.422  1.5722  2.6304 -1.0372
 1622SOL    HW216500   4.424   4.232   8.440  0.1468 -1.5940  1.0202
 1623SOL     OW16501   3.510   1.521  10.609  0.0066  0.0431  0.0811
 1623SOL    HW116502   3.478   1.431  10.602 -0.7007  0.2449  0.6856
 1623SOL    HW216503   3.431   1.571  10.585  0.1937 -0.1905 -1.0411
 1624SOL     OW16504   0.790   1.993   1.754  0.0636 -0.1484 -0.1086
 1624SOL    HW116505   0.802   1.921   1.815 -1.2089 -1.3490 -1.2570
 1624SOL    HW216506   0.719   1.953   1.703  0.3102 -1.6380  0.7318
 1625SOL     OW16507   4.428   3.449  14.914  0.6973 -0.0411 -0.0040
 1625SOL    HW116508   4.505   3.505  14.905  0.0611  0.4345 -2.7870
 1625SOL    HW216509   4.363   3.519  14.908  3.4313  2.2751 -2.7938
 1626SOL     OW16510   0.373   1.287   5.646 -0.0123  0.4191 -0.8828
 1626SOL    HW116511   0.317   1.213   5.625  2.0730 -0.9227 -1.7338
 1626SOL    HW216512   0.397   1.277   5.738 -0.4215  1.2155 -0.6933
 1627SOL     OW16513   3.764   4.497   9.400  0.7473  0.4295  0.1032
 1627SOL    HW116514   3.832   4.528   9.459  1.4973 -2.4557  0.7105
 1627SOL    HW216515   3.700   4.466   9.465 -0.8505  2.9572 -0.2217
 1628SOL     OW16516   3.531   2.268   4.734  0.2896  0.1026  0.1129
 1628SOL    HW116517   3.550   2.186   4.688 -4.7998 -1.9780  1.7451
 1628SOL    HW216518   3.502   2.318   4.658 -0.7725  1.3275  1.3371
 1629SOL     OW16519   2.752   2.488  17.742  0.2274 -0.3503  0.2028
 1629SOL    HW116520   2.772   2.544  17.666  0.3452  0.9922  1.2209
 1629SOL    HW216521   2.815   2.515   0.055  0.6409 -0.4683 -0.1377
 1630SOL     OW16522   2.200   2.034   5.137 -0.0617 -0.0191  0.4111
 1630SOL    HW116523   2.281   1.998   5.101  0.2332  0.1733  0.8870
 1630SOL    HW216524   2.194   1.968   5.206 -1.3257 -0.4103 -0.0686
 1631SOL     OW16525   4.460   0.955   4.739  0.1872  0.1426  0.2794
 1631SOL    HW116526   4.472   0.878   4.683 -2.4583  0.2647 -0.4462
 1631SOL    HW216527   4.546   0.996   4.733 -0.2736  1.2426  1.1189
 1632SOL     OW16528   4.607   2.266   8.378 -0.0062  0.1196  0.1278
 1632SOL    HW116529   4.649   2.183   8.355 -0.3271 -0.0051 -0.0004
 1632SOL    HW216530   4.533   2.260   8.318  0.5247 -1.3204 -0.3846
 1633SOL     OW16531   1.515   3.703  16.896 -0.1355 -0.4799 -0.1223
 1633SOL    HW116532   1.565   3.687  16.816  2.0117 -0.2114  1.1679
 1633SOL    HW216533   1.438   3.750  16.866  1.0925  2.5563  1.4764
 1634SOL     OW16534   0.538   4.037   3.623  0.0921 -0.0173  0.6222
 1634SOL    HW116535   0.626   4.018   3.656  0.5783 -3.4329 -2.7273
 1634SOL    HW216536   0.536   3.987   3.542 -1.2292 -1.6161  1.6473
 1635SOL     OW16537   4.676   3.705  16.992 -0.3072 -0.4898  0.7972
 1635SOL    HW116538   4.604   3.733  16.935  1.6195  0.0456 -1.3684
 1635SOL    HW216539   4.638   3.741  17.072 -2.6962  3.2363 -1.9669
 1636SOL     OW16540   2.396   0.915   6.294 -0.1541 -0.1000 -0.2627
 1636SOL    HW116541   2.429   0.964   6.219 -2.9668  0.5674 -1.0429
 1636SOL    HW216542   2.337   0.855   6.248 -0.9186  1.5019 -1.3571
 1637SOL     OW16543   0.687   4.727  12.867  0.4577  0.3280 -0.6912
 1637SOL    HW116544   0.622   4.665  12.899  0.7119  1.1852  1.4742
 1637SOL    HW216545   0.766   4.684  12.898 -0.2187 -1.0413 -0.8432
 1638SOL     OW16546   0.448   3.336   8.472  0.2020 -0.2774  0.2221
 1638SOL    HW116547   0.513   3.346   8.401 -1.2916 -0.1944 -1.1278
 1638SOL    HW216548   0.514   3.293   8.526  1.3037 -1.3427 -1.9314
 1639SOL     OW16549   0.974   0.821   6.684 -0.7600 -0.2004 -0.0170
 1639SOL    HW116550   0.957   0.852   6.773 -3.3184 -0.2756 -0.4703
 1639SOL    HW216551   0.984   0.903   6.635 -0.1751 -0.7048 -0.7407
 1640SOL     OW16552   3.359   3.966   1.003 -0.5122 -0.0723  0.1171
 1640SOL    HW116553   3.450   3.934   1.000  0.0882  1.8232 -1.3598
 1640SOL    HW216554   3.333   3.948   1.093  0.3998 -0.3613  0.3324
 1641SOL     OW16555   2.664   3.906   8.461 -0.0328 -0.3075 -0.3910
 1641SOL    HW116556   2.687   3.983   8.408 -1.6525  0.2717 -0.2619
 1641SOL    HW216557   2.688   3.927   8.552 -0.7054  0.3025 -0.3488
 1642SOL     OW16558   1.611   0.724   6.765 -0.2772  0.4854  0.2564
 1642SOL    HW116559   1.675   0.661   6.799  0.0218 -0.6851 -2.4375
 1642SOL    HW216560   1.650   0.759   6.685 -0.2608 -0.2392 -0.0532
 1643SOL     OW16561   1.409   2.593   9.429 -0.1113 -0.1784  0.3053
 1643SOL    HW116562   1.494   2.550   9.416 -0.2807 -0.0920 -1.1298
 1643SOL    HW216563   1.381   2.610   9.339 -0.6098  2.1376  0.8989
 1644SOL     OW16564   0.329   0.885   6.902  0.1128 -1.0055 -0.4715
 1644SOL    HW116565   0.241   0.855   6.879  0.2206 -2.0772  0.5347
 1644SOL    HW216566   0.372   0.808   6.938  0.0206 -0.0018  1.7479
 1645SOL     OW16567   2.739   3.896   0.407  0.4262  0.6685  0.0303
 1645SOL    HW116568   2.815   3.925   0.357  0.4276 -1.0730 -0.9817
 1645SOL    HW216569   2.773   3.855   0.487 -0.7427 -0.2718  0.0507
 1646SOL     OW16570   3.048   3.033  10.776 -0.6774  0.0568 -0.2999
 1646SOL    HW116571   3.034   3.111  10.724 -0.0949  0.4638  0.1569
 1646SOL    HW216572   3.139   3.009  10.758 -0.7627 -1.2897  1.0157
 1647SOL     OW16573   1.030   4.250   7.707 -0.1053  0.1264  0.2267
 1647SOL    HW116574   0.992   4.255   7.795 -0.5931  0.4439  0.0021
 1647SOL    HW216575   1.122   4.254   7.733  0.1200  2.3149 -0.9261
 1648SOL     OW16576   1.334   0.411   3.170 -0.6230 -0.0305 -0.5924
 1648SOL    HW116577   1.397   0.454   3.227  0.4222 -1.8984 -0.3415
 1648SOL    HW216578   1.287   0.352   3.229 -0.1844  1.8370  1.6217
 1649SOL     OW16579   3.343   0.931  10.554  0.5190  0.2640  0.3093
 1649SOL    HW116580   3.301   1.007  10.513  0.3040 -1.6961 -3.1088
 1649SOL    HW216581   3.435   0.951  10.542  0.0082  2.8102  0.6445
 1650SOL     OW16582   0.318   2.447  12.225  0.4362 -0.5599  0.0315
 1650SOL    HW116583   0.273   2.369  12.195  0.3785 -0.4139 -0.2682
 1650SOL    HW216584   0.271   2.457  12.307  2.2603 -0.4759  1.0603
 1651SOL     OW16585   4.310   2.196   8.690 -0.2699  0.2622  0.4233
 1651SOL    HW116586   4.398   2.179   8.724 -0.4841 -1.8256 -0.0586
 1651SOL    HW216587   4.295   2.110   8.652  3.9249  0.1683 -1.0389
 1652SOL     OW16588   0.222   2.517   4.443  0.0641 -0.2948 -0.3018
 1652SOL    HW116589   0.197   2.590   4.387  0.8064  0.2617  0.0745
 1652SOL    HW216590   0.306   2.495   4.401 -0.2900  1.1458 -1.7562
 1653SOL     OW16591   1.436   2.998  17.420 -0.3796  0.5593  0.0932
 1653SOL    HW116592   1.349   2.963  17.436  0.3549 -0.9839  0.7304
 1653SOL    HW216593   1.500   2.934  17.452  0.8462  1.1108 -1.2944
 1654SOL     OW16594   0.419   3.665   2.154 -0.0866  0.0239 -0.2676
 1654SOL    HW116595   0.398   3.719   2.229 -0.1716 -0.2087 -0.1252
 1654SOL    HW216596   0.425   3.578   2.192  0.1484 -0.0194 -0.4030
 1655SOL     OW16597   0.608   2.564   5.882 -0.2748 -0.0066  0.1179
 1655SOL    HW116598   0.552   2.497   5.842  0.4306 -0.1583 -0.6002
 1655SOL    HW216599   0.619   2.527   5.970  2.1022  1.2113  0.3201
 1656SOL     OW16600   2.281   0.567   0.173 -0.2670  0.3084 -0.2794
 1656SOL    HW116601   2.336   0.635   0.135  0.1199  1.3006  2.0538
 1656SOL    HW216602   2.200   0.582   0.124  0.4941  0.5242 -1.4757
 1657SOL     OW16603   1.170   4.446   2.043 -0.1825  0.2897 -0.3178
 1657SOL    HW116604   1.251   4.399   2.025 -0.1133  0.1730  0.2849
 1657SOL    HW216605   1.206   4.518   2.094  1.6726 -1.4042  0.7837
 1658SOL     OW16606   3.942   4.092  14.534  0.2102  0.2795  0.0163
 1658SOL    HW116607   3.875   4.079  14.467 -0.7385  0.8198  0.8419
 1658SOL    HW216608   3.939   4.186  14.517  2.8820  0.2330 -0.6394
 1659SOL     OW16609   2.754   1.885   8.075  0.1187 -0.0643  0.0158
 1659SOL    HW116610   2.755   1.917   7.984  0.0307  1.6000  0.6018
 1659SOL    HW216611   2.845   1.865   8.093 -0.7098 -0.5957  3.4727
 1660SOL     OW16612   3.972   2.733  15.323  0.8380 -0.3095 -0.1711
 1660SOL    HW116613   3.913   2.737  15.249 -0.7758  1.1174  1.2094
 1660SOL    HW216614   3.997   2.641  15.317 -2.0196 -1.0802 -0.1805
 1661SOL     OW16615   2.424   3.302   9.871  0.0525 -0.0298 -0.0459
 1661SOL    HW116616   2.384   3.286   9.786 -1.0174 -0.5305  0.5531
 1661SOL    HW216617   2.382   3.231   9.919 -0.2234 -1.1082 -1.8928
 1662SOL     OW16618   0.891   2.346   8.093 -0.6760  0.4698  0.5146
 1662SOL    HW116619   0.915   2.429   8.134 -1.4521  0.2158  1.4637
 1662SOL    HW216620   0.914   2.284   8.162  1.1963  0.7545  0.1528
 1663SOL     OW16621   0.034   2.933  16.813  0.1649 -0.0386  0.0996
 1663SOL    HW116622   0.074   2.995  16.874 -0.3356 -0.2622  0.6597
 1663SOL    HW216623   0.010   2.984  16.735 -2.1024  0.5551  1.1681
 1664SOL     OW16624   2.464   1.339   5.780 -0.0817  0.4422 -0.3554
 1664SOL    HW116625   2.471   1.245   5.791  0.0859  0.6395  1.3467
 1664SOL    HW216626   2.539   1.369   5.831  0.8165 -0.0679 -1.3888
 1665SOL     OW16627   4.486   0.138   3.573  0.2365 -0.1382 -0.2223
 1665SOL    HW116628   4.565   0.139   3.519  1.3355  0.7059  1.4298
 1665SOL    HW216629   4.412   0.150   3.513  2.0850  4.1713 -1.6768
 1666SOL     OW16630   2.813   3.251   1.946  0.5380  0.5128 -0.4059
 1666SOL    HW116631   2.813   3.163   1.984  2.1097  0.4962 -0.4161
 1666SOL    HW216632   2.828   3.226   1.855  3.8126 -0.7869  0.4632
 1667SOL     OW16633   0.097   3.002   7.655  0.2281  0.6421  0.3408
 1667SOL    HW116634   0.069   2.948   7.581 -0.6156  2.0141 -0.3477
 1667SOL    HW216635   0.045   2.972   7.730  0.3486 -0.7465 -0.1257
 1668SOL     OW16636   0.054   1.379   2.761 -0.9348 -0.0286  0.2293
 1668SOL    HW116637   0.084   1.407   2.848 -0.5328 -2.6141  0.9086
 1668SOL    HW216638   0.108   1.437   2.707  0.9618 -0.3440  1.7750
 1669SOL     OW16639   4.339   1.542   8.311 -0.3655  0.0126 -0.0705
 1669SOL    HW116640   4.246   1.526   8.295 -0.3236 -0.3678  0.0715
 1669SOL    HW216641   4.325   1.616   8.371  2.6244  0.4860  0.0178
 1670SOL     OW16642   0.501   1.382   9.685 -0.3767  0.4813 -0.4712
 1670SOL    HW116643   0.514   1.473   9.709  0.9856  0.4133 -0.9540
 1670SOL    HW216644   0.421   1.383   9.632 -1.1084 -1.2144  0.5845
 1671SOL     OW16645   0.950   3.655   9.369 -0.2664 -0.0451  0.3913
 1671SOL    HW116646   0.971   3.745   9.393  1.0924  0.0760 -1.2184
 1671SOL    HW216647   1.032   3.608   9.382  0.2421  0.3624 -1.4001
 1672SOL     OW16648   3.878   4.696  12.309 -0.4829 -0.4464 -0.2481
 1672SOL    HW116649   3.826   0.034  12.286  0.2615  0.4404  0.9841
 1672SOL    HW216650   3.834   4.635  12.250 -0.7956 -0.8352  0.3899
 1673SOL     OW16651   1.694   1.758  11.643  0.2330 -0.1507  0.1552
 1673SOL    HW116652   1.681   1.789  11.554  2.1189 -0.8157 -0.3424
 1673SOL    HW216653   1.608   1.725  11.669  0.2109 -0.4941 -0.3506
 1674SOL     OW16654   4.552   2.509  11.214 -0.0691  0.3699  0.2070
 1674SOL    HW116655   4.603   2.466  11.145 -0.0035  0.4066  0.2329
 1674SOL    HW216656   4.463   2.473  11.212  0.1041 -0.0712  0.3238
 1675SOL     OW16657   4.271   2.118  15.840  0.7468 -0.4660  0.2138
 1675SOL    HW116658   4.195   2.119  15.781  0.1325  0.2178  1.0172
 1675SOL    HW216659   4.229   2.076  15.915  1.1688  0.1667  0.7907
 1676SOL     OW16660   2.099   1.302   1.848 -0.2738  0.0551  0.1372
 1676SOL    HW116661   2.159   1.373   1.826 -0.8993  0.7867  0.7840
 1676SOL    HW216662   2.116   1.282   1.940  0.4965  0.0477 -0.0083
 1677SOL     OW16663   4.382   0.580   3.114 -0.4880  0.1307 -0.2643
 1677SOL    HW116664   4.421   0.584   3.027  1.0662 -0.3485  0.3997
 1677SOL    HW216665   4.296   0.612   3.088 -0.5364  0.7520  0.6724
 1678SOL     OW16666   0.358   3.724   6.898  0.0392 -0.0975  0.3467
 1678SOL    HW116667   0.395   3.636   6.906  0.3234  0.1008  1.3359
 1678SOL    HW216668   0.438   3.774   6.919 -0.3696  0.4891  0.5222
 1679SOL     OW16669   1.171   1.416   4.532  0.3936 -0.3666  0.6231
 1679SOL    HW116670   1.254   1.390   4.492 -0.9978 -4.2942  0.3315
 1679SOL    HW216671   1.132   1.472   4.465  1.9895  0.2548  0.2197
 1680SOL     OW16672   2.952   4.155   2.626  0.2280 -0.1391  0.0973
 1680SOL    HW116673   2.986   4.095   2.561 -3.2819 -2.5314  0.4721
 1680SOL    HW216674   2.887   4.102   2.672  0.6446  0.6645  1.6177
 1681SOL     OW16675   4.338   3.002   1.223  0.7866  0.6528 -0.5093
 1681SOL    HW116676   4.321   2.937   1.291 -0.9807  1.6258 -0.0304
 1681SOL    HW216677   4.431   2.983   1.213  0.7664  1.3558 -1.9215
 1682SOL     OW16678   4.297   4.727  17.202  0.1272  0.0407  0.0955
 1682SOL    HW116679   4.346   0.060  17.242 -0.6394 -0.4927  1.9923
 1682SOL    HW216680   4.364   4.689  17.145 -0.5298 -0.5498 -0.2931
 1683SOL     OW16681   0.368   3.372   6.810  0.8852 -0.8095 -0.4847
 1683SOL    HW116682   0.298   3.329   6.760  0.2429 -1.3729  0.9189
 1683SOL    HW216683   0.323   3.401   6.889 -1.5085 -2.1110 -1.3753
 1684SOL     OW16684   0.257   2.604   2.073 -0.1978  0.0459  0.4232
 1684SOL    HW116685   0.238   2.698   2.079 -0.2432 -0.0118  1.1203
 1684SOL    HW216686   0.320   2.611   2.002 -0.7730 -2.1254 -0.2848
 1685SOL     OW16687   0.122   0.540   0.369 -0.2260 -0.2188  0.3381
 1685SOL    HW116688   0.134   0.544   0.274 -0.4944 -2.3259  0.2044
 1685SOL    HW216689   0.208   0.574   0.392  0.7778 -2.5012  0.0496
 1686SOL     OW16690   0.152   1.343   8.447 -1.0740  0.7021 -0.0197
 1686SOL    HW116691   0.063   1.371   8.468 -1.1842 -0.4937  1.0897
 1686SOL    HW216692   0.162   1.402   8.372  0.2802 -2.3032 -2.1872
 1687SOL     OW16693   3.475   2.109   7.756 -0.6289  0.5810  0.1350
 1687SOL    HW116694   3.431   2.027   7.735 -0.0293  0.0322  1.0109
 1687SOL    HW216695   3.557   2.101   7.707  0.1582  0.5201  1.4611
 1688SOL     OW16696   2.795   4.405   2.575  0.4787  0.4779 -0.1953
 1688SOL    HW116697   2.825   4.317   2.599 -2.4474 -0.1472  1.1415
 1688SOL    HW216698   2.730   4.425   2.641  0.6041 -1.9424  0.6718
 1689SOL     OW16699   3.226   2.379   2.815 -0.0490 -0.4566 -0.5929
 1689SOL    HW116700   3.194   2.421   2.894  1.9442  0.5403 -0.3201
 1689SOL    HW216701   3.143   2.366   2.770 -0.5078 -1.1639  0.4564
 1690SOL     OW16702   2.847   0.464   1.394  0.8083 -0.4635 -0.1661
 1690SOL    HW116703   2.939   0.483   1.373  0.7077 -0.0393 -0.2275
 1690SOL    HW216704   2.800   0.521   1.333  0.0114  0.5932  1.4335
 1691SOL     OW16705   4.144   2.831   7.280  0.0530 -0.5956  0.0162
 1691SOL    HW116706   4.097   2.767   7.226  1.7522 -2.3759  0.6520
 1691SOL    HW216707   4.118   2.916   7.243 -0.7985 -0.3427  1.1908
 1692SOL     OW16708   2.676   0.898   7.086  0.9003  0.0786 -0.0389
 1692SOL    HW116709   2.621   0.911   7.164 -0.1562 -1.5031 -0.5361
 1692SOL    HW216710   2.613   0.931   7.023  2.0445 -0.3090 -1.3758
 1693SOL     OW16711   2.541   4.034  13.744 -0.0585 -0.3535  0.2890
 1693SOL    HW116712   2.567   4.126  13.750  2.9802 -1.1115 -1.0139
 1693SOL    HW216713   2.616   3.983  13.775  0.5341 -1.1317 -2.4111
 1694SOL     OW16714   2.313   1.700   2.644  0.5023  0.6272 -0.5282
 1694SOL    HW116715   2.396   1.693   2.597 -0.0307 -1.3490 -1.1833
 1694SOL    HW216716   2.313   1.789   2.681 -0.4932 -0.3208  1.7126
 1695SOL     OW16717   1.516   0.599   8.534  0.3844  0.0009 -1.2369
 1695SOL    HW116718   1.470   0.524   8.572 -0.8811  0.6542 -1.4800
 1695SOL    HW216719   1.593   0.605   8.590  0.4153  1.4710 -1.4320
 1696SOL     OW16720   3.197   2.595  14.553  0.1331 -0.0672 -0.0054
 1696SOL    HW116721   3.271   2.541  14.577 -0.5207 -0.6922  0.6037
 1696SOL    HW216722   3.237   2.682  14.558  0.9873 -0.5137  0.8802
 1697SOL     OW16723   2.295   3.808   8.908 -0.5363  0.0284 -0.2012
 1697SOL    HW116724   2.231   3.768   8.967 -0.4814 -0.4922 -0.4985
 1697SOL    HW216725   2.266   3.773   8.823 -1.0013  0.9962 -0.4430
 1698SOL     OW16726   1.903   4.167  11.801 -0.6553  0.4879 -0.1099
 1698SOL    HW116727   1.931   4.130  11.717 -0.5463 -1.2465  0.6994
 1698SOL    HW216728   1.857   4.088  11.828  0.1565  0.4610  1.1912
 1699SOL     OW16729   4.050   1.935   7.911  0.2861  0.3681 -0.0442
 1699SOL    HW116730   4.084   1.958   7.824 -1.4249  0.9055 -0.5620
 1699SOL    HW216731   4.095   1.852   7.925  0.9677  0.6648 -0.4519
 1700SOL     OW16732   4.366   3.245  10.010  0.3887  0.2191 -0.2723
 1700SOL    HW116733   4.287   3.230  10.061 -0.9765  2.7379 -1.6579
 1700SOL    HW216734   4.395   3.328  10.048  1.5800 -0.6075  0.6608
 1701SOL     OW16735   2.693   0.503   3.650  0.0127  0.0601 -0.3410
 1701SOL    HW116736   2.774   0.547   3.677  0.2478  0.8347 -2.2949
 1701SOL    HW216737   2.693   0.430   3.711  1.3483 -0.5638 -1.0982
 1702SOL     OW16738   1.673   1.855   2.424  0.2689  0.5502  0.7744
 1702SOL    HW116739   1.586   1.829   2.454 -0.3391  0.4620 -1.0701
 1702SOL    HW216740   1.719   1.771   2.422 -2.5507 -0.8808 -3.1188
 1703SOL     OW16741   2.787   2.911   8.084  0.0969  0.3557  0.1535
 1703SOL    HW116742   2.752   2.831   8.122 -0.6816  0.0109 -1.2727
 1703SOL    HW216743   2.754   2.988   8.130 -2.3535 -1.5132  1.4492
 1704SOL     OW16744   2.195   3.398   3.149 -0.5142 -0.2040  0.7056
 1704SOL    HW116745   2.278   3.367   3.113 -1.2707 -2.8373  1.1970
 1704SOL    HW216746   2.126   3.348   3.106  0.1665  1.0788 -1.8628
 1705SOL     OW16747   2.495   0.337   0.021  0.0911 -0.3907  0.0670
 1705SOL    HW116748   2.448   0.378  17.703  0.0994 -0.2493  0.1425
 1705SOL    HW216749   2.583   0.339  17.737 -0.0999  0.7760 -0.3109
 1706SOL     OW16750   3.430   4.135   8.084  0.1071  0.3226 -0.2390
 1706SOL    HW116751   3.458   4.110   8.172  0.6916  0.7164 -0.3123
 1706SOL    HW216752   3.335   4.145   8.096 -0.1044 -0.7404 -1.0201
 1707SOL     OW16753   3.008   4.211   3.023 -0.0758 -0.0840 -0.1989
 1707SOL    HW116754   3.043   4.200   2.934  2.7811  0.6973  0.8411
 1707SOL    HW216755   3.088   4.210   3.075  1.2489 -3.2952 -2.3260
 1708SOL     OW16756   3.926   2.154   8.880  0.0986 -0.0459 -0.1761
 1708SOL    HW116757   3.858   2.181   8.818 -0.2640 -2.6679 -0.9168
 1708SOL    HW216758   3.976   2.234   8.895  1.0571 -1.1095  2.3050
 1709SOL     OW16759   4.228   3.253  12.527  0.1212  0.3378  0.2905
 1709SOL    HW116760   4.289   3.327  12.530  0.1449  0.3253  0.0789
 1709SOL    HW216761   4.291   3.182  12.539  0.1333  0.2572 -0.2824
 1710SOL     OW16762   1.763   0.844  17.200  0.1494 -0.1703  0.0818
 1710SOL    HW116763   1.675   0.849  17.163 -0.4726 -2.1346  1.3422
 1710SOL    HW216764   1.792   0.932  17.172  1.7049 -1.2323 -1.6661
 1711SOL     OW16765   0.115   2.811  14.046  0.2043  0.3403 -0.5486
 1711SOL    HW116766   0.160   2.734  14.010  1.4331  1.1780 -0.8152
 1711SOL    HW216767   0.194   2.865  14.044 -1.0787  2.3131  2.0304
 1712SOL     OW16768   0.690   0.829  16.397 -0.5235 -0.2467  0.7237
 1712SOL    HW116769   0.692   0.921  16.373  0.1989 -0.5563 -0.3841
 1712SOL    HW216770   0.640   0.788  16.327 -0.8182  3.2271 -1.0781
 1713SOL     OW16771   1.695   1.180   7.060  0.2718 -0.2633  0.0808
 1713SOL    HW116772   1.777   1.190   7.108 -0.8313 -1.5767  2.2180
 1713SOL    HW216773   1.720   1.241   6.990  1.7962  0.0591  0.8899
 1714SOL     OW16774   1.358   1.155   4.744 -0.6678 -0.4630  0.0043
 1714SOL    HW116775   1.348   1.115   4.657  1.4553  1.0855 -0.9449
 1714SOL    HW216776   1.439   1.203   4.726 -1.7684  0.5931 -2.1074
 1715SOL     OW16777   0.478   2.386   7.113 -0.8306 -0.7224 -0.3118
 1715SOL    HW116778   0.466   2.310   7.171 -0.0169  0.8856  1.9909
 1715SOL    HW216779   0.526   2.349   7.039 -0.1697  0.1602 -0.3227
 1716SOL     OW16780   1.955   3.625   2.531  0.4909 -0.2525  0.0780
 1716SOL    HW116781   1.882   3.667   2.484  0.4005 -0.2782  0.1947
 1716SOL    HW216782   1.907   3.602   2.611 -0.1176 -1.2022 -0.5566
 1717SOL     OW16783   4.680   1.990   7.664  0.3084 -0.0015  0.3032
 1717SOL    HW116784   4.675   1.907   7.712 -1.4697  0.0373  0.1631
 1717SOL    HW216785   4.714   1.962   7.579  1.6159  0.0870  0.7913
 1718SOL     OW16786   3.499   0.396   5.310  0.0125  0.1916 -0.9818
 1718SOL    HW116787   3.416   0.435   5.340  0.6426  1.5560 -1.0218
 1718SOL    HW216788   3.490   0.309   5.350  0.5499  0.0966 -1.0776
 1719SOL     OW16789   4.309   4.046   9.594  0.4987 -0.2054 -0.9361
 1719SOL    HW116790   4.232   4.085   9.553  0.7581 -0.5296 -1.7445
 1719SOL    HW216791   4.271   3.992   9.663 -0.6550  3.2749  1.1184
 1720SOL     OW16792   3.889   0.910   3.090 -0.1044  0.2634 -0.2487
 1720SOL    HW116793   3.921   0.995   3.062  0.8144  0.2818  0.8571
 1720SOL    HW216794   3.808   0.899   3.040  0.0704 -3.6580  0.3591
 1721SOL     OW16795   1.502   3.094   2.034  0.1523  0.1197 -0.2955
 1721SOL    HW116796   1.572   3.056   1.980 -0.0656 -2.1039  1.0115
 1721SOL    HW216797   1.439   3.101   1.962 -0.1986  0.0641  0.0070
 1722SOL     OW16798   3.104   1.730  12.882  0.1064 -0.2541 -0.2280
 1722SOL    HW116799   3.085   1.723  12.789 -0.4238  1.7462 -0.2687
 1722SOL    HW216800   3.089   1.824  12.892 -0.5749 -0.3340 -0.5435
 1723SOL     OW16801   3.493   4.199  17.402  0.3048  0.1414  0.0415
 1723SOL    HW116802   3.562   4.257  17.371  1.5297 -0.8654  0.8835
 1723SOL    HW216803   3.499   4.127  17.339 -0.8387 -1.2389  1.5037
 1724SOL     OW16804   1.844   2.568   2.186  0.1074  0.3439 -0.4514
 1724SOL    HW116805   1.837   2.599   2.276  1.5682 -0.0566 -0.1940
 1724SOL    HW216806   1.759   2.605   2.165 -0.8322 -0.8232  1.2962
 1725SOL     OW16807   2.529   0.155   9.149 -0.0120  0.1426 -0.3035
 1725SOL    HW116808   2.464   0.169   9.081  0.0196  0.6872 -0.2179
 1725SOL    HW216809   2.542   0.061   9.133  0.1415 -0.2465  1.9997
 1726SOL     OW16810   3.020   2.819  15.939  0.2864 -0.5118 -0.2465
 1726SOL    HW116811   2.962   2.758  15.893 -1.1050  2.1215 -1.9088
 1726SOL    HW216812   2.977   2.902  15.924 -1.7217 -1.7057 -1.0381
 1727SOL     OW16813   1.579   0.277  13.867 -0.8946 -0.0704  0.0394
 1727SOL    HW116814   1.618   0.358  13.833  2.0719 -0.8119  1.6565
 1727SOL    HW216815   1.540   0.248  13.785  0.2259 -0.2801 -0.4151
 1728SOL     OW16816   3.987   2.285   4.344  0.0944  0.1596 -0.0086
 1728SOL    HW116817   4.016   2.213   4.287 -0.6218 -1.3157  1.5175
 1728SOL    HW216818   4.059   2.346   4.326 -0.3290  1.2609  2.1242
 1729SOL     OW16819   2.531   0.849  12.335 -0.6745  0.6326  0.0683
 1729SOL    HW116820   2.584   0.917  12.293 -2.6014  2.3814  0.4774
 1729SOL    HW216821   2.595   0.777  12.341 -1.2860  0.2622  2.0981
 1730SOL     OW16822   3.429   2.525  16.049  0.4745  0.6910  0.0557
 1730SOL    HW116823   3.369   2.591  16.015 -1.7824 -0.9772  0.7448
 1730SOL    HW216824   3.388   2.517  16.136 -0.0459 -0.8864 -0.3433
 1731SOL     OW16825   3.577   1.801   3.799  0.0177 -0.1156  0.4835
 1731SOL    HW116826   3.642   1.813   3.867 -1.6399  0.5892  1.9370
 1731SOL    HW216827   3.573   1.890   3.766 -0.8333 -0.2072  0.3391
 1732SOL     OW16828   1.505   0.858  17.091 -0.8106 -0.2063  0.0181
 1732SOL    HW116829   1.509   0.942  17.045 -1.7464 -0.3213 -0.2814
 1732SOL    HW216830   1.421   0.871  17.134 -1.2646 -0.9764 -0.6219
 1733SOL     OW16831   3.344   2.713   2.643 -0.3365  0.6471  0.3745
 1733SOL    HW116832   3.270   2.677   2.595  1.3978 -2.2363 -0.1600
 1733SOL    HW216833   3.406   2.645   2.615 -2.0566 -1.1462  0.9466
 1734SOL     OW16834   4.680   3.644  14.084  0.4264  0.3425 -0.0191
 1734SOL    HW116835   4.649   3.721  14.132 -2.6225 -1.1232  0.3316
 1734SOL    HW216836   4.628   3.638  14.004 -1.9100 -0.4849  1.5745
 1735SOL     OW16837   0.805   2.257   8.931 -0.3498 -0.1415 -0.0441
 1735SOL    HW116838   0.715   2.291   8.923 -0.7818 -0.8562  1.7160
 1735SOL    HW216839   0.833   2.267   8.840  2.0869  1.2067  0.8527
 1736SOL     OW16840   1.626   0.890   6.502  0.3136  0.0049 -0.4932
 1736SOL    HW116841   1.665   0.968   6.542 -0.1688 -0.4202  0.8055
 1736SOL    HW216842   1.553   0.933   6.458 -0.1806 -0.5993 -0.2611
 1737SOL     OW16843   3.737   0.549  15.614 -0.6266  0.2163  0.1773
 1737SOL    HW116844   3.661   0.504  15.649 -1.2282  1.7098  0.7943
 1737SOL    HW216845   3.712   0.591  15.531 -1.3767  0.4189  0.5107
 1738SOL     OW16846   1.509   2.034   7.011 -0.7198 -0.5987  0.0725
 1738SOL    HW116847   1.460   2.082   6.944 -0.2475 -0.0024  0.1515
 1738SOL    HW216848   1.544   2.108   7.061 -0.2822 -0.1664 -0.8600
 1739SOL     OW16849   0.854   0.864  11.473  0.2822 -0.2191 -0.4297
 1739SOL    HW116850   0.818   0.934  11.528  1.0774 -1.1583  1.2450
 1739SOL    HW216851   0.929   0.848  11.530  1.8567 -1.1349 -2.7399
 1740SOL     OW16852   3.616   3.338   2.799 -0.0490  0.3167 -0.1648
 1740SOL    HW116853   3.543   3.303   2.748 -0.6914  0.3359  0.7447
 1740SOL    HW216854   3.574   3.412   2.841  1.0140 -1.2660  3.7248
 1741SOL     OW16855   2.656   1.211   3.567  0.3114  0.0117  0.0592
 1741SOL    HW116856   2.639   1.245   3.655  0.0542 -1.2069  0.4819
 1741SOL    HW216857   2.666   1.282   3.505  1.2523  0.8616  1.1829
 1742SOL     OW16858   0.073   1.644   8.597  0.1515  0.0029  0.4069
 1742SOL    HW116859   0.014   1.644   8.522  1.2787  2.9512 -0.4824
 1742SOL    HW216860   0.035   1.583   8.660  1.2391  0.5155  1.5676
 1743SOL     OW16861   4.149   0.502   7.319 -0.4126 -0.0366 -0.6814
 1743SOL    HW116862   4.067   0.530   7.359 -0.4195 -1.0033 -0.0035
 1743SOL    HW216863   4.184   0.436   7.379 -0.4625  0.9146  0.3798
 1744SOL     OW16864   2.342   3.010   8.328 -0.3816  0.6025 -0.3731
 1744SOL    HW116865   2.401   3.060   8.271 -2.1803  0.8592 -2.0209
 1744SOL    HW216866   2.258   3.035   8.289 -0.5808 -1.4918 -1.2972
 1745SOL     OW16867   3.734   1.747   8.111 -0.0036  0.0573 -0.1333
 1745SOL    HW116868   3.662   1.733   8.173 -0.0405 -0.7030 -0.3450
 1745SOL    HW216869   3.779   1.817   8.158 -2.6081  3.0248 -2.0108
 1746SOL     OW16870   0.211   1.375   3.453  0.5583  0.1547 -0.1102
 1746SOL    HW116871   0.165   1.343   3.376  0.1361 -0.3753  0.3721
 1746SOL    HW216872   0.181   1.314   3.520 -0.1844 -2.9312 -3.2926
 1747SOL     OW16873   4.216   3.976  15.421  0.4420  0.1871  0.7537
 1747SOL    HW116874   4.134   3.926  15.422  0.2463  0.5269  1.6138
 1747SOL    HW216875   4.179   4.064  15.428 -1.9091 -0.6675 -0.8527
 1748SOL     OW16876   0.483   4.566   9.515  0.2338 -0.3686 -0.6071
 1748SOL    HW116877   0.450   4.642   9.468  0.4177 -0.0257 -0.1757
 1748SOL    HW216878   0.403   4.518   9.538 -0.0579  1.1610  1.5937
 1749SOL     OW16879   2.859   3.447   1.005  0.2539 -0.7384 -0.0166
 1749SOL    HW116880   2.923   3.487   1.064 -0.3970  0.0872  0.1295
 1749SOL    HW216881   2.813   3.379   1.054  2.7028 -1.0935  1.7398
 1750SOL     OW16882   2.844   3.106  11.641  0.1664 -0.3365  0.3254
 1750SOL    HW116883   2.753   3.130  11.626  0.1036  0.2446  1.6646
 1750SOL    HW216884   2.855   3.037  11.575 -0.6341  0.7868 -0.9920
 1751SOL     OW16885   2.512   0.037   2.742 -0.4574 -0.5240  0.8686
 1751SOL    HW116886   2.417   0.039   2.748 -0.3655 -1.0137  2.4988
 1751SOL    HW216887   2.538   0.129   2.753 -0.1711 -0.4616 -0.2840
 1752SOL     OW16888   1.937   1.631   1.761  0.1737  0.2155  0.1936
 1752SOL    HW116889   1.875   1.564   1.789 -1.8248  1.1735 -1.8708
 1752SOL    HW216890   1.886   1.712   1.767  0.2898  0.1998  1.3886
 1753SOL     OW16891   3.651   2.017   2.080 -0.0051  0.5362 -0.2253
 1753SOL    HW116892   3.743   1.993   2.096  0.0069  0.6712 -0.0919
 1753SOL    HW216893   3.604   1.967   2.147  0.3824  0.3401 -0.0996
 1754SOL     OW16894   1.305   4.020   4.935 -0.1453 -0.6411  0.4484
 1754SOL    HW116895   1.248   4.097   4.932 -0.3257 -0.7856  0.2166
 1754SOL    HW216896   1.385   4.057   4.898  1.1034 -2.2642  1.5174
 1755SOL     OW16897   1.831   0.312   4.894 -0.1913 -0.1648 -0.2784
 1755SOL    HW116898   1.864   0.366   4.965 -0.8776  0.6653 -0.5895
 1755SOL    HW216899   1.912   0.268   4.869  1.3173  1.5670  1.6744
 1756SOL     OW16900   0.360   4.512   3.284 -0.1429 -0.4196  0.0145
 1756SOL    HW116901   0.399   4.531   3.199  1.0699  0.1530  0.7055
 1756SOL    HW216902   0.421   4.443   3.309  0.5512  0.6619  1.2562
 1757SOL     OW16903   2.931   2.753   9.147 -0.5943  0.2620 -0.4456
 1757SOL    HW116904   2.858   2.748   9.208  0.4781 -2.1164  0.6640
 1757SOL    HW216905   2.933   2.847   9.134  0.9023  0.3639  0.4954
 1758SOL     OW16906   2.680   2.129   5.566  0.0420  0.1232 -0.1238
 1758SOL    HW116907   2.624   2.058   5.535 -0.3840 -1.1131  3.5184
 1758SOL    HW216908   2.708   2.160   5.480 -0.5394 -1.0029 -0.7198
 1759SOL     OW16909   2.268   3.903  14.893  0.2092  0.2913  0.3064
 1759SOL    HW116910   2.347   3.923  14.943  0.6085  1.6079 -0.8411
 1759SOL    HW216911   2.310   3.913  14.807  1.8789 -1.1225  0.9634
 1760SOL     OW16912   3.827   3.949   2.196  0.0612 -0.2632 -0.0460
 1760SOL    HW116913   3.851   4.036   2.228  1.1781 -0.3260 -0.7010
 1760SOL    HW216914   3.735   3.966   2.219 -0.0679 -1.0363 -0.0039
 1761SOL     OW16915   3.833   3.456   8.245  0.2378 -1.2645 -1.0568
 1761SOL    HW116916   3.836   3.376   8.298 -1.2676 -2.3518 -2.5912
 1761SOL    HW216917   3.761   3.446   8.183  0.1607  0.2770 -1.2088
 1762SOL     OW16918   0.347   2.890  11.900 -0.4223  0.1563  0.8064
 1762SOL    HW116919   0.320   2.846  11.819  2.8646 -0.2418 -0.0652
 1762SOL    HW216920   0.353   2.815  11.958 -1.9905  0.3710  1.2492
 1763SOL     OW16921   2.475   4.176   2.921  0.0997 -0.1129  0.2544
 1763SOL    HW116922   2.415   4.163   2.847 -0.4959  2.6877  0.2312
 1763SOL    HW216923   2.407   4.176   2.988  0.8754 -3.4309  1.0259
 1764SOL     OW16924   2.032   2.434   1.518 -0.5230  0.3527 -0.3844
 1764SOL    HW116925   2.047   2.366   1.584 -0.5782 -1.3163 -2.1129
 1764SOL    HW216926   1.936   2.426   1.515 -0.7088  2.6761 -1.0828
 1765SOL     OW16927   0.915   2.750   8.974 -0.0283  0.0303  0.6194
 1765SOL    HW116928   0.865   2.711   9.045  1.6953 -1.3160  1.0838
 1765SOL    HW216929   1.002   2.748   9.013 -0.0192  0.1654  0.6060
 1766SOL     OW16930   2.767   0.014   5.215 -0.1518 -0.2221  0.4121
 1766SOL    HW116931   2.747   0.044   5.304  1.0726  0.2592  0.5176
 1766SOL    HW216932   2.712   0.066   5.157 -0.0422  0.3599  0.8298
 1767SOL     OW16933   3.426   4.113  14.010  0.5049  0.3561  0.0005
 1767SOL    HW116934   3.471   4.060  13.944  0.5844 -0.8137  0.9957
 1767SOL    HW216935   3.336   4.086  13.991  1.2504 -1.9713 -0.2036
 1768SOL     OW16936   2.747   4.176   0.138 -0.0456  0.2623  0.1756
 1768SOL    HW116937   2.831   4.179   0.185  0.4462  0.7979 -0.7430
 1768SOL    HW216938   2.771   4.207   0.051 -0.5976  0.4552  0.0977
 1769SOL     OW16939   4.353   4.287  15.575  0.3690  0.1822  0.6925
 1769SOL    HW116940   4.381   4.370  15.614  0.0590  0.4022  0.4415
 1769SOL    HW216941   4.277   4.258  15.625  1.1446 -0.6924  1.3798
 1770SOL     OW16942   1.376   1.882   8.430 -0.0086  0.1516  0.1325
 1770SOL    HW116943   1.323   1.941   8.485  1.3925 -0.4201  2.0826
 1770SOL    HW216944   1.393   1.932   8.350  0.0634 -0.1372 -0.0327
 1771SOL     OW16945   1.606   2.259   3.072 -0.7616 -0.4892  0.6584
 1771SOL    HW116946   1.590   2.170   3.042  1.5400 -0.7043  0.0266
 1771SOL    HW216947   1.569   2.313   3.003  0.3226 -1.2182 -0.4903
 1772SOL     OW16948   0.536   1.828   3.809 -0.7494  0.5732 -0.2411
 1772SOL    HW116949   0.550   1.737   3.835 -0.8215  0.7560  0.4393
 1772SOL    HW216950   0.443   1.833   3.829 -0.8113 -1.8174  0.0612
 1773SOL     OW16951   0.445   2.532   8.582 -0.4627 -0.0414 -0.2201
 1773SOL    HW116952   0.458   2.561   8.492 -1.1930  1.1779  0.0572
 1773SOL    HW216953   0.413   2.611   8.627  0.6855  0.2527  0.0859
 1774SOL     OW16954   2.125   1.306   1.047  0.7616 -0.1057  0.4921
 1774SOL    HW116955   2.091   1.382   1.000 -0.0948 -1.3221 -0.8577
 1774SOL    HW216956   2.105   1.333   1.137 -1.7761 -0.8146  0.1432
 1775SOL     OW16957   3.845   4.026  11.867  0.1979 -0.0413 -0.1071
 1775SOL    HW116958   3.757   4.015  11.903 -0.1802 -3.3333 -2.0264
 1775SOL    HW216959   3.879   3.955  11.922 -0.6696 -1.8104 -1.8308
 1776SOL     OW16960   0.644   3.416   5.345 -0.1876  0.0841 -0.3762
 1776SOL    HW116961   0.604   3.331   5.366 -0.0831  0.1807  0.2185
 1776SOL    HW216962   0.583   3.469   5.294  2.2202  1.4340 -1.8304
 1777SOL     OW16963   2.000   2.806   3.361 -0.2749  0.3528  0.1637
 1777SOL    HW116964   1.988   2.898   3.337  2.6833  0.6650 -0.1917
 1777SOL    HW216965   2.057   2.822   3.436 -0.2562 -1.5407  0.5413
 1778SOL     OW16966   3.795   1.013   6.272  0.1650  0.8273 -0.1636
 1778SOL    HW116967   3.828   1.035   6.185 -2.2751 -1.2976 -1.6327
 1778SOL    HW216968   3.750   0.929   6.260  1.4576  0.3191 -1.4327
 1779SOL     OW16969   3.673   0.508   2.700 -0.0699  0.1073 -0.0148
 1779SOL    HW116970   3.670   0.420   2.663 -0.2478 -0.3260  1.0302
 1779SOL    HW216971   3.585   0.542   2.684 -0.9498 -1.5933  1.1887
 1780SOL     OW16972   2.196   1.475   2.570  0.0368  0.5969  0.0220
 1780SOL    HW116973   2.184   1.425   2.651 -0.4079 -2.6437 -2.0498
 1780SOL    HW216974   2.276   1.524   2.587 -0.1657  0.5221  1.1461
 1781SOL     OW16975   2.741   2.942   6.697  0.1550 -0.0756 -0.5322
 1781SOL    HW116976   2.667   2.886   6.720 -0.1408 -0.1182 -1.5997
 1781SOL    HW216977   2.719   3.021   6.745  0.9372  0.0512 -0.3855
 1782SOL     OW16978   1.218   4.029  14.126 -0.4851  0.0212 -0.3536
 1782SOL    HW116979   1.191   4.079  14.049 -1.0786  0.9311  0.4491
 1782SOL    HW216980   1.153   3.960  14.139  0.2790 -0.0891  2.6617
 1783SOL     OW16981   3.919   1.896   2.080 -0.4178 -0.0405 -0.8607
 1783SOL    HW116982   3.994   1.931   2.129 -0.1845  0.3857 -1.5283
 1783SOL    HW216983   3.947   1.903   1.989  0.0792 -0.9062 -0.7703
 1784SOL     OW16984   1.810   0.746  12.157 -0.9420 -0.3846 -0.1795
 1784SOL    HW116985   1.752   0.676  12.129 -1.2301 -0.4013  0.4441
 1784SOL    HW216986   1.826   0.718  12.248 -2.1127 -1.7111 -0.3808
 1785SOL     OW16987   3.318   3.351   7.283  0.2931 -0.1729 -0.1464
 1785SOL    HW116988   3.383   3.403   7.235  1.3822 -2.2646 -0.9571
 1785SOL    HW216989   3.320   3.275   7.225  1.6434  0.4862 -0.9665
 1786SOL     OW16990   2.820   4.391   6.131  0.2637 -0.3745  0.1624
 1786SOL    HW116991   2.755   4.338   6.177  0.2092 -2.0333 -1.8326
 1786SOL    HW216992   2.865   4.319   6.089  1.0375  0.2723 -0.1146
 1787SOL     OW16993   2.964   4.113   4.022 -0.2565  0.3940  0.4409
 1787SOL    HW116994   3.006   4.195   4.049  0.6330  0.7243 -1.9312
 1787SOL    HW216995   2.896   4.133   3.959 -1.8546  2.5364  2.8520
 1788SOL     OW16996   1.985   1.764   7.804 -0.3266  0.4244 -0.4491
 1788SOL    HW116997   2.066   1.806   7.834 -1.5483  2.6086 -0.1861
 1788SOL    HW216998   1.925   1.839   7.814  0.7551  1.1835  0.4107
 1789SOL     OW16999   2.034   1.808   8.129 -0.0256 -0.0868 -0.1570
 1789SOL    HW117000   2.047   1.837   8.220  1.6337  0.9875 -0.7305
 1789SOL    HW217001   2.024   1.892   8.083 -1.5193 -0.0968  0.1539
 1790SOL     OW17002   0.244   4.101   1.661  0.2649 -0.1992 -0.4538
 1790SOL    HW117003   0.213   4.084   1.750 -1.5358  1.3849 -0.7629
 1790SOL    HW217004   0.305   4.031   1.638  1.3595  0.3035  0.9019
 1791SOL     OW17005   3.035   0.413  13.797 -0.0299 -0.1780 -0.3366
 1791SOL    HW117006   3.064   0.341  13.740  1.0972  0.0287 -0.0042
 1791SOL    HW217007   2.940   0.403  13.790  0.0563 -0.0396 -1.7357
 1792SOL     OW17008   4.005   4.465   5.581 -0.2302 -0.4730  0.0855
 1792SOL    HW117009   3.976   4.505   5.499  0.7378 -0.4990 -0.2767
 1792SOL    HW217010   4.016   4.553   5.617  1.6746  0.2503 -2.1944
 1793SOL     OW17011   0.827   3.879   5.476 -0.0983  0.0016  0.4220
 1793SOL    HW117012   0.880   3.852   5.402  1.6322  2.9159  0.5933
 1793SOL    HW217013   0.811   3.788   5.502 -1.9377 -0.0015 -0.6843
 1794SOL     OW17014   4.732   2.643  10.991  0.1569  0.7377  0.4681
 1794SOL    HW117015   4.671   2.600  10.931 -0.6654  1.0651  1.0630
 1794SOL    HW217016   4.704   2.599  11.072  2.5043 -0.5418  0.5938
 1795SOL     OW17017   4.106   3.813  17.050  0.1823  0.0536 -0.1139
 1795SOL    HW117018   4.012   3.823  17.038  0.0111 -0.5737  0.7262
 1795SOL    HW217019   4.121   3.723  17.021 -1.5265 -0.6310  1.1734
 1796SOL     OW17020   4.648   0.089  14.542 -0.3569  0.0097  0.0858
 1796SOL    HW117021   4.577   0.063  14.484 -2.2782  2.3745  1.3727
 1796SOL    HW217022   4.711   0.019  14.524 -0.5906 -0.3985  0.8488
 1797SOL     OW17023   1.824   1.534  10.198 -0.8166 -0.2598  0.0242
 1797SOL    HW117024   1.784   1.448  10.209  0.2169 -1.2158 -3.6117
 1797SOL    HW217025   1.807   1.574  10.284 -0.2655  1.8909 -0.8637
 1798SOL     OW17026   4.697   1.059   8.611 -0.1426 -0.1009  0.0136
 1798SOL    HW117027   0.010   1.087   8.687  0.4591  0.8522 -0.7536
 1798SOL    HW217028   4.614   1.031   8.649  0.3464 -0.4857  0.7969
 1799SOL     OW17029   1.621   4.156  16.777 -0.2428 -0.1484  0.1116
 1799SOL    HW117030   1.578   4.132  16.860  0.0881  1.4874  0.7401
 1799SOL    HW217031   1.647   4.070  16.743 -0.4924 -0.0264 -0.3767
 1800SOL     OW17032   4.438   3.844  17.637  0.4378 -0.7102  0.1788
 1800SOL    HW117033   4.498   3.770  17.649  2.3998  0.7615 -0.5751
 1800SOL    HW217034   4.476   3.884  17.559 -1.0910  1.8381  0.7507
 1801SOL     OW17035   0.844   3.293   2.191  0.2490  0.0631 -0.3240
 1801SOL    HW117036   0.911   3.232   2.222 -0.2871  0.1119  0.9180
 1801SOL    HW217037   0.887   3.375   2.212  0.4777 -0.5504  1.6175
 1802SOL     OW17038   2.477   4.722   1.941  0.2221 -0.1962 -0.5600
 1802SOL    HW117039   2.500   0.061   1.992 -0.5070 -0.0080 -0.5195
 1802SOL    HW217040   2.477   4.651   2.005  0.2387  2.0143  1.9219
 1803SOL     OW17041   3.209   3.688   2.881 -0.5424  0.1333  0.6406
 1803SOL    HW117042   3.287   3.638   2.905  0.2672  0.7951 -0.6224
 1803SOL    HW217043   3.194   3.675   2.787  0.7564 -0.8680  0.5742
 1804SOL     OW17044   1.923   0.292   9.475  0.2713 -0.4523  0.2814
 1804SOL    HW117045   1.977   0.292   9.554 -2.0087 -2.8483  1.8350
 1804SOL    HW217046   1.900   0.384   9.490  2.6799 -0.0320  1.4046
 1805SOL     OW17047   1.225   2.131   2.533 -0.1004  0.1741  0.5311
 1805SOL    HW117048   1.191   2.219   2.547  0.0957  0.5126 -1.1471
 1805SOL    HW217049   1.307   2.139   2.583 -0.3696  0.1297  0.9824
 1806SOL     OW17050   1.891   0.318   3.537 -0.1655  0.6806  0.0680
 1806SOL    HW117051   1.932   0.342   3.620  1.1941  0.8102 -0.6453
 1806SOL    HW217052   1.843   0.400   3.522 -0.2920  0.3865 -1.1184
 1807SOL     OW17053   2.695   1.365   4.903  0.1379 -0.3679  0.1220
 1807SOL    HW117054   2.756   1.312   4.851 -1.5890  0.9172 -3.1833
 1807SOL    HW217055   2.624   1.381   4.841  1.0337 -0.7978 -1.0284
 1808SOL     OW17056   1.222   1.505   4.072 -0.1158 -0.0432  0.2364
 1808SOL    HW117057   1.260   1.524   3.986  1.0292  2.2885  1.2727
 1808SOL    HW217058   1.208   1.588   4.118  1.7709  1.0440 -1.1654
 1809SOL     OW17059   0.849   0.210   5.121  0.1247 -0.4789  0.0576
 1809SOL    HW117060   0.903   0.130   5.116  1.6048  0.6126 -1.5463
 1809SOL    HW217061   0.856   0.249   5.034 -0.1345 -2.5941 -0.9281
 1810SOL     OW17062   1.383   3.043   9.437 -0.3898 -0.1533 -0.1525
 1810SOL    HW117063   1.406   3.102   9.509 -1.3772  0.2188 -0.1406
 1810SOL    HW217064   1.416   2.960   9.472  1.4544  0.9636  0.7670
 1811SOL     OW17065   4.308   1.245   3.655  0.7144  0.4727 -0.4773
 1811SOL    HW117066   4.221   1.234   3.693  0.4552  3.1782 -0.2709
 1811SOL    HW217067   4.298   1.288   3.570  1.9285  0.2660 -0.7324
 1812SOL     OW17068   4.068   0.660  16.029  0.2646 -0.2844  0.6158
 1812SOL    HW117069   4.049   0.615  16.111  0.0347 -0.2771  0.5663
 1812SOL    HW217070   4.041   0.594  15.966 -2.6879 -0.7184  2.3424
 1813SOL     OW17071   4.181   4.397   6.857  0.1471  0.0778  0.2877
 1813SOL    HW117072   4.102   4.379   6.909  0.2413 -1.7777 -0.2103
 1813SOL    HW217073   4.233   4.321   6.884 -0.3079 -1.1811 -2.3513
 1814SOL     OW17074   4.084   1.185   2.449  0.0500 -0.1909 -0.1714
 1814SOL    HW117075   4.055   1.172   2.539 -0.6177  0.9195 -0.2291
 1814SOL    HW217076   4.005   1.232   2.422 -0.5522 -0.8632  0.4222
 1815SOL     OW17077   4.306   0.541   7.094  0.0759  0.2290  0.5069
 1815SOL    HW117078   4.396   0.528   7.123  0.2609 -0.3460 -0.3162
 1815SOL    HW217079   4.260   0.492   7.163  2.5065 -1.0469  1.2190
 1816SOL     OW17080   1.289   0.742  14.484  0.4711 -0.0490 -0.2815
 1816SOL    HW117081   1.375   0.702  14.491  0.4643 -0.0256 -0.0696
 1816SOL    HW217082   1.238   0.673  14.527 -0.4627  0.8608  0.0754
 1817SOL     OW17083   1.501   0.564   1.713 -0.2870 -0.4150  0.0620
 1817SOL    HW117084   1.505   0.655   1.742 -1.3276 -0.4200  0.2154
 1817SOL    HW217085   1.487   0.523   1.798  1.3947  0.9315  0.9948
 1818SOL     OW17086   4.719   4.587   4.869 -0.0446 -0.2912  0.0334
 1818SOL    HW117087   0.022   4.583   4.955 -1.3318 -2.1832  0.5677
 1818SOL    HW217088   4.703   4.494   4.855  1.4796 -0.3159 -1.5030
 1819SOL     OW17089   3.098   4.472   8.422  0.0874 -0.1854 -0.8320
 1819SOL    HW117090   3.007   4.463   8.450  0.8769 -0.7090  1.5794
 1819SOL    HW217091   3.103   4.567   8.415  1.5822 -0.1134  1.2421
 1820SOL     OW17092   0.511   2.805   0.879 -0.4792  0.8108 -0.1746
 1820SOL    HW117093   0.491   2.778   0.969  0.5367 -0.9711 -0.4811
 1820SOL    HW217094   0.549   2.891   0.890  0.6815  0.1738  0.8013
 1821SOL     OW17095   0.614   0.123   3.001 -0.5933  0.4266 -0.4670
 1821SOL    HW117096   0.579   0.212   3.000  0.7367  0.9609  1.4084
 1821SOL    HW217097   0.561   0.070   3.061 -0.5213 -0.1132 -0.8734
 1822SOL     OW17098   0.359   1.087   6.726 -0.2263 -0.7506 -0.2663
 1822SOL    HW117099   0.339   1.038   6.806 -0.0330  0.5930  0.6065
 1822SOL    HW217100   0.426   1.029   6.691  2.0098  1.0509  0.9909
 1823SOL     OW17101   1.019   3.788   5.788  0.6889  0.3981 -0.3757
 1823SOL    HW117102   0.938   3.777   5.838 -0.6116  0.8288 -2.3377
 1823SOL    HW217103   1.022   3.698   5.757 -0.3025 -0.3434  1.7042
 1824SOL     OW17104   2.728   1.747   5.348 -0.1695  0.1586 -1.0540
 1824SOL    HW117105   2.742   1.676   5.411 -1.5896  0.6985 -0.1398
 1824SOL    HW217106   2.807   1.750   5.294  0.3971 -3.1777 -0.3736
 1825SOL     OW17107   0.383   0.476   8.353 -0.0970  0.3566  0.0551
 1825SOL    HW117108   0.427   0.392   8.372 -0.5041 -0.3388 -2.0864
 1825SOL    HW217109   0.377   0.476   8.258  1.0172 -0.8206 -0.0311
 1826SOL     OW17110   0.678   4.203  12.524  0.0593 -0.1395  0.4553
 1826SOL    HW117111   0.659   4.222  12.432 -0.2762 -0.5712  0.4345
 1826SOL    HW217112   0.615   4.131  12.531 -1.7741  1.2257 -1.8458
 1827SOL     OW17113   2.720   0.021   6.993 -0.4909  0.1260  0.0659
 1827SOL    HW117114   2.759   0.107   7.005 -2.7365  0.9240  1.5624
 1827SOL    HW217115   2.638   0.020   7.043 -0.2237 -2.2065  0.4826
 1828SOL     OW17116   0.977   3.547   2.292  0.1983  0.8658 -0.2079
 1828SOL    HW117117   0.957   3.632   2.252 -1.4447  0.0147 -1.1485
 1828SOL    HW217118   1.030   3.568   2.369  0.7029 -0.6977 -0.1334
 1829SOL     OW17119   2.822   1.720   7.424 -0.2720  0.3484  0.1319
 1829SOL    HW117120   2.796   1.728   7.516 -0.2398  0.0654  0.1655
 1829SOL    HW217121   2.907   1.764   7.423  0.0337 -0.1740  2.1988
 1830SOL     OW17122   3.237   3.758   6.882  0.5919 -0.2314 -0.1743
 1830SOL    HW117123   3.172   3.703   6.836 -0.6861  0.6043  0.6307
 1830SOL    HW217124   3.229   3.835   6.826  0.9535  0.0685  0.1922
 1831SOL     OW17125   0.400   2.765  15.837 -0.4695  0.1841 -0.0518
 1831SOL    HW117126   0.417   2.760  15.743  1.1264 -0.5519  0.2670
 1831SOL    HW217127   0.358   2.681  15.857 -3.1980  1.5125 -0.2688
 1832SOL     OW17128   2.630   3.401   2.660 -0.1650  0.0143  0.3028
 1832SOL    HW117129   2.694   3.470   2.642 -0.4451  0.3400  0.5770
 1832SOL    HW217130   2.558   3.464   2.656  0.6362  0.9002 -0.1916
 1833SOL     OW17131   2.573   4.135   0.340 -0.4318 -0.0537  0.0111
 1833SOL    HW117132   2.629   4.068   0.380  2.1333  1.8357 -0.3512
 1833SOL    HW217133   2.626   4.156   0.263 -0.1123  0.1133  0.2760
 1834SOL     OW17134   3.554   1.092   3.868 -0.1644 -0.1782 -0.6014
 1834SOL    HW117135   3.486   1.032   3.836 -0.5199 -0.2745  0.3191
 1834SOL    HW217136   3.495   1.167   3.868 -0.2465 -0.2435 -0.7985
 1835SOL     OW17137   1.224   2.926  13.597  0.3781  0.3982  0.4080
 1835SOL    HW117138   1.299   2.968  13.553  1.0706 -1.2068  0.0806
 1835SOL    HW217139   1.235   2.833  13.579 -1.2731  0.6161 -1.7560
 1836SOL     OW17140   0.792   1.301   4.850  0.1221  0.1920 -0.8839
 1836SOL    HW117141   0.852   1.261   4.788 -1.4171 -0.7773 -1.7246
 1836SOL    HW217142   0.823   1.261   4.931 -2.4532  1.6666  0.8466
 1837SOL     OW17143   2.591   4.440   3.250 -0.7236  0.0978  0.1302
 1837SOL    HW117144   2.665   4.458   3.192  0.5102  0.5437  1.8693
 1837SOL    HW217145   2.602   4.344   3.248  1.5600  0.4047 -2.9641
 1838SOL     OW17146   1.453   1.944   1.127 -0.0157 -0.3297 -0.3378
 1838SOL    HW117147   1.549   1.954   1.127  0.1040 -1.4163 -2.3101
 1838SOL    HW217148   1.431   2.013   1.064  0.8333  0.1444 -0.1241
 1839SOL     OW17149   3.454   0.193  15.897  0.2603 -0.2575 -0.5417
 1839SOL    HW117150   3.482   0.143  15.820 -1.1145  0.4564 -1.5062
 1839SOL    HW217151   3.465   0.133  15.971  2.8286  0.0892 -0.6379
 1840SOL     OW17152   4.490   3.091   3.848 -0.2518 -0.1450  0.2083
 1840SOL    HW117153   4.527   3.062   3.765  0.9063  1.3533  0.2179
 1840SOL    HW217154   4.534   3.038   3.915 -0.7467 -0.1675  0.5239
 1841SOL     OW17155   3.282   3.691  11.302  0.3762  0.3465 -0.0565
 1841SOL    HW117156   3.261   3.636  11.377  2.7231  1.0161  1.0850
 1841SOL    HW217157   3.376   3.680  11.287  0.3172 -1.9522  1.3336
 1842SOL     OW17158   4.413   2.339  16.032 -0.6694 -0.6523  1.4598
 1842SOL    HW117159   4.342   2.403  16.028  1.3471  1.5264  0.0654
 1842SOL    HW217160   4.384   2.250  16.013 -1.6386 -0.3780  1.6832
 1843SOL     OW17161   2.823   4.650   2.157  0.4865 -0.3555 -0.6175
 1843SOL    HW117162   2.782   4.736   2.144  4.0914  1.5184  0.3708
 1843SOL    HW217163   2.752   4.592   2.129 -0.1341 -0.3246  0.8954
 1844SOL     OW17164   1.508   1.129  16.709 -0.1300 -0.6915  0.2196
 1844SOL    HW117165   1.429   1.146  16.658 -0.1143  0.3835  0.5683
 1844SOL    HW217166   1.505   1.034  16.694  0.0544 -0.5473 -0.7393
 1845SOL     OW17167   4.063   0.876   4.952  0.2217  0.3329  0.2341
 1845SOL    HW117168   3.984   0.915   4.990  0.1193  1.9489 -1.5648
 1845SOL    HW217169   4.068   0.942   4.882  2.9375 -0.1995 -0.0644
 1846SOL     OW17170   0.847   1.977   5.728  0.0868 -0.6573 -0.1534
 1846SOL    HW117171   0.797   1.992   5.648  0.4374 -0.3021 -0.3000
 1846SOL    HW217172   0.895   1.899   5.703 -2.1928 -2.0272 -0.2551
 1847SOL     OW17173   3.183   2.419   8.378  0.3180 -0.0008 -0.1887
 1847SOL    HW117174   3.110   2.481   8.367  0.0240 -0.1101  1.1554
 1847SOL    HW217175   3.135   2.336   8.373 -2.0409  1.3341  0.2373
 1848SOL     OW17176   3.989   2.902   6.048 -0.3377 -0.0094 -0.0696
 1848SOL    HW117177   3.902   2.863   6.053  0.2094 -1.2570 -0.3562
 1848SOL    HW217178   4.033   2.839   6.105  0.7421  0.5692 -0.2520
 1849SOL     OW17179   4.256   2.380   7.014 -0.3349 -0.1575  0.0723
 1849SOL    HW117180   4.207   2.304   6.983 -0.2660 -1.1604  2.5006
 1849SOL    HW217181   4.205   2.450   6.973  0.9845 -1.1724 -3.3747
 1850SOL     OW17182   3.014   3.354   3.525  0.0390  0.3041  0.1436
 1850SOL    HW117183   2.943   3.324   3.468  0.2040 -1.6982  0.9701
 1850SOL    HW217184   3.064   3.273   3.531 -0.4769  0.1086  2.0828
 1851SOL     OW17185   4.288   0.028  10.311  0.0552 -0.1357 -0.1582
 1851SOL    HW117186   4.359   4.739  10.254  0.2464 -2.6650  1.3108
 1851SOL    HW217187   4.323   0.013  10.399 -1.7731  2.1869  0.9655
 1852SOL     OW17188   2.318   1.946   4.035 -0.0578 -0.1350 -0.3638
 1852SOL    HW117189   2.330   1.970   3.944 -1.8518  0.7029 -0.3893
 1852SOL    HW217190   2.223   1.939   4.023  0.1925  1.1507 -3.0558
 1853SOL     OW17191   2.837   3.167   3.967  0.0604 -0.3458 -0.1189
 1853SOL    HW117192   2.815   3.236   3.905 -0.7158  0.3964  0.9941
 1853SOL    HW217193   2.770   3.103   3.943 -1.3860  1.7408 -1.6196
 1854SOL     OW17194   0.450   3.026   0.523  0.2888  0.6414 -0.6829
 1854SOL    HW117195   0.470   3.085   0.450 -3.7844  1.0224 -1.4773
 1854SOL    HW217196   0.462   2.938   0.487  0.7706  0.2182  0.5049
 1855SOL     OW17197   3.414   0.120   9.385  0.4057  0.1952 -0.0470
 1855SOL    HW117198   3.394   0.033   9.352 -0.5156  0.4949 -0.2675
 1855SOL    HW217199   3.510   0.116   9.386  0.4213  0.2988 -1.1117
 1856SOL     OW17200   2.720   0.803  10.855  0.4851 -0.2448  1.0630
 1856SOL    HW117201   2.795   0.755  10.819  0.4467 -0.8623  1.8153
 1856SOL    HW217202   2.670   0.824  10.775  3.2490  0.9892 -0.3435
 1857SOL     OW17203   2.979   4.319   1.043  0.2444  0.4511 -0.5653
 1857SOL    HW117204   2.957   4.293   1.132  1.1363 -4.7644 -1.8468
 1857SOL    HW217205   2.901   4.292   0.995  0.6662 -0.9058 -0.4747
 1858SOL     OW17206   4.065   4.009   8.064  0.0124  0.6690  0.1579
 1858SOL    HW117207   4.040   4.070   8.133 -1.4946 -2.3789  2.2802
 1858SOL    HW217208   4.053   3.933   8.120 -0.2000  1.9138  1.7845
 1859SOL     OW17209   2.423   1.454   4.213 -0.1479  0.5970 -0.2825
 1859SOL    HW117210   2.499   1.471   4.157  0.4405 -0.2739  0.2422
 1859SOL    HW217211   2.398   1.545   4.223  1.4337  1.0366 -0.3040
 1860SOL     OW17212   4.098   4.647   5.180  0.2048 -0.0023  0.6058
 1860SOL    HW117213   4.027   4.682   5.126  0.2921 -0.4433  0.2029
 1860SOL    HW217214   4.091   4.552   5.186 -1.3036  0.0428 -0.3747
 1861SOL     OW17215   1.205   0.119  13.936 -0.2088 -0.1042  0.2427
 1861SOL    HW117216   1.259   0.041  13.927  1.1542  0.7517  1.0853
 1861SOL    HW217217   1.233   0.167  13.859 -1.7343 -0.4221 -0.5147
 1862SOL     OW17218   3.156   3.144   0.685  0.6619 -0.0944  0.3673
 1862SOL    HW117219   3.206   3.108   0.757  4.8460 -0.1382 -2.5389
 1862SOL    HW217220   3.099   3.205   0.734  1.9187  0.9622  0.5110
 1863SOL     OW17221   3.893   1.982   9.099 -0.3612 -0.1053  0.0291
 1863SOL    HW117222   3.841   2.035   9.160 -0.7484 -1.2054  0.6600
 1863SOL    HW217223   3.884   2.034   9.020 -1.7612  1.6275  1.3382
 1864SOL     OW17224   1.886   3.259   6.053  0.3487 -0.1302 -0.4194
 1864SOL    HW117225   1.906   3.189   5.991 -1.2947  0.6052 -1.7838
 1864SOL    HW217226   1.892   3.339   6.001 -0.6088  0.0884 -0.1976
 1865SOL     OW17227   2.412   3.736   5.034 -0.1559  0.4512 -0.1610
 1865SOL    HW117228   2.408   3.647   5.071  0.7800 -0.0601 -1.2559
 1865SOL    HW217229   2.422   3.710   4.942 -0.5113  0.1995 -0.1280
 1866SOL     OW17230   2.871   2.376   3.221 -0.3024  0.0666  0.0924
 1866SOL    HW117231   2.957   2.334   3.213 -0.4851 -0.2511 -0.1701
 1866SOL    HW217232   2.908   2.462   3.243 -0.9716  0.3629  0.0599
 1867SOL     OW17233   0.965   4.125   8.387 -0.6350 -0.3848  0.9199
 1867SOL    HW117234   1.012   4.208   8.390  1.2851 -1.4426 -0.2496
 1867SOL    HW217235   0.931   4.130   8.298  2.6267 -0.8865 -0.3252
 1868SOL     OW17236   3.735   1.509   4.868 -0.4492 -0.4133  0.2458
 1868SOL    HW117237   3.689   1.578   4.915 -0.2779  0.1829 -0.4514
 1868SOL    HW217238   3.822   1.549   4.866 -1.2727  1.4097  1.2428
 1869SOL     OW17239   0.663   3.480   7.705  0.3243 -0.1037  0.1207
 1869SOL    HW117240   0.747   3.516   7.733 -1.0039  1.6574  1.7505
 1869SOL    HW217241   0.689   3.392   7.676 -0.1667 -0.4996  0.9071
 1870SOL     OW17242   2.485   2.279   1.262  0.1081 -0.0276 -0.3489
 1870SOL    HW117243   2.543   2.206   1.283 -1.0355 -0.8202  0.0474
 1870SOL    HW217244   2.454   2.306   1.348 -0.1115 -1.6070  0.0818
 1871SOL     OW17245   3.343   0.198   4.777 -0.4471  0.0116  0.5109
 1871SOL    HW117246   3.416   0.149   4.739  2.4036  3.8414  1.0096
 1871SOL    HW217247   3.369   0.284   4.743  2.9403 -1.3422 -0.3073
 1872SOL     OW17248   0.552   3.433  12.864  0.0404  0.1799 -0.2024
 1872SOL    HW117249   0.602   3.515  12.859 -0.9662  0.9841  3.2572
 1872SOL    HW217250   0.619   3.375  12.899  1.4968  0.3883 -2.6038
 1873SOL     OW17251   4.343   1.056  13.205  0.0076 -0.5155 -0.3767
 1873SOL    HW117252   4.425   1.070  13.156  0.1657 -2.5482 -0.7228
 1873SOL    HW217253   4.348   1.141  13.248  2.7395  0.1831 -2.0542
 1874SOL     OW17254   2.387   3.253   5.351 -0.6438  0.2943  0.5574
 1874SOL    HW117255   2.391   3.158   5.355  0.4386  0.4055  1.9405
 1874SOL    HW217256   2.338   3.274   5.431 -1.0716 -0.1452  0.4102
 1875SOL     OW17257   1.857   0.144   9.265 -0.5292  0.5328 -0.3224
 1875SOL    HW117258   1.878   0.199   9.341  2.5112 -2.4140  0.9602
 1875SOL    HW217259   1.863   0.207   9.193  4.3702  0.8316  0.3927
 1876SOL     OW17260   2.087   2.670   3.818 -0.3691 -0.3725 -0.3685
 1876SOL    HW117261   2.159   2.609   3.803 -2.2615 -1.9860 -2.7449
 1876SOL    HW217262   2.022   2.612   3.858  1.2178 -0.3091  2.3430
 1877SOL     OW17263   0.638   1.166  12.644  0.8662  0.2501  0.1249
 1877SOL    HW117264   0.663   1.101  12.710  0.2678  0.5005  0.5978
 1877SOL    HW217265   0.717   1.216  12.624  1.3277 -0.5123  0.0109
 1878SOL     OW17266   0.297   0.549  16.419  0.1766 -0.2108  0.0038
 1878SOL    HW117267   0.366   0.489  16.391 -1.1533 -1.5784 -0.3284
 1878SOL    HW217268   0.345   0.613  16.471 -0.6729  1.0763 -0.7860
 1879SOL     OW17269   4.350   2.558   6.289 -0.1361  0.4963 -0.2765
 1879SOL    HW117270   4.365   2.481   6.233 -1.0595 -0.2876  0.5590
 1879SOL    HW217271   4.262   2.588   6.267 -0.8162 -1.7163 -0.6179
 1880SOL     OW17272   1.332   3.145   4.172  0.6169  0.0782  0.0937
 1880SOL    HW117273   1.295   3.060   4.195 -0.1466  0.9567  2.1273
 1880SOL    HW217274   1.313   3.151   4.078 -0.3110  0.6362  0.3256
 1881SOL     OW17275   2.646   3.967  10.915 -0.3001  0.2322  0.1895
 1881SOL    HW117276   2.677   3.939  11.002  1.3956  0.8010 -0.2346
 1881SOL    HW217277   2.598   3.889  10.886 -0.2308  0.1005  0.4262
 1882SOL     OW17278   2.520   3.609  13.317  0.1730  0.3463 -0.2054
 1882SOL    HW117279   2.595   3.658  13.352 -0.7836  0.6341  1.4462
 1882SOL    HW217280   2.550   3.522  13.293 -1.0783 -0.4034  0.9090
 1883SOL     OW17281   3.049   0.367  14.150  0.1863 -0.2199 -0.5227
 1883SOL    HW117282   3.063   0.450  14.105  0.1809  0.5257  0.8390
 1883SOL    HW217283   3.002   0.390  14.231  0.7375  1.0127 -0.5523
 1884SOL     OW17284   4.262   3.027   2.802  0.8447 -0.1279  0.0792
 1884SOL    HW117285   4.216   3.048   2.884  2.1740 -0.9838  1.0434
 1884SOL    HW217286   4.260   2.934   2.826 -0.0111  0.3178  1.7703
 1885SOL     OW17287   4.495   0.153   9.301 -0.0897 -0.3096 -0.1042
 1885SOL    HW117288   4.539   0.198   9.229  2.7210 -0.7597  1.3477
 1885SOL    HW217289   4.532   0.207   9.371  0.3427 -1.5451  0.6056
 1886SOL     OW17290   1.154   0.258  14.215  0.2342 -0.1033 -0.2759
 1886SOL    HW117291   1.080   0.296  14.167 -0.0354 -1.7015 -1.1117
 1886SOL    HW217292   1.230   0.254  14.158 -0.3789  1.8777 -1.2317
 1887SOL     OW17293   3.240   1.869   1.989 -0.1082  0.2578  0.0813
 1887SOL    HW117294   3.298   1.812   2.038  1.4502  0.1733 -1.8863
 1887SOL    HW217295   3.211   1.817   1.914  2.0201 -1.1967  0.2871
 1888SOL     OW17296   4.368   1.760  16.407 -0.3251 -0.3186  0.2680
 1888SOL    HW117297   4.283   1.741  16.447 -1.0292  0.6850 -0.7794
 1888SOL    HW217298   4.357   1.723  16.319 -1.1519 -1.4734  0.8604
 1889SOL     OW17299   2.053   1.481   7.104 -0.2023  1.0176 -0.2811
 1889SOL    HW117300   2.147   1.489   7.118 -0.2114  1.8967 -0.6791
 1889SOL    HW217301   2.027   1.447   7.190  0.1109  0.1704 -0.5336
 1890SOL     OW17302   4.570   3.344   0.630  0.3501 -0.2303  0.4456
 1890SOL    HW117303   4.644   3.388   0.586  1.5778  1.2846  4.0564
 1890SOL    HW217304   4.606   3.262   0.662 -0.7462 -1.7088 -2.1526
 1891SOL     OW17305   0.045   3.281  10.765 -0.2634 -0.4259  0.0777
 1891SOL    HW117306   4.702   3.295  10.719 -1.1089 -0.5055  1.5817
 1891SOL    HW217307   0.032   3.193  10.799  0.7976 -0.4679  0.3944
 1892SOL     OW17308   2.204   0.598   7.504  0.1982 -0.1830  0.0751
 1892SOL    HW117309   2.177   0.632   7.419  2.2953  2.5422  0.5309
 1892SOL    HW217310   2.136   0.539   7.537 -1.2248  0.9266 -0.8814
 1893SOL     OW17311   3.566   0.349   8.593 -0.4151 -0.0427 -0.4054
 1893SOL    HW117312   3.651   0.368   8.554 -0.0086  2.5508  1.7528
 1893SOL    HW217313   3.580   0.289   8.666 -0.9054  1.0636  0.5944
 1894SOL     OW17314   3.199   0.262   3.845 -0.2366 -0.6601  0.3422
 1894SOL    HW117315   3.211   0.303   3.760 -0.8256  1.4316  1.2727
 1894SOL    HW217316   3.267   0.197   3.861 -0.2293 -0.7621 -0.1038
 1895SOL     OW17317   2.428   3.522   1.189 -0.5014  0.3707 -0.6945
 1895SOL    HW117318   2.380   3.568   1.120 -0.2059  1.9598  0.1699
 1895SOL    HW217319   2.374   3.557   1.260  0.2793 -2.0619  1.1028
 1896SOL     OW17320   4.734   0.987   4.739 -0.2393  0.6127 -0.8061
 1896SOL    HW117321   0.013   1.039   4.818 -0.3178 -0.4223 -0.0940
 1896SOL    HW217322   0.001   0.901   4.781 -2.4675 -0.3137 -2.3711
 1897SOL     OW17323   1.730   4.611   2.773 -0.1884  0.3667  0.2519
 1897SOL    HW117324   1.741   4.695   2.729  2.5994  0.5768  1.3194
 1897SOL    HW217325   1.821   4.586   2.793 -0.2491  0.1193  0.2184
 1898SOL     OW17326   3.403   2.677   9.676 -0.7036 -0.1197 -0.4571
 1898SOL    HW117327   3.387   2.700   9.585 -0.0389  0.3333 -0.4573
 1898SOL    HW217328   3.338   2.725   9.727  0.5836 -1.5624  2.6024
 1899SOL     OW17329   1.637   3.422   1.511  0.0644 -0.5541 -0.1333
 1899SOL    HW117330   1.582   3.420   1.590 -0.1306  0.3877 -0.2470
 1899SOL    HW217331   1.639   3.328   1.492 -1.5332 -0.8822  1.2857
 1900SOL     OW17332   0.326   0.719   2.674 -0.1374  0.5871  0.7662
 1900SOL    HW117333   0.403   0.669   2.703 -0.5331 -1.2907 -1.4382
 1900SOL    HW217334   0.334   0.799   2.725 -2.8673  0.4237  1.4508
 1901SOL     OW17335   1.217   2.648   4.111 -0.2365  0.2326 -0.2674
 1901SOL    HW117336   1.205   2.599   4.192 -0.8049  2.0482  0.7383
 1901SOL    HW217337   1.162   2.593   4.054  1.7253  0.1034 -2.0584
 1902SOL     OW17338   3.559   4.424  14.158 -0.0237  0.7441 -0.4316
 1902SOL    HW117339   3.504   4.449  14.083 -0.9830  1.1234  0.4012
 1902SOL    HW217340   3.497   4.356  14.188 -0.7838  0.7213 -2.0402
 1903SOL     OW17341   0.294   3.019   4.536  0.2740  0.2621  0.3325
 1903SOL    HW117342   0.382   3.044   4.563  0.4902  0.3472 -0.4450
 1903SOL    HW217343   0.256   2.979   4.614  0.0037  0.4489  0.2940
 1904SOL     OW17344   0.652   4.576  16.330 -0.5246  0.3649  0.0985
 1904SOL    HW117345   0.686   4.648  16.278  2.4165 -2.0653 -1.3240
 1904SOL    HW217346   0.728   4.562  16.387 -0.6543 -0.4053  0.0874
 1905SOL     OW17347   4.175   3.151  10.931  0.5222 -0.2445 -0.1708
 1905SOL    HW117348   4.110   3.117  10.992  1.3035 -0.5665  0.4855
 1905SOL    HW217349   4.211   3.229  10.974  2.4662 -0.0129 -2.2012
 1906SOL     OW17350   1.481   0.374   6.691  0.0099  0.2217 -0.0136
 1906SOL    HW117351   1.569   0.354   6.659 -0.7183 -1.8698 -0.7304
 1906SOL    HW217352   1.508   0.390   6.782 -1.4071 -0.6311  0.5723
 1907SOL     OW17353   1.159   3.467   9.395 -0.3830 -0.4385 -0.1680
 1907SOL    HW117354   1.246   3.487   9.431  0.3313 -0.4650 -1.8754
 1907SOL    HW217355   1.131   3.395   9.452 -2.2388  0.0601 -0.4781
 1908SOL     OW17356   3.124   1.763   4.576 -0.2175 -0.2139 -0.1616
 1908SOL    HW117357   3.166   1.751   4.491  0.3366 -1.7955  0.3343
 1908SOL    HW217358   3.110   1.671   4.600 -1.1877  0.2013  0.8695
 1909SOL     OW17359   1.806   0.647   7.517 -0.4042  0.5424  0.3117
 1909SOL    HW117360   1.819   0.738   7.543  0.7963 -0.1221  2.0474
 1909SOL    HW217361   1.777   0.656   7.427 -0.6586 -1.1886  0.2181
 1910SOL     OW17362   0.135   3.072   2.661 -0.3191 -0.0149  0.3425
 1910SOL    HW117363   0.056   3.036   2.622 -1.5483  0.6732  2.1872
 1910SOL    HW217364   0.188   2.993   2.667 -2.1953 -1.3289 -0.5348
 1911SOL     OW17365   3.353   2.832  14.534 -0.1206 -0.7793  0.3408
 1911SOL    HW117366   3.427   2.881  14.498 -1.3800  0.0234 -1.1330
 1911SOL    HW217367   3.285   2.868  14.478 -0.4077 -0.6434  0.7715
 1912SOL     OW17368   3.592   3.595   5.316 -0.2226  0.0830 -0.0294
 1912SOL    HW117369   3.508   3.638   5.334 -0.0955  0.6772 -0.8449
 1912SOL    HW217370   3.643   3.641   5.383  0.4253  0.8178 -1.0459
 1913SOL     OW17371   2.445   4.298   1.867 -0.2093  0.4754 -0.0465
 1913SOL    HW117372   2.361   4.339   1.889  0.8505  2.7195 -0.2282
 1913SOL    HW217373   2.507   4.370   1.862 -0.6963  0.7823 -1.6302
 1914SOL     OW17374   1.590   0.339   7.717  0.1546 -0.4525 -0.4598
 1914SOL    HW117375   1.564   0.423   7.679  0.0831 -0.8657 -1.3344
 1914SOL    HW217376   1.505   0.294   7.718 -0.2753  0.3792  0.9591
 1915SOL     OW17377   0.672   3.059   6.285  0.4134  0.0922 -0.2017
 1915SOL    HW117378   0.701   3.003   6.214 -0.8001 -0.4033 -0.3043
 1915SOL    HW217379   0.641   3.000   6.353  2.4581  2.6981  2.9924
 1916SOL     OW17380   4.079   4.589  10.273 -0.1892  0.1213 -0.8269
 1916SOL    HW117381   4.165   4.628  10.285 -0.0909 -1.1612  2.4478
 1916SOL    HW217382   4.093   4.498  10.299 -0.3350  0.7303  1.3664
 1917SOL     OW17383   3.081   2.429   7.250 -0.2499 -0.4773 -0.3944
 1917SOL    HW117384   2.998   2.459   7.287 -0.6002 -0.1229 -1.4710
 1917SOL    HW217385   3.117   2.392   7.331  1.0730 -1.1035 -1.2893
 1918SOL     OW17386   2.488   2.355   5.041 -0.2372  0.0640  0.2482
 1918SOL    HW117387   2.573   2.389   5.069  0.0911  0.4846 -1.2481
 1918SOL    HW217388   2.454   2.419   4.978  1.1789 -0.1511 -0.7231
 1919SOL     OW17389   4.006   4.118   7.050 -0.8048  0.0863 -0.4849
 1919SOL    HW117390   4.056   4.044   7.083 -1.5261  0.2245  0.9301
 1919SOL    HW217391   3.960   4.077   6.977 -0.5999 -2.6712  0.9459
 1920SOL     OW17392   3.889   0.362   2.498  0.3888  0.1349 -0.3576
 1920SOL    HW117393   3.800   0.379   2.468  0.0378  1.4840  1.4967
 1920SOL    HW217394   3.874   0.307   2.574  0.3891  0.7148  0.0652
 1921SOL     OW17395   1.614   1.451   7.353 -0.1225 -0.2963  0.1167
 1921SOL    HW117396   1.672   1.480   7.423 -0.6697  2.2021 -0.4656
 1921SOL    HW217397   1.584   1.536   7.321 -0.5354 -0.1406  0.9231
 1922SOL     OW17398   3.744   2.777  15.164 -0.1847  0.2344  0.4901
 1922SOL    HW117399   3.675   2.714  15.141  0.9985  0.2335 -3.0242
 1922SOL    HW217400   3.749   2.834  15.087 -0.9509 -0.6669 -0.2318
 1923SOL     OW17401   2.122   3.687   8.293 -0.1314  0.2353 -0.2343
 1923SOL    HW117402   2.177   3.690   8.214  0.2116  0.7448  0.0296
 1923SOL    HW217403   2.091   3.776   8.306  0.6782  0.7456 -1.7819
 1924SOL     OW17404   2.693   1.800   6.099  0.1926 -0.1101  0.8241
 1924SOL    HW117405   2.766   1.740   6.083 -0.2439 -0.8396  1.5966
 1924SOL    HW217406   2.750   1.877   6.103  1.0364 -0.7590  1.2218
 1925SOL     OW17407   0.333   0.012   8.643 -0.3950  0.3286  0.0279
 1925SOL    HW117408   0.242   0.004   8.671  0.2728 -0.2663  1.9467
 1925SOL    HW217409   0.323   4.715   8.555  0.9104  1.2408 -0.4990
 1926SOL     OW17410   2.718   3.673  14.250  0.3393 -0.4955 -0.1041
 1926SOL    HW117411   2.668   3.709  14.177 -0.4140  1.9245  1.6279
 1926SOL    HW217412   2.778   3.744  14.271 -1.4266  0.4608  1.7538
 1927SOL     OW17413   3.486   2.392   5.304  0.2015  0.0640  0.0047
 1927SOL    HW117414   3.578   2.367   5.308 -0.3418 -2.1917 -1.4776
 1927SOL    HW217415   3.493   2.485   5.323  0.8665  0.1664 -0.7867
 1928SOL     OW17416   2.050   2.803   8.842  0.2905 -0.1683 -0.5273
 1928SOL    HW117417   2.120   2.799   8.907  0.2755 -0.7537 -0.5461
 1928SOL    HW217418   1.977   2.806   8.903  2.3027  0.0902  1.8754
 1929SOL     OW17419   1.080   2.102   3.653  0.0298 -0.4703 -0.2089
 1929SOL    HW117420   1.013   2.055   3.603  0.2293 -2.0567  1.0113
 1929SOL    HW217421   1.058   2.067   3.739 -0.3956 -0.7237 -0.4199
 1930SOL     OW17422   0.602   0.562  10.554  0.2403  0.0696 -0.0694
 1930SOL    HW117423   0.624   0.541  10.645 -0.1613  1.1113  0.2715
 1930SOL    HW217424   0.526   0.620  10.565  0.2454  0.6713 -3.1672
 1931SOL     OW17425   2.736   1.155   3.926 -0.9029  0.1506  0.2655
 1931SOL    HW117426   2.786   1.073   3.929 -2.3169 -0.7864 -1.3599
 1931SOL    HW217427   2.649   1.121   3.907 -0.8439  1.1251 -1.7403
 1932SOL     OW17428   0.508   1.426   1.733  0.4620  0.8093  0.1756
 1932SOL    HW117429   0.557   1.434   1.652  0.2286  0.1226 -0.0364
 1932SOL    HW217430   0.576   1.447   1.798  0.6942 -0.8546  0.4704
 1933SOL     OW17431   2.055   1.878   1.325 -0.4998  0.0262  0.0501
 1933SOL    HW117432   2.044   1.970   1.349  1.1156 -0.2001  1.6329
 1933SOL    HW217433   2.135   1.879   1.272 -1.4846 -0.8061 -1.4407
 1934SOL     OW17434   1.281   2.298   3.249 -0.0945 -0.0792 -0.0078
 1934SOL    HW117435   1.365   2.300   3.296  0.5030 -0.4780 -1.0750
 1934SOL    HW217436   1.292   2.377   3.196  0.2904 -0.3367 -0.3100
 1935SOL     OW17437   1.472   3.771   4.731 -0.1705 -0.4056 -0.9954
 1935SOL    HW117438   1.523   3.852   4.728 -0.2788 -0.2202  2.3395
 1935SOL    HW217439   1.542   3.706   4.731 -1.9713 -2.3697 -3.8321
 1936SOL     OW17440   1.971   0.596   6.234  0.3901  0.0478  0.2702
 1936SOL    HW117441   2.004   0.561   6.152 -1.4756 -0.4061 -0.2776
 1936SOL    HW217442   2.017   0.541   6.298  2.1379  0.9958 -0.1857
 1937SOL     OW17443   0.724   0.506   5.831  0.3787  0.6085 -0.0726
 1937SOL    HW117444   0.796   0.522   5.771  3.0218 -3.0043  2.1888
 1937SOL    HW217445   0.685   0.429   5.790  1.3511 -0.9763  1.9828
 1938SOL     OW17446   2.094   2.227  14.176  1.1752  0.5010  0.2913
 1938SOL    HW117447   2.117   2.293  14.242 -0.2584 -0.5339  1.8219
 1938SOL    HW217448   2.001   2.249  14.179  1.6098  2.3450  0.2977
 1939SOL     OW17449   2.555   2.079  17.620  0.3805  0.5389 -0.3470
 1939SOL    HW117450   2.584   2.019  17.552 -1.3155 -0.0466 -0.5729
 1939SOL    HW217451   2.630   2.105  17.672 -0.8724  1.0502  1.2127
 1940SOL     OW17452   2.139   3.585   4.450 -0.0293  0.7423 -0.1701
 1940SOL    HW117453   2.066   3.606   4.508 -0.9877 -0.6054 -0.8795
 1940SOL    HW217454   2.218   3.615   4.496  0.4774 -1.0945  0.1694
 1941SOL     OW17455   0.295   3.119   7.505  0.5624 -0.7342 -0.3454
 1941SOL    HW117456   0.304   3.213   7.487  0.5205 -0.7487 -0.4478
 1941SOL    HW217457   0.224   3.113   7.569  1.5207  0.3184  0.8208
 1942SOL     OW17458   4.628   2.718   3.045  0.1097 -0.3602 -0.2683
 1942SOL    HW117459   4.655   2.762   2.965  0.7221 -1.6548 -0.7857
 1942SOL    HW217460   4.546   2.672   3.025  0.3850 -1.7546  1.7754
 1943SOL     OW17461   2.076   1.788  17.001  0.3241  0.1644  0.3355
 1943SOL    HW117462   2.149   1.764  16.945  0.5024 -0.3184  0.7705
 1943SOL    HW217463   2.123   1.826  17.075 -1.5352  0.8743  1.1560
 1944SOL     OW17464   1.441   3.412  17.675 -0.6694  0.0192  0.0494
 1944SOL    HW117465   1.472   3.352  17.743 -3.4107 -2.3234 -0.7310
 1944SOL    HW217466   1.466   3.362  17.597 -0.4921 -1.7739  1.2553
 1945SOL     OW17467   3.291   1.671  13.482  0.3993  0.0495 -0.2166
 1945SOL    HW117468   3.219   1.712  13.529  0.3422 -2.8407  2.2063
 1945SOL    HW217469   3.368   1.673  13.540  1.8801  1.0094 -2.2061
 1946SOL     OW17470   1.243   3.201  15.151 -0.5008 -0.1609  0.6403
 1946SOL    HW117471   1.190   3.275  15.120  0.0382 -0.1958 -0.3674
 1946SOL    HW217472   1.186   3.175  15.223 -0.9563  0.2133  0.4144
 1947SOL     OW17473   1.537   2.828   1.311 -1.5474 -0.6795  0.1941
 1947SOL    HW117474   1.470   2.887   1.347 -1.5451 -0.1489 -0.6786
 1947SOL    HW217475   1.520   2.750   1.363 -1.3222 -0.5032  0.5334
 1948SOL     OW17476   4.000   1.853  16.906  0.3063 -0.1535 -0.3247
 1948SOL    HW117477   3.920   1.803  16.923  0.6036 -0.0987  1.2893
 1948SOL    HW217478   4.065   1.800  16.953  0.7062 -0.6771 -1.4467
 1949SOL     OW17479   4.298   1.277   3.207  0.1747 -0.5415  0.0355
 1949SOL    HW117480   4.267   1.341   3.272  0.6533 -0.2098 -0.0625
 1949SOL    HW217481   4.381   1.237   3.230 -0.2200 -2.1457 -1.3809
 1950SOL     OW17482   2.647   2.426   8.110  0.0249  0.4545 -0.1260
 1950SOL    HW117483   2.593   2.349   8.128  1.5455 -0.2809  1.3121
 1950SOL    HW217484   2.726   2.384   8.077 -0.4289  0.7964 -1.6375
 1951SOL     OW17485   2.705   3.820   9.919 -0.2396 -0.2441 -0.0525
 1951SOL    HW117486   2.672   3.910   9.919 -1.7291 -0.7795  0.7222
 1951SOL    HW217487   2.761   3.817   9.842 -0.5671 -2.2778 -0.2109
 1952SOL     OW17488   4.320   0.222   8.237 -0.2542 -0.7524 -0.6354
 1952SOL    HW117489   4.337   0.235   8.143  3.2492  1.5954  0.3107
 1952SOL    HW217490   4.271   0.140   8.235  0.0355 -0.9589  1.0475
 1953SOL     OW17491   0.403   2.837  10.771 -0.3879 -0.4887 -0.2360
 1953SOL    HW117492   0.426   2.853  10.680  1.9989  1.3821  0.6908
 1953SOL    HW217493   0.311   2.863  10.770  0.0437  1.0265 -2.1519
 1954SOL     OW17494   2.907   2.565  15.930  0.0060 -0.1482  0.0140
 1954SOL    HW117495   2.987   2.525  15.896  0.6068  1.2672 -0.1957
 1954SOL    HW217496   2.845   2.522  15.871  1.5934  0.9857 -2.4900
 1955SOL     OW17497   4.712   1.057   5.253  1.0859  0.0691 -1.2196
 1955SOL    HW117498   4.672   1.135   5.215 -0.8263 -0.9421 -1.2980
 1955SOL    HW217499   4.733   1.092   5.340 -3.2269  1.1527 -0.6457
 1956SOL     OW17500   4.133   3.372   1.772 -0.7712 -0.3898 -0.1946
 1956SOL    HW117501   4.056   3.428   1.780  0.2479  0.9552  0.2637
 1956SOL    HW217502   4.128   3.351   1.679 -1.2071 -0.4875 -0.1485
 1957SOL     OW17503   0.574   1.581  17.006  0.2014 -0.4716  0.4144
 1957SOL    HW117504   0.605   1.534  17.084 -0.9657 -0.8285  0.6586
 1957SOL    HW217505   0.587   1.523  16.932 -0.0254 -2.6885  2.0943
 1958SOL     OW17506   3.863   1.936   4.884  0.1566 -0.6055  0.2829
 1958SOL    HW117507   3.921   1.871   4.922  1.7022  1.1004  0.8676
 1958SOL    HW217508   3.833   1.983   4.962  0.0186 -0.4874  0.1591
 1959SOL     OW17509   0.358   3.287   8.836 -0.2651  0.4400  0.2727
 1959SOL    HW117510   0.338   3.353   8.769 -1.2606 -0.8895 -0.7374
 1959SOL    HW217511   0.284   3.289   8.896 -0.8881 -1.2583 -0.4503
 1960SOL     OW17512   2.621   0.629   2.567  0.1302 -0.0940 -0.1737
 1960SOL    HW117513   2.588   0.543   2.541 -2.0344  0.3406  1.1334
 1960SOL    HW217514   2.663   0.654   2.485  0.5325  0.4876  0.2163
 1961SOL     OW17515   2.636   0.135  11.568  0.0482  0.5398  0.2992
 1961SOL    HW117516   2.674   0.054  11.534 -3.8002 -1.4476  0.7311
 1961SOL    HW217517   2.546   0.107  11.552 -0.2033  0.7709  1.3015
 1962SOL     OW17518   2.572   2.028   9.413  0.7113 -0.3745 -0.2212
 1962SOL    HW117519   2.564   2.122   9.397 -0.8890 -0.4063  0.3721
 1962SOL    HW217520   2.654   2.023   9.462 -0.6082  0.6377  2.0845
 1963SOL     OW17521   0.594   0.909   2.013  0.1262 -0.2180  0.4471
 1963SOL    HW117522   0.673   0.923   2.066 -0.8002  3.3230  0.9344
 1963SOL    HW217523   0.623   0.850   1.944 -0.7411 -0.0969 -0.0184
 1964SOL     OW17524   2.706   3.499   4.658 -0.4304  0.2681  0.0911
 1964SOL    HW117525   2.683   3.520   4.568  0.7730  0.5778 -0.1522
 1964SOL    HW217526   2.658   3.417   4.672 -0.6259  0.5682  1.2219
 1965SOL     OW17527   4.460   4.360   5.627  0.3136  0.3448  0.4966
 1965SOL    HW117528   4.517   4.331   5.556 -1.7791  1.2916 -1.5675
 1965SOL    HW217529   4.424   4.279   5.662 -0.5820 -0.0178 -1.2431
 1966SOL     OW17530   0.994   3.834   3.507 -0.7335 -0.0568  0.6909
 1966SOL    HW117531   1.071   3.809   3.456 -0.2735  0.2801  1.2243
 1966SOL    HW217532   0.929   3.847   3.437  0.7014  0.7124 -0.4991
 1967SOL     OW17533   4.383   4.424   2.399 -0.2787 -0.0157 -0.1063
 1967SOL    HW117534   4.292   4.397   2.386  0.0474 -0.4581 -1.4170
 1967SOL    HW217535   4.378   4.482   2.475 -4.0385  0.2118 -0.5375
 1968SOL     OW17536   3.629   3.353   4.977 -0.9814 -0.0462  0.3135
 1968SOL    HW117537   3.588   3.334   5.061 -1.5322 -1.0038 -0.1639
 1968SOL    HW217538   3.579   3.430   4.951 -3.2989 -1.4460  0.6243
 1969SOL     OW17539   4.521   3.153   2.839  0.1266 -0.3023 -0.1208
 1969SOL    HW117540   4.439   3.108   2.816  0.4523 -0.7765 -0.3595
 1969SOL    HW217541   4.549   3.192   2.756 -1.1186 -0.7769 -0.7691
 1970SOL     OW17542   2.109   3.364   9.904  0.2981 -0.4541 -0.1067
 1970SOL    HW117543   2.027   3.392   9.864  1.7304 -1.4856 -3.7294
 1970SOL    HW217544   2.103   3.389   9.997  1.2304 -2.4581  0.4909
 1971SOL     OW17545   3.004   3.578   3.998  0.1171  0.3479  0.3330
 1971SOL    HW117546   3.080   3.533   4.035 -1.5161 -2.6619  0.0686
 1971SOL    HW217547   3.015   3.559   3.905  0.4453 -1.7778  0.8069
 1972SOL     OW17548   0.296   0.481   6.694 -0.0650  0.2832  0.3164
 1972SOL    HW117549   0.345   0.466   6.775 -0.7914 -0.7043  0.5794
 1972SOL    HW217550   0.353   0.542   6.649 -0.0649  1.1855  1.5465
 1973SOL     OW17551   3.861   0.171   3.368  0.0494  0.1047 -0.1386
 1973SOL    HW117552   3.818   0.190   3.285 -0.1279  0.7680  0.1073
 1973SOL    HW217553   3.873   0.258   3.407  1.6760  0.1752 -0.8318
 1974SOL     OW17554   3.001   3.123   0.020 -0.1087 -0.0275 -0.1238
 1974SOL    HW117555   2.959   3.194  17.726 -0.0193  0.7042  0.8745
 1974SOL    HW217556   2.929   3.098   0.079  1.8217 -1.3666  1.7008
 1975SOL     OW17557   0.257   3.007   9.300  0.2204  0.4886  0.3485
 1975SOL    HW117558   0.239   2.934   9.359 -1.2583  0.6798  0.1477
 1975SOL    HW217559   0.241   3.084   9.354  0.0029  0.4330  0.3654
 1976SOL     OW17560   0.702   4.634   9.694 -0.2098 -0.7829 -0.1638
 1976SOL    HW117561   0.631   4.589   9.648  0.6170 -0.8774 -1.3456
 1976SOL    HW217562   0.657   4.653   9.776 -0.3112 -2.1633  0.1062
 1977SOL     OW17563   3.423   4.269   7.639  0.2830 -0.4500 -0.2483
 1977SOL    HW117564   3.485   4.328   7.597  0.1850 -0.0835  0.1248
 1977SOL    HW217565   3.384   4.226   7.563 -1.1948 -0.6668  0.6256
 1978SOL     OW17566   1.828   3.933  11.918 -0.6447  0.4401  0.0357
 1978SOL    HW117567   1.775   3.892  11.987  0.3018 -0.1158  0.4326
 1978SOL    HW217568   1.916   3.921  11.952 -0.1229  1.1003 -1.1102
 1979SOL     OW17569   2.801   4.640   2.443  0.0943 -0.4683 -0.2065
 1979SOL    HW117570   2.852   4.645   2.363  1.1329  1.6300  0.5685
 1979SOL    HW217571   2.823   4.552   2.473  0.9648 -0.5701 -1.1623
 1980SOL     OW17572   0.123   3.788   4.751 -0.1978  0.0594 -0.1129
 1980SOL    HW117573   0.117   3.702   4.793  1.1392  1.9101  3.8446
 1980SOL    HW217574   0.129   3.848   4.825 -2.7096 -0.1234  0.2486
 1981SOL     OW17575   2.462   1.039   3.869  0.3262 -0.7173 -0.2302
 1981SOL    HW117576   2.408   1.092   3.810 -0.9313 -2.0737 -0.3087
 1981SOL    HW217577   2.452   0.950   3.835  0.4343 -0.3375 -1.2574
 1982SOL     OW17578   1.874   3.248   5.162  0.0516  0.5332 -0.1808
 1982SOL    HW117579   1.920   3.319   5.117  1.9325 -1.1287 -0.8327
 1982SOL    HW217580   1.901   3.173   5.109  0.1381 -0.4151  1.2307
 1983SOL     OW17581   2.103   0.998  14.384  0.3684  0.0544 -0.4823
 1983SOL    HW117582   2.091   0.903  14.381  0.7498  0.1054 -3.4726
 1983SOL    HW217583   2.162   1.014  14.310  1.6871  0.2097  0.6175
 1984SOL     OW17584   0.477   0.365   6.899  0.4462 -0.3649  0.1611
 1984SOL    HW117585   0.536   0.324   6.962  0.1059 -1.0062  0.0564
 1984SOL    HW217586   0.408   0.299   6.896  2.0888 -2.0220 -0.7615
 1985SOL     OW17587   2.039   3.251   2.613 -0.0238 -0.1616  0.5740
 1985SOL    HW117588   2.013   3.289   2.529 -0.3373 -0.1001  0.6967
 1985SOL    HW217589   2.124   3.285   2.642 -0.0291 -0.8282  1.3720
 1986SOL     OW17590   2.383   0.868   3.156 -0.5117  0.1117  0.3367
 1986SOL    HW117591   2.375   0.907   3.243 -1.2631  0.9848 -0.1283
 1986SOL    HW217592   2.397   0.946   3.103 -0.8563 -1.0555 -1.4788
 1987SOL     OW17593   1.304   4.508   5.694  0.8547  0.0681 -0.5087
 1987SOL    HW117594   1.396   4.528   5.708  1.3200 -1.5618 -1.2350
 1987SOL    HW217595   1.291   4.452   5.617 -0.7806 -1.2499  0.7239
 1988SOL     OW17596   2.540   2.737   9.265  0.0134  0.1495  0.7759
 1988SOL    HW117597   2.616   2.780   9.304  1.4312 -0.2715 -1.5919
 1988SOL    HW217598   2.555   2.772   9.177  1.3744 -1.7302  0.2650
 1989SOL     OW17599   0.815   1.214  13.972 -0.0641 -0.0895 -0.4114
 1989SOL    HW117600   0.835   1.122  13.953 -0.9306 -0.7150  1.7110
 1989SOL    HW217601   0.848   1.253  13.891 -0.9783  0.5497 -0.4732
 1990SOL     OW17602   4.448   2.114   6.146 -0.1188 -0.3168 -0.8044
 1990SOL    HW117603   4.363   2.094   6.184 -0.0223  0.4855 -0.1571
 1990SOL    HW217604   4.449   2.052   6.074  2.3522 -1.1650 -0.0330
 1991SOL     OW17605   4.463   3.248   0.244  0.9751  0.1483  0.0351
 1991SOL    HW117606   4.427   3.205   0.322  1.9383  0.9216  0.9048
 1991SOL    HW217607   4.480   3.335   0.281  3.0237  1.2271 -3.4497
 1992SOL     OW17608   4.546   1.556   6.437  0.2664  0.1995  0.2154
 1992SOL    HW117609   4.604   1.486   6.409  0.1031  0.8911 -1.9357
 1992SOL    HW217610   4.526   1.601   6.354 -1.6790  0.2265  0.6874
 1993SOL     OW17611   0.729   3.244  12.924 -0.1988  0.2659  0.3606
 1993SOL    HW117612   0.691   3.199  13.000  0.5675 -1.0209 -0.0256
 1993SOL    HW217613   0.762   3.175  12.867 -1.3133 -2.5411  3.0669
 1994SOL     OW17614   1.907   2.751  10.618 -0.2551  0.2613  0.3880
 1994SOL    HW117615   1.925   2.657  10.630 -0.1512  0.2103 -0.1754
 1994SOL    HW217616   1.957   2.785  10.544  0.1015  1.7678  1.3166
 1995SOL     OW17617   2.118   3.608   6.430 -0.5172  0.1230 -0.3457
 1995SOL    HW117618   2.032   3.633   6.395 -1.5559  0.1236  2.2353
 1995SOL    HW217619   2.164   3.688   6.405  0.8775 -1.2534 -2.2105
 1996SOL     OW17620   1.587   3.204  12.545  0.0163  0.6178 -0.2049
 1996SOL    HW117621   1.639   3.139  12.592  3.4883  2.0426 -2.0070
 1996SOL    HW217622   1.500   3.212  12.583 -0.8920 -3.0587 -1.4514
 1997SOL     OW17623   1.851   4.643   6.313  0.2824  0.7970  0.4297
 1997SOL    HW117624   1.939   4.670   6.287  0.1270  1.3530  0.4881
 1997SOL    HW217625   1.852   4.663   6.407  2.4811  1.8415  0.1734
 1998SOL     OW17626   3.581   1.136  15.019  0.3860  0.2053  0.4537
 1998SOL    HW117627   3.566   1.178  14.935  1.8334  0.4382  0.3229
 1998SOL    HW217628   3.675   1.122  15.030  0.1295 -1.2060  0.9726
 1999SOL     OW17629   2.885   0.360  13.024 -0.2629  0.6253 -0.8171
 1999SOL    HW117630   2.829   0.371  12.946 -1.0057  1.8829 -0.1094
 1999SOL    HW217631   2.887   0.265  13.031 -0.4619  0.7817  1.3961
 2000SOL     OW17632   4.365   1.795   8.413 -0.9149  0.1794 -0.0365
 2000SOL    HW117633   4.454   1.830   8.412 -1.0116  0.5463  3.4123
 2000SOL    HW217634   4.316   1.866   8.455 -1.8836 -2.4187  3.2493
 2001SOL     OW17635   1.456   2.812   8.728 -0.1709  0.0582 -0.0602
 2001SOL    HW117636   1.512   2.878   8.688  1.3536 -1.1562  0.1001
 2001SOL    HW217637   1.480   2.835   8.817 -1.8405 -0.3937  0.5191
 2002SOL     OW17638   3.170   0.321   2.508 -0.1239  0.3197  0.3722
 2002SOL    HW117639   3.155   0.253   2.574  1.9610  0.8948  1.4506
 2002SOL    HW217640   3.255   0.296   2.474 -2.0127 -2.2841 -2.3817
 2003SOL     OW17641   2.283   4.501   7.078  0.0441 -1.2078 -0.4428
 2003SOL    HW117642   2.205   4.454   7.106  0.3903 -1.5937 -0.1208
 2003SOL    HW217643   2.351   4.462   7.134 -0.0469  0.4531  0.8218
 2004SOL     OW17644   3.940   0.525   6.145  0.1435 -0.3582 -0.3043
 2004SOL    HW117645   3.885   0.535   6.067  0.9482  0.8941 -0.7085
 2004SOL    HW217646   3.869   0.503   6.206  1.3110  0.1147  1.2092
 2005SOL     OW17647   1.712   1.544   6.639 -0.7941 -0.1632  0.7493
 2005SOL    HW117648   1.777   1.606   6.672  0.0282 -0.9791  0.6537
 2005SOL    HW217649   1.755   1.514   6.559 -0.2418  1.3980  0.4673
 2006SOL     OW17650   3.268   1.669   1.318 -0.8216  0.3511  0.0847
 2006SOL    HW117651   3.363   1.680   1.313 -0.9829  1.1677 -1.3209
 2006SOL    HW217652   3.232   1.756   1.297  2.3302  1.2128 -1.7187
 2007SOL     OW17653   2.491   3.746   6.786  0.0385 -0.3885 -0.3480
 2007SOL    HW117654   2.476   3.654   6.807  0.4641 -0.3461  0.1401
 2007SOL    HW217655   2.537   3.765   6.867 -0.1660 -2.5380  0.2789
 2008SOL     OW17656   1.978   1.163   4.722  0.3501 -0.6898  0.3222
 2008SOL    HW117657   2.037   1.229   4.755 -0.7273 -0.4571  1.7852
 2008SOL    HW217658   2.004   1.147   4.631 -0.0801  0.7132 -0.0404
 2009SOL     OW17659   4.676   0.528  12.317 -0.4784 -0.6489 -0.2467
 2009SOL    HW117660   4.646   0.557  12.231  0.5781 -0.1641 -0.4521
 2009SOL    HW217661   4.606   0.566  12.369 -0.2921  0.1141 -0.5480
 2010SOL     OW17662   0.393   1.035   3.699 -0.3651 -0.0448  0.2521
 2010SOL    HW117663   0.465   1.004   3.643  0.4264  1.8534  0.2084
 2010SOL    HW217664   0.393   0.979   3.776 -1.0466  0.5296  0.6716
 2011SOL     OW17665   1.486   0.391   4.353 -0.0785 -0.2762 -0.1626
 2011SOL    HW117666   1.501   0.297   4.344 -1.3879 -0.7490  2.6854
 2011SOL    HW217667   1.537   0.421   4.277  0.5393 -1.2674 -0.1466
 2012SOL     OW17668   2.204   0.652   8.996 -0.6719 -0.2243  0.0986
 2012SOL    HW117669   2.203   0.747   9.003  2.3326 -0.0675 -1.7871
 2012SOL    HW217670   2.297   0.641   8.977 -0.9642  1.2565 -2.2006
 2013SOL     OW17671   1.261   2.694   3.529  0.2030 -0.1108  0.3887
 2013SOL    HW117672   1.213   2.626   3.483 -1.0554  1.5327 -0.7453
 2013SOL    HW217673   1.339   2.650   3.564  0.9179  0.9873  0.1756
 2014SOL     OW17674   2.717   4.496   9.536  0.1178 -0.2203  0.3767
 2014SOL    HW117675   2.676   4.560   9.478  1.9814  1.2622  0.6966
 2014SOL    HW217676   2.755   4.547   9.608  0.1271 -0.0221  0.2283
 2015SOL     OW17677   0.388   4.024   7.593  0.0404  0.7039 -0.3112
 2015SOL    HW117678   0.316   4.069   7.637 -0.8351 -1.3020  0.2953
 2015SOL    HW217679   0.404   3.961   7.663 -1.5968  0.3991 -0.2227
 2016SOL     OW17680   3.043   4.644   2.299  0.2385  0.3532  0.4063
 2016SOL    HW117681   2.977   4.627   2.232 -0.1936  1.3646  0.5752
 2016SOL    HW217682   3.078   4.732   2.285 -2.3309  1.2803 -0.0932
 2017SOL     OW17683   0.666   0.054   3.432  0.0780 -0.3088  0.1718
 2017SOL    HW117684   0.680   0.084   3.522 -0.6622 -1.5072  0.6813
 2017SOL    HW217685   0.656   4.700   3.452 -0.8196 -0.3076 -0.2850
 2018SOL     OW17686   3.684   1.210   2.147  0.3967  0.4449  0.8037
 2018SOL    HW117687   3.765   1.212   2.096 -0.4963  2.7962 -0.5017
 2018SOL    HW217688   3.695   1.295   2.190  1.1977  0.3187  0.8650
 2019SOL     OW17689   1.757   0.939   8.611 -0.5319  0.2807  0.0148
 2019SOL    HW117690   1.774   0.949   8.517 -0.9679  1.1561  0.0350
 2019SOL    HW217691   1.663   0.920   8.610 -0.4469 -0.2896  3.0141
 2020SOL     OW17692   3.948   1.636   6.020 -0.4642 -0.0175  0.2730
 2020SOL    HW117693   3.999   1.556   6.031  0.3072 -0.0228 -3.2415
 2020SOL    HW217694   4.014   1.698   5.988  0.0636  0.3340  2.0257
 2021SOL     OW17695   2.496   1.033   2.043  0.4424  0.1130  0.3801
 2021SOL    HW117696   2.463   0.995   1.962  0.5776 -0.0367  0.3935
 2021SOL    HW217697   2.564   1.094   2.015  0.8758  0.4857  2.2505
 2022SOL     OW17698   0.682   1.311   7.503  0.3269  0.2278 -0.2980
 2022SOL    HW117699   0.697   1.390   7.555  1.4798 -1.3162  1.7244
 2022SOL    HW217700   0.690   1.237   7.564 -0.8990  0.3065 -0.0377
 2023SOL     OW17701   0.909   2.461   4.687  0.6893  0.1903 -0.2206
 2023SOL    HW117702   0.836   2.522   4.689  1.7652  1.5034 -1.5328
 2023SOL    HW217703   0.988   2.509   4.711 -0.2253  1.3407  0.4491
 2024SOL     OW17704   3.753   2.125  11.040 -0.0784  0.0030  0.1873
 2024SOL    HW117705   3.763   2.208  10.993  1.2670  0.0232  0.5271
 2024SOL    HW217706   3.706   2.156  11.118 -0.3177 -0.8989  0.4037
 2025SOL     OW17707   0.349   2.777   4.377 -0.2990  0.4408 -0.1340
 2025SOL    HW117708   0.324   2.837   4.447 -1.2676 -0.6094  0.4221
 2025SOL    HW217709   0.430   2.737   4.406  0.2172  0.5660 -1.3866
 2026SOL     OW17710   2.494   0.273  14.279 -0.3964  0.0067 -0.3707
 2026SOL    HW117711   2.514   0.256  14.371 -0.5003 -0.0193 -0.3519
 2026SOL    HW217712   2.467   0.364  14.282  0.9660  0.3369  1.9956
 2027SOL     OW17713   2.722   4.601  15.975 -0.0553 -0.4811 -0.0353
 2027SOL    HW117714   2.699   4.673  16.034 -0.1073  0.3380 -1.0614
 2027SOL    HW217715   2.632   4.574  15.955  0.1827 -0.4032 -1.2433
 2028SOL     OW17716   2.355   2.397   8.748  0.1771 -0.2837  0.0730
 2028SOL    HW117717   2.317   2.403   8.836 -0.0836  2.9409 -0.2292
 2028SOL    HW217718   2.319   2.476   8.707  0.7998  0.2682  0.5881
 2029SOL     OW17719   0.034   1.374  11.243  0.3606 -0.5050 -0.7734
 2029SOL    HW117720   0.026   1.286  11.278  0.2819 -1.0348 -2.1243
 2029SOL    HW217721   0.122   1.371  11.205  0.9792 -0.1559  0.6397
 2030SOL     OW17722   2.952   3.898  15.224  0.3676 -0.1390  0.5316
 2030SOL    HW117723   2.932   3.810  15.257  0.5552 -0.1849  0.5246
 2030SOL    HW217724   2.889   3.915  15.154  0.5049 -0.3775  0.3490
 2031SOL     OW17725   0.172   2.489   7.163 -0.3868 -0.3051  0.5243
 2031SOL    HW117726   0.264   2.466   7.155 -0.5464  0.0105 -2.0014
 2031SOL    HW217727   0.138   2.400   7.175 -2.1577  0.2996 -0.0585
 2032SOL     OW17728   3.704   1.036   0.637  0.7467  0.4938  0.1512
 2032SOL    HW117729   3.797   1.027   0.659 -0.0107 -2.0571  2.2175
 2032SOL    HW217730   3.706   0.976   0.563  2.9414  1.8852 -0.9281
 2033SOL     OW17731   2.456   2.107  16.918 -0.3560  0.1963 -0.1510
 2033SOL    HW117732   2.441   2.180  16.978 -1.9774 -0.2495 -0.0351
 2033SOL    HW217733   2.491   2.155  16.843 -0.1470  0.5247  0.1549
 2034SOL     OW17734   2.996   3.885  11.335 -0.0166 -0.1759 -0.2153
 2034SOL    HW117735   2.986   3.790  11.344  0.6948 -0.1620  0.8099
 2034SOL    HW217736   3.081   3.901  11.377 -0.6295  0.5279  0.7811
 2035SOL     OW17737   0.672   1.625   9.607 -0.3539  0.2571 -0.2955
 2035SOL    HW117738   0.730   1.603   9.679 -1.6048 -2.8255 -0.2186
 2035SOL    HW217739   0.658   1.720   9.609  0.7536  0.4098  0.0967
 2036SOL     OW17740   0.953   0.869   2.908 -0.2724  0.0542  0.0746
 2036SOL    HW117741   0.944   0.787   2.956 -1.2225 -0.6106 -1.2368
 2036SOL    HW217742   0.996   0.925   2.973 -0.7563  0.2646  0.2147
 2037SOL     OW17743   2.500   2.770   8.667 -0.3927  0.3493  0.0851
 2037SOL    HW117744   2.539   2.811   8.590  3.2070 -0.3243  1.5621
 2037SOL    HW217745   2.419   2.820   8.680  0.0854  0.6603  1.7602
 2038SOL     OW17746   2.354   3.512   1.710 -0.0042 -0.2439 -0.0542
 2038SOL    HW117747   2.324   3.494   1.621 -0.6804  1.8549 -0.2500
 2038SOL    HW217748   2.278   3.559   1.745  0.0622 -0.8724  0.9716
 2039SOL     OW17749   4.454   3.991  15.278 -0.4087  0.8187 -0.3190
 2039SOL    HW117750   4.494   4.062  15.330  1.3277 -1.3988  1.3481
 2039SOL    HW217751   4.384   3.973  15.341 -1.3065 -2.1163 -2.1538
 2040SOL     OW17752   0.395   1.355  17.287  0.9250 -0.1401  0.3100
 2040SOL    HW117753   0.352   1.434  17.319  0.0872 -0.9861  1.3004
 2040SOL    HW217754   0.324   1.292  17.296  1.1979 -0.4046  0.6386
 2041SOL     OW17755   4.634   3.844   6.281  0.6355 -0.6627 -0.1552
 2041SOL    HW117756   4.713   3.837   6.228  2.1725  0.7211  1.9537
 2041SOL    HW217757   4.626   3.757   6.321  1.2130 -0.7148 -0.1457
 2042SOL     OW17758   2.038   0.897   6.675  0.1806 -0.2080  0.0456
 2042SOL    HW117759   2.060   0.978   6.629 -0.1020 -0.6916 -0.9350
 2042SOL    HW217760   1.972   0.934   6.735 -1.7338 -1.5445 -1.2419
 2043SOL     OW17761   4.434   2.299  13.621  0.2505  0.4090  0.3724
 2043SOL    HW117762   4.530   2.290  13.624  0.1140 -0.6730  1.6207
 2043SOL    HW217763   4.416   2.244  13.697 -0.8757 -0.6851 -0.6901
 2044SOL     OW17764   3.298   4.154   4.027  0.5857 -0.5961 -0.1828
 2044SOL    HW117765   3.367   4.214   4.056 -1.5913  2.1277 -0.6900
 2044SOL    HW217766   3.225   4.201   4.067  0.6500 -1.2291  0.6866
 2045SOL     OW17767   0.940   1.668   8.768  0.5632 -0.2297  0.0613
 2045SOL    HW117768   0.857   1.715   8.770  2.3575  2.9763 -0.9413
 2045SOL    HW217769   1.007   1.735   8.783  0.4325 -0.1069  0.1019
 2046SOL     OW17770   0.838   3.254   8.843  0.3163 -0.2165  0.2655
 2046SOL    HW117771   0.869   3.164   8.828  1.4228  0.6256 -2.5151
 2046SOL    HW217772   0.802   3.245   8.931 -2.3238 -2.0098 -0.9565
 2047SOL     OW17773   1.494   1.033   8.894  0.1261 -0.3036  0.3556
 2047SOL    HW117774   1.458   0.945   8.885 -2.0615  0.5737  0.5080
 2047SOL    HW217775   1.529   1.054   8.807  2.9702 -0.5351  1.4383
 2048SOL     OW17776   2.163   4.256   2.467 -0.0539 -0.0394  0.6839
 2048SOL    HW117777   2.118   4.313   2.529 -0.8752  1.7278 -1.5401
 2048SOL    HW217778   2.173   4.308   2.386 -1.7375  2.0233  1.8149
 2049SOL     OW17779   4.680   3.616   0.898 -0.0576 -0.3798  0.0034
 2049SOL    HW117780   4.594   3.581   0.873 -1.2421  2.7117 -0.2289
 2049SOL    HW217781   4.653   3.691   0.952 -0.0527 -0.9091  0.7543
 2050SOL     OW17782   4.140   2.672   4.235  0.6544 -0.3535 -0.1539
 2050SOL    HW117783   4.184   2.701   4.315  0.6843 -1.3103  0.1735
 2050SOL    HW217784   4.142   2.577   4.246 -0.4351 -0.3690 -0.0372
 2051SOL     OW17785   4.357   3.358   8.233  0.0208 -0.1106 -0.1304
 2051SOL    HW117786   4.304   3.321   8.161  0.1084 -0.1228 -0.1880
 2051SOL    HW217787   4.419   3.418   8.192  0.6543 -2.1131 -2.0893
 2052SOL     OW17788   3.332   3.984   8.448 -0.1379 -0.4529  0.5521
 2052SOL    HW117789   3.310   3.901   8.491  1.4483 -0.9263  0.4266
 2052SOL    HW217790   3.246   4.026   8.457  0.1370  0.0269  0.9587
 2053SOL     OW17791   4.661   1.794   7.872  0.1558  0.2587  0.4509
 2053SOL    HW117792   4.590   1.765   7.930  0.5684 -1.7164 -0.0482
 2053SOL    HW217793   4.665   1.709   7.829 -0.6529  1.4011 -1.8848
 2054SOL     OW17794   2.831   2.527   2.874  0.0304 -1.0198  0.0479
 2054SOL    HW117795   2.819   2.470   2.950 -0.5594 -0.5983  0.2677
 2054SOL    HW217796   2.778   2.485   2.806 -0.9494 -1.1919  0.9106
 2055SOL     OW17797   1.661   0.652  17.501  0.1407  0.1298 -0.1607
 2055SOL    HW117798   1.646   0.747  17.497  1.9724  0.4339  0.0349
 2055SOL    HW217799   1.586   0.614  17.455  1.3052 -0.4316 -1.5893
 2056SOL     OW17800   1.613   3.991  14.666  0.0309 -0.1140 -0.1233
 2056SOL    HW117801   1.520   3.985  14.648 -0.1665  0.0818  0.8770
 2056SOL    HW217802   1.609   3.971  14.759  0.5130  1.8805  0.3322
 2057SOL     OW17803   1.000   2.792   4.655  0.0092 -0.4911 -0.6491
 2057SOL    HW117804   0.924   2.821   4.605  0.3558 -0.2494 -1.0347
 2057SOL    HW217805   1.046   2.876   4.648  1.4581 -1.2269  0.0449
 2058SOL     OW17806   0.846   2.310   3.834 -0.1711  0.3046  0.0353
 2058SOL    HW117807   0.844   2.214   3.824  1.0547  0.4363 -1.4502
 2058SOL    HW217808   0.923   2.334   3.783 -1.0142 -1.3071 -2.0197
 2059SOL     OW17809   3.533   3.770   8.203 -0.3909 -0.9083 -0.2177
 2059SOL    HW117810   3.450   3.786   8.158 -0.2205  0.2019 -0.1572
 2059SOL    HW217811   3.553   3.860   8.230 -3.6394 -1.2919  3.4808
 2060SOL     OW17812   0.537   1.806   4.427  0.0748  0.0833 -0.4261
 2060SOL    HW117813   0.558   1.761   4.509  0.0514 -0.4506 -0.7189
 2060SOL    HW217814   0.477   1.875   4.457 -1.3617 -0.7333 -1.4336
 2061SOL     OW17815   2.522   3.052   9.403 -0.5216  0.0658 -0.4882
 2061SOL    HW117816   2.511   2.960   9.378 -0.0932  0.1097 -0.8410
 2061SOL    HW217817   2.502   3.095   9.320 -2.4165  1.2292  0.5853
 2062SOL     OW17818   2.844   2.034   6.048 -0.4966  0.5143  1.0015
 2062SOL    HW117819   2.936   2.059   6.040 -0.4933  0.0272 -0.3597
 2062SOL    HW217820   2.816   2.013   5.959 -1.3965 -0.0758  1.4211
 2063SOL     OW17821   2.007   1.695   4.355 -0.4052 -0.1693 -0.1900
 2063SOL    HW117822   2.077   1.644   4.396 -1.7819 -2.1432 -0.3426
 2063SOL    HW217823   1.980   1.638   4.283  1.0392  0.2624 -1.0910
 2064SOL     OW17824   1.210   3.740   6.074 -0.0673  0.3428  0.7376
 2064SOL    HW117825   1.282   3.716   6.016  2.7530  3.3675  3.0365
 2064SOL    HW217826   1.248   3.806   6.132 -0.6954  1.8895 -0.5874
 2065SOL     OW17827   3.508   2.380   3.637 -0.1038 -0.2470  0.3107
 2065SOL    HW117828   3.414   2.361   3.636 -0.1823  0.0762  1.4932
 2065SOL    HW217829   3.539   2.330   3.561  0.6578  3.1762 -1.6304
 2066SOL     OW17830   0.122   1.807  10.387  0.0630 -0.5196  0.1154
 2066SOL    HW117831   0.149   1.783  10.476  0.1437  0.2541  0.2943
 2066SOL    HW217832   0.124   1.902  10.395 -0.8211 -0.5701  0.9063
 2067SOL     OW17833   0.253   4.507   2.043  0.1192  0.0932  0.4865
 2067SOL    HW117834   0.195   4.476   2.113 -0.1720  0.3340  0.3569
 2067SOL    HW217835   0.337   4.481   2.079 -0.7750 -1.9101  1.1141
 2068SOL     OW17836   2.103   3.937  13.075 -0.5290 -0.0548  0.2233
 2068SOL    HW117837   2.165   3.949  13.146  0.0090  0.3124 -0.3039
 2068SOL    HW217838   2.033   3.890  13.120 -0.3710 -2.0253 -1.5867
 2069SOL     OW17839   2.678   3.320   1.167 -0.2957  0.4613 -0.3364
 2069SOL    HW117840   2.676   3.234   1.208 -5.1268  1.5849  1.8074
 2069SOL    HW217841   2.584   3.341   1.174 -0.3962  0.4256 -1.5025
 2070SOL     OW17842   2.288   0.020   4.658 -0.1477 -0.6968  0.1325
 2070SOL    HW117843   2.358   0.030   4.723 -1.4546 -1.6805  1.6912
 2070SOL    HW217844   2.341   4.718   4.590  1.3453 -0.6902  1.2841
 2071SOL     OW17845   4.526   3.580  13.355 -0.2455 -0.8138  0.3071
 2071SOL    HW117846   4.472   3.543  13.285 -0.9829 -0.4149  0.6696
 2071SOL    HW217847   4.463   3.645  13.387  0.5643  1.4054 -2.6021
 2072SOL     OW17848   3.348   0.244   2.045  0.3857  0.3648  0.0225
 2072SOL    HW117849   3.327   0.183   1.975 -2.5676 -1.9614  2.9699
 2072SOL    HW217850   3.371   0.311   1.979 -1.4919  0.4087 -0.5806
 2073SOL     OW17851   0.706   2.945   8.643 -0.2745 -0.2661  0.6831
 2073SOL    HW117852   0.746   2.889   8.577  0.2602  1.9401 -0.8524
 2073SOL    HW217853   0.617   2.936   8.609  0.5658 -1.6823 -1.0942
 2074SOL     OW17854   1.296   1.930  11.559  0.0765 -0.4299  0.1437
 2074SOL    HW117855   1.344   1.853  11.588  1.4422  0.0618 -0.8576
 2074SOL    HW217856   1.219   1.931  11.617  0.3632  1.3182  0.4833
 2075SOL     OW17857   2.706   3.171  14.341 -0.7362 -0.0662  0.4678
 2075SOL    HW117858   2.727   3.221  14.420 -2.7382  2.7113 -0.7473
 2075SOL    HW217859   2.697   3.240  14.275 -0.9992 -0.8421 -0.3024
 2076SOL     OW17860   3.067   0.307   2.905 -0.1536 -0.3934 -0.0798
 2076SOL    HW117861   3.101   0.395   2.887 -0.6042  0.0435  1.1705
 2076SOL    HW217862   3.139   0.256   2.869 -1.2623 -2.2141  0.2740
 2077SOL     OW17863   0.366   4.062   6.682 -0.5260 -0.5239 -0.3661
 2077SOL    HW117864   0.337   4.112   6.758 -2.1250  2.0509 -2.6628
 2077SOL    HW217865   0.308   3.987   6.674 -2.3938  1.3220 -4.1417
 2078SOL     OW17866   2.112   2.762   4.203 -0.4040  0.5737  0.4206
 2078SOL    HW117867   2.193   2.793   4.242  0.6105  0.2908 -1.4739
 2078SOL    HW217868   2.070   2.843   4.175 -2.0593 -1.0798 -1.8299
 2079SOL     OW17869   0.482   1.100   7.920  0.0131  0.3303  0.0423
 2079SOL    HW117870   0.420   1.030   7.941 -0.5145  0.3574 -1.4342
 2079SOL    HW217871   0.560   1.058   7.957  1.2002  1.6714 -0.9314
 2080SOL     OW17872   0.437   1.841   1.889 -0.0238 -1.0142  0.2100
 2080SOL    HW117873   0.436   1.806   1.978 -0.4754 -1.3480  0.0741
 2080SOL    HW217874   0.492   1.916   1.913 -2.2179  0.7115 -0.0695
 2081SOL     OW17875   4.605   3.954   9.788  0.3991 -0.6546  0.8264
 2081SOL    HW117876   4.683   4.009   9.788 -0.2435  0.2896 -2.6442
 2081SOL    HW217877   4.601   3.934   9.694  1.1318  1.6150  0.3051
 2082SOL     OW17878   4.272   4.248   1.004  0.0255 -0.7076 -0.0652
 2082SOL    HW117879   4.242   4.194   0.931 -1.3339 -0.5940  0.4018
 2082SOL    HW217880   4.222   4.330   1.001 -0.0688 -0.7840 -0.5481
 2083SOL     OW17881   0.905   4.651  16.424 -0.0921  0.0274 -0.2010
 2083SOL    HW117882   0.931   4.588  16.492 -0.4542  1.5204  1.3217
 2083SOL    HW217883   0.932   4.726  16.476  1.3334 -0.3879 -0.3330
 2084SOL     OW17884   0.874   1.452  10.271  0.5554  0.0050 -0.1828
 2084SOL    HW117885   0.933   1.483  10.203  1.2238  1.5632  1.0974
 2084SOL    HW217886   0.934   1.463  10.345 -1.0328 -2.3893  1.4738
 2085SOL     OW17887   4.568   2.683   4.005  0.1957 -0.0485  0.1847
 2085SOL    HW117888   4.577   2.615   4.072 -1.2762  0.3085  0.7461
 2085SOL    HW217889   4.496   2.738   4.036  0.5453  0.4285  0.1569
 2086SOL     OW17890   1.194   0.978  17.729  0.3164  0.2910 -0.4669
 2086SOL    HW117891   1.281   0.977   0.015  0.0585 -0.0211  0.0843
 2086SOL    HW217892   1.148   0.901   0.009 -0.3513  0.7487 -0.3365
 2087SOL     OW17893   3.421   2.479   3.891 -0.1449 -0.5229  0.0926
 2087SOL    HW117894   3.466   2.455   3.811 -1.0421 -3.1818  0.3670
 2087SOL    HW217895   3.473   2.438   3.960 -1.6103  0.2275  1.6513
 2088SOL     OW17896   1.861   0.577   5.889 -0.3944 -0.2580 -0.1747
 2088SOL    HW117897   1.837   0.638   5.820  1.3208 -2.2014 -2.4862
 2088SOL    HW217898   1.822   0.620   5.965 -0.7664  0.8892 -1.0139
 2089SOL     OW17899   3.909   1.435  12.342 -0.6937 -0.1092 -0.6419
 2089SOL    HW117900   3.918   1.382  12.421  0.5194  0.1846 -0.5778
 2089SOL    HW217901   3.973   1.382  12.294 -0.4328  0.5594 -1.0411
 2090SOL     OW17902   4.432   2.115   1.934  0.1630 -0.6287  0.0311
 2090SOL    HW117903   4.474   2.042   1.981 -1.3155 -2.4346 -1.4463
 2090SOL    HW217904   4.370   2.066   1.881 -0.0742 -2.1590  1.7150
 2091SOL     OW17905   3.583   3.994  11.981  0.6117  0.3416 -0.2828
 2091SOL    HW117906   3.494   4.003  11.949 -0.4544  0.7794  2.7578
 2091SOL    HW217907   3.583   3.901  12.006  0.0961  0.2906 -0.4850
 2092SOL     OW17908   3.102   2.131   6.619 -0.0688  0.1097  0.0882
 2092SOL    HW117909   3.019   2.100   6.581 -0.2519 -1.8978  2.0805
 2092SOL    HW217910   3.104   2.086   6.703 -0.4745  1.6768  0.9350
 2093SOL     OW17911   4.442   1.570   5.442 -0.2037 -0.0892  0.1470
 2093SOL    HW117912   4.435   1.547   5.535  1.7525 -0.7710  0.1236
 2093SOL    HW217913   4.386   1.502   5.404  1.7726 -2.2963  1.1970
 2094SOL     OW17914   4.197   0.071   1.993  0.1917 -0.0666 -0.2762
 2094SOL    HW117915   4.111   0.110   2.010  0.9098  1.2818  0.3300
 2094SOL    HW217916   4.252   0.149   1.982 -0.1174  0.1583 -0.2485
 2095SOL     OW17917   3.669   2.649   8.175  0.2152  0.5643  0.0518
 2095SOL    HW117918   3.723   2.708   8.122 -1.8041  1.4094 -1.0986
 2095SOL    HW217919   3.722   2.569   8.176  1.9147  1.6805  0.0862
 2096SOL     OW17920   1.740   3.174   4.501  0.2137  0.5879 -0.1530
 2096SOL    HW117921   1.762   3.110   4.434  1.7812  1.4515 -0.4768
 2096SOL    HW217922   1.667   3.220   4.459 -0.3502  0.4718  0.7158
 2097SOL     OW17923   0.948   2.453   1.709 -0.0214  0.1771  0.4761
 2097SOL    HW117924   0.953   2.412   1.622  0.4571 -0.1229  0.6462
 2097SOL    HW217925   0.892   2.385   1.746 -0.7319  1.1414  1.1682
 2098SOL     OW17926   2.269   0.314   7.540 -0.2931 -0.6217 -0.0573
 2098SOL    HW117927   2.260   0.408   7.556  2.7094 -0.2311 -0.6932
 2098SOL    HW217928   2.306   0.274   7.618 -1.5289 -1.5265  0.0708
 2099SOL     OW17929   4.048   2.853   0.196 -0.0478  0.1107 -0.0326
 2099SOL    HW117930   4.027   2.766   0.229  0.3091 -0.4760 -1.3333
 2099SOL    HW217931   3.997   2.913   0.250 -2.4026 -0.6118 -1.4411
 2100SOL     OW17932   4.396   4.483  10.249 -0.1827  0.5058  0.2082
 2100SOL    HW117933   4.484   4.457  10.222 -0.2870 -1.0101  1.3409
 2100SOL    HW217934   4.374   4.419  10.317 -2.6307  0.5494 -0.5396
 2101SOL     OW17935   2.642   4.425   9.936  0.1662 -0.4275 -0.3370
 2101SOL    HW117936   2.664   4.381  10.019 -1.5838 -1.8057 -0.6158
 2101SOL    HW217937   2.656   4.519   9.948  1.7208 -0.7609  0.5500
 2102SOL     OW17938   3.189   1.619   7.304 -0.0084 -0.1862 -0.4702
 2102SOL    HW117939   3.165   1.557   7.234  1.3831 -3.8114  2.2684
 2102SOL    HW217940   3.213   1.547   7.363 -0.2796 -0.7112 -0.9936
 2103SOL     OW17941   0.811   0.965   4.535  0.0419 -0.0886 -0.4090
 2103SOL    HW117942   0.888   0.969   4.480  0.1264  2.7006 -0.1147
 2103SOL    HW217943   0.773   0.885   4.499  0.7279 -0.8319  0.5286
 2104SOL     OW17944   3.463   2.245   8.332  0.2832  0.6065 -0.0033
 2104SOL    HW117945   3.457   2.156   8.367  0.6206  1.2178  1.5888
 2104SOL    HW217946   3.459   2.222   8.239 -0.8038  0.8442 -0.0177
 2105SOL     OW17947   4.527   3.005  16.613  0.2322 -0.3223  0.0415
 2105SOL    HW117948   4.476   3.080  16.641  1.2312  0.2820  0.2250
 2105SOL    HW217949   4.609   3.046  16.586  0.4549 -1.0229 -0.3649
 2106SOL     OW17950   4.293   0.797   2.096  0.6927  0.2669  0.0756
 2106SOL    HW117951   4.229   0.809   2.167 -1.1067  1.4838 -1.7619
 2106SOL    HW217952   4.296   0.880   2.049 -0.9897  2.1298  3.1995
 2107SOL     OW17953   1.534   1.441   3.945 -0.0955 -0.1530  0.9895
 2107SOL    HW117954   1.527   1.527   3.986  0.5554 -0.4270  1.6559
 2107SOL    HW217955   1.621   1.442   3.906 -0.9844 -0.6894 -1.0433
 2108SOL     OW17956   4.592   2.941   4.796 -0.2889 -0.2538 -0.2710
 2108SOL    HW117957   4.539   2.878   4.845  1.0739 -1.1548  0.0491
 2108SOL    HW217958   4.584   3.014   4.857 -0.6814  0.3767 -1.0764
 2109SOL     OW17959   3.654   0.808   4.220 -0.2307 -0.0678  0.2372
 2109SOL    HW117960   3.693   0.783   4.137 -0.6222  2.0120 -0.5875
 2109SOL    HW217961   3.645   0.903   4.214 -2.3338 -0.2428  0.8294
 2110SOL     OW17962   3.749   3.081  15.572 -0.4460 -0.2731  0.0922
 2110SOL    HW117963   3.740   3.058  15.665  1.8595 -1.9201 -0.1074
 2110SOL    HW217964   3.771   2.997  15.531 -0.7831 -1.1081  1.6171
 2111SOL     OW17965   4.454   0.596   6.021  0.4261  0.0860  0.4146
 2111SOL    HW117966   4.399   0.572   5.946  4.1660 -2.4121 -1.5350
 2111SOL    HW217967   4.424   0.535   6.088  1.7977 -0.1127  0.8500
 2112SOL     OW17968   4.205   3.010   9.170 -0.4190  0.3967  0.1572
 2112SOL    HW117969   4.195   3.055   9.085  0.5632 -0.1082 -0.2246
 2112SOL    HW217970   4.144   2.936   9.166  0.5307 -0.4328  1.0314
 2113SOL     OW17971   0.266   0.624   2.953  0.5251  0.5515  0.2116
 2113SOL    HW117972   0.348   0.632   2.904 -0.6052 -0.9692 -1.9443
 2113SOL    HW217973   0.298   0.567   3.023  0.1255 -0.0907 -0.1352
 2114SOL     OW17974   3.426   2.589   8.071  0.5061  0.9988 -0.5412
 2114SOL    HW117975   3.418   2.507   8.022 -0.8342 -0.0709  1.4850
 2114SOL    HW217976   3.479   2.572   8.149 -1.2303 -2.1673 -0.0399
 2115SOL     OW17977   3.297   3.729   8.004  0.1302  0.6438 -0.4599
 2115SOL    HW117978   3.277   3.651   8.056 -0.0404  2.3908  2.1500
 2115SOL    HW217979   3.249   3.797   8.052  0.9208 -0.0175  1.2790
 2116SOL     OW17980   0.136   3.126   4.322  0.3582 -0.4536  0.3777
 2116SOL    HW117981   0.059   3.074   4.342  0.0787  0.1642  0.8857
 2116SOL    HW217982   0.200   3.101   4.389 -0.0158 -1.9610  0.1726
 2117SOL     OW17983   2.921   2.288   8.069  0.2886 -0.0581 -0.1800
 2117SOL    HW117984   2.994   2.345   8.041 -0.0324  0.0683 -0.7612
 2117SOL    HW217985   2.950   2.199   8.053 -1.6366 -1.0053  1.5659
 2118SOL     OW17986   2.504   1.923  12.924 -0.1360 -0.1321 -0.6233
 2118SOL    HW117987   2.481   1.857  12.989  1.6352 -0.2661 -0.1291
 2118SOL    HW217988   2.453   1.885  12.853 -1.6487  0.6160  0.0608
 2119SOL     OW17989   3.161   3.415   2.121  0.1427  0.1855 -0.3377
 2119SOL    HW117990   3.180   3.441   2.211  1.1406  1.3311 -0.8816
 2119SOL    HW217991   3.085   3.359   2.137  0.5784 -0.3766 -0.2324
 2120SOL     OW17992   3.564   2.038   4.595 -0.3396  0.2633  0.1566
 2120SOL    HW117993   3.598   1.960   4.637 -1.0104 -0.4002 -0.5269
 2120SOL    HW217994   3.610   2.047   4.512 -2.2644  3.4574 -0.5502
 2121SOL     OW17995   2.412   1.741   4.240 -0.1781  0.2246  0.2107
 2121SOL    HW117996   2.506   1.759   4.232 -0.0433 -0.8529 -0.6852
 2121SOL    HW217997   2.368   1.807   4.187 -0.9431 -0.7214 -0.3331
 2122SOL     OW17998   1.568   3.456   8.236  0.6503  0.1534  0.1411
 2122SOL    HW117999   1.479   3.423   8.247  0.7369  0.0039  0.3903
 2122SOL    HW218000   1.575   3.458   8.140  1.1551  0.8824  0.1905
 2123SOL     OW18001   3.944   4.651   5.407 -0.4426  0.2861 -0.0013
 2123SOL    HW118002   3.892   4.731   5.402 -0.4832  0.2606  0.0072
 2123SOL    HW218003   4.019   4.666   5.351  0.3862 -0.2405  0.9623
 2124SOL     OW18004   2.858   2.565  10.189 -0.0422  0.0726  0.0589
 2124SOL    HW118005   2.812   2.639  10.147 -1.1272 -1.3549 -1.2523
 2124SOL    HW218006   2.812   2.563  10.273 -2.4149 -0.0674 -1.2423
 2125SOL     OW18007   0.739   3.280   7.997  0.2980  0.5182 -0.2676
 2125SOL    HW118008   0.679   3.241   7.934  0.6031  0.0345 -0.2591
 2125SOL    HW218009   0.801   3.208   8.012  1.2279  1.2495 -0.5572
 2126SOL     OW18010   1.193   1.833  11.320  0.7347  0.4303 -0.0901
 2126SOL    HW118011   1.199   1.883  11.401 -0.1530 -1.7893  1.3449
 2126SOL    HW218012   1.169   1.749  11.359  1.4327  0.1987 -0.1592
 2127SOL     OW18013   1.930   1.449   5.036 -0.1148 -0.1759  0.2284
 2127SOL    HW118014   1.891   1.448   4.949 -1.2390 -0.5724  0.7301
 2127SOL    HW218015   1.959   1.540   5.044 -1.6133  0.4103 -0.8464
 2128SOL     OW18016   2.986   4.635   9.533 -0.1321 -0.2315  0.0529
 2128SOL    HW118017   2.981   4.684   9.451  0.5123 -0.9283 -0.4012
 2128SOL    HW218018   3.073   4.656   9.567 -1.5796  3.2803  1.5989
 2129SOL     OW18019   4.181   0.932   1.400 -0.1356  0.2717  0.3226
 2129SOL    HW118020   4.116   0.865   1.380  0.1655 -0.3683  1.4835
 2129SOL    HW218021   4.132   0.954   1.479 -2.9503 -0.4933 -1.2057
 2130SOL     OW18022   2.869   3.405   1.674 -0.0145  0.4058 -0.1147
 2130SOL    HW118023   2.904   3.315   1.675  0.6708  0.6761  0.4865
 2130SOL    HW218024   2.794   3.381   1.620 -1.4061  0.7119  1.6665
 2131SOL     OW18025   3.033   4.645  11.680  0.0923 -0.1615  0.3221
 2131SOL    HW118026   3.080   4.566  11.706  1.6254  0.1029 -1.6834
 2131SOL    HW218027   3.107   4.699  11.650  0.5916  0.1185  2.0431
 2132SOL     OW18028   0.637   0.029  12.229  0.2880  0.1765  0.0943
 2132SOL    HW118029   0.580   0.016  12.304  0.8995  1.5289  0.8091
 2132SOL    HW218030   0.649   4.677  12.204 -1.1734 -0.2639  1.0053
 2133SOL     OW18031   3.701   2.455   6.447  0.0437 -0.0286 -0.0537
 2133SOL    HW118032   3.643   2.473   6.373 -0.8671 -0.6356  0.5147
 2133SOL    HW218033   3.642   2.438   6.521 -0.2234 -2.7566 -0.8819
 2134SOL     OW18034   2.266   3.110   7.940 -0.1736  0.5210 -0.5271
 2134SOL    HW118035   2.214   3.159   7.876  0.8035  0.7809 -1.1268
 2134SOL    HW218036   2.206   3.037   7.948  0.7333 -0.6873 -4.6289
 2135SOL     OW18037   3.635   0.796   6.219 -0.2119 -0.4429  0.5722
 2135SOL    HW118038   3.551   0.823   6.181  0.2441  0.3670  0.1348
 2135SOL    HW218039   3.642   0.708   6.181 -2.2316 -0.3470 -0.0340
 2136SOL     OW18040   2.691   2.244   9.283  0.0835  0.4240 -0.2386
 2136SOL    HW118041   2.626   2.254   9.215  0.2040  0.9885 -0.2724
 2136SOL    HW218042   2.740   2.165   9.260 -0.1852  0.0358  0.4979
 2137SOL     OW18043   2.840   0.464   4.512 -0.6210 -0.0992 -0.1694
 2137SOL    HW118044   2.777   0.402   4.550 -0.2282 -0.2066  0.3135
 2137SOL    HW218045   2.894   0.489   4.587 -2.1133  0.1756  0.8134
 2138SOL     OW18046   3.947   2.385  15.506  0.0545  0.0059 -0.7077
 2138SOL    HW118047   3.939   2.319  15.438 -1.9030 -1.6025  1.0945
 2138SOL    HW218048   4.032   2.425  15.485  0.6403 -0.6875  0.3236
 2139SOL     OW18049   4.380   0.959   8.023 -0.4998  0.1005 -0.2470
 2139SOL    HW118050   4.446   0.919   8.079 -0.3217 -3.1737 -2.7664
 2139SOL    HW218051   4.392   0.897   7.951 -0.2009  1.2502 -1.1817
 2140SOL     OW18052   1.810   2.404   1.788 -0.0054  0.3110  0.3752
 2140SOL    HW118053   1.887   2.348   1.797  1.1388  2.0061  1.2270
 2140SOL    HW218054   1.772   2.401   1.701  0.3759  0.1281  0.2176
 2141SOL     OW18055   0.500   0.439  12.592 -0.1209  0.5465 -0.2815
 2141SOL    HW118056   0.538   0.399  12.513 -3.5834 -2.9997 -0.1680
 2141SOL    HW218057   0.565   0.427  12.661 -0.1683 -0.1850 -0.3584
 2142SOL     OW18058   1.972   3.579   8.498 -0.7111  0.0575 -0.8431
 2142SOL    HW118059   1.895   3.609   8.450  0.7678 -0.1011 -3.3204
 2142SOL    HW218060   2.036   3.580   8.427 -0.0886  2.3618 -0.2461
 2143SOL     OW18061   1.572   2.332  10.872 -0.2601 -0.1974 -0.0246
 2143SOL    HW118062   1.571   2.428  10.875  0.6769 -0.1169 -2.5101
 2143SOL    HW218063   1.483   2.308  10.896  0.2487 -1.2489  0.8145
 2144SOL     OW18064   1.784   2.522   6.970  0.3039 -0.0184  0.0483
 2144SOL    HW118065   1.712   2.579   6.943  1.6055  1.3256 -0.6075
 2144SOL    HW218066   1.850   2.591   6.971  1.8312 -1.4460 -1.1893
 2145SOL     OW18067   1.196   4.199  10.397 -0.0673 -0.0909 -0.0441
 2145SOL    HW118068   1.255   4.271  10.374 -0.7131  0.3231 -0.3924
 2145SOL    HW218069   1.118   4.246  10.425 -2.0036 -1.5611 -2.9828
 2146SOL     OW18070   2.319   0.518   2.379  0.3401  0.0610  0.1784
 2146SOL    HW118071   2.394   0.459   2.369  2.0439  2.2986 -0.0214
 2146SOL    HW218072   2.280   0.491   2.462 -1.8970  0.1891 -0.8114
 2147SOL     OW18073   3.732   3.700   6.379  0.0591 -0.2180 -0.0621
 2147SOL    HW118074   3.641   3.694   6.407  1.0817 -0.8641  3.1365
 2147SOL    HW218075   3.763   3.717   6.468  0.8987 -1.9253 -0.0172
 2148SOL     OW18076   2.696   1.985   1.588  0.6281 -0.4586 -0.4787
 2148SOL    HW118077   2.638   2.014   1.658 -0.9212 -2.7778 -0.7971
 2148SOL    HW218078   2.694   1.891   1.605  1.7985 -0.4954 -0.5554
 2149SOL     OW18079   2.937   2.724  14.752  0.7374  0.2444  0.0816
 2149SOL    HW118080   2.956   2.695  14.662  1.8355  0.9780  0.0933
 2149SOL    HW218081   2.846   2.693  14.757  0.4670  0.9218 -0.6688
 2150SOL     OW18082   2.091   3.736   5.720  0.3405  0.1088  0.0394
 2150SOL    HW118083   2.028   3.748   5.649  0.0617  2.0070  0.6034
 2150SOL    HW218084   2.176   3.744   5.676 -0.6442  0.8797 -1.6878
 2151SOL     OW18085   1.788   0.301   4.602  0.7382  0.0479  0.0118
 2151SOL    HW118086   1.770   0.389   4.571  2.6586  0.5436  0.2761
 2151SOL    HW218087   1.778   0.309   4.697 -2.2838  0.3926 -0.3348
 2152SOL     OW18088   2.429   3.741   9.196  0.0104 -0.0961  0.4813
 2152SOL    HW118089   2.515   3.782   9.200  0.7589 -1.7019  0.8618
 2152SOL    HW218090   2.441   3.663   9.142 -0.5013  0.8110 -0.9568
 2153SOL     OW18091   3.171   3.405   4.344 -0.0137  0.6156 -0.0487
 2153SOL    HW118092   3.223   3.401   4.264  0.2492 -1.1857  0.2143
 2153SOL    HW218093   3.082   3.409   4.309  0.3808 -3.1766 -1.5134
 2154SOL     OW18094   0.650   0.490   3.670  0.3622  0.0091  0.0051
 2154SOL    HW118095   0.604   0.475   3.753  0.4086 -0.0803  0.0141
 2154SOL    HW218096   0.652   0.407   3.624  1.0401  0.9090 -1.5683
 2155SOL     OW18097   0.998   1.935   2.927  0.0537  0.4018  0.4452
 2155SOL    HW118098   0.983   1.951   2.834  0.5175  0.8232  0.4446
 2155SOL    HW218099   0.910   1.917   2.960 -0.6826 -0.6623 -2.0736
 2156SOL     OW18100   2.072   2.886  10.370  0.4003  0.0972  0.0183
 2156SOL    HW118101   2.164   2.883  10.343  0.3563  2.2376 -0.3612
 2156SOL    HW218102   2.088   2.928  10.454  1.2950 -0.2715  0.0275
 2157SOL     OW18103   3.080   3.424  11.288  0.2864  0.0378 -0.0614
 2157SOL    HW118104   3.012   3.472  11.335  0.1563 -1.1827  0.9753
 2157SOL    HW218105   3.151   3.407  11.350 -0.4819  3.9269  1.8853
 2158SOL     OW18106   3.562   3.706   2.093  0.3827  0.4920  0.1559
 2158SOL    HW118107   3.525   3.721   2.006 -1.5782 -0.4866  0.8186
 2158SOL    HW218108   3.561   3.791   2.135  1.1877  0.6418 -0.1155
 2159SOL     OW18109   4.544   3.885   4.859  0.5942 -0.3991  0.6000
 2159SOL    HW118110   4.593   3.895   4.940  1.2418  0.1885  0.1395
 2159SOL    HW218111   4.500   3.801   4.871  0.7602 -0.1393  2.8722
 2160SOL     OW18112   2.312   1.979   3.269 -1.0619 -0.1575  0.2323
 2160SOL    HW118113   2.353   2.058   3.306 -0.7783  0.2466 -0.9436
 2160SOL    HW218114   2.239   2.024   3.227  0.9755 -0.3635 -3.4725
 2161SOL     OW18115   1.870   1.755   6.159 -0.1120  0.3398 -0.0517
 2161SOL    HW118116   1.906   1.679   6.204  0.2699  1.1664  1.0681
 2161SOL    HW218117   1.820   1.791   6.233  0.7223 -0.8246  1.0849
 2162SOL     OW18118   4.290   1.445   9.686 -0.4504 -0.1869  0.1767
 2162SOL    HW118119   4.244   1.375   9.733 -0.2791 -1.3139 -1.3381
 2162SOL    HW218120   4.251   1.449   9.599  0.4165  2.8292 -0.0526
 2163SOL     OW18121   1.131   0.114   2.441  0.0160 -0.2978 -0.1363
 2163SOL    HW118122   1.059   0.100   2.380  0.7392 -1.6812 -0.6776
 2163SOL    HW218123   1.143   0.029   2.483 -1.4789 -0.7546 -0.6299
 2164SOL     OW18124   0.285   0.900   9.115  0.1913  0.2279  0.2385
 2164SOL    HW118125   0.318   0.990   9.123  1.2592  0.0210 -1.8915
 2164SOL    HW218126   0.284   0.865   9.204 -1.3253  1.7476  0.8133
 2165SOL     OW18127   0.841   2.800   5.251  0.3760 -0.8280 -0.1463
 2165SOL    HW118128   0.755   2.759   5.242 -0.4201  1.2726 -2.1934
 2165SOL    HW218129   0.898   2.727   5.277 -0.7222 -1.5920  0.1306
 2166SOL     OW18130   3.935   4.117   2.568  0.1029 -0.6778 -0.0065
 2166SOL    HW118131   3.976   4.154   2.645  2.4386  0.1232 -1.6376
 2166SOL    HW218132   3.862   4.076   2.615 -0.5076 -0.4944 -0.7865
 2167SOL     OW18133   3.389   1.934   1.462  0.0670  0.2169  0.4678
 2167SOL    HW118134   3.384   2.024   1.492 -0.4303 -0.0479  1.1844
 2167SOL    HW218135   3.324   1.935   1.392  4.5163  2.6596 -3.5917
 2168SOL     OW18136   2.434   1.939   3.006 -0.0241 -0.3453 -0.0057
 2168SOL    HW118137   2.384   1.859   2.990  1.6005 -1.2413 -0.6679
 2168SOL    HW218138   2.414   1.956   3.098 -0.7124 -1.0318 -0.0337
 2169SOL     OW18139   2.652   0.098   4.978  0.0328 -0.4285  0.8623
 2169SOL    HW118140   2.740   0.098   4.940 -0.1073  0.5617  0.5247
 2169SOL    HW218141   2.626   0.008   4.963  0.6273 -0.6571  1.1817
 2170SOL     OW18142   4.324   3.057   8.340 -0.0649 -0.6976 -0.3255
 2170SOL    HW118143   4.359   2.985   8.391 -0.9937  0.2575  1.6519
 2170SOL    HW218144   4.342   3.132   8.397  2.3830 -2.4917  1.2496
 2171SOL     OW18145   4.649   1.190   7.119  0.6380  1.0119  0.2392
 2171SOL    HW118146   4.693   1.217   7.038  2.0234  0.6530  0.8949
 2171SOL    HW218147   4.653   1.096   7.102 -2.6132  1.3656 -2.6427
 2172SOL     OW18148   1.978   1.965  16.660 -0.2312 -0.0812 -0.5559
 2172SOL    HW118149   2.042   2.008  16.718 -1.9903  2.7608 -0.7172
 2172SOL    HW218150   2.034   1.950  16.584  0.6827 -0.7085  0.2388
 2173SOL     OW18151   3.859   0.620  17.175 -0.2934 -0.3758  0.1111
 2173SOL    HW118152   3.871   0.583  17.263  0.0727  1.3265  0.7746
 2173SOL    HW218153   3.938   0.673  17.171  0.2677 -1.1811  0.4063
 2174SOL     OW18154   2.775   1.194  10.644  0.3118 -0.3533  0.4522
 2174SOL    HW118155   2.721   1.153  10.576 -1.6447  0.5339  1.4596
 2174SOL    HW218156   2.746   1.146  10.722 -0.1142 -1.0193 -0.1137
 2175SOL     OW18157   2.078   2.263   2.651  0.2831 -0.0878 -0.2893
 2175SOL    HW118158   2.163   2.306   2.655 -0.7926  1.9790  0.1148
 2175SOL    HW218159   2.096   2.186   2.596  1.4882  0.7169 -1.0140
 2176SOL     OW18160   1.077   1.523  16.795 -0.1242 -0.3746 -0.3182
 2176SOL    HW118161   1.159   1.551  16.837 -0.3935  0.4642 -0.3390
 2176SOL    HW218162   1.090   1.441  16.748  0.3969 -0.0999 -0.6564
 2177SOL     OW18163   1.037   4.608   9.123  0.0160 -0.0223  0.3472
 2177SOL    HW118164   0.952   4.624   9.164  0.7147 -1.5260  2.3287
 2177SOL    HW218165   1.038   4.690   9.073 -1.8815  0.2550  0.7495
 2178SOL     OW18166   2.533   1.916   7.820 -0.1285  0.6852 -0.0675
 2178SOL    HW118167   2.559   1.995   7.772  0.0657  0.6053 -0.0938
 2178SOL    HW218168   2.478   1.962   7.883 -2.2974 -1.4579 -0.4260
 2179SOL     OW18169   1.571   4.317   5.773  0.6794  0.3062  0.5430
 2179SOL    HW118170   1.551   4.410   5.764  0.3262  0.1406 -0.4541
 2179SOL    HW218171   1.664   4.325   5.795  0.9147 -1.9894  0.4007
 2180SOL     OW18172   0.074   4.702   0.009  0.0733 -0.2771  0.4697
 2180SOL    HW118173   4.719   4.695   0.026  0.0987 -3.9572 -0.8293
 2180SOL    HW218174   0.106   4.630   0.064  0.3116  0.1183  0.8465
 2181SOL     OW18175   0.707   1.321   8.397  0.1079  0.6642 -0.2134
 2181SOL    HW118176   0.655   1.299   8.474  0.0709  1.5211  0.0050
 2181SOL    HW218177   0.756   1.397   8.427  1.7791 -0.1673 -0.8253
 2182SOL     OW18178   4.058   3.230   8.641 -0.3668 -0.1528 -0.6052
 2182SOL    HW118179   4.128   3.276   8.594  0.5053  0.8902  1.7500
 2182SOL    HW218180   4.106   3.150   8.663  0.0767 -0.3633 -2.3264
 2183SOL     OW18181   2.448   1.045   8.544 -0.3403 -0.1071 -0.5830
 2183SOL    HW118182   2.500   1.083   8.615 -1.8039 -0.1359  0.5111
 2183SOL    HW218183   2.520   1.015   8.488  0.1178 -1.2750  0.6335
 2184SOL     OW18184   0.018   3.148   6.014 -0.1722 -0.3535 -0.1092
 2184SOL    HW118185   0.108   3.162   5.985 -0.7868 -0.5907 -2.1261
 2184SOL    HW218186   4.729   3.238   5.993  0.8840  0.0320  0.1474
 2185SOL     OW18187   0.839   0.772   2.169 -0.6550 -0.0186  0.1028
 2185SOL    HW118188   0.755   0.759   2.214 -2.2291 -0.9355 -3.0860
 2185SOL    HW218189   0.856   0.861   2.200  1.1107  0.2184 -1.5155
 2186SOL     OW18190   1.857   0.325   9.036  0.4383  0.0811 -0.3667
 2186SOL    HW118191   1.823   0.378   9.107 -1.8718 -0.8856 -0.7667
 2186SOL    HW218192   1.925   0.388   9.010 -0.6764  1.3735 -0.1191
 2187SOL     OW18193   0.551   2.013   6.020  0.3209 -0.3961 -0.4210
 2187SOL    HW118194   0.496   2.086   6.047  1.6928  0.5576 -0.1810
 2187SOL    HW218195   0.494   1.972   5.956  0.6234 -0.7760 -0.4451
 2188SOL     OW18196   2.943   4.441   7.698  0.3448 -0.2820  0.1856
 2188SOL    HW118197   2.992   4.522   7.689  0.1833 -0.4430 -2.0287
 2188SOL    HW218198   2.907   4.460   7.785  0.8176  0.1684  0.2861
 2189SOL     OW18199   0.387   0.086   2.330  0.7268 -0.2536  0.4471
 2189SOL    HW118200   0.390   4.730   2.331  0.6874 -0.2545  0.5106
 2189SOL    HW218201   0.479   0.109   2.345  0.4734 -0.2818  2.0294
 2190SOL     OW18202   2.111   1.226   3.033 -0.8291 -0.0715 -0.0658
 2190SOL    HW118203   2.108   1.271   3.118  2.3044  1.4841 -0.7550
 2190SOL    HW218204   2.154   1.143   3.052 -0.1694  1.2875  4.3052
 2191SOL     OW18205   0.349   4.555   2.365 -0.0027 -0.2139 -0.1410
 2191SOL    HW118206   0.402   4.487   2.407 -0.0337 -1.2104 -1.6874
 2191SOL    HW218207   0.273   4.496   2.364  0.7166 -1.1314 -0.7201
 2192SOL     OW18208   0.445   1.976  14.839  0.5366  0.5551 -0.2125
 2192SOL    HW118209   0.484   1.892  14.863 -3.1681 -0.3997  2.4656
 2192SOL    HW218210   0.353   1.952  14.837  0.3293  1.2230  1.1104
 2193SOL     OW18211   0.844   1.471  11.275  0.0024 -0.3740  0.9643
 2193SOL    HW118212   0.825   1.564  11.260 -0.2024 -0.6678 -0.6884
 2193SOL    HW218213   0.798   1.427  11.204  2.3367  0.1594 -0.9202
 2194SOL     OW18214   0.117   4.509   3.394 -0.3946 -0.1342 -0.1136
 2194SOL    HW118215   0.209   4.515   3.369 -0.2198  0.7043  0.7602
 2194SOL    HW218216   0.099   4.419   3.364  1.3201 -0.2615 -0.7281
 2195SOL     OW18217   4.377   3.304   6.152  0.3477 -0.0959 -0.5004
 2195SOL    HW118218   4.444   3.265   6.208 -1.2939  0.3943  1.7920
 2195SOL    HW218219   4.431   3.349   6.087  1.3580  0.1915  0.5318
 2196SOL     OW18220   1.232   4.374   1.372 -0.7743 -0.0541 -0.1631
 2196SOL    HW118221   1.139   4.372   1.392 -0.6565  1.4103  0.5546
 2196SOL    HW218222   1.219   4.375   1.277 -1.3819 -1.9176 -0.1033
 2197SOL     OW18223   2.221   2.585   9.978  0.2817  0.3426  0.0585
 2197SOL    HW118224   2.285   2.627  10.035 -0.9025 -1.5817  2.7980
 2197SOL    HW218225   2.136   2.609  10.015 -0.0596 -1.7013  0.6097
 2198SOL     OW18226   3.471   0.404   1.538  0.0091  0.1431  0.6116
 2198SOL    HW118227   3.540   0.405   1.472 -0.0196  1.8038  0.6066
 2198SOL    HW218228   3.453   0.310   1.543  0.3436  0.0443 -0.0786
 2199SOL     OW18229   3.866   3.006   0.375  0.4723  0.1748 -0.5814
 2199SOL    HW118230   3.788   2.951   0.374  0.0585  0.7271  1.5191
 2199SOL    HW218231   3.878   3.019   0.469  0.0721 -1.0750 -0.3661
 2200SOL     OW18232   2.635   2.210   8.406 -0.2897  0.3092  0.7887
 2200SOL    HW118233   2.588   2.279   8.452 -1.1628  1.0234 -1.1710
 2200SOL    HW218234   2.721   2.214   8.448  0.2631  1.4937 -0.4729
 2201SOL     OW18235   2.789   3.590   1.430  0.3219  0.1605  0.5251
 2201SOL    HW118236   2.754   3.501   1.431  0.0675  0.2747  1.3914
 2201SOL    HW218237   2.801   3.610   1.523  2.1992 -1.6170  0.6626
 2202SOL     OW18238   2.928   4.409   3.382  0.7056  0.1893  0.3140
 2202SOL    HW118239   3.008   4.460   3.374  1.0519 -0.0563  2.2465
 2202SOL    HW218240   2.896   4.414   3.292  1.2535 -2.4066 -0.0232
 2203SOL     OW18241   2.392   3.860   6.145  0.4508  0.2891  0.3767
 2203SOL    HW118242   2.359   3.818   6.225 -0.1994  1.3018  0.6326
 2203SOL    HW218243   2.464   3.798   6.132  0.0556  0.3091 -1.9221
 2204SOL     OW18244   0.741   4.337  17.424  0.5307 -0.2068 -0.0124
 2204SOL    HW118245   0.822   4.366  17.466  1.1612 -0.4805 -1.0406
 2204SOL    HW218246   0.718   4.257  17.471 -0.6865  0.4086  0.4393
 2205SOL     OW18247   0.799   1.640   1.641 -0.0849 -0.0035 -0.2062
 2205SOL    HW118248   0.772   1.568   1.584 -2.0444 -0.2569  1.0126
 2205SOL    HW218249   0.725   1.697   1.619  1.2467  1.2502 -1.4018
 2206SOL     OW18250   1.971   2.333   9.185 -0.1224 -0.1282 -0.5324
 2206SOL    HW118251   1.888   2.379   9.176  0.7009  1.0673 -2.1711
 2206SOL    HW218252   1.968   2.280   9.106 -2.6403  0.5691 -0.8805
 2207SOL     OW18253   4.555   0.430   2.110  0.3590  0.3169 -0.3263
 2207SOL    HW118254   4.547   0.520   2.142 -0.2739 -0.0226  0.4954
 2207SOL    HW218255   4.627   0.394   2.162  0.6516  2.1321  0.5394
 2208SOL     OW18256   3.029   4.708   3.336 -0.2456 -0.1209 -0.1205
 2208SOL    HW118257   3.071   4.671   3.259 -1.6512  0.6346 -1.2676
 2208SOL    HW218258   2.951   0.010   3.297  0.2812  1.4000  0.4410
 2209SOL     OW18259   2.572   3.921   3.308 -0.2526 -0.4142 -0.1346
 2209SOL    HW118260   2.587   3.904   3.215  1.0008  2.9048 -0.5680
 2209SOL    HW218261   2.639   3.865   3.347  1.8599  1.0638 -1.6417
 2210SOL     OW18262   3.008   3.476  15.631 -0.6273  0.7239  0.2733
 2210SOL    HW118263   3.072   3.527  15.681  0.2937 -0.1759  0.0093
 2210SOL    HW218264   2.925   3.523  15.642 -0.0519  1.9193 -0.4601
 2211SOL     OW18265   1.420   0.629   3.509 -0.3166 -0.3085 -0.1654
 2211SOL    HW118266   1.402   0.723   3.512 -0.9538 -0.4811  1.3029
 2211SOL    HW218267   1.338   0.596   3.473  1.0419 -2.2458 -1.5085
 2212SOL     OW18268   3.110   3.615  11.084  0.2754  0.0377  0.1644
 2212SOL    HW118269   3.093   3.535  11.133 -0.1616  1.6110  2.5973
 2212SOL    HW218270   3.165   3.666  11.143  1.6834 -2.1634  0.7375
 2213SOL     OW18271   2.076   4.149   8.634  0.4295  0.0721  0.0060
 2213SOL    HW118272   2.148   4.196   8.675 -0.3804  1.1152  0.2329
 2213SOL    HW218273   2.026   4.214   8.584 -0.9172  0.1020  1.4170
 2214SOL     OW18274   0.863   4.579   5.747  0.4317  0.0478 -0.3044
 2214SOL    HW118275   0.864   4.633   5.826  0.6078 -0.4991  0.0647
 2214SOL    HW218276   0.922   4.507   5.771 -0.0805 -0.5988 -1.0027
 2215SOL     OW18277   3.189   2.235  17.126 -0.2933 -0.8195 -0.6423
 2215SOL    HW118278   3.100   2.264  17.105 -0.5505 -0.5060  0.8157
 2215SOL    HW218279   3.242   2.253  17.049  2.3266  1.7494  1.7605
 2216SOL     OW18280   0.449   3.403  13.802 -0.0562 -0.4363 -0.1709
 2216SOL    HW118281   0.370   3.457  13.812  0.8545  1.0250 -0.8755
 2216SOL    HW218282   0.498   3.454  13.738  1.5247 -0.4588  1.0377
 2217SOL     OW18283   3.522   2.331   5.945 -0.2725 -0.0804 -0.3152
 2217SOL    HW118284   3.596   2.284   5.906 -0.8887 -0.3185 -1.1989
 2217SOL    HW218285   3.467   2.258   5.973  1.2577 -0.8337  0.7295
 2218SOL     OW18286   4.291   2.415  12.186  0.5370  0.2284  0.3311
 2218SOL    HW118287   4.360   2.411  12.252 -0.7319  2.7955  1.8009
 2218SOL    HW218288   4.344   2.410  12.106  0.7034 -0.2793  0.4732
 2219SOL     OW18289   2.504   4.618   0.735  0.7984  0.1956  0.1895
 2219SOL    HW118290   2.586   4.606   0.783  1.2465  2.2634 -0.0511
 2219SOL    HW218291   2.538   4.634   0.647  1.1117  2.7397  0.7627
 2220SOL     OW18292   1.871   2.670   9.012  0.4656  0.2164  0.0107
 2220SOL    HW118293   1.905   2.629   9.092 -1.2067 -0.2616  0.4720
 2220SOL    HW218294   1.777   2.662   9.027  0.7854  1.7135  2.7833
 2221SOL     OW18295   2.071   3.281   5.799 -0.2303  0.1992  0.0198
 2221SOL    HW118296   2.004   3.349   5.805 -0.0528  0.4837 -1.1780
 2221SOL    HW218297   2.005   3.212   5.800  1.1521 -1.1060  1.1502
 2222SOL     OW18298   0.283   1.843   3.844  0.1923 -0.2028 -0.3003
 2222SOL    HW118299   0.211   1.879   3.895  1.2372  1.6956 -0.1853
 2222SOL    HW218300   0.268   1.751   3.821  0.2957  0.2514 -2.2388
 2223SOL     OW18301   3.972   1.796   2.550  0.1588  0.6551  0.1191
 2223SOL    HW118302   4.003   1.861   2.614  0.0250 -0.4296  1.2866
 2223SOL    HW218303   4.038   1.729   2.568 -0.0221 -0.1112 -2.0870
 2224SOL     OW18304   1.174   2.365   4.945  0.1441 -0.2603 -0.1562
 2224SOL    HW118305   1.221   2.414   5.012  1.7708 -1.0305 -0.7419
 2224SOL    HW218306   1.173   2.430   4.876 -3.4994  1.5163  1.5647
 2225SOL     OW18307   0.958   2.079   4.486  0.5550 -0.8673 -0.6134
 2225SOL    HW118308   0.891   2.028   4.441  0.2548  0.3777 -1.5891
 2225SOL    HW218309   0.976   2.157   4.433 -0.5206 -0.0588  0.1970
 2226SOL     OW18310   4.446   2.502   4.874 -0.4575  0.1579  0.2680
 2226SOL    HW118311   4.509   2.483   4.943 -0.1226  1.7264  0.3881
 2226SOL    HW218312   4.382   2.434   4.896 -0.9146  0.7128  0.6531
 2227SOL     OW18313   1.348   2.127   3.483 -0.1844  0.0108 -0.0052
 2227SOL    HW118314   1.306   2.138   3.398  0.4725 -0.3540 -0.3740
 2227SOL    HW218315   1.279   2.134   3.549 -0.3904  1.8151 -0.3892
 2228SOL     OW18316   3.092   0.517   4.908 -0.5457  0.3336  0.0729
 2228SOL    HW118317   3.118   0.527   4.816 -0.1341  1.5261  0.3176
 2228SOL    HW218318   3.069   0.425   4.921  1.9824 -0.7174 -2.5881
 2229SOL     OW18319   1.300   2.007   5.721 -0.4360 -0.5102 -0.2741
 2229SOL    HW118320   1.373   2.028   5.662 -0.7708 -1.3346 -0.9950
 2229SOL    HW218321   1.330   1.929   5.768  1.4159 -0.2124 -0.9768
 2230SOL     OW18322   2.935   4.604   6.225 -0.0980 -0.3323  0.1810
 2230SOL    HW118323   2.873   4.669   6.258 -0.2379 -0.1513 -0.4322
 2230SOL    HW218324   2.882   4.526   6.211 -0.8517  0.4744 -1.5955
 2231SOL     OW18325   2.557   4.105   7.940 -0.4957  0.1409 -0.4168
 2231SOL    HW118326   2.573   4.194   7.971 -1.0602  0.1516 -0.1585
 2231SOL    HW218327   2.462   4.105   7.933 -0.4862  0.5651 -0.5609
 2232SOL     OW18328   0.467   0.479   2.227 -0.7936  0.0929 -0.1294
 2232SOL    HW118329   0.413   0.548   2.187  0.2969  0.1388 -1.5154
 2232SOL    HW218330   0.510   0.548   2.278 -1.7633  1.2566 -0.8744
 2233SOL     OW18331   4.498   0.520   8.908  0.2933 -0.0218 -0.5359
 2233SOL    HW118332   4.500   0.613   8.930 -2.0279 -0.0895  0.0249
 2233SOL    HW218333   4.473   0.526   8.816 -0.6354  0.9864 -0.2143
 2234SOL     OW18334   1.597   2.528  12.121 -0.5263 -0.6414 -0.4505
 2234SOL    HW118335   1.569   2.552  12.032 -1.1581  0.5507  0.0712
 2234SOL    HW218336   1.693   2.528  12.113 -0.4915  0.6896 -0.1489
 2235SOL     OW18337   3.678   2.403   4.070  0.2487 -0.4790 -0.2551
 2235SOL    HW118338   3.750   2.425   4.012  0.1020 -2.9875 -1.4007
 2235SOL    HW218339   3.671   2.309   4.053 -0.0403 -0.3553 -0.8098
 2236SOL     OW18340   0.429   4.119   5.098  0.2799  0.1106 -0.2936
 2236SOL    HW118341   0.487   4.193   5.117 -1.5157  1.5706 -0.4820
 2236SOL    HW218342   0.344   4.160   5.115 -0.2105 -0.5048 -1.2822
 2237SOL     OW18343   3.344   3.448   7.880 -0.1687 -0.0061 -0.1980
 2237SOL    HW118344   3.309   3.495   7.955  0.0851  0.1503 -0.1795
 2237SOL    HW218345   3.428   3.420   7.916 -0.5333  0.6629  1.1483
 2238SOL     OW18346   2.605   1.437   5.997 -0.0235 -0.1001  0.4859
 2238SOL    HW118347   2.689   1.476   5.973  0.5753 -1.1106  0.9920
 2238SOL    HW218348   2.626   1.361   6.050  1.5539 -0.4788 -0.6937
 2239SOL     OW18349   3.456   1.131  10.319  0.3151 -0.4370 -0.6590
 2239SOL    HW118350   3.446   1.036  10.305  1.2764 -0.3541 -1.8979
 2239SOL    HW218351   3.364   1.144  10.344  0.0709 -0.4015 -1.5625
 2240SOL     OW18352   1.992   0.159   7.764  0.4722 -0.4530 -0.0024
 2240SOL    HW118353   1.964   0.174   7.673 -1.5333 -1.1742  0.4963
 2240SOL    HW218354   1.913   0.191   7.807  2.5211  2.5054  1.5266
 2241SOL     OW18355   0.063   1.819   4.201  0.0725 -0.1935  0.1469
 2241SOL    HW118356   0.116   1.899   4.204  0.9721 -0.8295  1.8736
 2241SOL    HW218357   0.119   1.746   4.175  0.6360  0.1689  0.3398
 2242SOL     OW18358   3.909   3.610   9.356  0.2005 -0.2509  0.1349
 2242SOL    HW118359   3.818   3.582   9.361  0.7152 -1.9370  0.0529
 2242SOL    HW218360   3.961   3.537   9.390  0.1737 -1.0718 -1.5942
 2243SOL     OW18361   1.228   0.033   4.179 -0.2951  0.4034 -0.3632
 2243SOL    HW118362   1.244   4.713   4.252 -1.0073  1.4040  0.5924
 2243SOL    HW218363   1.134   0.046   4.187 -0.3717 -0.3589  0.0305
 2244SOL     OW18364   4.365   4.523   2.676  0.6630 -0.4886 -0.6039
 2244SOL    HW118365   4.284   4.515   2.725  2.2165 -0.1306  2.0398
 2244SOL    HW218366   4.390   4.612   2.704  0.4961 -0.4522 -0.5680
 2245SOL     OW18367   2.221   4.236   1.695  0.0626  0.2265 -0.2107
 2245SOL    HW118368   2.246   4.149   1.663 -4.6869  0.0164 -3.2948
 2245SOL    HW218369   2.305   4.263   1.733  0.9288  0.6098 -2.4232
 2246SOL     OW18370   4.298   1.169   8.468 -0.1710  0.6513 -0.3482
 2246SOL    HW118371   4.359   1.103   8.436 -0.9312 -0.3247  0.1923
 2246SOL    HW218372   4.350   1.248   8.483 -2.2305  2.2987 -1.7767
 2247SOL     OW18373   1.865   1.743   3.470 -0.1817  0.2188 -0.1804
 2247SOL    HW118374   1.776   1.770   3.492 -1.5131 -2.0242 -2.8466
 2247SOL    HW218375   1.892   1.829   3.437  0.4729  0.3652  0.7224
 2248SOL     OW18376   3.228   0.525   2.200  0.1139 -0.2334  0.0160
 2248SOL    HW118377   3.236   0.596   2.264 -0.8297 -2.9874  3.1483
 2248SOL    HW218378   3.293   0.463   2.232  0.4354  0.7502  1.2527
 2249SOL     OW18379   3.700   2.502   7.045  0.8636 -0.6920  0.2846
 2249SOL    HW118380   3.711   2.427   6.986  3.9748 -0.0468  0.0600
 2249SOL    HW218381   3.604   2.506   7.044  0.8185 -1.8142  2.6255
 2250SOL     OW18382   3.672   3.971  13.577  0.7098  0.1965 -0.0803
 2250SOL    HW118383   3.621   4.045  13.544  1.9929  1.4163  0.6626
 2250SOL    HW218384   3.627   3.956  13.660  0.5126 -0.1624 -0.2489
 2251SOL     OW18385   0.958   0.296   8.758  0.1795  0.2155 -0.1010
 2251SOL    HW118386   0.929   0.333   8.675 -0.5108 -0.1765 -0.0378
 2251SOL    HW218387   1.049   0.269   8.739  0.2458 -0.1879  0.7905
 2252SOL     OW18388   0.544   0.453   3.916 -0.0863 -0.0838  0.2062
 2252SOL    HW118389   0.456   0.492   3.920  0.7227  2.0166 -2.0374
 2252SOL    HW218390   0.573   0.504   3.991  0.4568 -0.1271  0.0289
 2253SOL     OW18391   0.079   3.160   0.740  0.5134 -0.1268 -0.0698
 2253SOL    HW118392   0.173   3.140   0.746 -0.2418 -2.8018  2.5438
 2253SOL    HW218393   0.081   3.255   0.753  1.9265  0.0005 -1.1481
 2254SOL     OW18394   4.698   2.806   7.804  0.0286 -0.3582  0.2796
 2254SOL    HW118395   4.675   2.825   7.895 -0.2217  0.3683  0.0590
 2254SOL    HW218396   4.612   2.798   7.762 -0.8422  1.0823  1.7855
 2255SOL     OW18397   1.806   4.433  17.703  0.6872 -0.3364 -0.1244
 2255SOL    HW118398   1.838   4.522  17.717  2.2788 -0.7851 -0.9365
 2255SOL    HW218399   1.721   4.461  17.669 -1.5857 -1.2144  4.7113
 2256SOL     OW18400   4.540   3.003   3.575  0.3692 -0.4017 -0.1012
 2256SOL    HW118401   4.496   3.082   3.543  1.1056 -0.0810 -0.3362
 2256SOL    HW218402   4.525   2.953   3.495  0.9564 -2.6028  1.1648
 2257SOL     OW18403   1.100   4.415   6.716 -0.0316  0.4204 -0.2239
 2257SOL    HW118404   1.034   4.371   6.768 -0.4230  0.9133 -0.3061
 2257SOL    HW218405   1.079   4.389   6.626 -0.4071 -1.4822  0.4107
 2258SOL     OW18406   2.993   0.463  12.275 -0.0733  0.4390  0.7116
 2258SOL    HW118407   2.989   0.416  12.359  0.2845  0.1847  0.5858
 2258SOL    HW218408   2.927   0.531  12.282  0.4415  0.9698  0.3887
 2259SOL     OW18409   1.027   0.867   5.966 -0.7334  0.1657 -0.2093
 2259SOL    HW118410   1.118   0.886   5.946 -1.2834  0.5516 -2.3523
 2259SOL    HW218411   1.023   0.775   5.991 -2.2334 -0.0794 -1.3592
 2260SOL     OW18412   0.592   1.206   2.294 -0.2400 -0.0414 -0.3356
 2260SOL    HW118413   0.686   1.202   2.311 -0.6961  0.8204  2.4047
 2260SOL    HW218414   0.591   1.213   2.199  1.2480 -0.3415 -0.3742
 2261SOL     OW18415   4.651   0.148   5.207  0.1599  0.1549  0.2662
 2261SOL    HW118416   4.712   0.215   5.238  0.5157 -0.7727  1.5213
 2261SOL    HW218417   4.679   0.132   5.117  0.9130 -1.5797  0.8144
 2262SOL     OW18418   3.478   3.640   5.976  0.3652 -0.0388  0.2401
 2262SOL    HW118419   3.556   3.670   6.023 -1.4321  0.5674  2.8276
 2262SOL    HW218420   3.417   3.656   6.048 -1.1386  0.6352 -1.1862
 2263SOL     OW18421   2.095   4.043   7.637 -0.5926 -0.2291  0.1609
 2263SOL    HW118422   2.024   3.985   7.609 -0.2066 -0.4068 -0.4389
 2263SOL    HW218423   2.101   4.111   7.570  1.0341 -1.5409 -1.0206
 2264SOL     OW18424   1.525   1.712   7.301 -0.1758 -0.0259  0.0245
 2264SOL    HW118425   1.607   1.755   7.324 -0.3937  0.7187 -0.5714
 2264SOL    HW218426   1.465   1.786   7.291  2.2976  1.7407 -1.8246
 2265SOL     OW18427   1.739   2.052  16.800  0.0830  0.1226 -0.0045
 2265SOL    HW118428   1.810   2.009  16.752  0.7522 -0.1312  1.2138
 2265SOL    HW218429   1.679   1.981  16.826  1.0097 -1.2754 -1.6879
 2266SOL     OW18430   3.217   3.669  13.915  0.5409 -0.2620  0.3244
 2266SOL    HW118431   3.303   3.675  13.874  0.7999  0.3777  0.9434
 2266SOL    HW218432   3.219   3.718  13.998  3.5228  1.0113 -0.4990
 2267SOL     OW18433   0.247   2.558   5.120 -0.4464  0.2001 -0.2305
 2267SOL    HW118434   0.252   2.505   5.199  1.0732  2.4108  1.1664
 2267SOL    HW218435   0.227   2.486   5.060 -2.0475  0.2194  0.2758
 2268SOL     OW18436   2.997   3.263   9.158  0.0741  0.1167  0.0829
 2268SOL    HW118437   2.949   3.334   9.115 -0.0565 -0.4770 -0.7502
 2268SOL    HW218438   3.078   3.315   9.159 -0.9525  1.7022  1.1499
 2269SOL     OW18439   0.451   1.568   4.067 -0.6997 -0.6016 -0.3057
 2269SOL    HW118440   0.490   1.504   4.126 -0.0946 -0.1093 -0.1794
 2269SOL    HW218441   0.377   1.596   4.121  0.7679  1.1626  0.7485
 2270SOL     OW18442   3.453   0.382   4.618  0.7928 -0.1184  0.4296
 2270SOL    HW118443   3.461   0.477   4.621 -2.0549  0.1139  0.4579
 2270SOL    HW218444   3.524   0.348   4.564 -1.2426 -3.9146  0.1507
 2271SOL     OW18445   2.938   2.936  12.608  0.2791  0.2393  0.1319
 2271SOL    HW118446   2.998   2.911  12.537  1.2186  1.0929  0.6273
 2271SOL    HW218447   3.004   2.987  12.654 -0.8823  3.7301 -2.0967
 2272SOL     OW18448   1.693   3.508   3.641  0.0795 -0.2555  0.2879
 2272SOL    HW118449   1.631   3.466   3.581  0.3709 -3.0418  1.9419
 2272SOL    HW218450   1.772   3.519   3.587 -0.8706 -0.9310 -1.2417
 2273SOL     OW18451   3.850   2.697   6.822 -0.4063 -0.0279 -0.4867
 2273SOL    HW118452   3.819   2.751   6.749 -0.4229 -1.2520 -1.3809
 2273SOL    HW218453   3.769   2.705   6.873 -0.3191 -1.1210 -0.1757
 2274SOL     OW18454   3.123   2.608  16.289  0.6132 -0.9014  0.2488
 2274SOL    HW118455   3.205   2.560  16.306  0.4855 -1.1043  0.2915
 2274SOL    HW218456   3.153   2.653  16.210 -1.5050  0.2699  0.1334
 2275SOL     OW18457   4.464   4.674   2.925 -0.2738  0.0206  0.3174
 2275SOL    HW118458   4.394   4.651   2.986 -0.4819 -2.1713 -0.7437
 2275SOL    HW218459   4.470   0.029   2.943  1.6690 -0.1101  0.3459
 2276SOL     OW18460   0.545   0.686  17.242 -0.0125  0.1032  0.1994
 2276SOL    HW118461   0.538   0.628  17.317 -1.1833 -2.3761 -1.8305
 2276SOL    HW218462   0.534   0.621  17.173 -0.5122  1.0245 -0.5889
 2277SOL     OW18463   0.978   1.738   6.966 -0.2330 -0.0482 -0.2061
 2277SOL    HW118464   0.993   1.683   7.042  2.6873  1.3315  0.2365
 2277SOL    HW218465   0.941   1.677   6.903 -0.3033 -2.6524  2.3583
 2278SOL     OW18466   4.103   0.349   1.702  0.2606  0.0514  0.1831
 2278SOL    HW118467   4.056   0.375   1.781  0.0568  0.5154 -0.0912
 2278SOL    HW218468   4.194   0.361   1.728  0.5491  0.8361 -1.2235
 2279SOL     OW18469   3.081   3.751   5.984  0.3164 -0.0959 -0.2755
 2279SOL    HW118470   3.114   3.668   6.018  0.3759 -0.3743 -0.9964
 2279SOL    HW218471   3.011   3.721   5.927 -0.7255  1.6349  0.0782
 2280SOL     OW18472   4.251   1.161  14.256 -0.6558 -0.0094  0.3794
 2280SOL    HW118473   4.340   1.190  14.279  0.6656 -2.6086 -1.4192
 2280SOL    HW218474   4.272   1.074  14.221 -0.0211  0.5749 -0.7139
 2281SOL     OW18475   3.725   2.707   2.741  0.3966  0.1729 -0.1444
 2281SOL    HW118476   3.649   2.711   2.683 -0.1325 -2.3424  0.3531
 2281SOL    HW218477   3.685   2.654   2.810 -0.6056  0.2214 -0.6879
 2282SOL     OW18478   3.104   4.510   5.339 -0.4729 -0.3606 -0.2390
 2282SOL    HW118479   3.021   4.533   5.297  0.0982  0.7517 -0.7524
 2282SOL    HW218480   3.076   4.419   5.352 -1.0679 -0.1507 -0.1008
 2283SOL     OW18481   2.853   0.397   5.937  0.0737  0.4507  0.5148
 2283SOL    HW118482   2.889   0.451   5.866  0.7940 -0.9115 -0.1613
 2283SOL    HW218483   2.923   0.403   6.002 -1.0282 -0.0529  1.7516
 2284SOL     OW18484   4.273   0.169   3.387  0.4747  0.5905 -0.3119
 2284SOL    HW118485   4.305   0.118   3.313  0.3649 -0.7687  0.5839
 2284SOL    HW218486   4.223   0.237   3.341 -0.6218 -0.8224 -1.2169
 2285SOL     OW18487   0.108   4.415   2.288 -0.9530 -0.1793 -0.1153
 2285SOL    HW118488   0.073   4.358   2.220 -0.0522 -1.1244  0.2250
 2285SOL    HW218489   0.027   4.455   2.318  0.6838  1.6956  1.7768
 2286SOL     OW18490   4.110   3.103   4.028 -0.1305  0.0941  0.4851
 2286SOL    HW118491   4.151   3.102   3.941 -2.5358  0.0423 -0.6476
 2286SOL    HW218492   4.040   3.040   4.009  0.2845 -0.4187  0.6587
 2287SOL     OW18493   0.355   1.666   5.629  0.4542  0.0747  0.0328
 2287SOL    HW118494   0.362   1.574   5.656  0.6787 -0.5000 -1.9301
 2287SOL    HW218495   0.322   1.652   5.540  1.3760 -2.2174  0.0282
 2288SOL     OW18496   1.185   1.888   1.804 -0.3905 -0.2446 -0.0828
 2288SOL    HW118497   1.170   1.817   1.741  0.7318  1.3732 -2.1909
 2288SOL    HW218498   1.144   1.964   1.762 -1.2644 -0.3893  0.5068
 2289SOL     OW18499   3.880   3.075   6.974 -0.5073 -0.2327  0.2717
 2289SOL    HW118500   3.871   3.161   6.933 -0.7870  0.0923  1.0174
 2289SOL    HW218501   3.804   3.075   7.032  0.3237  1.1775  1.3701
 2290SOL     OW18502   2.684   3.303   4.197  0.2335 -0.1982  0.2923
 2290SOL    HW118503   2.673   3.213   4.167  1.3010 -0.3273  0.2809
 2290SOL    HW218504   2.642   3.352   4.127  0.7172  0.9675  0.8233
 2291SOL     OW18505   1.448   4.168  16.557  0.5516  0.1865 -0.2917
 2291SOL    HW118506   1.442   4.073  16.561  0.1832  0.3357  3.3699
 2291SOL    HW218507   1.491   4.185  16.641  0.8537 -0.9107 -0.2317
 2292SOL     OW18508   2.860   1.789   9.370  0.2412  0.5388 -0.1824
 2292SOL    HW118509   2.845   1.883   9.379 -1.3703  0.3870 -1.2654
 2292SOL    HW218510   2.919   1.776   9.444 -1.6500  0.4563  1.3152
 2293SOL     OW18511   1.969   2.952   4.618  0.1271  0.5020  0.4960
 2293SOL    HW118512   2.031   3.008   4.572 -0.2132 -0.3418 -0.9972
 2293SOL    HW218513   1.891   3.008   4.618  1.3957  2.2495  2.1145
 2294SOL     OW18514   1.286   3.881  16.872 -0.2650 -0.5464  0.3368
 2294SOL    HW118515   1.216   3.926  16.920  1.3726  1.2315  1.0345
 2294SOL    HW218516   1.265   3.899  16.781  0.8283 -0.0723  0.1842
 2295SOL     OW18517   3.408   0.055  16.910  0.0210 -0.1267 -0.0065
 2295SOL    HW118518   3.341   0.123  16.918  1.0231  0.8510  0.1902
 2295SOL    HW218519   3.465   0.086  16.840 -0.2913 -0.6868 -0.5079
 2296SOL     OW18520   3.539   3.022  15.142 -0.1172 -0.2404 -0.0919
 2296SOL    HW118521   3.507   2.938  15.175 -0.2651 -0.5138 -0.9368
 2296SOL    HW218522   3.496   3.012  15.058  0.9063  1.9369 -0.8548
 2297SOL     OW18523   1.222   2.614   8.308 -0.5350 -0.2800 -0.1927
 2297SOL    HW118524   1.237   2.610   8.213 -0.9781  0.5267 -0.2980
 2297SOL    HW218525   1.162   2.688   8.318 -1.5425 -0.9902 -0.9435
 2298SOL     OW18526   1.016   1.330   7.524 -0.0986  0.1597  0.6242
 2298SOL    HW118527   1.086   1.388   7.493 -1.0202 -0.3557 -2.4033
 2298SOL    HW218528   0.940   1.349   7.469  0.1932 -1.0586 -0.2179
 2299SOL     OW18529   1.988   3.247   3.026  0.3132  0.6650 -0.5078
 2299SOL    HW118530   1.897   3.229   3.047  0.3449 -2.4177 -2.9489
 2299SOL    HW218531   2.010   3.159   2.995  0.1532  0.7064 -0.7386
 2300SOL     OW18532   2.681   3.115  14.703 -0.2892  0.2623 -0.2715
 2300SOL    HW118533   2.674   3.210  14.700  0.0477  0.3029  0.3007
 2300SOL    HW218534   2.605   3.098  14.648  0.0630 -0.4331 -0.5537
 2301SOL     OW18535   4.358   0.142   8.715  0.6393  0.2440  0.6823
 2301SOL    HW118536   4.266   0.116   8.717  0.9599 -0.9420 -0.6715
 2301SOL    HW218537   4.355   0.183   8.629 -0.4991 -1.2673  0.0064
 2302SOL     OW18538   0.289   4.050   4.231 -0.0535  0.3046  0.7709
 2302SOL    HW118539   0.221   4.089   4.286 -0.4754 -0.2659  0.6533
 2302SOL    HW218540   0.321   3.991   4.299  0.6571  0.0777  0.2356
 2303SOL     OW18541   0.308   3.153   5.310 -0.5797 -0.3559 -0.1388
 2303SOL    HW118542   0.290   3.165   5.216  1.2165 -1.9245 -0.6989
 2303SOL    HW218543   0.309   3.245   5.335 -1.3525 -0.6462  0.9510
 2304SOL     OW18544   0.818   1.751  10.099 -0.3743  0.3766  0.4031
 2304SOL    HW118545   0.731   1.711  10.109  0.1096 -0.5564  0.8801
 2304SOL    HW218546   0.876   1.694  10.049 -0.1342  1.3965 -0.4654
 2305SOL     OW18547   4.255   3.361  10.604  0.1389 -0.4119 -0.5320
 2305SOL    HW118548   4.321   3.385  10.539  2.3034 -0.3860  1.6884
 2305SOL    HW218549   4.282   3.270  10.615 -2.0288 -0.6632  2.7530
 2306SOL     OW18550   2.723   1.510   5.555 -0.1064 -0.3514 -0.3905
 2306SOL    HW118551   2.766   1.432   5.588  0.2566 -0.5808 -1.4124
 2306SOL    HW218552   2.640   1.484   5.515  0.6712 -0.7043 -1.7615
 2307SOL     OW18553   4.415   1.211   4.914  0.3546 -0.5653  0.2840
 2307SOL    HW118554   4.390   1.270   4.984  0.7624 -0.4654  0.3446
 2307SOL    HW218555   4.406   1.119   4.941 -0.4375 -0.7462 -0.5812
 2308SOL     OW18556   0.799   2.839   6.103  0.4631  0.7318  0.2343
 2308SOL    HW118557   0.841   2.760   6.068 -2.0663 -0.2649 -0.5449
 2308SOL    HW218558   0.734   2.793   6.155  1.4606 -0.5476  0.3780
 2309SOL     OW18559   1.871   3.398   0.284 -0.5924 -0.1751 -0.4059
 2309SOL    HW118560   1.875   3.461   0.357 -1.5556 -0.2839 -0.2625
 2309SOL    HW218561   1.854   3.315   0.329  1.2588  0.1515  0.9250
 2310SOL     OW18562   3.131   4.425   6.616 -0.2224 -0.0164 -0.4266
 2310SOL    HW118563   3.083   4.499   6.651  0.3912  0.1713  0.0265
 2310SOL    HW218564   3.219   4.461   6.628  0.5340 -1.8090 -0.5406
 2311SOL     OW18565   2.730   0.522  12.359 -0.1014  0.1645 -0.1571
 2311SOL    HW118566   2.669   0.451  12.381  0.7908 -0.4107  0.4591
 2311SOL    HW218567   2.717   0.587  12.428  0.8013  1.0296 -0.8022
 2312SOL     OW18568   3.881   1.474   9.598 -0.0197  0.2500  0.1112
 2312SOL    HW118569   3.894   1.529   9.521 -1.5332  0.4158 -0.0231
 2312SOL    HW218570   3.786   1.470   9.605  0.0131 -0.6411  0.0472
 2313SOL     OW18571   0.379   2.170   8.897  0.1076 -0.2461  0.2128
 2313SOL    HW118572   0.286   2.156   8.881  0.2513  0.3756 -1.1208
 2313SOL    HW218573   0.398   2.264   8.898  0.0795 -0.2200 -1.3771
 2314SOL     OW18574   1.774   2.441   3.938  0.0861 -0.5278  0.7631
 2314SOL    HW118575   1.778   2.467   4.029  1.9307  1.7360  0.0290
 2314SOL    HW218576   1.788   2.346   3.944  0.8239 -0.4298  0.4855
 2315SOL     OW18577   3.986   2.483   8.905 -0.3613 -0.1528 -0.2680
 2315SOL    HW118578   4.003   2.464   8.813 -1.3038 -1.0827 -0.2529
 2315SOL    HW218579   4.062   2.440   8.944 -0.7446  0.0203  0.6801
 2316SOL     OW18580   3.116   1.482   4.399 -0.3918  0.6372 -0.6058
 2316SOL    HW118581   3.208   1.459   4.415 -0.5176 -0.3227 -1.2785
 2316SOL    HW218582   3.105   1.453   4.309 -1.1267  0.2556 -0.3887
 2317SOL     OW18583   3.791   1.739  16.979 -0.3048  0.4668 -0.2916
 2317SOL    HW118584   3.821   1.743  17.070  1.5251  1.4638 -0.9461
 2317SOL    HW218585   3.801   1.645  16.961 -0.8995  1.0004 -3.4768
 2318SOL     OW18586   3.716   1.398   6.976  0.4045  0.2339  0.1342
 2318SOL    HW118587   3.746   1.349   7.053  0.0546 -1.8469 -1.0700
 2318SOL    HW218588   3.786   1.367   6.919 -0.0352 -1.5278  0.5600
 2319SOL     OW18589   2.685   1.478   2.109 -0.3238  0.1389 -0.3055
 2319SOL    HW118590   2.655   1.412   2.047 -0.5620 -1.3873  1.4491
 2319SOL    HW218591   2.763   1.516   2.067 -1.6277  2.0698 -1.0147
 2320SOL     OW18592   4.035   2.734  12.507  0.5012 -0.1992 -0.3625
 2320SOL    HW118593   4.016   2.767  12.595 -1.3047 -1.3221 -0.3438
 2320SOL    HW218594   3.959   2.768  12.459 -1.1622  1.0919  3.2391
 2321SOL     OW18595   1.161   3.651   2.653  0.5966 -0.1925 -0.0650
 2321SOL    HW118596   1.244   3.668   2.698 -0.5594  1.9308  1.2567
 2321SOL    HW218597   1.156   3.731   2.600  0.2596  0.4456  0.9161
 2322SOL     OW18598   0.537   4.710   8.198 -0.5406 -0.5026 -0.0267
 2322SOL    HW118599   0.584   4.637   8.236 -1.4836 -2.2590 -2.2295
 2322SOL    HW218600   0.466   4.656   8.162  0.7644 -1.1560 -1.5695
 2323SOL     OW18601   0.339   0.041   4.977  0.1981 -0.3132  0.1555
 2323SOL    HW118602   0.408   0.061   4.914  0.2810 -0.2458  0.2684
 2323SOL    HW218603   0.322   0.125   5.021  0.1461 -0.3924  0.2844
 2324SOL     OW18604   3.802   3.858  17.661 -0.5974 -0.7672  0.9129
 2324SOL    HW118605   3.707   3.866  17.653 -0.2981 -0.2613 -2.0707
 2324SOL    HW218606   3.833   3.890  17.745 -0.3393  1.1137  0.0957
 2325SOL     OW18607   3.756   0.098  11.627 -0.2785  0.7005  0.5705
 2325SOL    HW118608   3.671   0.118  11.666  0.4262  2.7516  1.0412
 2325SOL    HW218609   3.773   0.185  11.591  2.4350  0.1721  0.6056
 2326SOL     OW18610   4.400   1.711   3.760 -0.1308  0.3315  0.5726
 2326SOL    HW118611   4.321   1.665   3.790 -1.3215  2.2015  0.3449
 2326SOL    HW218612   4.407   1.677   3.671 -2.1733  0.5260  0.3349
 2327SOL     OW18613   3.001   3.769   1.774 -0.4945  0.2498  0.6110
 2327SOL    HW118614   3.038   3.769   1.862  0.0997  1.2062  0.3569
 2327SOL    HW218615   3.078   3.742   1.723 -0.5248  1.2334  0.0497
 2328SOL     OW18616   1.954   1.461  16.138 -0.9319  0.2131 -0.1587
 2328SOL    HW118617   1.898   1.538  16.138 -2.7743 -1.1266  1.1289
 2328SOL    HW218618   2.015   1.492  16.071  1.5999 -1.0459  1.5497
 2329SOL     OW18619   0.973   3.862   6.529  0.6437 -0.2901 -0.0129
 2329SOL    HW118620   0.968   3.920   6.454  4.1770 -0.9095 -0.7325
 2329SOL    HW218621   0.882   3.847   6.552  0.4187 -0.7767 -1.2488
 2330SOL     OW18622   3.628   3.505   6.907  0.4483 -0.0839  0.0722
 2330SOL    HW118623   3.561   3.473   6.967 -0.5326  1.7608 -0.0416
 2330SOL    HW218624   3.572   3.541   6.839 -1.4402 -0.7273  1.2799
 2331SOL     OW18625   2.449   3.003   1.378  0.6248  0.3723 -0.1964
 2331SOL    HW118626   2.362   3.016   1.416  0.5990  0.7990 -0.4035
 2331SOL    HW218627   2.461   3.086   1.332  1.5682  0.5512  0.3687
 2332SOL     OW18628   4.091   4.344   3.984  0.5736 -0.3378  0.3412
 2332SOL    HW118629   4.052   4.431   3.983  1.8561  0.2529  1.6341
 2332SOL    HW218630   4.140   4.351   4.066  0.0946 -0.6261  0.6522
 2333SOL     OW18631   3.888   2.847  15.781  0.0503 -0.0356 -0.1420
 2333SOL    HW118632   3.850   2.815  15.699 -1.1111  0.8116  0.0577
 2333SOL    HW218633   3.948   2.776  15.805 -0.0130 -0.2264 -0.5490
 2334SOL     OW18634   1.422   3.805  15.632  0.3851  0.1323  0.1608
 2334SOL    HW118635   1.347   3.865  15.632 -0.4551 -0.9417 -3.1490
 2334SOL    HW218636   1.489   3.872  15.649  1.2593 -0.5994 -0.4076
 2335SOL     OW18637   0.284   4.265  16.046  0.6048  0.0702  0.4175
 2335SOL    HW118638   0.363   4.211  16.043  2.0672  2.3243 -1.2226
 2335SOL    HW218639   0.307   4.337  16.105  0.4386  1.2735 -0.9971
 2336SOL     OW18640   1.416   0.120   3.986  0.5087 -0.3236  0.4337
 2336SOL    HW118641   1.495   0.139   4.036  1.4610 -0.7426 -0.9192
 2336SOL    HW218642   1.355   0.073   4.043 -1.3516  2.8206  1.0663
 2337SOL     OW18643   4.393   4.615  11.461 -0.0884 -0.3735 -0.2136
 2337SOL    HW118644   4.486   4.635  11.452 -0.5553  1.2401 -1.5401
 2337SOL    HW218645   4.381   4.584  11.372 -1.2701  0.4148 -0.3336
 2338SOL     OW18646   2.521   3.232   1.784 -0.2554 -0.4225 -0.0824
 2338SOL    HW118647   2.482   3.298   1.841 -1.7533 -1.5110  0.1612
 2338SOL    HW218648   2.543   3.170   1.854 -2.1386  0.6429  1.4450
 2339SOL     OW18649   0.225   4.261   5.534  0.3917  1.0003 -0.2468
 2339SOL    HW118650   0.253   4.170   5.520 -0.1140  1.0349 -1.5003
 2339SOL    HW218651   0.309   4.300   5.560 -0.2943  3.2121 -1.3690
 2340SOL     OW18652   3.658   4.455   3.553 -0.0210  0.0165 -0.1285
 2340SOL    HW118653   3.742   4.475   3.595 -1.1155  0.2584  1.9018
 2340SOL    HW218654   3.657   4.525   3.487  1.1156  0.1135 -0.0538
 2341SOL     OW18655   3.419   2.325   4.473 -0.4769 -0.1612 -0.1090
 2341SOL    HW118656   3.382   2.266   4.407 -0.0157  2.3024 -2.5939
 2341SOL    HW218657   3.480   2.375   4.418  1.5552 -1.5101  0.9163
 2342SOL     OW18658   0.150   2.283   6.233  0.0456  0.3366  0.5869
 2342SOL    HW118659   0.153   2.351   6.299 -0.0512  0.4004  0.5255
 2342SOL    HW218660   0.060   2.258   6.252  0.1925 -3.0691 -3.1940
 2343SOL     OW18661   4.640   3.570   6.397  0.0855  0.3739  0.4436
 2343SOL    HW118662   4.569   3.529   6.447 -1.0615  0.1351 -1.4092
 2343SOL    HW218663   4.693   3.498   6.363  0.2586  1.1469 -0.8927
 2344SOL     OW18664   2.241   1.842   6.210  0.3673 -0.4726 -0.7381
 2344SOL    HW118665   2.191   1.891   6.275 -0.3501 -2.3346  0.1270
 2344SOL    HW218666   2.295   1.916   6.183  0.1653 -1.0994 -2.8351
 2345SOL     OW18667   1.853   3.481   5.337  0.0882  0.3392 -0.5237
 2345SOL    HW118668   1.792   3.551   5.313 -3.1328 -1.6957  1.6960
 2345SOL    HW218669   1.840   3.409   5.275  1.2685 -0.0155 -0.3559
 2346SOL     OW18670   0.457   2.407  17.558 -0.2082 -0.7461 -0.1762
 2346SOL    HW118671   0.522   2.341  17.579  0.1440 -0.6663 -1.0305
 2346SOL    HW218672   0.382   2.349  17.573  1.3495 -1.7416  3.6037
 2347SOL     OW18673   2.576   3.955   0.064  0.0603 -0.4767 -0.0236
 2347SOL    HW118674   2.632   4.032   0.067 -0.3217 -0.2930  2.2015
 2347SOL    HW218675   2.644   3.889   0.049  0.4229  0.0804 -0.8120
 2348SOL     OW18676   1.081   2.372   3.662 -0.0322  0.2892 -0.3328
 2348SOL    HW118677   1.088   2.396   3.569  1.2809  0.8783 -0.0856
 2348SOL    HW218678   1.108   2.280   3.658  0.4987  0.4238  0.1729
 2349SOL     OW18679   4.634   2.628   6.467 -0.1531  0.5023 -0.9000
 2349SOL    HW118680   4.584   2.556   6.505 -0.0076  1.7502  1.6788
 2349SOL    HW218681   4.619   2.612   6.374  0.7986 -2.5237 -0.5307
 2350SOL     OW18682   4.363   1.388   8.628 -0.0458  0.2994  0.5359
 2350SOL    HW118683   4.432   1.433   8.676 -1.8360 -0.4095  3.7794
 2350SOL    HW218684   4.300   1.390   8.700 -1.3149 -0.7132 -0.5525
 2351SOL     OW18685   2.122   3.767   6.774 -0.0566 -0.2901 -0.0895
 2351SOL    HW118686   2.026   3.762   6.776 -0.1691  1.8498  0.4052
 2351SOL    HW218687   2.141   3.805   6.860  0.8635  1.1242 -0.9112
 2352SOL     OW18688   1.424   0.492  10.967  0.3547  0.3632 -0.2686
 2352SOL    HW118689   1.377   0.516  11.047 -2.0256 -1.6203 -1.0516
 2352SOL    HW218690   1.351   0.489  10.905  1.3019 -0.1032 -1.3604
 2353SOL     OW18691   4.248   3.376   8.468  0.2000 -0.1464 -0.4061
 2353SOL    HW118692   4.293   3.379   8.383 -1.8428 -1.7064 -1.5527
 2353SOL    HW218693   4.323   3.344   8.518 -0.8676 -1.4115  0.3856
 2354SOL     OW18694   0.026   3.875   3.464  0.0044 -0.2418  0.2859
 2354SOL    HW118695   4.670   3.869   3.454 -0.1610  2.5866  0.2691
 2354SOL    HW218696   0.050   3.826   3.385  1.1365  0.4532  0.1976
 2355SOL     OW18697   0.976   0.616   3.969  0.0015 -0.0929 -0.4525
 2355SOL    HW118698   0.914   0.665   3.915 -0.9348 -1.4471 -0.5962
 2355SOL    HW218699   1.020   0.547   3.919  0.7903  2.3816 -3.1567
 2356SOL     OW18700   4.639   3.888   8.562  0.0811  0.0328  0.1423
 2356SOL    HW118701   4.652   3.913   8.471 -1.8048  0.3605 -0.0367
 2356SOL    HW218702   4.584   3.809   8.564  0.8694 -0.5243 -0.7020
 2357SOL     OW18703   0.449   4.336   5.907  0.0889  0.1984  0.1052
 2357SOL    HW118704   0.542   4.358   5.915  0.4983 -0.3665 -3.1675
 2357SOL    HW218705   0.410   4.412   5.952 -0.1265  2.7655 -4.4321
 2358SOL     OW18706   2.987   1.264   4.490 -0.8720  0.5982 -0.3169
 2358SOL    HW118707   2.989   1.202   4.417 -1.9060  1.1616 -0.8222
 2358SOL    HW218708   3.017   1.344   4.447 -0.3534  0.7416  0.3109
 2359SOL     OW18709   4.149   2.984  11.352 -0.2114 -0.5430 -0.0896
 2359SOL    HW118710   4.219   3.017  11.408 -0.9760  0.6219  0.1720
 2359SOL    HW218711   4.080   2.967  11.415  0.6539  2.7270  1.7706
 2360SOL     OW18712   2.944   1.050   3.000  0.5385  0.5764  0.0795
 2360SOL    HW118713   2.865   0.998   2.993  0.5015  0.4312  1.5453
 2360SOL    HW218714   2.981   1.037   2.913 -1.1535  1.6500 -0.8013
 2361SOL     OW18715   4.430   3.010   9.904  0.3128 -0.6242 -0.1156
 2361SOL    HW118716   4.404   3.083   9.960 -0.4114 -2.0690  1.4321
 2361SOL    HW218717   4.402   2.936   9.958  2.5077 -0.8783  0.6839
 2362SOL     OW18718   1.435   2.509   1.229 -0.2153  0.1663 -1.0996
 2362SOL    HW118719   1.404   2.483   1.316  3.4312  1.3354  0.5559
 2362SOL    HW218720   1.469   2.424   1.203 -0.0271  0.0836 -0.5873
 2363SOL     OW18721   1.358   4.477  15.734 -0.3596  0.5937 -0.3435
 2363SOL    HW118722   1.267   4.496  15.711 -0.5229 -1.5156 -1.4357
 2363SOL    HW218723   1.363   4.542  15.804 -1.1681  0.6574 -0.3437
 2364SOL     OW18724   0.352   4.584   9.241  0.9693 -0.3291 -0.1134
 2364SOL    HW118725   0.375   4.491   9.237 -2.5451 -1.2058  0.2502
 2364SOL    HW218726   0.256   4.587   9.239  1.0061 -1.3426 -3.0855
 2365SOL     OW18727   4.258   1.387   5.372 -0.7409 -0.1587  0.5374
 2365SOL    HW118728   4.175   1.436   5.378 -0.2549  0.6989  0.2105
 2365SOL    HW218729   4.239   1.329   5.446 -0.9719 -0.8257 -0.0443
 2366SOL     OW18730   4.135   4.100  11.896  0.5948  0.1983  0.5377
 2366SOL    HW118731   4.041   4.086  11.907  0.8776 -1.7286  0.5664
 2366SOL    HW218732   4.135   4.105  11.800 -2.7545  1.3815  0.6126
 2367SOL     OW18733   3.638   2.046   8.861 -0.4108 -0.0080  0.5267
 2367SOL    HW118734   3.691   2.012   8.788  1.0935 -1.2563  2.2113
 2367SOL    HW218735   3.647   2.141   8.849  3.1364 -0.6411 -1.9587
 2368SOL     OW18736   3.031   4.387   1.968 -0.7090 -0.0531  0.0857
 2368SOL    HW118737   3.045   4.364   2.059 -0.8296  1.0018  0.3640
 2368SOL    HW218738   2.940   4.360   1.958 -0.6288 -0.0618 -0.6286
 2369SOL     OW18739   4.087   1.389   8.508  0.2290  0.0280  0.1197
 2369SOL    HW118740   4.181   1.387   8.526  0.1142 -0.4936  0.6368
 2369SOL    HW218741   4.085   1.351   8.420  1.0463  1.2874 -0.4517
 2370SOL     OW18742   3.726   2.306   5.392  0.3757  0.2949 -0.5087
 2370SOL    HW118743   3.782   2.300   5.469  0.4008  0.1435 -0.5388
 2370SOL    HW218744   3.795   2.308   5.326  0.0532  1.8313 -0.7931
 2371SOL     OW18745   3.903   0.849  16.263  0.8819 -0.4307 -0.0257
 2371SOL    HW118746   3.913   0.813  16.352  0.4102 -0.6005 -0.0424
 2371SOL    HW218747   3.932   0.778  16.206  0.7693  0.0057 -0.6192
 2372SOL     OW18748   2.789   0.540   0.384  0.3216 -0.0988  0.0011
 2372SOL    HW118749   2.825   0.552   0.296 -3.9708  0.8741 -1.6044
 2372SOL    HW218750   2.719   0.606   0.382 -2.2134 -2.7527  1.6516
 2373SOL     OW18751   2.667   4.678  10.485 -0.0938  0.6097 -0.3490
 2373SOL    HW118752   2.724   0.001  10.441  1.1846  1.7044  2.8207
 2373SOL    HW218753   2.583   4.722  10.503  0.3165  1.8388 -1.4268
 2374SOL     OW18754   2.266   2.312  11.061  0.5236  0.8945 -0.3354
 2374SOL    HW118755   2.307   2.393  11.028  1.7971  1.3848  2.4979
 2374SOL    HW218756   2.324   2.243  11.029 -2.3380 -0.4869 -2.5047
 2375SOL     OW18757   1.067   3.049   4.560  0.4427 -0.4647 -0.1165
 2375SOL    HW118758   1.077   3.014   4.472  2.4695  0.0000 -0.0776
 2375SOL    HW218759   1.124   3.125   4.546 -0.3325  0.5473  2.2191
 2376SOL     OW18760   2.734   3.279   3.736  0.7961  0.2157 -0.0194
 2376SOL    HW118761   2.641   3.274   3.713  0.5808  2.5200  0.3900
 2376SOL    HW218762   2.762   3.341   3.669  0.1922  0.7669  0.2483
 2377SOL     OW18763   1.092   4.590  12.390 -0.5738 -0.1126 -0.7640
 2377SOL    HW118764   1.131   4.579  12.476 -0.3044  2.7089 -0.4964
 2377SOL    HW218765   1.113   4.682  12.371  0.9356 -0.0290  1.3688
 2378SOL     OW18766   3.588   0.095   8.749 -0.1960  0.0789 -0.4665
 2378SOL    HW118767   3.657   0.094   8.815  0.0908  3.5457 -0.7072
 2378SOL    HW218768   3.583   0.001   8.732  1.3497 -0.0042 -0.4663
 2379SOL     OW18769   4.150   4.397   7.601  0.0210  0.2973  0.3677
 2379SOL    HW118770   4.200   4.477   7.583 -1.4612  0.3064 -3.5378
 2379SOL    HW218771   4.209   4.352   7.662  0.7379 -1.4253 -1.5874
 2380SOL     OW18772   0.676   4.412   1.835 -0.0818 -0.1179 -0.0362
 2380SOL    HW118773   0.645   4.490   1.789  0.1481  1.0876  1.8508
 2380SOL    HW218774   0.591   4.372   1.855 -0.6716  0.0110 -2.3756
 2381SOL     OW18775   2.920   3.987   7.282 -0.6182 -0.3474 -0.1243
 2381SOL    HW118776   2.948   3.905   7.322  2.1567  0.9884  0.7045
 2381SOL    HW218777   2.985   3.980   7.211  0.3895 -0.5259  0.8192
 2382SOL     OW18778   3.510   2.242   7.415  0.0255 -0.7443  0.3158
 2382SOL    HW118779   3.573   2.202   7.475  0.7096 -0.4113 -0.1848
 2382SOL    HW218780   3.429   2.197   7.440 -0.6395  1.0306  1.3216
 2383SOL     OW18781   0.419   0.139  12.923 -0.3249 -0.0003  0.4802
 2383SOL    HW118782   0.371   0.165  12.845  0.5011 -0.4442 -0.1670
 2383SOL    HW218783   0.442   0.050  12.896 -0.7424  0.3588 -1.0185
 2384SOL     OW18784   0.802   2.009  14.885 -0.1939 -0.0150  0.5070
 2384SOL    HW118785   0.763   1.943  14.942 -1.0142 -0.0183 -0.0536
 2384SOL    HW218786   0.785   2.085  14.941 -0.4818 -0.5167  1.0883
 2385SOL     OW18787   2.972   4.414  11.916  0.5592  0.0050  0.2957
 2385SOL    HW118788   3.021   4.346  11.869  0.0826 -0.9023  1.1166
 2385SOL    HW218789   3.031   4.414  11.992 -0.4286  1.3868  1.0573
 2386SOL     OW18790   2.591   1.880   2.187 -0.4236  0.6738 -0.3365
 2386SOL    HW118791   2.682   1.901   2.209 -0.5816  0.3953  0.5994
 2386SOL    HW218792   2.578   1.790   2.216  0.0916  0.7105  0.0086
 2387SOL     OW18793   0.897   0.460   3.498  0.2336  0.4984  0.2531
 2387SOL    HW118794   0.890   0.398   3.426 -1.9285 -0.7493  1.5697
 2387SOL    HW218795   0.970   0.420   3.546  0.7061 -2.2292 -2.7729
 2388SOL     OW18796   3.566   3.133   6.832  0.0763  0.5094  0.0409
 2388SOL    HW118797   3.652   3.174   6.820  0.3816  0.0468  0.6225
 2388SOL    HW218798   3.515   3.200   6.786  0.4330  1.7958  1.5080
 2389SOL     OW18799   1.653   3.776   8.141  0.2606 -0.2890  0.8043
 2389SOL    HW118800   1.626   3.799   8.052  2.1775  0.0961  0.3360
 2389SOL    HW218801   1.564   3.757   8.173 -1.1683  0.6878 -2.6206
 2390SOL     OW18802   2.267   0.642   8.711 -0.2444  0.0802  0.4085
 2390SOL    HW118803   2.223   0.723   8.739  1.5225  0.7198  1.3032
 2390SOL    HW218804   2.251   0.641   8.617 -1.7437 -0.9290  0.6706
 2391SOL     OW18805   3.588   4.268   5.886  0.2801  0.1190  0.0336
 2391SOL    HW118806   3.636   4.210   5.945  0.6585  0.7188  0.3226
 2391SOL    HW218807   3.656   4.274   5.819 -0.5847  2.8011 -0.6019
 2392SOL     OW18808   1.878   0.188  11.931 -0.5466 -0.0193  0.3316
 2392SOL    HW118809   1.910   0.126  11.866  0.6237 -1.0746  1.8929
 2392SOL    HW218810   1.873   0.270  11.883 -0.6150 -0.3768 -0.2644
 2393SOL     OW18811   4.303   3.244   6.799  0.3868 -0.1508  0.1342
 2393SOL    HW118812   4.243   3.266   6.870 -2.9346  0.7997 -3.0092
 2393SOL    HW218813   4.308   3.148   6.798  1.5982 -0.0811 -0.4878
 2394SOL     OW18814   2.175   0.666   1.284  0.3332 -0.4602 -0.1808
 2394SOL    HW118815   2.187   0.595   1.348 -0.3324  1.7097  2.3264
 2394SOL    HW218816   2.224   0.737   1.325 -0.7108  1.0078 -1.4920
 2395SOL     OW18817   1.296   2.099  14.002  0.6450 -0.1568 -0.7848
 2395SOL    HW118818   1.388   2.070  14.007  0.0295 -1.4611  2.8344
 2395SOL    HW218819   1.267   2.081  14.091  1.5516 -0.0833 -0.4667
 2396SOL     OW18820   2.703   1.084  16.907  0.1459 -0.4330 -0.3010
 2396SOL    HW118821   2.663   1.040  16.982 -1.1626 -0.9468 -1.3144
 2396SOL    HW218822   2.676   1.175  16.917  1.1983 -0.3872  2.2148
 2397SOL     OW18823   1.410   0.136   8.169  0.5763  0.8151 -0.0795
 2397SOL    HW118824   1.316   0.119   8.168  0.1380  3.0125  2.6805
 2397SOL    HW218825   1.408   0.201   8.099 -1.2411  1.3171  0.4310
 2398SOL     OW18826   3.995   2.312   5.604 -0.0255  0.0285  0.3370
 2398SOL    HW118827   3.975   2.393   5.652 -2.8346  0.3963 -1.4471
 2398SOL    HW218828   4.087   2.328   5.585  0.1522  0.4197  1.4877
 2399SOL     OW18829   3.231   3.105   7.193  0.4098 -0.1072 -0.4055
 2399SOL    HW118830   3.299   3.043   7.219 -0.8149 -1.5194 -0.5752
 2399SOL    HW218831   3.159   3.063   7.146  1.4342 -0.2409 -1.8323
 2400SOL     OW18832   0.458   0.644   4.135  0.4241  0.2121  0.1599
 2400SOL    HW118833   0.419   0.731   4.143 -0.0760  0.1112 -1.2302
 2400SOL    HW218834   0.455   0.609   4.224 -0.5763  1.2906  0.5453
 2401SOL     OW18835   0.211   2.373   7.802  0.0262 -0.2060 -0.0306
 2401SOL    HW118836   0.183   2.450   7.753 -1.6384 -1.0183 -0.3611
 2401SOL    HW218837   0.299   2.369   7.766  0.1327  0.1452  0.1973
 2402SOL     OW18838   0.286   2.774   4.092 -0.0427 -0.3340 -0.0515
 2402SOL    HW118839   0.344   2.781   4.167  0.3998  1.7386 -0.5878
 2402SOL    HW218840   0.293   2.681   4.069 -2.5096 -0.4654 -0.3325
 2403SOL     OW18841   4.465   3.879   9.292  0.1497  0.4079  0.0829
 2403SOL    HW118842   4.436   3.946   9.229 -3.7573 -2.3963 -1.1049
 2403SOL    HW218843   4.378   3.858   9.325  0.2759  0.0477  0.1819
 2404SOL     OW18844   0.930   3.053   3.061 -0.1288 -0.4564  0.0105
 2404SOL    HW118845   0.992   3.074   3.131 -1.3863  1.7819  0.4485
 2404SOL    HW218846   0.959   3.131   3.013 -1.0990 -0.0228  0.1336
 2405SOL     OW18847   0.505   4.275   9.639 -0.4883  0.3932  0.1699
 2405SOL    HW118848   0.516   4.235   9.553  0.4362  1.1238 -0.0563
 2405SOL    HW218849   0.420   4.318   9.635 -0.9787 -0.9362 -3.3060
 2406SOL     OW18850   1.768   2.507   5.641  0.2887  0.2264 -0.1543
 2406SOL    HW118851   1.727   2.585   5.678  0.1924 -0.0964  0.4080
 2406SOL    HW218852   1.803   2.463   5.718 -2.0719 -1.9134 -0.3178
 2407SOL     OW18853   2.827   1.562   5.909  0.1479  0.3180 -0.0013
 2407SOL    HW118854   2.877   1.622   5.964  2.6811 -0.2395 -1.7298
 2407SOL    HW218855   2.789   1.620   5.843 -0.9326 -1.9126 -1.3312
 2408SOL     OW18856   0.659   3.544   6.978  0.4991 -0.7232 -0.2148
 2408SOL    HW118857   0.728   3.551   7.044 -0.0124 -1.7193  0.4147
 2408SOL    HW218858   0.601   3.485   7.024 -0.9512  2.4618  2.0204
 2409SOL     OW18859   1.800   1.373   8.598  0.1276 -0.1284  0.3119
 2409SOL    HW118860   1.748   1.333   8.667 -0.4996 -0.0407 -0.1155
 2409SOL    HW218861   1.887   1.362   8.636  1.4570 -1.5840 -3.1620
 2410SOL     OW18862   3.093   0.137  10.677 -0.7760 -0.1651  0.1394
 2410SOL    HW118863   3.087   0.048  10.711  3.4317  0.3488  2.2685
 2410SOL    HW218864   3.004   0.159  10.650 -0.9799  0.3718  1.2373
 2411SOL     OW18865   2.284   0.925   1.324  0.1744  0.6011  0.2296
 2411SOL    HW118866   2.297   0.968   1.239  2.1628  1.2230  0.8318
 2411SOL    HW218867   2.374   0.909   1.355  0.2777 -1.4370 -1.1398
 2412SOL     OW18868   2.001   4.297   6.094 -0.4851 -0.1847 -0.0907
 2412SOL    HW118869   1.959   4.382   6.106 -2.5661 -1.5566  2.4822
 2412SOL    HW218870   2.087   4.323   6.062 -0.4511 -0.0049  0.1489
 2413SOL     OW18871   2.880   4.284   9.640 -0.3460  0.8678  0.4459
 2413SOL    HW118872   2.823   4.222   9.686 -3.5343  2.9770 -0.6912
 2413SOL    HW218873   2.811   4.333   9.596 -1.4376 -0.6013  0.5076
 2414SOL     OW18874   4.240   1.425   4.698  0.0533 -0.3249 -0.6326
 2414SOL    HW118875   4.328   1.459   4.717  0.2704 -1.1781 -0.1058
 2414SOL    HW218876   4.198   1.443   4.782  0.8244  0.0194 -0.3187
 2415SOL     OW18877   4.124   0.683   1.610  0.8580  0.2168 -0.1306
 2415SOL    HW118878   4.163   0.602   1.577 -2.7857 -1.3070 -0.6321
 2415SOL    HW218879   4.105   0.725   1.527  0.4225  2.0316  0.8747
 2416SOL     OW18880   0.544   2.760   2.057 -0.0316  0.8353  0.1296
 2416SOL    HW118881   0.508   2.848   2.069  1.0414  1.3222 -0.1833
 2416SOL    HW218882   0.517   2.756   1.965  0.0024  1.4588  0.0892
 2417SOL     OW18883   1.877   1.726   1.459 -0.3689  0.6412  0.3524
 2417SOL    HW118884   1.818   1.795   1.489  2.6098  1.8233  3.4739
 2417SOL    HW218885   1.933   1.779   1.402 -0.9427  0.9128  0.0370
 2418SOL     OW18886   1.052   4.295  13.319  0.7111 -0.1756 -0.0409
 2418SOL    HW118887   1.102   4.219  13.289 -1.9836 -1.3572 -1.5936
 2418SOL    HW218888   0.983   4.285  13.253 -0.6137  0.9595  1.1881
 2419SOL     OW18889   0.519   4.317   9.169  0.2401 -0.2782 -0.3698
 2419SOL    HW118890   0.500   4.264   9.247  0.4437 -2.9684 -2.1265
 2419SOL    HW218891   0.481   4.256   9.106 -0.8847  2.2203 -2.0522
 2420SOL     OW18892   2.477   2.758   2.349  0.1596 -0.3385  0.1393
 2420SOL    HW118893   2.509   2.809   2.423 -0.7322 -0.7377  0.8067
 2420SOL    HW218894   2.414   2.822   2.317  1.4987 -1.0946 -3.9853
 2421SOL     OW18895   2.128   0.498   7.878 -0.2175 -0.0792 -0.3202
 2421SOL    HW118896   2.083   0.560   7.935  0.5854  0.6418 -0.4658
 2421SOL    HW218897   2.076   0.500   7.798  2.0256  0.9572 -1.7640
 2422SOL     OW18898   0.936   2.728   3.758 -0.2653 -0.3367 -0.1977
 2422SOL    HW118899   0.862   2.678   3.724 -0.3215  0.3002 -1.0180
 2422SOL    HW218900   0.961   2.784   3.684  2.3044  1.3069  1.9509
 2423SOL     OW18901   3.931   2.294  15.925  0.0865  0.1471  0.2712
 2423SOL    HW118902   3.891   2.250  16.000 -3.2774  1.0128 -1.0318
 2423SOL    HW218903   3.946   2.374  15.976 -2.5465 -0.8490  2.6144
 2424SOL     OW18904   2.472   1.061   5.798  0.4359  0.4136 -0.4475
 2424SOL    HW118905   2.543   1.028   5.743 -0.0158 -0.4706 -0.5005
 2424SOL    HW218906   2.400   1.008   5.765  0.4685 -0.8246  1.4868
 2425SOL     OW18907   4.456   0.157  17.336 -0.0353 -0.2441  0.4134
 2425SOL    HW118908   4.370   0.182  17.368 -0.3965  0.1204 -0.8545
 2425SOL    HW218909   4.492   0.115  17.414 -0.6390 -0.0659  0.7761
 2426SOL     OW18910   2.663   0.209  15.865  0.1029  0.1523 -0.1737
 2426SOL    HW118911   2.741   0.203  15.810  0.8064 -0.6995  0.9170
 2426SOL    HW218912   2.614   0.282  15.826 -0.6674  1.0837  2.5157
 2427SOL     OW18913   4.734   3.798   2.561  0.2043  0.4941  0.4540
 2427SOL    HW118914   0.041   3.786   2.644 -0.1131 -1.0985  0.3867
 2427SOL    HW218915   0.004   3.893   2.552  0.7676  0.4564  0.6430
 2428SOL     OW18916   1.656   1.669   9.367 -0.6452 -0.2562  0.2054
 2428SOL    HW118917   1.674   1.693   9.458  0.5002  1.8751 -0.5888
 2428SOL    HW218918   1.628   1.579   9.385  0.3917 -0.9768 -1.8216
 2429SOL     OW18919   1.588   1.578  16.908  0.1160 -0.3878 -0.1861
 2429SOL    HW118920   1.653   1.647  16.916 -0.6965  0.2629  0.9578
 2429SOL    HW218921   1.604   1.539  16.823 -0.5711 -3.3625  1.0658
 2430SOL     OW18922   0.559   4.566   3.924 -0.6339  0.0524  0.1428
 2430SOL    HW118923   0.486   4.513   3.956  0.0527 -1.0309 -0.0641
 2430SOL    HW218924   0.625   4.518   3.974 -1.3650  1.0423  2.0415
 2431SOL     OW18925   0.376   4.575   7.068  0.0201 -0.1305  0.5591
 2431SOL    HW118926   0.402   4.594   7.159  2.4424  0.0553 -0.1744
 2431SOL    HW218927   0.281   4.583   7.078 -0.3431 -2.3040 -1.2277
 2432SOL     OW18928   0.361   3.121   6.504 -0.2498 -0.1448 -0.5464
 2432SOL    HW118929   0.325   3.065   6.435 -0.0133 -2.0923  0.9096
 2432SOL    HW218930   0.376   3.055   6.572 -2.5762 -1.2266 -1.0702
 2433SOL     OW18931   3.517   4.346   4.107  0.6303  0.6010 -0.0968
 2433SOL    HW118932   3.580   4.308   4.168 -0.0598  0.4548  0.5143
 2433SOL    HW218933   3.564   4.429   4.090 -1.4095  1.8236  0.2416
 2434SOL     OW18934   4.265   3.745   9.060 -0.0917  0.0811  0.1411
 2434SOL    HW118935   4.267   3.677   8.992  0.3845 -0.1161  0.3502
 2434SOL    HW218936   4.254   3.688   9.136  0.9999  0.2382  0.4154
 2435SOL     OW18937   3.473   3.807  10.697 -0.3295 -0.6389  0.1628
 2435SOL    HW118938   3.558   3.763  10.705 -0.5176 -0.9236  0.6021
 2435SOL    HW218939   3.428   3.740  10.646  0.8857  0.5317 -2.4169
 2436SOL     OW18940   3.469   2.764   6.036  0.5565  0.5284  0.4108
 2436SOL    HW118941   3.523   2.711   5.976  0.5861  0.8941  0.1092
 2436SOL    HW218942   3.485   2.851   5.997 -1.0276  0.9074  0.6151
 2437SOL     OW18943   4.088   1.726   3.033 -0.1400  0.1346  0.3837
 2437SOL    HW118944   4.150   1.711   3.104 -0.2556  0.3804  0.5372
 2437SOL    HW218945   4.074   1.820   3.039  0.9846  0.3890 -0.9279
 2438SOL     OW18946   3.866   4.063  12.918  0.0645 -0.1014  0.3865
 2438SOL    HW118947   3.836   3.982  12.960  0.9830 -1.6414 -1.9344
 2438SOL    HW218948   3.959   4.041  12.907  0.5379  2.2049 -0.1771
 2439SOL     OW18949   0.855   4.053   4.292 -0.6797  0.1280 -0.5249
 2439SOL    HW118950   0.898   4.051   4.378 -0.6697  0.4851 -0.5191
 2439SOL    HW218951   0.831   3.963   4.272 -2.2585  0.2878  0.6549
 2440SOL     OW18952   1.969   2.987  12.775  0.1544 -0.1301  0.1761
 2440SOL    HW118953   2.042   2.925  12.772  1.2560  1.1820 -0.5475
 2440SOL    HW218954   1.989   3.056  12.712 -0.7976  0.5963  0.6635
 2441SOL     OW18955   4.209   3.407   0.319  0.6513  0.1167 -0.1365
 2441SOL    HW118956   4.236   3.347   0.388 -3.0000 -0.8285  0.4620
 2441SOL    HW218957   4.115   3.426   0.329  0.5888  0.6391 -1.6385
 2442SOL     OW18958   1.656   2.860   7.962 -0.4446  0.2323  0.7492
 2442SOL    HW118959   1.589   2.800   7.929  0.9551 -1.1711  0.4524
 2442SOL    HW218960   1.732   2.803   7.950  0.6996  2.4229 -2.2897
 2443SOL     OW18961   4.702   1.553   7.774 -0.5955 -0.2827 -0.2098
 2443SOL    HW118962   4.668   1.464   7.775 -1.0118 -0.0988  1.1136
 2443SOL    HW218963   0.026   1.564   7.702  1.2802  1.2066  1.6627
 2444SOL     OW18964   4.625   3.048  10.754  0.1083 -0.1555 -0.4932
 2444SOL    HW118965   4.595   3.009  10.672  2.6603 -1.7123 -0.6839
 2444SOL    HW218966   4.541   3.078  10.790 -0.2293 -0.6763 -0.8459
 2445SOL     OW18967   4.572   1.287   5.217 -0.3520 -0.0521 -0.0657
 2445SOL    HW118968   4.649   1.343   5.214 -2.3262  2.6397 -1.1293
 2445SOL    HW218969   4.500   1.349   5.208 -0.0217  0.1655 -1.2015
 2446SOL     OW18970   0.058   4.397  14.686  0.2785  0.4147 -0.0666
 2446SOL    HW118971   0.124   4.341  14.727 -1.3002 -0.6550  0.9845
 2446SOL    HW218972   4.720   4.346  14.710  1.4526 -0.5179  1.7325
 2447SOL     OW18973   1.978   2.588  14.656  0.5719  0.3958  0.4767
 2447SOL    HW118974   1.920   2.648  14.704  1.2246  1.3266  0.0992
 2447SOL    HW218975   1.920   2.531  14.606  0.0743  1.0218  0.3473
 2448SOL     OW18976   4.679   3.751   3.029 -0.1723  0.4949  0.0494
 2448SOL    HW118977   4.637   3.673   3.064 -1.2584  1.0087 -0.1260
 2448SOL    HW218978   4.662   3.815   3.097  0.5916 -0.7517  1.4126
 2449SOL     OW18979   0.045   1.472   1.675 -0.2986 -0.0257  0.3585
 2449SOL    HW118980   4.700   1.485   1.630  0.7175 -1.9547 -2.1572
 2449SOL    HW218981   0.086   1.401   1.625 -0.3335  0.0315  0.2493
 2450SOL     OW18982   3.079   0.744   7.306  0.3734  0.6314 -0.0489
 2450SOL    HW118983   3.070   0.837   7.325 -0.3945  0.2994  1.1912
 2450SOL    HW218984   3.147   0.732   7.240  1.9304 -0.0140  1.6788
 2451SOL     OW18985   4.734   2.792   0.885 -0.4725 -0.1172 -0.6008
 2451SOL    HW118986   0.059   2.855   0.917  1.1637 -2.1062 -0.0018
 2451SOL    HW218987   0.012   2.798   0.791 -0.0131 -0.2846 -0.5278
 2452SOL     OW18988   3.806   1.448   8.915  0.3612 -0.4371  0.8178
 2452SOL    HW118989   3.846   1.382   8.858 -3.7293 -1.7662 -0.5606
 2452SOL    HW218990   3.765   1.394   8.983  1.8019  0.4917  2.4114
 2453SOL     OW18991   0.360   0.422   3.092 -0.1207 -0.1551 -0.0349
 2453SOL    HW118992   0.449   0.454   3.107  0.8699 -3.1031  0.4333
 2453SOL    HW218993   0.340   0.380   3.176 -0.2312  0.2283  0.1298
 2454SOL     OW18994   1.428   1.124   8.326  0.2485 -0.2932 -0.2946
 2454SOL    HW118995   1.397   1.180   8.255  0.5430 -0.3605 -0.4752
 2454SOL    HW218996   1.521   1.145   8.321 -0.3312  1.7336 -2.3085
 2455SOL     OW18997   3.212   0.644   8.066  0.0974  0.3068  0.4091
 2455SOL    HW118998   3.204   0.599   8.150 -0.1255  1.8174  1.1951
 2455SOL    HW218999   3.253   0.577   8.011 -2.1205 -1.2518  0.6357
 2456SOL     OW19000   1.176   3.758   8.144 -0.0982  0.7166  0.8184
 2456SOL    HW119001   1.167   3.819   8.070  0.9609 -0.8357 -0.6030
 2456SOL    HW219002   1.084   3.738   8.158 -0.0557  1.5254  2.2857
 2457SOL     OW19003   2.761   2.294  11.546 -0.4189  0.6419 -0.1005
 2457SOL    HW119004   2.785   2.384  11.523 -1.2528  1.1883  1.1820
 2457SOL    HW219005   2.692   2.306  11.612 -1.0401 -1.7609 -0.2873
 2458SOL     OW19006   4.089   0.054   6.748  0.0046  0.3380 -0.0697
 2458SOL    HW119007   4.150   4.721   6.763  0.3149  0.6402  0.1121
 2458SOL    HW219008   4.139   0.135   6.759  0.3781  0.0313  0.4925
 2459SOL     OW19009   0.751   4.360   7.131  0.4459 -0.1470  0.1613
 2459SOL    HW119010   0.677   4.299   7.137  0.2782  0.0729  0.3245
 2459SOL    HW219011   0.788   4.333   7.047  0.3445  0.7319 -0.1685
 2460SOL     OW19012   1.342   3.814   9.227  0.3959 -0.1573  0.0230
 2460SOL    HW119013   1.369   3.867   9.302 -1.4796 -1.1455  1.3957
 2460SOL    HW219014   1.419   3.758   9.217  0.6480  0.0679  0.6637
 2461SOL     OW19015   3.056   0.743   6.977 -0.1098  0.1884 -0.3559
 2461SOL    HW119016   2.997   0.818   6.984  0.2754  0.5583 -1.1215
 2461SOL    HW219017   3.024   0.702   6.897  0.7368  1.2750 -1.2366
 2462SOL     OW19018   1.019   1.365   3.946 -0.5505  0.0244 -0.8395
 2462SOL    HW119019   1.085   1.417   3.991  0.2373  0.3652 -2.3778
 2462SOL    HW219020   0.941   1.420   3.954 -0.8750 -0.3192 -1.6032
 2463SOL     OW19021   2.329   3.414  12.284 -0.1092 -0.7179  0.2764
 2463SOL    HW119022   2.267   3.425  12.212 -1.4412  0.9075  1.6461
 2463SOL    HW219023   2.359   3.505  12.291 -2.6285  0.0968  0.3452
 2464SOL     OW19024   4.704   3.260   7.845 -0.2978 -0.1400 -0.1735
 2464SOL    HW119025   4.710   3.302   7.759 -0.0541  1.4103  0.6125
 2464SOL    HW219026   0.022   3.183   7.835  0.1046  0.3090 -1.3346
 2465SOL     OW19027   4.463   0.807   7.301 -0.2355 -0.5265  0.3972
 2465SOL    HW119028   4.375   0.775   7.318 -0.7659  0.1439 -1.0697
 2465SOL    HW219029   4.430   0.895   7.281 -1.0359 -0.9910 -0.3434
 2466SOL     OW19030   4.279   0.144  12.893 -0.6348 -0.2063  0.0346
 2466SOL    HW119031   4.194   0.118  12.929 -0.7380  0.4234  0.2502
 2466SOL    HW219032   4.260   0.170  12.803 -2.2237 -0.1971  0.3780
 2467SOL     OW19033   4.005   4.636   9.415  0.0907  0.4558  0.3199
 2467SOL    HW119034   4.017   4.704   9.481  0.6744 -0.7895  1.4826
 2467SOL    HW219035   4.074   4.667   9.356  0.1404 -1.7273 -0.7637
 2468SOL     OW19036   0.012   3.686   7.669  0.0811 -0.0361  0.0652
 2468SOL    HW119037   0.081   3.720   7.612 -0.8090  2.2983  0.3837
 2468SOL    HW219038   0.009   3.772   7.712  1.5204 -0.8149  1.7431
 2469SOL     OW19039   3.344   2.424   5.043  0.5934  0.2428 -0.8892
 2469SOL    HW119040   3.337   2.329   5.027 -2.8288  0.5315 -1.0788
 2469SOL    HW219041   3.407   2.417   5.115 -0.2496 -0.2660 -0.2005
 2470SOL     OW19042   3.479   3.416   7.633  0.3009 -0.4865  0.3922
 2470SOL    HW119043   3.426   3.447   7.707 -1.8455 -0.3100 -1.2255
 2470SOL    HW219044   3.564   3.437   7.672  0.3100  2.5721 -1.3039
 2471SOL     OW19045   3.302   3.843   1.267 -0.3465  0.4131 -0.4780
 2471SOL    HW119046   3.372   3.788   1.302 -0.3340  0.5193 -0.3348
 2471SOL    HW219047   3.223   3.817   1.315 -0.9727  0.3508 -1.5508
 2472SOL     OW19048   1.013   2.724  15.916 -0.2202 -0.5491  0.4691
 2472SOL    HW119049   1.037   2.633  15.901 -1.5896 -0.8255 -0.0390
 2472SOL    HW219050   0.935   2.719  15.972  0.5629  1.7898  1.7711
 2473SOL     OW19051   3.392   3.739   7.230  0.0376 -0.1449 -0.3740
 2473SOL    HW119052   3.384   3.761   7.323 -1.0011 -0.0856 -0.4822
 2473SOL    HW219053   3.305   3.705   7.212  0.1044  0.4732 -1.8927
 2474SOL     OW19054   1.567   1.238  17.077  0.1236 -0.0506  0.2769
 2474SOL    HW119055   1.482   1.197  17.095  0.5266 -2.2273 -2.8064
 2474SOL    HW219056   1.598   1.174  17.013 -2.0309 -1.9315  1.0983
 2475SOL     OW19057   4.444   3.150   4.338  0.3834 -0.4537 -0.1535
 2475SOL    HW119058   4.413   3.229   4.293  0.5219 -0.8481 -0.9504
 2475SOL    HW219059   4.459   3.193   4.422 -0.7147 -3.5895  1.6416
 2476SOL     OW19060   0.076   1.435  17.429 -0.2666 -0.0833 -0.2008
 2476SOL    HW119061   0.150   1.495  17.420 -2.1365  2.2561  0.0108
 2476SOL    HW219062   0.099   1.390  17.347  0.8925  0.6420 -0.2755
 2477SOL     OW19063   1.259   3.051   6.959 -0.1592 -0.2927  0.5564
 2477SOL    HW119064   1.193   2.981   6.957  1.1287 -1.4848 -0.3584
 2477SOL    HW219065   1.199   3.120   6.987 -0.7610  0.9403 -3.7797
 2478SOL     OW19066   3.717   2.819   1.797 -0.1579  0.1719 -0.3005
 2478SOL    HW119067   3.722   2.765   1.876  1.9605 -1.2292 -1.3812
 2478SOL    HW219068   3.722   2.757   1.725 -0.2068  1.0331 -1.0439
 2479SOL     OW19069   1.231   3.386   5.234  0.2480  0.1118  0.3215
 2479SOL    HW119070   1.277   3.336   5.302 -2.0243 -1.5732  0.6599
 2479SOL    HW219071   1.291   3.460   5.227  0.1094  0.3544  1.6128
 2480SOL     OW19072   0.666   2.854  13.080  0.0729 -0.5458  0.6174
 2480SOL    HW119073   0.706   2.830  13.163  1.1540 -0.2122  0.1889
 2480SOL    HW219074   0.711   2.794  13.020  1.6454  0.6404  0.6188
 2481SOL     OW19075   0.332   1.581   3.826 -0.0574  0.1587 -0.2593
 2481SOL    HW119076   0.408   1.569   3.769  0.7891 -1.4890  1.2168
 2481SOL    HW219077   0.374   1.562   3.909  0.5144 -1.8123 -0.9849
 2482SOL     OW19078   2.401   0.696   7.675  0.0649 -0.5643  0.0521
 2482SOL    HW119079   2.466   0.729   7.613  0.3771 -2.2374 -0.5007
 2482SOL    HW219080   2.325   0.677   7.620  0.9129  1.2627 -1.7252
 2483SOL     OW19081   3.800   4.135   7.244 -0.4691  0.2081 -0.3632
 2483SOL    HW119082   3.816   4.092   7.329  0.0966  0.6272 -0.2607
 2483SOL    HW219083   3.884   4.135   7.200  0.1859 -2.3213  0.8673
 2484SOL     OW19084   1.828   0.874   3.444  0.1480 -0.2631 -0.0401
 2484SOL    HW119085   1.750   0.864   3.389 -0.3663 -0.0223  0.6467
 2484SOL    HW219086   1.901   0.852   3.387 -0.2361  1.4118 -1.1678
 2485SOL     OW19087   4.350   2.181  13.129  0.3589  0.1450 -0.5771
 2485SOL    HW119088   4.264   2.146  13.154  1.9812 -2.3651  1.4169
 2485SOL    HW219089   4.342   2.274  13.149  1.3805 -0.1909  1.3229
 2486SOL     OW19090   4.334   1.469   2.146  0.0242  0.0282 -0.2576
 2486SOL    HW119091   4.304   1.382   2.170 -1.9281  0.3634 -1.4694
 2486SOL    HW219092   4.395   1.480   2.219  1.9133 -2.2649 -1.5234
 2487SOL     OW19093   0.731   1.143  15.635 -0.2811  0.3099 -0.4147
 2487SOL    HW119094   0.698   1.172  15.720  1.2152 -0.2490  0.3643
 2487SOL    HW219095   0.732   1.221  15.579  0.4288  0.9027  0.4164
 2488SOL     OW19096   4.400   2.110   5.442  0.3432 -0.3719 -0.4719
 2488SOL    HW119097   4.463   2.056   5.489  1.6666  2.4462  0.9553
 2488SOL    HW219098   4.442   2.113   5.356 -1.2724 -2.0387 -1.3247
 2489SOL     OW19099   1.002   1.475  11.840  0.6395 -0.3894 -0.5128
 2489SOL    HW119100   0.925   1.427  11.809 -1.8856  1.7668  2.3510
 2489SOL    HW219101   0.992   1.464  11.934 -2.9495  4.0702 -0.3660
 2490SOL     OW19102   4.394   1.097  14.005 -0.0485  0.4209  0.4608
 2490SOL    HW119103   4.472   1.052  14.038 -0.0326 -0.6461 -1.0171
 2490SOL    HW219104   4.340   1.018  14.000  0.1692  0.3009  0.0273
 2491SOL     OW19105   4.469   3.883  10.402  0.3938  0.0720  0.2045
 2491SOL    HW119106   4.379   3.859  10.424  2.0661 -2.7454  4.0621
 2491SOL    HW219107   4.519   3.816  10.449  1.1441  0.8727  0.5513
 2492SOL     OW19108   3.643   3.937   1.843  0.2676  0.5451 -0.5490
 2492SOL    HW119109   3.552   3.952   1.814  0.1555  0.5703 -0.1761
 2492SOL    HW219110   3.665   4.018   1.889  1.2454 -0.1453  0.1995
 2493SOL     OW19111   0.512   1.215  10.924  0.4428  0.6033  0.0546
 2493SOL    HW119112   0.444   1.148  10.926  1.7258 -0.7155 -0.8464
 2493SOL    HW219113   0.591   1.161  10.922 -1.0302 -1.5512  0.0879
 2494SOL     OW19114   0.651   1.655   6.339  0.4479 -0.0991  0.0567
 2494SOL    HW119115   0.664   1.736   6.390  1.2451 -1.4707  2.0417
 2494SOL    HW219116   0.655   1.677   6.246  2.4979 -1.9537 -0.2895
 2495SOL     OW19117   2.888   0.463   8.810 -0.0073  0.4783 -0.2315
 2495SOL    HW119118   2.828   0.463   8.884  1.5893 -0.1116  1.0674
 2495SOL    HW219119   2.929   0.377   8.820  0.0122  0.4988 -0.1390
 2496SOL     OW19120   2.641   1.052   5.269 -0.1362 -0.9438 -0.0185
 2496SOL    HW119121   2.580   1.116   5.306  0.2200 -0.5639 -0.0876
 2496SOL    HW219122   2.618   1.044   5.176  0.0125  5.2241 -0.5676
 2497SOL     OW19123   0.985   4.236  16.357 -0.3382 -0.3072  0.1625
 2497SOL    HW119124   0.970   4.304  16.423 -1.5481 -1.7284  1.3542
 2497SOL    HW219125   0.936   4.169  16.405  0.7620 -1.1682  0.0845
 2498SOL     OW19126   4.570   0.618   2.826  0.4788  0.4370 -0.0865
 2498SOL    HW119127   4.501   0.558   2.798 -0.3988  1.6315 -0.5286
 2498SOL    HW219128   4.642   0.562   2.855 -1.6138 -1.7522  0.8135
 2499SOL     OW19129   0.383   0.397   5.618 -0.2292 -0.5885  0.1452
 2499SOL    HW119130   0.418   0.410   5.530 -0.9096  2.1616  0.2751
 2499SOL    HW219131   0.453   0.338   5.646  0.9353 -0.0597 -1.6585
 2500SOL     OW19132   1.366   3.185   0.995 -0.0664 -0.1523 -0.3899
 2500SOL    HW119133   1.300   3.171   0.928 -0.6570 -1.9124  0.5463
 2500SOL    HW219134   1.378   3.092   1.017 -0.6230 -0.5952 -1.9188
 2501SOL     OW19135   0.828   1.888  14.646  1.0630  0.7804  0.3276
 2501SOL    HW119136   0.829   1.957  14.713  0.5476  1.0950  0.0115
 2501SOL    HW219137   0.909   1.839  14.663  1.2536  0.4454 -1.5531
 2502SOL     OW19138   2.981   3.405   8.154 -0.0940  0.5102  0.2734
 2502SOL    HW119139   2.974   3.337   8.221 -2.9277 -0.0451 -0.5950
 2502SOL    HW219140   2.893   3.442   8.150 -0.8561 -1.4606 -1.4402
 2503SOL     OW19141   0.975   3.782   4.082 -0.3974  0.0183 -0.1633
 2503SOL    HW119142   0.991   3.787   4.176  2.0524  0.5451 -0.6110
 2503SOL    HW219143   0.960   3.688   4.082 -2.1891  0.3096  1.4865
 2504SOL     OW19144   3.326   0.402   0.434 -0.6540  0.1989 -0.3648
 2504SOL    HW119145   3.248   0.421   0.485  0.0634 -1.4375  1.3591
 2504SOL    HW219146   3.330   0.477   0.375 -0.4268  0.8865  0.5289
 2505SOL     OW19147   1.929   4.354   8.560  0.1574 -0.1092  0.2847
 2505SOL    HW119148   1.838   4.343   8.532 -0.0937  1.3995  0.4961
 2505SOL    HW219149   1.960   4.434   8.516  1.6114 -0.8198  0.0020
 2506SOL     OW19150   4.479   3.787  11.816 -0.1108 -0.1113  0.1989
 2506SOL    HW119151   4.475   3.740  11.900  0.0272 -1.3662 -0.5083
 2506SOL    HW219152   4.559   3.752  11.777 -0.1807  1.2990 -1.2254
 2507SOL     OW19153   0.024   0.125   4.892  0.4859  0.3491  0.1586
 2507SOL    HW119154   0.096   0.172   4.851  2.0258 -0.7472  1.6053
 2507SOL    HW219155   0.032   0.038   4.853  2.6385  1.0229 -0.8836
 2508SOL     OW19156   1.038   0.771   0.058 -0.1790 -0.5015  0.6856
 2508SOL    HW119157   0.978   0.748   0.130 -2.7881  0.6071 -1.1435
 2508SOL    HW219158   1.004   0.713  17.744  0.7463  0.8381 -0.9364
 2509SOL     OW19159   3.068   3.912  10.710 -0.1434  0.5274 -0.2316
 2509SOL    HW119160   3.104   3.917  10.622 -0.3318  0.7998 -0.2932
 2509SOL    HW219161   3.147   3.941  10.754 -0.5111  1.3239 -0.0931
 2510SOL     OW19162   2.775   2.108  16.139 -0.0181 -0.3512 -0.1572
 2510SOL    HW119163   2.773   2.042  16.209 -3.9534 -1.1241 -0.9602
 2510SOL    HW219164   2.723   2.180  16.175  0.1294  0.9010 -2.4412
 2511SOL     OW19165   4.089   1.621  11.632 -0.8055 -0.6309  0.2232
 2511SOL    HW119166   4.073   1.688  11.699 -0.7552 -0.7609  0.3644
 2511SOL    HW219167   4.026   1.551  11.650 -2.2889  0.7602  0.4644
 2512SOL     OW19168   1.443   4.534   6.224  0.1591  0.5975  0.0519
 2512SOL    HW119169   1.528   4.530   6.180 -0.5238 -1.4828 -1.1023
 2512SOL    HW219170   1.390   4.606   6.190 -1.5144  0.3064  2.0737
 2513SOL     OW19171   3.325   2.187   1.536 -0.3222  0.1445 -0.4472
 2513SOL    HW119172   3.333   2.276   1.568  0.9090 -0.8020  1.8609
 2513SOL    HW219173   3.257   2.162   1.598  0.0842 -0.5442 -0.2740
 2514SOL     OW19174   2.770   3.540  10.393  0.0782  0.3621 -0.1194
 2514SOL    HW119175   2.793   3.576  10.479  2.7051 -0.7508 -0.3559
 2514SOL    HW219176   2.779   3.614  10.333 -0.8168  2.8776  2.8426
 2515SOL     OW19177   3.977   0.760   6.642  0.3501  0.5183 -0.0668
 2515SOL    HW119178   3.902   0.782   6.697 -0.1138 -0.5409 -0.2636
 2515SOL    HW219179   4.037   0.735   6.713  1.0353 -2.7423 -1.8014
 2516SOL     OW19180   3.798   3.293   8.779  0.4392 -0.0538 -0.2448
 2516SOL    HW119181   3.834   3.346   8.850 -0.2207  1.1431 -0.8012
 2516SOL    HW219182   3.877   3.249   8.749  0.9643  0.0182  1.0337
 2517SOL     OW19183   3.488   3.525   3.045 -0.0545  0.1812  0.9402
 2517SOL    HW119184   3.546   3.470   3.097  0.6512  0.1977  0.1697
 2517SOL    HW219185   3.532   3.607   3.024 -0.7937 -0.0816 -1.6751
 2518SOL     OW19186   4.617   3.823   0.536 -0.0757  0.0981  0.2031
 2518SOL    HW119187   4.606   3.735   0.571  0.0366  0.4506  1.1067
 2518SOL    HW219188   4.526   3.850   0.523  0.4780  2.0733  0.4158
 2519SOL     OW19189   1.188   0.334  10.877 -0.4843  0.1675  0.1199
 2519SOL    HW119190   1.180   0.327  10.781  3.0575  1.2485 -0.2770
 2519SOL    HW219191   1.185   0.241  10.896  1.7179  0.2800  0.9689
 2520SOL     OW19192   4.678   0.885   7.121 -0.1547  0.6066 -0.4616
 2520SOL    HW119193   4.590   0.847   7.116  0.2475 -0.2090 -1.2913
 2520SOL    HW219194   4.711   0.864   7.034  0.7311  1.0219 -0.2214
 2521SOL     OW19195   3.000   3.449   9.785 -0.3420  0.1685 -0.0533
 2521SOL    HW119196   2.907   3.460   9.801  0.0119  0.5904  1.7315
 2521SOL    HW219197   3.007   3.453   9.689  1.0390  0.4841  0.0580
 2522SOL     OW19198   1.268   4.153   8.984 -0.6029  0.0353 -0.4757
 2522SOL    HW119199   1.289   4.197   9.066 -0.4060  0.4221 -0.7379
 2522SOL    HW219200   1.220   4.225   8.943 -1.3476 -0.7039 -0.9112
 2523SOL     OW19201   3.762   1.220   4.285 -0.1172  0.0093 -0.2692
 2523SOL    HW119202   3.762   1.147   4.347  1.9127  0.2479  0.0049
 2523SOL    HW219203   3.738   1.173   4.205  1.2708  1.1885 -1.3843
 2524SOL     OW19204   4.341   0.766   2.651  0.6578  0.0204 -1.0529
 2524SOL    HW119205   4.395   0.688   2.658 -2.1203 -1.6952  0.8013
 2524SOL    HW219206   4.299   0.778   2.736  0.6282 -1.0569 -0.9223
 2525SOL     OW19207   2.682   0.093   6.625  0.1025 -0.3663  0.2673
 2525SOL    HW119208   2.685   0.030   6.553 -1.0125 -0.3661  0.2218
 2525SOL    HW219209   2.694   0.031   6.697 -0.7699 -2.1315 -1.1011
 2526SOL     OW19210   4.311   3.500   4.141  0.4548 -0.6209  0.6344
 2526SOL    HW119211   4.292   3.537   4.055  0.1894 -2.6385 -0.1680
 2526SOL    HW219212   4.326   3.412   4.106 -0.7687 -0.7544  0.4677
 2527SOL     OW19213   2.025   0.846   4.837 -0.2228 -0.3605 -0.1858
 2527SOL    HW119214   2.091   0.912   4.858 -0.5083  0.1234 -0.8023
 2527SOL    HW219215   1.944   0.897   4.836  0.0382  0.0301 -2.6952
 2528SOL     OW19216   1.506   3.008   4.949  0.3510  0.5486  0.5874
 2528SOL    HW119217   1.561   2.955   5.007 -0.3758  1.0852  1.7536
 2528SOL    HW219218   1.453   3.051   5.016 -0.4066 -0.3073  0.5391
 2529SOL     OW19219   1.546   2.308   4.516 -0.1063  0.1975  0.1486
 2529SOL    HW119220   1.572   2.391   4.556 -1.9475  0.1642  1.4357
 2529SOL    HW219221   1.631   2.264   4.525 -0.1447 -0.4709 -2.6323
 2530SOL     OW19222   0.401   1.895   8.113 -0.3014  0.1306  0.1770
 2530SOL    HW119223   0.439   1.824   8.062  0.8625 -0.4416  1.8335
 2530SOL    HW219224   0.311   1.898   8.081 -0.9847 -1.2694  1.9195
 2531SOL     OW19225   1.392   0.137   3.481  0.2468  0.1592 -0.0853
 2531SOL    HW119226   1.415   0.093   3.563  1.5989  1.8404  0.4242
 2531SOL    HW219227   1.471   0.190   3.468  0.6975 -0.6443 -0.6319
 2532SOL     OW19228   3.693   0.628   7.737 -0.0509 -0.4945 -0.5531
 2532SOL    HW119229   3.646   0.702   7.697 -3.4800 -1.2550  2.0432
 2532SOL    HW219230   3.781   0.666   7.744 -1.0501  1.6223  0.4016
 2533SOL     OW19231   0.878   4.478   2.494  0.8970 -0.3731  0.2724
 2533SOL    HW119232   0.881   4.465   2.589  2.0047 -1.0564  0.1424
 2533SOL    HW219233   0.953   4.537   2.482 -1.1059  1.9633 -0.7238
 2534SOL     OW19234   2.506   2.271   5.945  0.4174  0.4722 -0.4471
 2534SOL    HW119235   2.535   2.328   6.017  0.1071 -2.0119  1.6549
 2534SOL    HW219236   2.554   2.303   5.869  0.1105  0.6019 -0.5872
 2535SOL     OW19237   1.436   1.271   3.753 -0.1939 -0.2943  0.3033
 2535SOL    HW119238   1.473   1.330   3.819  0.8160  1.3301 -1.7359
 2535SOL    HW219239   1.341   1.276   3.769 -0.4752 -1.7939 -0.8764
 2536SOL     OW19240   4.527   0.779   6.476 -0.2901  0.9791 -0.4732
 2536SOL    HW119241   4.493   0.833   6.404  1.1954  0.5747 -1.4542
 2536SOL    HW219242   4.606   0.827   6.500 -0.5542  1.6357 -0.9062
 2537SOL     OW19243   1.013   1.956   5.387 -0.3458 -0.5680  0.0856
 2537SOL    HW119244   1.052   1.913   5.311 -2.8095  0.7526 -1.9127
 2537SOL    HW219245   1.069   1.917   5.455 -1.0323 -1.7095 -0.0049
 2538SOL     OW19246   2.587   1.908   9.764 -0.1716  0.2243  0.3960
 2538SOL    HW119247   2.637   1.867   9.694  0.5055 -0.4802  1.2958
 2538SOL    HW219248   2.651   1.938   9.828  0.6763 -0.7707  0.0171
 2539SOL     OW19249   3.811   4.624   3.127 -0.2961 -0.2609 -0.7741
 2539SOL    HW119250   3.806   4.571   3.206 -0.8591  2.2274  0.8684
 2539SOL    HW219251   3.888   4.676   3.149 -0.8996 -0.5136  1.9195
 2540SOL     OW19252   4.270   3.317   9.754 -0.7602  0.3631 -0.1508
 2540SOL    HW119253   4.297   3.317   9.846  0.9238  3.6771 -0.6151
 2540SOL    HW219254   4.276   3.224   9.732  2.3452  0.3476  0.7181
 2541SOL     OW19255   0.473   0.553  14.776 -0.6185  0.0392  0.0797
 2541SOL    HW119256   0.521   0.620  14.727  0.0186  0.2660  1.0080
 2541SOL    HW219257   0.480   0.479  14.716 -1.5160 -1.2267  1.5302
 2542SOL     OW19258   1.382   2.606   9.800 -0.4172  0.0386  0.7074
 2542SOL    HW119259   1.340   2.521   9.789 -0.3997  0.3912 -2.0680
 2542SOL    HW219260   1.385   2.601   9.896  1.6782  0.8813  0.6766
 2543SOL     OW19261   0.710   2.992   6.916  0.0397  0.2087 -0.0078
 2543SOL    HW119262   0.674   3.080   6.909  1.9981  1.0607  0.5209
 2543SOL    HW219263   0.653   2.951   6.851 -1.7171 -1.9296  2.9242
 2544SOL     OW19264   3.351   4.548   4.555  0.4012  0.1304 -0.1659
 2544SOL    HW119265   3.347   4.643   4.564 -0.2090  0.0655  0.2416
 2544SOL    HW219266   3.385   4.514   4.638  0.3791 -2.7962 -1.3543
 2545SOL     OW19267   1.409   1.322  17.492 -0.2156  0.0745 -0.3627
 2545SOL    HW119268   1.391   1.336  17.399 -0.4580 -0.8950 -0.4636
 2545SOL    HW219269   1.435   1.230  17.493  0.6184  0.3357  1.2435
 2546SOL     OW19270   0.973   2.785  17.153  0.6992  0.3371 -0.1592
 2546SOL    HW119271   0.928   2.866  17.130  1.7631  0.9157 -0.1986
 2546SOL    HW219272   0.918   2.737  17.215  2.2439  0.6791  1.4610
 2547SOL     OW19273   1.663   1.272   0.032 -0.1386  0.3209  0.3765
 2547SOL    HW119274   1.668   1.345  17.724 -1.4321  0.8653  0.9016
 2547SOL    HW219275   1.719   1.299   0.105 -0.2503 -1.7026  1.2261
 2548SOL     OW19276   0.731   0.244   9.180  0.0134 -0.0663  0.0625
 2548SOL    HW119277   0.711   0.157   9.216  1.6262 -0.5691 -0.2700
 2548SOL    HW219278   0.674   0.241   9.104 -0.3492  2.6864  0.2065
 2549SOL     OW19279   1.203   2.821   9.087 -0.2505  0.1671  0.1281
 2549SOL    HW119280   1.290   2.834   9.049 -0.6210 -2.6402 -1.7403
 2549SOL    HW219281   1.189   2.902   9.135  1.1365 -0.4197  1.4965
 2550SOL     OW19282   2.221   0.045   6.546  0.3388  0.1967 -0.5963
 2550SOL    HW119283   2.150   0.046   6.610  0.5488  2.4138 -0.3771
 2550SOL    HW219284   2.175   0.038   6.462 -2.4376 -2.1678  1.1212
 2551SOL     OW19285   1.557   2.536   7.148 -0.2851 -0.1472  0.8162
 2551SOL    HW119286   1.552   2.560   7.056 -0.3616 -0.9167  0.6245
 2551SOL    HW219287   1.554   2.624   7.186 -0.1796  0.6994 -1.1294
 2552SOL     OW19288   0.008   3.894   7.355  0.3640 -0.4406  0.3018
 2552SOL    HW119289   0.018   3.828   7.287  0.5305 -0.8841  0.7595
 2552SOL    HW219290   0.074   3.863   7.417  2.3712 -0.7189 -1.9698
 2553SOL     OW19291   2.118   4.084   5.702 -0.0147 -0.7415  0.3213
 2553SOL    HW119292   2.182   4.153   5.722 -0.3021 -0.1259 -0.9092
 2553SOL    HW219293   2.095   4.046   5.786 -1.7028  1.6022  0.9349
 2554SOL     OW19294   1.563   2.811  14.904  0.2461 -0.3322  0.0675
 2554SOL    HW119295   1.522   2.800  14.818 -1.2744  1.6380  0.5492
 2554SOL    HW219296   1.495   2.854  14.956 -0.2800 -1.9017  0.6926
 2555SOL     OW19297   4.681   3.446  10.981  0.0802 -0.5542  0.4876
 2555SOL    HW119298   4.658   3.458  10.889  0.4999  0.7335  0.5528
 2555SOL    HW219299   4.677   3.350  10.979 -0.0586 -0.5089 -2.6815
 2556SOL     OW19300   1.540   3.058   5.547 -0.5389  0.0961  0.0392
 2556SOL    HW119301   1.604   3.027   5.483  0.6037  0.5035  1.0052
 2556SOL    HW219302   1.583   3.057   5.632 -1.8060  2.6727  0.7189
 2557SOL     OW19303   1.904   1.106   2.880  0.1596  0.3079 -0.4601
 2557SOL    HW119304   1.944   1.122   2.965 -1.7587  0.4160  0.4278
 2557SOL    HW219305   1.981   1.115   2.824 -1.0729  2.2136 -1.8649
 2558SOL     OW19306   1.486   4.719   2.352 -0.0742 -0.1810  0.3604
 2558SOL    HW119307   1.474   0.018   2.439 -1.7433  0.2035 -0.0436
 2558SOL    HW219308   1.580   4.707   2.339 -0.5445 -2.0761 -1.3033
 2559SOL     OW19309   1.985   0.010   2.659 -0.3012 -0.2699 -0.2386
 2559SOL    HW119310   2.018   0.035   2.573 -2.0281 -1.3788 -1.2169
 2559SOL    HW219311   1.894   0.038   2.650 -0.4404 -1.0400 -1.2352
 2560SOL     OW19312   2.727   1.938   4.728 -0.3049 -0.4971  0.3974
 2560SOL    HW119313   2.817   1.967   4.715  0.2067 -2.8016 -1.1247
 2560SOL    HW219314   2.724   1.843   4.734 -1.2367 -0.5169 -0.3787
 2561SOL     OW19315   1.323   3.878  16.572 -0.0166 -0.1983 -0.1771
 2561SOL    HW119316   1.309   3.787  16.597 -1.5986 -0.8844 -3.5182
 2561SOL    HW219317   1.344   3.875  16.478  1.1906  3.9700 -0.0268
 2562SOL     OW19318   1.954   1.685   6.641  0.5317  0.4300 -0.1070
 2562SOL    HW119319   2.015   1.632   6.589 -1.2760  1.0089 -2.7990
 2562SOL    HW219320   1.945   1.627   6.717  1.8673  0.8951  0.4021
 2563SOL     OW19321   0.223   2.464  14.234 -0.0005  0.0438  0.2146
 2563SOL    HW119322   0.288   2.483  14.166 -0.5828 -2.9261 -1.2090
 2563SOL    HW219323   0.235   2.370  14.250 -1.6676 -0.4159 -1.2172
 2564SOL     OW19324   2.415   3.510   3.278 -0.1185  0.1907  0.0689
 2564SOL    HW119325   2.337   3.457   3.260 -0.8978  1.3789 -0.0765
 2564SOL    HW219326   2.415   3.526   3.372 -0.1087 -3.3097  0.6881
 2565SOL     OW19327   1.590   2.848   5.151  0.0536  0.3958  0.0343
 2565SOL    HW119328   1.595   2.889   5.237 -1.2024  0.0435  0.2772
 2565SOL    HW219329   1.631   2.764   5.175  0.0137  0.2475 -0.4225
 2566SOL     OW19330   1.444   0.154   8.478 -0.0939 -0.3131  0.3376
 2566SOL    HW119331   1.454   0.124   8.387 -1.0526 -2.3347  0.9045
 2566SOL    HW219332   1.534   0.158   8.510  0.4598  4.1845 -1.7540
 2567SOL     OW19333   3.410   4.370   2.716  0.3107  0.5488  0.3714
 2567SOL    HW119334   3.315   4.357   2.722  0.6226 -1.9810 -0.2087
 2567SOL    HW219335   3.434   4.337   2.803  2.3235  1.0964  0.0271
 2568SOL     OW19336   1.736   1.905   8.189 -0.3839 -0.1008  0.6561
 2568SOL    HW119337   1.821   1.862   8.190 -0.0105  0.5704 -1.0866
 2568SOL    HW219338   1.761   1.997   8.177  0.7592 -0.0165  3.7343
 2569SOL     OW19339   0.536   0.984   5.829  0.3261  0.2844  0.6897
 2569SOL    HW119340   0.473   0.913   5.818  2.1122 -1.2150  0.1407
 2569SOL    HW219341   0.596   0.958   5.899  0.0873 -0.5628  0.5781
 2570SOL     OW19342   1.331   3.017   3.096  0.3148  0.2020 -0.2302
 2570SOL    HW119343   1.381   2.951   3.143 -1.1081 -1.1662 -0.6295
 2570SOL    HW219344   1.260   3.036   3.156 -0.4667  0.0457 -1.0997
 2571SOL     OW19345   4.341   2.981  12.505 -0.1830 -0.3214 -0.1410
 2571SOL    HW119346   4.332   2.945  12.593 -0.1571  0.8241  0.3242
 2571SOL    HW219347   4.384   2.904  12.468  0.3642  0.0723 -0.3184
 2572SOL     OW19348   2.292   2.296   9.538  0.0758  0.0322 -0.5568
 2572SOL    HW119349   2.293   2.250   9.622 -1.2790  3.5531  1.4003
 2572SOL    HW219350   2.260   2.381   9.568  0.8483  0.0354  0.2784
 2573SOL     OW19351   0.906   1.451   2.963  0.1327  0.5173 -0.3611
 2573SOL    HW119352   0.986   1.450   2.910  1.7321  0.0314  2.0362
 2573SOL    HW219353   0.907   1.366   3.007 -1.3692  0.5112 -0.3560
 2574SOL     OW19354   4.563   1.528   7.254  0.3408  0.1718  0.4213
 2574SOL    HW119355   4.525   1.606   7.294  1.3837  0.4591  0.8535
 2574SOL    HW219356   4.654   1.545   7.279  0.3555 -0.4805  0.8146
 2575SOL     OW19357   1.434   0.304  16.048  0.0964  0.0623 -0.0331
 2575SOL    HW119358   1.377   0.374  16.080  0.0231 -0.1572  0.3245
 2575SOL    HW219359   1.512   0.356  16.030  1.8020 -2.6240 -0.3452
 2576SOL     OW19360   1.333   4.681   8.688 -0.0162  0.0394  0.2426
 2576SOL    HW119361   1.407   4.621   8.700  0.6736  1.2073  1.7611
 2576SOL    HW219362   1.298   4.656   8.602  1.0596 -0.5918 -0.0175
 2577SOL     OW19363   2.103   0.891   1.536 -0.0802  0.1624 -0.5414
 2577SOL    HW119364   2.157   0.907   1.459  0.8013  1.2963  0.3042
 2577SOL    HW219365   2.136   0.958   1.597  0.9187 -1.8472  1.1223
 2578SOL     OW19366   4.468   3.676  12.083  0.3766  0.3668  0.4970
 2578SOL    HW119367   4.387   3.628  12.096 -0.0642  0.9442 -0.1147
 2578SOL    HW219368   4.478   3.713  12.171  2.1102 -0.4721  0.6557
 2579SOL     OW19369   2.380   2.447  16.550 -0.4769  0.1782 -0.6196
 2579SOL    HW119370   2.473   2.456  16.529 -0.7479 -0.9145 -2.2789
 2579SOL    HW219371   2.349   2.538  16.550 -2.0878 -0.3700  1.7964
 2580SOL     OW19372   3.683   0.133   4.323 -0.7793  0.4955  0.3903
 2580SOL    HW119373   3.773   0.137   4.356 -0.1446  0.6668 -1.3769
 2580SOL    HW219374   3.654   0.057   4.372 -0.8378 -0.0658 -0.5221
 2581SOL     OW19375   1.026   0.315   5.801 -0.2955 -0.2948  0.7527
 2581SOL    HW119376   1.002   0.330   5.893 -1.5424  0.5848  0.2707
 2581SOL    HW219377   0.948   0.334   5.749  0.8276  1.6160 -0.2360
 2582SOL     OW19378   2.242   0.044   2.750  0.0226  0.1637 -0.1003
 2582SOL    HW119379   2.209   0.093   2.825 -0.2358  0.3905 -0.3630
 2582SOL    HW219380   2.162   0.035   2.698 -0.6647 -1.1061  1.1942
 2583SOL     OW19381   4.697   0.258   9.470 -0.2161 -0.1982  0.3324
 2583SOL    HW119382   0.019   0.313   9.420 -0.4371  1.1286  1.5205
 2583SOL    HW219383   4.703   0.301   9.556  2.0472 -1.0949  0.6368
 2584SOL     OW19384   3.905   3.027  10.268  0.3735  0.3567 -0.5269
 2584SOL    HW119385   3.944   3.070  10.344  0.4234  1.7650 -1.3473
 2584SOL    HW219386   3.979   2.968  10.257  1.4927  1.8782 -1.2388
 2585SOL     OW19387   2.775   1.460   7.722 -0.1857 -0.4376  0.6851
 2585SOL    HW119388   2.680   1.456   7.712  0.1293  0.0678 -2.6588
 2585SOL    HW219389   2.804   1.498   7.638 -2.4264  1.6866  0.8507
 2586SOL     OW19390   1.526   0.402   8.289  0.0792  0.5033  0.0610
 2586SOL    HW119391   1.538   0.420   8.382 -1.3185 -0.3076  0.3911
 2586SOL    HW219392   1.448   0.453   8.267  0.3575  0.3084 -1.4139
 2587SOL     OW19393   2.327   1.534   7.191 -0.0568  0.1420  0.0799
 2587SOL    HW119394   2.374   1.590   7.253 -0.7774 -0.9106  1.5834
 2587SOL    HW219395   2.348   1.448   7.227 -0.4592  0.5207  1.2003
 2588SOL     OW19396   0.185   4.123   8.129 -0.6873 -0.1330  0.0368
 2588SOL    HW119397   0.209   4.031   8.116  0.8131 -0.1022  2.7024
 2588SOL    HW219398   0.235   4.144   8.207 -2.4296  5.1081 -0.2530
 2589SOL     OW19399   1.771   2.856   9.263 -0.7590  0.1508 -0.0819
 2589SOL    HW119400   1.704   2.924   9.270 -0.2661  0.5807  0.5151
 2589SOL    HW219401   1.740   2.802   9.191 -3.3736  2.3750 -0.6546
 2590SOL     OW19402   4.089   1.664  13.303 -0.0685 -0.6767  0.1550
 2590SOL    HW119403   4.123   1.701  13.384  1.4327  0.4362 -1.0031
 2590SOL    HW219404   4.143   1.709  13.239 -0.6638 -0.0728  0.0801
 2591SOL     OW19405   4.409   4.380  14.045  0.1929 -0.2617 -0.2040
 2591SOL    HW119406   4.347   4.443  14.082  1.1938  1.7316 -1.9219
 2591SOL    HW219407   4.370   4.365  13.959 -0.8597 -0.7642  0.3607
 2592SOL     OW19408   4.733   4.147   8.997 -0.2686 -0.5142 -0.1217
 2592SOL    HW119409   4.732   4.101   8.913 -0.8828 -2.1943  0.8051
 2592SOL    HW219410   4.648   4.143   9.040 -2.1856  0.6865 -3.7725
 2593SOL     OW19411   4.684   1.180   3.848  0.3053 -0.3474  0.4828
 2593SOL    HW119412   4.667   1.272   3.867 -1.5530 -0.8161  1.1319
 2593SOL    HW219413   0.032   1.167   3.886 -0.4109 -0.6270  2.0340
 2594SOL     OW19414   0.389   4.141   8.776 -0.2336 -0.7336  0.1807
 2594SOL    HW119415   0.465   4.190   8.743 -0.3307 -0.5896  0.1682
 2594SOL    HW219416   0.322   4.158   8.710  2.3199  1.4073 -1.8888
 2595SOL     OW19417   1.459   2.395   8.922  0.5573  0.1415  0.1218
 2595SOL    HW119418   1.415   2.313   8.900  1.5419 -0.8186  1.6448
 2595SOL    HW219419   1.425   2.451   8.853  0.3262 -0.9233 -0.6379
 2596SOL     OW19420   2.205   3.997   2.400  0.5903 -0.5544 -0.4980
 2596SOL    HW119421   2.170   4.071   2.450  1.5224 -0.2674 -0.2837
 2596SOL    HW219422   2.283   4.023   2.351  1.4322  0.8881  1.5889
 2597SOL     OW19423   4.430   2.037  13.436 -0.1344 -0.3211  0.0398
 2597SOL    HW119424   4.469   2.094  13.370 -0.0484 -0.5512 -0.1079
 2597SOL    HW219425   4.372   2.100  13.479  1.1988  0.2131  1.0421
 2598SOL     OW19426   2.190   3.133  17.153 -0.0005  0.6488  0.0269
 2598SOL    HW119427   2.216   3.122  17.245  1.1926  0.2384 -0.3604
 2598SOL    HW219428   2.241   3.059  17.119  0.2649 -0.1614  2.1820
 2599SOL     OW19429   2.769   4.306   1.980 -0.1337  0.3490  0.0502
 2599SOL    HW119430   2.741   4.250   1.907 -1.2563  0.7942  0.1416
 2599SOL    HW219431   2.755   4.247   2.055 -0.0584  0.4563  0.1497
 2600SOL     OW19432   1.723   0.315   7.286 -0.4275  0.1693  0.4173
 2600SOL    HW119433   1.660   0.259   7.240 -0.0778 -0.5867  0.8586
 2600SOL    HW219434   1.728   0.275   7.373  1.2059 -1.6261 -0.4966
 2601SOL     OW19435   0.637   3.485   6.193 -0.7623  0.3295  0.4182
 2601SOL    HW119436   0.637   3.429   6.271 -4.2136 -2.5769 -1.6843
 2601SOL    HW219437   0.712   3.542   6.210 -1.5485  1.0648  1.3782
 2602SOL     OW19438   0.052   1.640   9.871  0.3444 -0.6144  0.4391
 2602SOL    HW119439   0.136   1.605   9.841  0.3768  0.4892 -0.7741
 2602SOL    HW219440   0.079   1.687   9.950  0.5201 -2.3697  1.4276
 2603SOL     OW19441   4.477   2.288   8.974  0.3782  0.1622 -0.1066
 2603SOL    HW119442   4.536   2.339   8.918 -0.9357  0.9047 -0.8116
 2603SOL    HW219443   4.507   2.316   9.061  1.3110  0.5737 -0.5596
 2604SOL     OW19444   3.627   0.126  15.697 -0.2374  0.2008  0.0554
 2604SOL    HW119445   3.722   0.127  15.686 -0.4533 -0.8065 -1.8221
 2604SOL    HW219446   3.595   0.129  15.607  0.1500  0.9643 -0.0586
 2605SOL     OW19447   2.815   3.736  10.585  0.7893  0.4652 -0.2730
 2605SOL    HW119448   2.897   3.785  10.589 -0.2949  2.3921 -2.0684
 2605SOL    HW219449   2.764   3.779  10.653 -0.5440 -2.5224  0.6303
 2606SOL     OW19450   3.113   3.754   1.490 -0.7585 -0.3506 -0.0749
 2606SOL    HW119451   3.167   3.784   1.564 -1.1203 -1.6903  0.7332
 2606SOL    HW219452   3.126   3.660   1.499 -0.6950 -0.3112  0.2641
 2607SOL     OW19453   0.901   3.254  11.198 -0.0277  0.3727 -0.0274
 2607SOL    HW119454   0.859   3.222  11.278 -1.9741 -0.4607 -1.3764
 2607SOL    HW219455   0.981   3.294  11.231  1.3182  0.0859 -2.9520
 2608SOL     OW19456   2.912   3.436   4.227  0.4296 -0.2253 -0.1098
 2608SOL    HW119457   2.945   3.473   4.146 -0.3804  1.9978  0.5846
 2608SOL    HW219458   2.832   3.389   4.204  0.1734  0.6317 -0.9253
 2609SOL     OW19459   3.796   1.312   7.237 -0.6645  0.5313  0.2374
 2609SOL    HW119460   3.758   1.376   7.298 -0.6488 -0.3177  1.1306
 2609SOL    HW219461   3.888   1.319   7.260 -0.8348  1.5241  0.6130
 2610SOL     OW19462   2.451   0.517  16.680 -0.6895 -0.4640 -0.2622
 2610SOL    HW119463   2.410   0.509  16.766 -1.3251  4.4468 -0.1458
 2610SOL    HW219464   2.496   0.601  16.689 -0.7194 -0.6541  1.6087
 2611SOL     OW19465   2.975   1.772   5.218  0.3962  0.4237 -0.2380
 2611SOL    HW119466   3.040   1.720   5.170 -0.1971  1.8472 -2.5966
 2611SOL    HW219467   2.944   1.824   5.144 -1.4678 -1.7917 -1.0210
 2612SOL     OW19468   1.376   3.275   3.100  0.0148  0.5285  0.4133
 2612SOL    HW119469   1.361   3.180   3.097  0.3865  0.5335 -1.9350
 2612SOL    HW219470   1.421   3.282   3.184  0.7125  2.1947 -0.1115
 2613SOL     OW19471   2.474   3.956  15.065  0.3940 -0.1035 -0.2845
 2613SOL    HW119472   2.567   3.959  15.042  0.8338  1.0279  1.6215
 2613SOL    HW219473   2.482   3.950  15.160 -0.4042 -2.0545 -0.3404
 2614SOL     OW19474   3.487   0.671   5.219  0.0709  0.3252  0.2121
 2614SOL    HW119475   3.420   0.649   5.154  1.2304 -0.8085 -0.5825
 2614SOL    HW219476   3.511   0.585   5.253  0.9107  0.3204 -0.3740
 2615SOL     OW19477   1.273   0.488   7.446 -0.0551 -1.3093 -0.3130
 2615SOL    HW119478   1.257   0.394   7.440 -0.0472 -1.4444  1.8670
 2615SOL    HW219479   1.232   0.510   7.363 -1.2500  0.7241  0.8029
 2616SOL     OW19480   3.001   1.344   3.597  0.2877 -0.4167  0.5531
 2616SOL    HW119481   2.963   1.431   3.580  1.7660  0.3020  0.8871
 2616SOL    HW219482   3.007   1.346   3.692 -1.6251 -0.4730  0.6743
 2617SOL     OW19483   3.029   1.029   7.361 -1.1640 -0.1677 -0.3750
 2617SOL    HW119484   2.937   1.033   7.334 -1.7084 -0.3338  1.4676
 2617SOL    HW219485   3.043   1.112   7.405 -0.3755  0.0957 -1.1120
 2618SOL     OW19486   1.155   3.516  13.220  0.1744 -0.1106  0.7744
 2618SOL    HW119487   1.075   3.464  13.211  0.5289 -0.3718 -0.8605
 2618SOL    HW219488   1.153   3.573  13.143  1.7549 -0.5681  0.4053
 2619SOL     OW19489   2.561   0.643   4.666 -0.2126  0.1710  0.2431
 2619SOL    HW119490   2.497   0.598   4.611 -0.9295  0.8209  0.5402
 2619SOL    HW219491   2.513   0.721   4.696  1.5511  1.1730  0.4475
 2620SOL     OW19492   1.879   0.859   2.608 -0.5269  0.5312 -0.4323
 2620SOL    HW119493   1.797   0.814   2.630 -0.9635  2.4137  1.8133
 2620SOL    HW219494   1.948   0.800   2.639  0.3239 -0.3171 -3.9412
 2621SOL     OW19495   4.505   0.855   1.572 -0.1419  0.0128 -0.6189
 2621SOL    HW119496   4.550   0.776   1.604 -1.2687 -0.1545  0.5551
 2621SOL    HW219497   4.494   0.832   1.479 -0.8297 -3.9578  0.4597
 2622SOL     OW19498   3.758   1.459   4.402 -0.4685 -0.2564  0.0839
 2622SOL    HW119499   3.768   1.422   4.490  1.5534 -0.7658 -0.3541
 2622SOL    HW219500   3.761   1.380   4.348 -1.2207  0.8124 -1.5174
 2623SOL     OW19501   2.503   2.393   6.768 -0.1232  0.1110 -0.2878
 2623SOL    HW119502   2.479   2.356   6.683 -1.0786  0.2835 -0.0866
 2623SOL    HW219503   2.419   2.389   6.812  0.1428 -0.2576  0.1827
 2624SOL     OW19504   3.332   2.097   5.775 -0.1880 -0.7502 -0.4196
 2624SOL    HW119505   3.361   2.101   5.866  0.7921  0.0975 -0.7640
 2624SOL    HW219506   3.344   2.189   5.752 -0.5608 -0.5926  0.0053
 2625SOL     OW19507   0.792   2.380  14.585 -0.5620  0.2097  0.1357
 2625SOL    HW119508   0.742   2.372  14.504 -0.6626 -1.4616  0.3615
 2625SOL    HW219509   0.730   2.429  14.639  0.6244  2.1226 -0.2352
 2626SOL     OW19510   4.658   3.693   8.197 -0.2493 -0.4033 -0.0663
 2626SOL    HW119511   4.589   3.697   8.130 -1.3405  0.4910  1.1071
 2626SOL    HW219512   4.659   3.781   8.236  0.1667 -0.5499  0.2486
 2627SOL     OW19513   2.653   0.748   7.530 -0.1097  0.3996  0.5557
 2627SOL    HW119514   2.676   0.730   7.621 -2.8145 -0.1113  1.1477
 2627SOL    HW219515   2.723   0.700   7.487  1.0632  0.1752  2.6871
 2628SOL     OW19516   3.937   3.303   3.117 -0.0605 -0.0425  0.7772
 2628SOL    HW119517   4.000   3.356   3.070 -0.0870  0.6410  1.5051
 2628SOL    HW219518   3.873   3.287   3.048  1.1233  0.2903 -0.3825
 2629SOL     OW19519   3.092   1.775  17.443 -0.7943  0.0068 -0.9205
 2629SOL    HW119520   3.132   1.858  17.414 -0.5045  0.7073  1.4727
 2629SOL    HW219521   3.001   1.797  17.424 -1.3749 -0.7573  1.0591
 2630SOL     OW19522   2.850   2.566   6.780 -0.0766 -0.1754 -0.1399
 2630SOL    HW119523   2.861   2.537   6.689  0.1229 -0.4872 -0.0146
 2630SOL    HW219524   2.767   2.614   6.778  0.3827  0.6391  0.5030
 2631SOL     OW19525   2.070   1.203  16.881 -0.0250  0.0020 -0.4186
 2631SOL    HW119526   1.989   1.154  16.869 -1.4184  2.2621 -0.1599
 2631SOL    HW219527   2.146   1.144  16.874  1.4889  1.9520 -0.5345
 2632SOL     OW19528   1.608   2.260   4.206 -0.4966 -0.1521 -0.1507
 2632SOL    HW119529   1.614   2.208   4.286 -2.9764  0.8358  0.6693
 2632SOL    HW219530   1.632   2.349   4.232  0.3479 -0.8005  1.3462
 2633SOL     OW19531   4.411   3.508  13.708 -0.2051  0.5129  0.0207
 2633SOL    HW119532   4.328   3.461  13.697  0.1963 -0.0712 -0.5104
 2633SOL    HW219533   4.465   3.463  13.644  1.1572  1.7472  0.3081
 2634SOL     OW19534   0.484   2.094  14.569  0.0825 -0.1668  1.2439
 2634SOL    HW119535   0.396   2.072  14.537 -0.7222  1.1942  2.5065
 2634SOL    HW219536   0.476   2.091  14.664 -1.4201  0.2695  1.1368
 2635SOL     OW19537   3.690   2.596  16.026  0.1190 -0.1791  0.1895
 2635SOL    HW119538   3.698   2.603  15.931  0.0704 -0.9643  0.1323
 2635SOL    HW219539   3.603   2.557  16.028  0.4852 -1.0265 -0.3273
 2636SOL     OW19540   2.359   1.565  10.270  0.4874 -0.5508  0.2743
 2636SOL    HW119541   2.327   1.616  10.345  1.5487 -0.1262  0.4318
 2636SOL    HW219542   2.293   1.591  10.206 -1.3177 -0.5579  2.1094
 2637SOL     OW19543   1.256   2.039  17.580  0.1294 -0.5634  0.2555
 2637SOL    HW119544   1.350   2.024  17.573  0.0308 -1.7558  1.7817
 2637SOL    HW219545   1.247   2.105  17.510  0.3837  0.0021  0.7542
 2638SOL     OW19546   4.301   1.538   4.100 -0.0749  0.9843 -0.7223
 2638SOL    HW119547   4.241   1.494   4.040  2.4710 -2.0477 -1.0595
 2638SOL    HW219548   4.333   1.462   4.149  1.6018  0.9743 -1.8367
 2639SOL     OW19549   4.663   1.110   2.865  0.0187 -0.8425  0.2110
 2639SOL    HW119550   4.692   1.178   2.804  2.3902  0.2954  2.5589
 2639SOL    HW219551   4.658   1.035   2.806 -0.4171 -1.2600  0.7767
 2640SOL     OW19552   3.778   2.325   6.824 -0.0494 -0.1347  0.0359
 2640SOL    HW119553   3.793   2.353   6.734  0.6746 -1.5681 -0.2789
 2640SOL    HW219554   3.706   2.262   6.819 -0.9327  0.8608  0.1427
 2641SOL     OW19555   4.416   4.063  12.962 -0.5736  0.1701  0.3478
 2641SOL    HW119556   4.459   4.117  12.896 -0.2426  0.0547  0.4656
 2641SOL    HW219557   4.490   4.013  12.998 -3.3627 -2.3203  2.5814
 2642SOL     OW19558   3.014   2.257   2.679 -0.6768 -0.3575  0.1432
 2642SOL    HW119559   3.084   2.193   2.673 -0.1766 -0.1441  4.2700
 2642SOL    HW219560   2.935   2.204   2.673 -1.0684  0.3539 -1.1384
 2643SOL     OW19561   4.689   1.571   4.974  0.0311  0.1050  0.2886
 2643SOL    HW119562   4.631   1.575   5.050 -0.4356 -3.4654  0.1309
 2643SOL    HW219563   0.030   1.545   5.018 -1.0694 -1.3642  1.4072
 2644SOL     OW19564   2.751   0.999   5.851 -0.6005  0.5337  0.8718
 2644SOL    HW119565   2.830   1.049   5.868 -1.0880  0.7158  2.6337
 2644SOL    HW219566   2.678   1.055   5.878 -1.0469 -0.0726  0.9271
 2645SOL     OW19567   4.232   3.872  11.653 -0.0066  0.1210  0.4723
 2645SOL    HW119568   4.292   3.803  11.624  0.4136  0.8627 -0.4002
 2645SOL    HW219569   4.273   3.912  11.730 -0.1630  0.4601  0.3761
 2646SOL     OW19570   4.278   4.656  11.020  0.2366  0.6228  0.1997
 2646SOL    HW119571   4.222   4.667  11.097 -0.9220 -3.2372 -0.0665
 2646SOL    HW219572   4.262   4.562  11.007  1.0534  0.2021  2.3264
 2647SOL     OW19573   2.826   1.529   8.033  0.6782  0.0697  0.5779
 2647SOL    HW119574   2.763   1.573   8.090 -1.3762 -1.1173 -0.7860
 2647SOL    HW219575   2.771   1.500   7.960 -0.0000  1.7661  0.4126
 2648SOL     OW19576   2.303   2.998   5.466  0.0699  0.1607 -0.6460
 2648SOL    HW119577   2.218   2.975   5.429  0.4867  0.6270 -1.8653
 2648SOL    HW219578   2.359   2.923   5.445  1.1193  0.6590  0.3299
 2649SOL     OW19579   1.003   1.518   1.960  0.2958 -0.4590 -0.0929
 2649SOL    HW119580   1.036   1.544   1.875 -0.4794 -0.0142 -0.2592
 2649SOL    HW219581   1.086   1.488   1.996  1.0536 -1.0558 -2.3514
 2650SOL     OW19582   2.570   4.096   7.664 -0.1536  0.2765  0.2513
 2650SOL    HW119583   2.563   4.069   7.755  0.0688  0.7730  0.4166
 2650SOL    HW219584   2.645   4.153   7.678  0.4491 -1.0379  2.2725
 2651SOL     OW19585   2.381   3.189   3.341 -0.1024 -0.5757 -0.1422
 2651SOL    HW119586   2.420   3.117   3.290 -0.2508  0.2502 -1.4235
 2651SOL    HW219587   2.351   3.136   3.415  0.4544  0.8397  1.1001
 2652SOL     OW19588   1.908   1.756  17.404  0.0389 -0.2371 -0.3085
 2652SOL    HW119589   1.905   1.695  17.330  0.5698 -0.4747 -0.1376
 2652SOL    HW219590   1.896   1.839  17.358 -0.6518  0.0291  0.3571
 2653SOL     OW19591   3.613   4.648   2.606  0.4283  0.4863  0.0798
 2653SOL    HW119592   3.675   4.675   2.538 -0.2117  0.8807 -0.3467
 2653SOL    HW219593   3.667   4.622   2.680  3.0471  0.5350 -1.7863
 2654SOL     OW19594   0.469   0.477  12.181  0.2264  0.4890  0.1431
 2654SOL    HW119595   0.423   0.500  12.262  0.9611  0.1980  0.6465
 2654SOL    HW219596   0.396   0.433  12.138  1.3076  0.1141 -1.2908
 2655SOL     OW19597   1.167   0.315   5.111  0.3265  0.3057  0.1804
 2655SOL    HW119598   1.210   0.324   5.196 -1.7935 -1.0738  1.3846
 2655SOL    HW219599   1.172   0.402   5.071  0.1113 -0.4799 -1.5447
 2656SOL     OW19600   4.092   1.994  14.143 -0.2897  0.3242  0.2175
 2656SOL    HW119601   4.044   2.063  14.098 -1.1139 -0.9254 -0.8230
 2656SOL    HW219602   4.140   2.049  14.205  0.3680 -0.1077  0.1015
 2657SOL     OW19603   1.537   2.255   1.695  0.3424 -0.0037  0.4563
 2657SOL    HW119604   1.555   2.184   1.634 -1.8834 -2.5435  2.7672
 2657SOL    HW219605   1.442   2.263   1.683  0.6294  1.1072 -1.0729
 2658SOL     OW19606   1.625   1.136   3.025 -0.4132  0.4982  0.0985
 2658SOL    HW119607   1.620   1.121   2.930 -0.5133  2.5887 -0.2290
 2658SOL    HW219608   1.718   1.159   3.037 -0.4804 -0.3874  2.2389
 2659SOL     OW19609   2.194   0.416   5.541 -0.2167 -0.4953 -0.0616
 2659SOL    HW119610   2.259   0.477   5.509 -0.8890 -0.5596 -1.5406
 2659SOL    HW219611   2.152   0.371   5.468  1.2255 -1.7074 -0.1525
 2660SOL     OW19612   2.704   3.540   8.634  0.2740  0.1005 -0.3303
 2660SOL    HW119613   2.750   3.458   8.655 -1.2628 -0.1582  1.9972
 2660SOL    HW219614   2.732   3.582   8.553  0.8357 -0.0717 -0.2310
 2661SOL     OW19615   2.249   3.104   1.725 -0.6294 -0.2019 -0.0933
 2661SOL    HW119616   2.311   3.176   1.736 -2.8608  1.6603  0.2037
 2661SOL    HW219617   2.241   3.089   1.631 -0.7400 -2.1714  0.2104
 2662SOL     OW19618   4.293   3.137   4.769 -0.1224  0.9126 -0.2596
 2662SOL    HW119619   4.372   3.103   4.811 -0.6574  0.8343  0.6907
 2662SOL    HW219620   4.331   3.185   4.695  1.0113 -1.5950 -1.2852
 2663SOL     OW19621   1.374   1.844   2.021  0.0469 -0.4133  0.7024
 2663SOL    HW119622   1.358   1.759   2.063  0.0827 -0.3626  0.8181
 2663SOL    HW219623   1.290   1.855   1.978  0.1697 -2.0786  0.0429
 2664SOL     OW19624   2.427   0.240   6.388 -0.2675  0.1578 -0.2822
 2664SOL    HW119625   2.394   0.151   6.401 -1.3554  0.3888 -1.5271
 2664SOL    HW219626   2.375   0.271   6.314  0.0485  0.0649 -0.5417
 2665SOL     OW19627   4.312   1.299  13.332  0.1192  0.5111 -0.1190
 2665SOL    HW119628   4.326   1.368  13.266 -2.1053  1.1751  0.0939
 2665SOL    HW219629   4.280   1.354  13.404  0.4607  1.6001 -0.7876
 2666SOL     OW19630   2.432   4.696  11.474 -0.3402  0.5927  0.0396
 2666SOL    HW119631   2.456   4.604  11.483 -1.6005 -0.0452 -2.8987
 2666SOL    HW219632   2.416   4.702  11.379 -0.6128  2.9411  0.2235
 2667SOL     OW19633   1.902   3.805   9.363  0.4891  0.3529  0.1060
 2667SOL    HW119634   1.909   3.721   9.408 -1.9020  0.3969  0.5730
 2667SOL    HW219635   1.947   3.784   9.282 -2.3269 -3.8208 -0.3623
 2668SOL     OW19636   1.483   0.552   7.599  0.2613  0.4414 -0.5925
 2668SOL    HW119637   1.415   0.529   7.535 -0.7255  2.8127 -0.3996
 2668SOL    HW219638   1.482   0.645   7.580 -0.2452  0.5478 -0.0300
 2669SOL     OW19639   2.333   1.344   5.032  0.2885  0.4552 -0.5438
 2669SOL    HW119640   2.357   1.425   5.077 -2.9895  0.2330  1.7054
 2669SOL    HW219641   2.254   1.316   5.078  0.3528  1.6921  0.3338
 2670SOL     OW19642   4.262   3.757  14.609 -0.2600  0.1546 -0.1588
 2670SOL    HW119643   4.291   3.716  14.528  2.4774  0.2181  0.7858
 2670SOL    HW219644   4.213   3.833  14.577 -1.1332  0.1370  1.1194
 2671SOL     OW19645   0.880   0.144   7.879 -0.1731 -0.2725 -0.3197
 2671SOL    HW119646   0.786   0.141   7.863 -0.8865 -0.3037  3.8401
 2671SOL    HW219647   0.895   0.073   7.942 -0.7786  3.3360  3.8612
 2672SOL     OW19648   3.634   0.801  16.409  0.4207  0.3367  0.3113
 2672SOL    HW119649   3.616   0.809  16.315 -0.1291  2.7246  0.6191
 2672SOL    HW219650   3.721   0.762  16.416 -0.1431 -0.9105  0.3602
 2673SOL     OW19651   2.286   2.164  17.701 -0.1678 -0.3712  0.1989
 2673SOL    HW119652   2.374   2.128  17.691 -0.8517 -2.4711  1.7176
 2673SOL    HW219653   2.243   2.092  17.748 -1.4835  0.0781 -0.3209
 2674SOL     OW19654   2.244   2.004   2.736 -0.2623  0.4515 -0.3407
 2674SOL    HW119655   2.184   1.996   2.811  0.4281 -0.2998  0.1217
 2674SOL    HW219656   2.180   2.019   2.666  0.2494 -0.8104 -1.0789
 2675SOL     OW19657   2.970   4.513  16.229  0.7328  0.0229 -0.6280
 2675SOL    HW119658   3.058   4.476  16.226  0.3284 -0.8846 -1.1774
 2675SOL    HW219659   2.942   4.485  16.316  0.0971  0.6884 -0.6213
 2676SOL     OW19660   0.953   4.316   1.413 -0.0481 -0.9494  0.0693
 2676SOL    HW119661   0.907   4.234   1.431 -1.9395  0.0157 -0.4244
 2676SOL    HW219662   0.913   4.339   1.329 -0.9344 -0.5407  0.6025
 2677SOL     OW19663   1.837   3.324   9.629 -0.6813  0.1478 -0.1345
 2677SOL    HW119664   1.851   3.396   9.568  0.7722  0.8332  0.9969
 2677SOL    HW219665   1.857   3.373   9.709 -4.0292 -0.7639  1.2795
 2678SOL     OW19666   3.271   2.681  11.279 -0.1577  0.9966  0.0482
 2678SOL    HW119667   3.256   2.759  11.333 -1.7465  0.6783  0.0754
 2678SOL    HW219668   3.194   2.689  11.222 -0.9732  1.3160  1.2044
 2679SOL     OW19669   2.459   1.858   1.368 -0.0659 -0.6719  0.0443
 2679SOL    HW119670   2.442   1.834   1.277 -2.4164 -0.0675  0.3266
 2679SOL    HW219671   2.543   1.903   1.359 -0.9745  1.3224  1.7919
 2680SOL     OW19672   4.269   1.031   1.902 -0.0061 -0.1883  0.3016
 2680SOL    HW119673   4.276   0.945   1.862  0.0444  0.2128 -0.5579
 2680SOL    HW219674   4.355   1.062   1.874 -1.0165 -0.3867 -2.9739
 2681SOL     OW19675   3.025   3.363   7.293 -0.0284  0.0775 -0.0789
 2681SOL    HW119676   3.116   3.382   7.272  0.2364 -0.2118  0.8240
 2681SOL    HW219677   3.027   3.325   7.381  0.0268 -0.2388 -0.2148
 2682SOL     OW19678   0.418   1.698  10.475  0.1676  0.1489  0.1116
 2682SOL    HW119679   0.381   1.653  10.551 -0.5248  0.3981 -0.0768
 2682SOL    HW219680   0.511   1.679  10.486  0.2803  0.4776 -0.2890
 2683SOL     OW19681   3.623   1.525   9.643 -0.4932 -0.1445 -0.2187
 2683SOL    HW119682   3.592   1.586   9.710 -0.8334  0.3307 -0.8114
 2683SOL    HW219683   3.541   1.503   9.598 -0.4595  2.3372 -1.4983
 2684SOL     OW19684   0.835   0.708   3.731  0.4294 -0.2026  0.1902
 2684SOL    HW119685   0.750   0.729   3.770  1.3407  1.9982  0.9535
 2684SOL    HW219686   0.816   0.622   3.694  2.9326 -0.3672 -0.7116
 2685SOL     OW19687   1.681   0.593  10.950 -0.0355  0.1211  0.0751
 2685SOL    HW119688   1.717   0.527  11.010  0.1921 -0.3697 -0.6011
 2685SOL    HW219689   1.589   0.570  10.964 -0.3664  1.1955 -0.3474
 2686SOL     OW19690   2.783   0.660   4.812 -0.2808 -0.1548 -0.0560
 2686SOL    HW119691   2.761   0.617   4.894  2.0228 -1.5007 -0.1640
 2686SOL    HW219692   2.705   0.636   4.762 -0.7850  0.1212  0.5956
 2687SOL     OW19693   0.927   4.642   1.345 -0.1736 -0.1439  0.0135
 2687SOL    HW119694   0.976   4.715   1.307  0.9772  0.6293  2.9962
 2687SOL    HW219695   0.965   4.631   1.432 -1.5784 -1.1240  0.4939
 2688SOL     OW19696   3.016   1.180   4.735  0.1078  0.1706  0.8105
 2688SOL    HW119697   3.029   1.225   4.652  0.2073 -2.1090 -0.3986
 2688SOL    HW219698   3.009   1.086   4.717  2.3097  0.3453 -0.9162
 2689SOL     OW19699   3.967   1.653   6.801  0.2054  0.0641  0.3136
 2689SOL    HW119700   3.996   1.673   6.712 -3.6310 -1.5336 -1.2876
 2689SOL    HW219701   4.049   1.664   6.850 -0.0797 -0.4693  0.9113
 2690SOL     OW19702   4.042   3.876  13.210 -0.1245  0.2758  0.5207
 2690SOL    HW119703   3.966   3.896  13.265  0.0685 -2.1558  1.6915
 2690SOL    HW219704   4.049   3.784  13.234  1.5124  0.3193  0.1859
 2691SOL     OW19705   4.295   4.121   8.312 -0.6668 -0.6638  0.8403
 2691SOL    HW119706   4.228   4.161   8.367  0.4810  0.3896  1.4602
 2691SOL    HW219707   4.292   4.029   8.338  0.6271 -0.7408  0.7211
 2692SOL     OW19708   0.075   1.995   9.004  0.0487 -0.2310 -0.0396
 2692SOL    HW119709   0.113   2.053   9.070 -1.3470  0.1729  0.4188
 2692SOL    HW219710   0.075   2.051   8.926 -1.6126  2.0586  1.6037
 2693SOL     OW19711   0.153   3.013   0.311  0.6592 -0.0278  0.1254
 2693SOL    HW119712   0.176   2.920   0.307  0.0288 -0.1871  0.2757
 2693SOL    HW219713   0.068   3.003   0.354 -0.0061  1.7935 -0.7755
 2694SOL     OW19714   3.552   1.257   4.472 -0.4571 -0.0235  0.2640
 2694SOL    HW119715   3.597   1.310   4.537 -0.8693 -0.1543  0.6585
 2694SOL    HW219716   3.616   1.191   4.446 -0.0265  0.0305  1.2005
 2695SOL     OW19717   2.821   1.945   3.298 -0.2221 -0.0496 -0.6692
 2695SOL    HW119718   2.755   1.954   3.367  0.0125  0.0314 -0.4546
 2695SOL    HW219719   2.804   2.012   3.232 -0.8407  1.1661  0.7232
 2696SOL     OW19720   1.265   1.261   7.352 -0.3720  0.3264 -0.0981
 2696SOL    HW119721   1.286   1.348   7.387 -0.6545 -0.7498  2.7932
 2696SOL    HW219722   1.353   1.236   7.326 -0.5409 -1.3044  0.8786
 2697SOL     OW19723   4.059   3.820   2.113  0.3252  0.1347  0.3892
 2697SOL    HW119724   4.099   3.807   2.199 -0.7748 -0.5340  0.8004
 2697SOL    HW219725   3.988   3.873   2.149  0.7244 -0.4641  2.0803
 2698SOL     OW19726   2.573   2.088  12.663 -0.0928 -0.1570 -0.4245
 2698SOL    HW119727   2.611   2.094  12.750  0.4797  0.9282 -0.7477
 2698SOL    HW219728   2.533   2.175  12.654  1.2992  0.6769  1.4487
 2699SOL     OW19729   3.006   0.834   1.964  0.3041  0.2465  0.2356
 2699SOL    HW119730   3.069   0.836   1.891  0.4472 -0.5276  0.3388
 2699SOL    HW219731   2.995   0.929   1.977 -1.5515  0.0635  0.0108
 2700SOL     OW19732   4.121   3.915  14.435  0.4069 -0.7627  0.3027
 2700SOL    HW119733   4.057   3.983  14.458 -1.2622 -2.5156  0.9374
 2700SOL    HW219734   4.068   3.853  14.385 -0.4091 -0.4286  0.7501
 2701SOL     OW19735   0.059   2.248   0.318 -0.0380 -0.0087 -0.1553
 2701SOL    HW119736   0.036   2.166   0.273 -1.9572 -0.2344  1.2015
 2701SOL    HW219737   0.090   2.306   0.248 -1.3393  1.1246  0.1994
 2702SOL     OW19738   4.654   2.493   6.220 -0.1560  0.4558  0.2503
 2702SOL    HW119739   4.657   2.504   6.125 -2.5065  1.0755  0.2430
 2702SOL    HW219740   4.616   2.405   6.216 -0.9632  0.9498 -2.9289
 2703SOL     OW19741   1.681   4.537   0.557 -0.3373 -0.3820 -0.0920
 2703SOL    HW119742   1.730   4.459   0.530  1.4692  0.5118  0.6430
 2703SOL    HW219743   1.715   4.617   0.518 -2.9157  0.5308 -0.4736
 2704SOL     OW19744   1.347   2.406   0.474 -0.3515 -0.2392  0.4259
 2704SOL    HW119745   1.401   2.482   0.454  0.9193 -1.3336 -0.2896
 2704SOL    HW219746   1.343   2.415   0.570  1.0243 -1.3401  0.5984
 2705SOL     OW19747   3.911   2.351  12.590  0.4547  1.1533 -0.6188
 2705SOL    HW119748   3.926   2.268  12.636 -2.0964  0.8972 -0.2619
 2705SOL    HW219749   3.899   2.400  12.672  1.8232  0.5119 -0.0246
 2706SOL     OW19750   2.030   2.159   3.944  0.2999  0.5135 -0.1256
 2706SOL    HW119751   2.025   2.087   3.882  0.5473  0.1063  0.3267
 2706SOL    HW219752   1.941   2.152   3.980  1.0806 -1.2452  1.4500
 2707SOL     OW19753   0.130   2.169   3.416 -0.3975 -0.3195  0.3187
 2707SOL    HW119754   0.144   2.097   3.478 -0.0515 -0.4628  0.0775
 2707SOL    HW219755   0.201   2.143   3.357 -0.0147  0.7624  0.3107
 2708SOL     OW19756   2.123   4.476   2.666  0.7911 -0.4073 -0.4370
 2708SOL    HW119757   2.195   4.506   2.721  1.4648 -0.4148 -1.3175
 2708SOL    HW219758   2.092   4.560   2.632  0.3609 -1.0775 -1.6828
 2709SOL     OW19759   4.689   3.003   7.212 -0.3237  0.3533 -0.1619
 2709SOL    HW119760   4.701   2.918   7.171  1.2534 -1.2303  3.5685
 2709SOL    HW219761   4.656   2.972   7.297  0.0089 -0.1685 -0.2265
 2710SOL     OW19762   1.438   0.649   9.221  0.3163  0.1654 -0.4048
 2710SOL    HW119763   1.511   0.669   9.163  0.7607  3.1035  1.1444
 2710SOL    HW219764   1.434   0.730   9.272  1.8939  0.2890 -0.4742
 2711SOL     OW19765   1.834   2.442   3.656  0.3602 -0.1619  0.8646
 2711SOL    HW119766   1.857   2.349   3.648  0.0539 -0.0659 -1.0559
 2711SOL    HW219767   1.815   2.440   3.750 -0.6063 -0.8930  0.6601
 2712SOL     OW19768   2.845   3.789   3.995  0.2310 -0.6257 -0.1686
 2712SOL    HW119769   2.899   3.711   4.003  0.2180 -0.8164 -2.0149
 2712SOL    HW219770   2.823   3.784   3.902  1.0851  0.3062 -0.4229
 2713SOL     OW19771   3.186   0.438   8.651 -0.1474 -0.0428  0.3758
 2713SOL    HW119772   3.218   0.348   8.643 -1.3391 -0.4592  0.3345
 2713SOL    HW219773   3.185   0.437   8.747 -1.2272 -1.2273  0.3495
 2714SOL     OW19774   0.742   3.699   1.941  0.3246 -0.1243  0.3572
 2714SOL    HW119775   0.688   3.627   1.907 -0.0177  0.6707 -0.7967
 2714SOL    HW219776   0.724   3.772   1.881 -0.5926  0.5472  1.4383
 2715SOL     OW19777   1.427   1.461  14.751 -0.2847  0.4665  0.1332
 2715SOL    HW119778   1.421   1.367  14.735 -0.9900  0.4563  0.4724
 2715SOL    HW219779   1.519   1.467  14.778  0.1181 -0.8745 -0.9956
 2716SOL     OW19780   4.505   0.026   3.278  0.2398 -0.0319 -0.4691
 2716SOL    HW119781   4.484   4.672   3.284 -2.0756  0.4817 -0.6916
 2716SOL    HW219782   4.589   0.020   3.324  1.5397 -1.4651 -3.0248
 2717SOL     OW19783   0.341   1.010   3.003  0.5012  0.1638  0.2116
 2717SOL    HW119784   0.296   0.985   2.923 -0.2673 -1.2685  1.0948
 2717SOL    HW219785   0.267   1.041   3.055 -0.2220 -1.5769  0.2047
 2718SOL     OW19786   1.122   1.251  16.268  0.1948  0.2668 -0.0561
 2718SOL    HW119787   1.061   1.324  16.277  0.5186  0.9073 -2.9220
 2718SOL    HW219788   1.077   1.174  16.234  1.0519  0.1834 -0.9973
 2719SOL     OW19789   3.079   1.983   7.664 -0.3313  0.1267  0.1078
 2719SOL    HW119790   3.069   1.914   7.599  1.5282  1.6372 -1.8114
 2719SOL    HW219791   3.021   2.052   7.632  2.6507  2.0595 -1.1382
 2720SOL     OW19792   1.744   3.299  10.003 -0.2989  0.0240 -1.3413
 2720SOL    HW119793   1.771   3.356   9.931  2.4962 -1.0527 -1.1513
 2720SOL    HW219794   1.783   3.217   9.973  0.4910 -1.4799  3.7717
 2721SOL     OW19795   1.940   0.782   7.074  0.0326 -0.4564 -0.1232
 2721SOL    HW119796   1.874   0.752   7.137  0.9337  2.1305  2.0069
 2721SOL    HW219797   2.019   0.740   7.108  1.2242  1.5210 -0.4285
 2722SOL     OW19798   1.309   4.361   8.618 -0.2993  0.2828 -0.3070
 2722SOL    HW119799   1.375   4.394   8.678 -2.2918 -0.2780  2.1915
 2722SOL    HW219800   1.338   4.270   8.605  2.1561  1.0233 -0.0564
 2723SOL     OW19801   0.742   4.707   7.000 -0.4354 -0.0331  0.0568
 2723SOL    HW119802   0.681   4.639   6.971  1.5908 -1.4819 -0.8279
 2723SOL    HW219803   0.829   4.680   6.971  1.0915  3.6226  1.2081
 2724SOL     OW19804   0.629   2.732   2.780 -0.4840 -0.1850 -0.0809
 2724SOL    HW119805   0.657   2.815   2.818 -0.3465  0.2542 -1.1559
 2724SOL    HW219806   0.552   2.717   2.835 -3.2323  3.2998 -3.0308
 2725SOL     OW19807   2.599   4.515   2.094 -0.5941  0.5650  0.3569
 2725SOL    HW119808   2.639   4.433   2.064  0.2439  1.1225 -0.0397
 2725SOL    HW219809   2.551   4.487   2.173  2.1377  0.6031  2.0352
 2726SOL     OW19810   1.467   2.598   3.681  0.3400  0.4981 -0.0464
 2726SOL    HW119811   1.547   2.643   3.707 -0.2258 -0.6699  3.7339
 2726SOL    HW219812   1.401   2.639   3.737 -1.2709  0.0346 -1.6193
 2727SOL     OW19813   4.062   3.867   7.818  0.2700 -0.4186  0.0815
 2727SOL    HW119814   4.085   3.936   7.757 -1.3633 -0.8913 -1.0621
 2727SOL    HW219815   4.062   3.916   7.901 -0.1016 -0.2020 -0.0488
 2728SOL     OW19816   0.725   3.674   5.202 -0.2236  0.0441  0.0220
 2728SOL    HW119817   0.688   3.763   5.194  2.8025  1.2700 -0.2155
 2728SOL    HW219818   0.789   3.686   5.271 -0.5011 -0.8668  0.4310
 2729SOL     OW19819   2.671   2.687   1.222  0.7643  0.3870  0.4867
 2729SOL    HW119820   2.623   2.655   1.146  1.3048  1.7329 -0.4328
 2729SOL    HW219821   2.676   2.604   1.269  1.1304  0.4935  0.6291
 2730SOL     OW19822   3.499   2.077   2.427  0.0097  0.4097 -0.8338
 2730SOL    HW119823   3.580   2.104   2.471 -0.1423 -1.7132  0.7860
 2730SOL    HW219824   3.526   2.001   2.375  1.0909 -0.4791  0.9968
 2731SOL     OW19825   0.700   2.239   7.244  0.2369  0.0984 -0.4677
 2731SOL    HW119826   0.614   2.199   7.251  0.8542 -1.0118  0.8230
 2731SOL    HW219827   0.752   2.159   7.233 -1.1192 -0.4640 -2.6622
 2732SOL     OW19828   2.445   2.363  13.612 -0.4328 -0.2320 -0.5011
 2732SOL    HW119829   2.446   2.333  13.703 -0.5718 -4.0900 -1.7695
 2732SOL    HW219830   2.525   2.414  13.629  0.9413 -1.6399 -2.7571
 2733SOL     OW19831   0.515   3.654   4.542  0.0705 -0.4823 -0.5135
 2733SOL    HW119832   0.488   3.742   4.571 -0.9683 -0.8120 -0.4727
 2733SOL    HW219833   0.599   3.673   4.501  0.1793  0.6398  0.1980
 2734SOL     OW19834   2.199   0.723   4.998 -0.2099 -0.2948  0.1301
 2734SOL    HW119835   2.224   0.631   4.984  1.1341  0.4034 -2.0384
 2734SOL    HW219836   2.124   0.737   4.940  0.6462 -0.7162 -1.0800
 2735SOL     OW19837   4.254   3.271   7.101 -0.4445  0.1281  0.0339
 2735SOL    HW119838   4.196   3.213   7.152  0.4478 -0.8527 -0.0579
 2735SOL    HW219839   4.333   3.219   7.086 -0.9688 -0.6066 -0.2149
 2736SOL     OW19840   1.407   1.192  12.311 -0.0950  0.3415  0.3016
 2736SOL    HW119841   1.483   1.244  12.336  1.6759 -2.0823 -0.0774
 2736SOL    HW219842   1.411   1.198  12.216 -1.9863  1.6582  0.3145
 2737SOL     OW19843   2.000   3.877   9.076  0.1868 -0.0987  0.5215
 2737SOL    HW119844   1.941   3.820   9.027 -0.7619 -0.2095  1.7884
 2737SOL    HW219845   2.023   3.941   9.008 -0.4142  2.7002  2.9247
 2738SOL     OW19846   0.805   2.913   5.655  0.1808 -0.0112 -0.4771
 2738SOL    HW119847   0.730   2.972   5.668  0.8329  0.3721  1.4881
 2738SOL    HW219848   0.850   2.948   5.578  0.9393  0.4840  0.2006
 2739SOL     OW19849   3.850   1.067   5.380 -0.1361 -0.6605  0.5416
 2739SOL    HW119850   3.895   1.151   5.380 -3.3341  1.0867  0.1763
 2739SOL    HW219851   3.913   1.010   5.337 -1.8269 -0.4967 -2.1624
 2740SOL     OW19852   0.423   3.694   4.200  0.3985 -0.2591  0.6214
 2740SOL    HW119853   0.328   3.689   4.207  0.0786  1.1689 -2.5997
 2740SOL    HW219854   0.443   3.767   4.258  1.1974  0.8735 -1.0768
 2741SOL     OW19855   2.682   4.320   5.123  0.0172 -0.1976 -0.2291
 2741SOL    HW119856   2.739   4.276   5.060  0.3625  0.7431 -0.5679
 2741SOL    HW219857   2.747   4.373   5.168 -0.7747  0.1803  0.4772
 2742SOL     OW19858   3.500   0.151   3.267 -0.3574  0.6685 -0.5263
 2742SOL    HW119859   3.434   0.159   3.197 -0.8035  0.8064 -0.0908
 2742SOL    HW219860   3.508   0.243   3.291 -1.5986  0.4993  0.5379
 2743SOL     OW19861   2.396   2.563   7.684  0.1203  0.0681 -0.1351
 2743SOL    HW119862   2.309   2.553   7.724 -0.3952  1.0579 -1.0101
 2743SOL    HW219863   2.435   2.549   7.771  2.5579 -0.4699 -1.3099
 2744SOL     OW19864   2.613   1.663   8.294 -0.3718  0.2388  0.0348
 2744SOL    HW119865   2.596   1.664   8.388  2.0548  1.9600  0.4553
 2744SOL    HW219866   2.575   1.747   8.268 -0.9107 -0.8586 -2.7156
 2745SOL     OW19867   0.166   4.296  13.689 -0.6050  0.1903 -0.2105
 2745SOL    HW119868   0.189   4.386  13.714  1.7819 -0.5949  0.4253
 2745SOL    HW219869   0.073   4.288  13.713 -0.6922  2.9235  0.4344
 2746SOL     OW19870   0.719   2.644   5.606 -0.0643 -0.1478 -0.3422
 2746SOL    HW119871   0.711   2.608   5.694  0.8220  1.7000  0.4868
 2746SOL    HW219872   0.763   2.727   5.624 -1.1488  0.3974 -0.2036
 2747SOL     OW19873   0.175   3.101  12.076  0.8027  0.0431 -0.1831
 2747SOL    HW119874   0.253   3.144  12.112  0.5081  0.4467 -0.0269
 2747SOL    HW219875   0.216   3.031  12.024 -0.8306 -1.5681  0.6780
 2748SOL     OW19876   3.073   1.680  17.691  0.2364 -0.3376  0.0549
 2748SOL    HW119877   3.069   1.714  17.601 -1.3867 -2.0554 -0.5286
 2748SOL    HW219878   3.139   1.611  17.684  1.2072  0.7268 -1.3644
 2749SOL     OW19879   4.660   2.545  15.946 -0.6620  0.2208  0.2344
 2749SOL    HW119880   4.599   2.477  15.976 -0.3839  0.4882  1.4086
 2749SOL    HW219881   4.639   2.622  16.000 -1.4287 -0.8182  1.4308
 2750SOL     OW19882   2.674   3.963  12.565 -0.0270 -0.3336  0.2353
 2750SOL    HW119883   2.620   3.933  12.637  2.3298 -2.9215  0.9244
 2750SOL    HW219884   2.681   3.881  12.516 -0.8864  0.5588 -1.3783
 2751SOL     OW19885   0.153   3.722   5.797  0.1011  0.1225  0.2042
 2751SOL    HW119886   0.151   3.813   5.768 -0.1925  0.1560  0.3316
 2751SOL    HW219887   0.065   3.714   5.834 -0.5447  0.8884 -1.1418
 2752SOL     OW19888   0.935   2.023  15.243 -0.4906  0.4439 -0.3493
 2752SOL    HW119889   0.853   1.978  15.223  0.8575 -1.3264 -1.9053
 2752SOL    HW219890   0.966   1.969  15.315 -0.1044  0.3288 -0.6011
 2753SOL     OW19891   4.309   2.353   3.278 -0.7155  0.0588  0.1386
 2753SOL    HW119892   4.271   2.282   3.227 -0.5770 -0.5066  0.8362
 2753SOL    HW219893   4.281   2.321   3.363  2.8326 -1.1713  0.8505
 2754SOL     OW19894   1.946   3.994   4.911 -0.3743  0.1396  0.0981
 2754SOL    HW119895   1.998   3.954   4.841 -1.2605 -0.0607 -0.4516
 2754SOL    HW219896   1.998   3.977   4.989 -0.4219 -0.6085 -0.0408
 2755SOL     OW19897   3.476   1.034  15.860  0.0574 -0.0337 -0.4542
 2755SOL    HW119898   3.420   0.985  15.920 -0.0066  2.0127  1.1926
 2755SOL    HW219899   3.490   1.117  15.906 -0.3354 -0.7453  0.9198
 2756SOL     OW19900   1.383   4.317   9.183  0.1193 -0.2532 -0.4268
 2756SOL    HW119901   1.450   4.384   9.169 -1.0255  0.7622 -1.0431
 2756SOL    HW219902   1.407   4.299   9.274 -1.9186 -1.2312 -0.0872
 2757SOL     OW19903   1.001   3.298   2.943  0.7524 -0.2489 -0.1982
 2757SOL    HW119904   1.080   3.323   2.895  1.7664  1.8858  2.5979
 2757SOL    HW219905   0.998   3.369   3.006  0.2412 -2.5070  2.3211
 2758SOL     OW19906   3.250   3.730   8.547 -0.0566 -0.0051  0.4842
 2758SOL    HW119907   3.193   3.669   8.501 -0.4881  0.3200  0.5876
 2758SOL    HW219908   3.337   3.695   8.527 -0.7982  0.4354 -3.6041
 2759SOL     OW19909   2.136   3.710   8.703 -0.9398  0.0907  0.3876
 2759SOL    HW119910   2.066   3.776   8.707 -1.0012  0.0368  0.2022
 2759SOL    HW219911   2.102   3.662   8.628 -0.8138  1.3592 -0.4758
 2760SOL     OW19912   2.572   3.470  10.008  0.3296 -0.2726  0.3295
 2760SOL    HW119913   2.514   3.541   9.981 -1.8161 -1.8058  0.9524
 2760SOL    HW219914   2.519   3.406   9.961  0.4858 -0.4459  0.3908
 2761SOL     OW19915   3.015   2.969   4.069 -0.2841 -0.1081  0.4945
 2761SOL    HW119916   2.958   3.035   4.029  0.8613  1.4431  1.4420
 2761SOL    HW219917   3.091   3.026   4.061  0.2486 -0.7260  1.1386
 2762SOL     OW19918   0.926   1.222   3.510  0.7363 -0.0813 -0.0417
 2762SOL    HW119919   1.012   1.191   3.482  0.7910 -1.9855  2.3069
 2762SOL    HW219920   0.912   1.286   3.439 -0.7128 -0.7408 -0.3402
 2763SOL     OW19921   4.286   3.640   0.146  0.1407 -0.0080  0.1171
 2763SOL    HW119922   4.260   3.564   0.198  0.8327  1.0660  2.0415
 2763SOL    HW219923   4.209   3.691   0.173  0.4127  1.3794 -1.7818
 2764SOL     OW19924   0.544   3.047   9.259 -0.6720 -0.4180 -0.4503
 2764SOL    HW119925   0.449   3.054   9.272 -0.7418 -0.7152 -0.7938
 2764SOL    HW219926   0.553   2.958   9.225 -2.9190 -1.2741  1.2094
 2765SOL     OW19927   3.258   3.489   4.779  0.0641  0.1761  0.0348
 2765SOL    HW119928   3.163   3.500   4.773  0.2609  1.3179 -0.8999
 2765SOL    HW219929   3.294   3.528   4.700 -1.2777  0.2633 -0.5258
 2766SOL     OW19930   2.827   0.261   3.390 -0.2554 -0.6594 -0.3785
 2766SOL    HW119931   2.745   0.307   3.372 -1.2388 -0.9458  3.5022
 2766SOL    HW219932   2.861   0.234   3.304  0.8167 -1.6224  0.3533
 2767SOL     OW19933   1.267   4.644   2.216  0.0275  0.0082  0.6616
 2767SOL    HW119934   1.347   4.681   2.253  0.7939  1.5369 -2.4938
 2767SOL    HW219935   1.207   4.636   2.290 -2.0185 -0.3433 -1.0217
 2768SOL     OW19936   4.442   4.002  15.695  0.5678  0.8014  0.6232
 2768SOL    HW119937   4.494   4.060  15.751  3.2573 -1.2337  0.2617
 2768SOL    HW219938   4.409   4.058  15.626  1.2129 -0.2126 -0.5055
 2769SOL     OW19939   0.521   1.488   9.295  0.0443  0.1228  0.0550
 2769SOL    HW119940   0.454   1.424   9.319 -0.1049 -0.1360 -1.0601
 2769SOL    HW219941   0.524   1.543   9.373 -1.7013  0.3589 -0.0345
 2770SOL     OW19942   0.921   0.597   5.696 -0.0597  0.2849  0.6249
 2770SOL    HW119943   1.010   0.590   5.731 -1.0122 -0.5829  2.9007
 2770SOL    HW219944   0.910   0.692   5.696 -3.4585 -0.1205 -1.9638
 2771SOL     OW19945   3.932   2.040   5.612 -0.6080  0.1960 -0.8989
 2771SOL    HW119946   3.927   2.135   5.626  1.7383  0.0574  0.8476
 2771SOL    HW219947   3.988   2.038   5.535  0.4139 -0.2624 -0.1338
 2772SOL     OW19948   2.429   1.026  14.523 -0.5992  0.2791  0.4244
 2772SOL    HW119949   2.429   0.985  14.609 -3.0309  0.7247  0.6249
 2772SOL    HW219950   2.414   0.952  14.465 -1.1720  1.7744 -1.3366
 2773SOL     OW19951   2.408   3.254   3.029  0.3329  0.2017  0.3714
 2773SOL    HW119952   2.424   3.170   3.071  1.6713  0.6280  0.7161
 2773SOL    HW219953   2.437   3.233   2.940  3.1574  1.5760  0.9694
 2774SOL     OW19954   1.076   2.662   7.252  0.3262 -0.2446  0.3821
 2774SOL    HW119955   1.059   2.675   7.159  0.7862  1.6443  0.5770
 2774SOL    HW219956   1.155   2.609   7.242  0.9948  1.0458 -1.1482
 2775SOL     OW19957   4.122   1.025   5.331  0.3177 -0.2541  0.5739
 2775SOL    HW119958   4.140   1.078   5.408  2.0731  0.1740 -0.1290
 2775SOL    HW219959   4.151   1.078   5.257 -2.2791 -0.1058 -0.3359
 2776SOL     OW19960   0.039   4.007  14.060  0.5453 -0.0850  0.1400
 2776SOL    HW119961   4.703   3.959  14.025 -0.2337  0.5804  0.9260
 2776SOL    HW219962   0.003   4.092  14.083  0.5303  0.1573 -0.7976
 2777SOL     OW19963   0.770   2.381   0.753 -0.5374  0.7303 -0.3692
 2777SOL    HW119964   0.842   2.349   0.699  0.5469  0.8125  1.0353
 2777SOL    HW219965   0.690   2.340   0.719  1.6035 -2.2504 -1.8011
 2778SOL     OW19966   0.228   2.391   9.038  0.3315 -0.0718  0.0265
 2778SOL    HW119967   0.315   2.402   9.076 -0.5588  0.1425  1.9999
 2778SOL    HW219968   0.210   2.467   8.984  1.5270  0.9237  1.0391
 2779SOL     OW19969   1.327   3.075   5.139  0.1524 -0.3361 -0.2887
 2779SOL    HW119970   1.263   3.010   5.167 -0.6835 -0.1719 -1.8525
 2779SOL    HW219971   1.280   3.157   5.153 -3.1041 -2.4719  1.1541
 2780SOL     OW19972   3.810   0.648   1.418  0.5464  0.2038  0.1099
 2780SOL    HW119973   3.806   0.621   1.510 -1.5028 -1.3527 -0.4432
 2780SOL    HW219974   3.782   0.739   1.428 -2.0766 -0.5079 -0.8897
 2781SOL     OW19975   0.669   2.783  14.636  0.0626 -0.0952  0.2889
 2781SOL    HW119976   0.730   2.800  14.565 -0.9347 -0.0470 -0.5527
 2781SOL    HW219977   0.586   2.774  14.588  0.2907 -2.1171  0.2483
 2782SOL     OW19978   3.520   4.622   3.719 -0.2687 -0.5676  0.5940
 2782SOL    HW119979   3.499   4.546   3.772 -1.8748  1.5356  2.9830
 2782SOL    HW219980   3.567   4.574   3.651 -2.7724 -0.6076 -1.1247
 2783SOL     OW19981   2.429   0.810  14.344 -0.8433 -0.2612 -0.3492
 2783SOL    HW119982   2.504   0.821  14.285 -0.9474  0.8823 -0.2616
 2783SOL    HW219983   2.364   0.856  14.292 -0.6412 -1.3788 -1.5937
 2784SOL     OW19984   3.956   0.989   0.693 -0.5371  0.0461 -0.3653
 2784SOL    HW119985   3.955   0.896   0.674  1.5348 -0.2974  1.2145
 2784SOL    HW219986   4.028   0.988   0.756  1.0399  1.3174 -2.1522
 2785SOL     OW19987   3.758   2.295   2.108 -0.0768  0.0089 -0.2758
 2785SOL    HW119988   3.715   2.215   2.078  1.5156 -1.1142  0.4917
 2785SOL    HW219989   3.827   2.303   2.043 -0.3182  4.5137 -0.0403
 2786SOL     OW19990   1.131   0.566   7.222  0.1866 -0.5836 -0.1167
 2786SOL    HW119991   1.044   0.533   7.243  0.6149 -0.5021  1.7016
 2786SOL    HW219992   1.122   0.547   7.128  0.8036 -0.1574 -0.2611
 2787SOL     OW19993   3.594   3.329   4.312  0.5408  0.2286 -0.2270
 2787SOL    HW119994   3.675   3.290   4.279 -0.1708 -2.1973  0.9000
 2787SOL    HW219995   3.543   3.344   4.232  0.3249 -1.1913 -0.3452
 2788SOL     OW19996   1.428   1.637   6.640 -0.1384 -0.8854 -0.3609
 2788SOL    HW119997   1.509   1.586   6.643  0.0382 -0.6402 -0.8609
 2788SOL    HW219998   1.363   1.596   6.697  0.6532  0.3877  1.4527
 2789SOL     OW19999   4.572   0.175  12.390  0.4474  0.1233 -0.1625
 2789SOL    HW120000   4.488   0.220  12.384 -1.1739 -3.2389 -2.5394
 2789SOL    HW220001   4.571   0.142  12.479  1.9698 -0.3468 -0.3186
 2790SOL     OW20002   4.005   0.625  15.000 -0.8738  0.4195 -0.1644
 2790SOL    HW120003   4.033   0.677  14.925  0.4529  1.1840  0.8461
 2790SOL    HW220004   3.912   0.615  14.983 -1.0741  1.1668  0.4960
 2791SOL     OW20005   3.989   1.650   5.587  0.1609 -0.0394  0.0637
 2791SOL    HW120006   4.055   1.649   5.656 -0.6765  2.1026  0.8826
 2791SOL    HW220007   3.904   1.660   5.629 -0.1838  1.1906 -0.9240
 2792SOL     OW20008   0.287   1.550   7.178 -0.2206  0.7194  0.4344
 2792SOL    HW120009   0.321   1.495   7.108 -2.9991  1.4191 -1.4627
 2792SOL    HW220010   0.249   1.628   7.137 -0.7015  0.0198 -0.4656
 2793SOL     OW20011   0.469   1.505   2.171  0.3972 -0.6799  0.2603
 2793SOL    HW120012   0.405   1.474   2.106  1.6431 -1.5050 -0.5573
 2793SOL    HW220013   0.467   1.429   2.230 -2.0596 -0.9768 -0.1752
 2794SOL     OW20014   4.233   4.314   1.732  0.0522 -0.2754 -0.3489
 2794SOL    HW120015   4.325   4.298   1.753  0.2386  0.6901 -0.4225
 2794SOL    HW220016   4.251   4.362   1.651  0.3375  0.0784 -0.0772
 2795SOL     OW20017   4.316   2.015  16.856 -0.2230  0.0843 -0.1701
 2795SOL    HW120018   4.368   2.001  16.935  0.3272  0.7152 -0.4216
 2795SOL    HW220019   4.335   2.107  16.843  2.1550  0.1723  3.9489
 2796SOL     OW20020   4.695   2.434  14.349 -0.0074 -0.4791  0.2556
 2796SOL    HW120021   0.051   2.442  14.338 -0.0105 -1.9109 -0.8918
 2796SOL    HW220022   4.668   2.500  14.285  3.4340  0.3970 -0.2991
 2797SOL     OW20023   0.721   4.190   5.246 -0.2085 -0.1222  0.5525
 2797SOL    HW120024   0.755   4.221   5.329 -1.7456  0.7635  0.8585
 2797SOL    HW220025   0.677   4.272   5.224 -0.7886 -0.9344 -1.3947
 2798SOL     OW20026   4.513   4.114  15.032  0.5064  0.0137  0.3962
 2798SOL    HW120027   4.487   4.063  15.109 -0.2940 -0.0580  0.0794
 2798SOL    HW220028   4.460   4.190  15.055 -1.8500 -1.9071  1.3259
 2799SOL     OW20029   0.111   0.932  13.789 -0.7567 -0.2063  0.3551
 2799SOL    HW120030   0.064   0.870  13.733 -1.2525 -1.1404  1.7875
 2799SOL    HW220031   0.187   0.962  13.739 -1.5845 -2.3083 -2.2103
 2800SOL     OW20032   2.606   3.130   5.089  0.1756  0.2167 -0.0364
 2800SOL    HW120033   2.700   3.147   5.097  0.0603  0.3279  1.1406
 2800SOL    HW220034   2.591   3.100   5.000  0.1062 -2.2801  0.8362
 2801SOL     OW20035   0.755   3.524   8.371 -0.1631  0.5987 -0.0885
 2801SOL    HW120036   0.829   3.543   8.313 -0.1281 -1.3649 -0.6877
 2801SOL    HW220037   0.766   3.600   8.428  0.1717  0.2325  0.3286
 2802SOL     OW20038   0.717   0.432  13.216 -0.7076  0.0372 -0.3482
 2802SOL    HW120039   0.632   0.397  13.190 -0.6199  0.8619 -1.7211
 2802SOL    HW220040   0.682   0.498  13.276  0.1235 -2.0217  2.4351
 2803SOL     OW20041   1.532   3.021  17.145  0.2037  0.0660 -0.0072
 2803SOL    HW120042   1.529   3.030  17.240  1.0682  1.3002 -0.1037
 2803SOL    HW220043   1.452   2.969  17.141  0.8456 -1.0273  0.9068
 2804SOL     OW20044   1.008   3.906   7.696  0.7303  0.0338 -0.5559
 2804SOL    HW120045   0.983   3.814   7.700  0.3663  0.0586 -2.2439
 2804SOL    HW220046   1.095   3.909   7.656  1.2354  0.7192  0.6006
 2805SOL     OW20047   2.907   4.366  11.594  0.2075 -0.1733 -0.1913
 2805SOL    HW120048   2.907   4.432  11.664  2.0459 -0.8252  0.4030
 2805SOL    HW220049   2.940   4.289  11.639  2.0617  1.2710  0.9336
 2806SOL     OW20050   4.738   1.873   6.817  0.5738  0.0273 -0.4503
 2806SOL    HW120051   4.721   1.818   6.740  0.8257 -1.7343  0.7434
 2806SOL    HW220052   4.659   1.864   6.871  0.3864  0.9760 -0.5784
 2807SOL     OW20053   1.818   2.500  11.164 -0.6936  0.9276  0.0344
 2807SOL    HW120054   1.775   2.583  11.141 -0.7067  0.9627  0.1865
 2807SOL    HW220055   1.871   2.530  11.238 -1.1920  0.5974  0.5316
 2808SOL     OW20056   3.031   3.328   7.826  0.1845  0.6018 -0.5272
 2808SOL    HW120057   2.948   3.375   7.827 -0.6230 -0.8392  1.6149
 2808SOL    HW220058   3.083   3.382   7.885 -1.9259 -0.6736  2.5150
 2809SOL     OW20059   2.450   0.111   1.515 -0.0501 -0.2974 -0.7164
 2809SOL    HW120060   2.538   0.136   1.541 -0.4232  0.2067  0.0454
 2809SOL    HW220061   2.463   0.080   1.425  0.8015 -2.6974  0.2418
 2810SOL     OW20062   4.320   0.308   4.129  0.1453  1.0455  0.1511
 2810SOL    HW120063   4.233   0.317   4.167  0.7106  1.2926  1.3996
 2810SOL    HW220064   4.331   0.393   4.086  2.0970 -0.3525 -2.1176
 2811SOL     OW20065   2.285   3.522   8.442 -0.8022  0.2624 -0.1438
 2811SOL    HW120066   2.222   3.543   8.373 -1.1866  0.6100  0.3135
 2811SOL    HW220067   2.330   3.607   8.450  0.0636 -0.0479 -1.7091
 2812SOL     OW20068   1.796   3.584   8.266  0.0186 -0.3705 -0.2430
 2812SOL    HW120069   1.710   3.548   8.290  0.6204 -0.7371  1.4017
 2812SOL    HW220070   1.765   3.664   8.224 -2.2460 -1.0624  0.0865
 2813SOL     OW20071   1.319   3.310   7.675  0.6827  0.2195  0.3339
 2813SOL    HW120072   1.353   3.294   7.587 -0.4738  2.2562 -0.4998
 2813SOL    HW220073   1.362   3.394   7.693 -1.3915  2.1956 -4.0950
 2814SOL     OW20074   3.083   3.328   7.569  0.0453 -0.2240  0.1249
 2814SOL    HW120075   3.148   3.260   7.585 -0.9425 -1.3662 -0.7256
 2814SOL    HW220076   3.048   3.340   7.657 -0.2572 -1.7160  0.2105
 2815SOL     OW20077   2.429   3.992   5.119 -0.4415  0.3408  0.3485
 2815SOL    HW120078   2.437   3.898   5.103 -0.0259  0.5312 -0.5362
 2815SOL    HW220079   2.483   4.029   5.050  0.1683 -1.7990 -0.3142
 2816SOL     OW20080   1.623   4.703   8.223 -0.2343  0.0120  0.4574
 2816SOL    HW120081   1.551   0.015   8.186 -2.1662 -1.8887  1.5488
 2816SOL    HW220082   1.698   0.022   8.215  0.8108 -1.3222  0.4776
 2817SOL     OW20083   0.541   2.615  11.847  0.5078 -0.2999 -0.4225
 2817SOL    HW120084   0.459   2.575  11.818 -0.7686  0.0429  2.6645
 2817SOL    HW220085   0.577   2.655  11.768  0.0087  0.8154 -0.0940
 2818SOL     OW20086   2.303   0.038  13.741  0.6420 -0.4697  0.0316
 2818SOL    HW120087   2.360   4.728  13.799  2.8375  0.0981 -1.6471
 2818SOL    HW220088   2.348   0.123  13.737  0.2078 -0.2796 -0.9171
 2819SOL     OW20089   4.491   0.461   7.991 -0.1450  0.1035  0.0462
 2819SOL    HW120090   4.545   0.478   8.069 -0.5096 -0.7619  0.4890
 2819SOL    HW220091   4.517   0.370   7.974  2.1724  0.8118 -0.2959
 2820SOL     OW20092   4.081   4.199   5.446  0.1511  0.1500  0.3238
 2820SOL    HW120093   4.046   4.269   5.500 -1.3579 -0.8759  0.6564
 2820SOL    HW220094   4.132   4.135   5.498  0.4241  1.4883  1.7017
 2821SOL     OW20095   0.516   0.366   6.144 -0.5725 -0.0464  0.1148
 2821SOL    HW120096   0.606   0.385   6.171 -0.4116  0.0837 -0.5203
 2821SOL    HW220097   0.475   0.354   6.230 -2.7519  0.2468 -0.9062
 2822SOL     OW20098   0.666   0.919   8.024 -0.6423  0.4454 -0.0041
 2822SOL    HW120099   0.688   0.975   8.098 -1.9374 -0.1817  0.8513
 2822SOL    HW220100   0.748   0.868   8.024 -1.1198 -0.3271  1.9327
 2823SOL     OW20101   3.423   3.346  17.356 -0.1817  0.0739  0.4045
 2823SOL    HW120102   3.515   3.323  17.343 -0.1816  1.0896 -1.4175
 2823SOL    HW220103   3.397   3.315  17.269  1.2268 -0.4932  0.1778
 2824SOL     OW20104   0.224   0.763   3.564 -0.4097 -0.0367  0.4246
 2824SOL    HW120105   0.293   0.701   3.542  0.8708  1.9385 -1.1472
 2824SOL    HW220106   0.229   0.830   3.496  0.8386  0.1143  0.6643
 2825SOL     OW20107   2.314   3.891   6.632  0.3175 -0.1137 -0.2022
 2825SOL    HW120108   2.382   3.850   6.687  1.3651  2.3189  0.3220
 2825SOL    HW220109   2.234   3.864   6.678 -0.2800 -0.5517 -1.5063
 2826SOL     OW20110   2.113   1.137   3.804 -0.1359 -0.4832  0.2529
 2826SOL    HW120111   2.067   1.199   3.748  1.6509  2.8409  2.4090
 2826SOL    HW220112   2.186   1.114   3.747 -2.8003  0.0376 -3.3614
 2827SOL     OW20113   3.467   2.265   9.372  0.0963  0.4354  0.2175
 2827SOL    HW120114   3.429   2.351   9.391 -0.7028  0.4481 -1.4232
 2827SOL    HW220115   3.411   2.234   9.301  2.4515 -2.5981 -0.3173
 2828SOL     OW20116   2.981   3.162   1.640 -0.0966 -0.0333 -0.2776
 2828SOL    HW120117   3.064   3.115   1.637 -0.3653 -0.5058 -0.3638
 2828SOL    HW220118   2.928   3.094   1.682  2.0726 -2.1413 -1.0035
 2829SOL     OW20119   3.886   3.891  17.399 -0.3273 -0.6401 -0.6243
 2829SOL    HW120120   3.856   3.888  17.490 -0.1088 -3.0748 -0.6220
 2829SOL    HW220121   3.811   3.854  17.351 -1.2245  2.0447 -1.2806
 2830SOL     OW20122   0.418   1.030   3.988 -0.4316 -0.3090  0.3191
 2830SOL    HW120123   0.370   0.961   4.034 -1.8255  0.9437  0.7287
 2830SOL    HW220124   0.465   1.070   4.061 -1.0713  0.4347  0.3138
 2831SOL     OW20125   0.386   4.669  14.743 -0.1752  0.1081 -0.2319
 2831SOL    HW120126   0.475   4.702  14.758  0.1042 -0.1183 -1.3990
 2831SOL    HW220127   0.381   4.607  14.816 -1.5892 -0.3138 -0.6862
 2832SOL     OW20128   3.304   2.140   8.825  0.1487 -0.0733  0.2137
 2832SOL    HW120129   3.321   2.211   8.888  1.3499  2.0404 -2.4815
 2832SOL    HW220130   3.326   2.186   8.744 -1.0178  1.6795  0.8895
 2833SOL     OW20131   4.644   2.802   2.780  0.0546  0.7072  0.3265
 2833SOL    HW120132   4.557   2.781   2.745 -0.3351  1.9534  0.5577
 2833SOL    HW220133   4.680   2.845   2.703 -0.2635  0.3846  0.0002
 2834SOL     OW20134   1.975   4.558   8.002 -0.7521  0.7846 -0.2593
 2834SOL    HW120135   1.943   4.504   8.074 -2.6666  1.6010 -0.4690
 2834SOL    HW220136   1.954   4.504   7.926 -0.4908  1.7485 -1.0166
 2835SOL     OW20137   2.744   0.198   7.348  0.0748 -0.0050  0.3382
 2835SOL    HW120138   2.670   0.249   7.381  1.2533  0.6381  1.9565
 2835SOL    HW220139   2.703   0.112   7.338  0.4167  0.1496 -2.2686
 2836SOL     OW20140   4.149   3.626  13.261 -0.3741 -0.1957 -0.5284
 2836SOL    HW120141   4.146   3.618  13.166 -0.5209 -3.6715 -0.2616
 2836SOL    HW220142   4.203   3.550  13.286  1.1515  0.6328 -1.2851
 2837SOL     OW20143   4.111   3.643  12.330  0.0568  0.1467  0.0568
 2837SOL    HW120144   4.183   3.589  12.296 -1.5350 -1.6796 -0.4774
 2837SOL    HW220145   4.151   3.668  12.413 -0.6537  0.1105  0.4128
 2838SOL     OW20146   1.563   4.064   2.299  0.2691 -0.4380 -0.4971
 2838SOL    HW120147   1.627   4.129   2.327 -1.1935  0.5359  0.5495
 2838SOL    HW220148   1.603   4.043   2.214 -0.0668 -0.8413 -0.5523
 2839SOL     OW20149   4.074   4.355   3.183  0.5825 -0.3484 -0.1628
 2839SOL    HW120150   4.128   4.297   3.237 -0.2401  0.6174  1.6785
 2839SOL    HW220151   4.039   4.303   3.111  1.3004  0.0153 -0.7788
 2840SOL     OW20152   0.432   2.040   4.802 -0.2737 -0.2787  0.1410
 2840SOL    HW120153   0.471   1.965   4.756 -0.6002  0.3783 -1.2161
 2840SOL    HW220154   0.407   2.095   4.727 -1.5357 -1.7995 -0.5556
 2841SOL     OW20155   2.577   2.439   3.597 -0.0277  0.3250 -0.2663
 2841SOL    HW120156   2.668   2.409   3.598  0.4550  1.9001  3.0782
 2841SOL    HW220157   2.575   2.460   3.691 -1.2878  0.8162 -0.4117
 2842SOL     OW20158   4.231   4.170   3.313 -0.6505  0.1128 -0.2975
 2842SOL    HW120159   4.176   4.092   3.320 -0.2789 -0.1401 -0.1563
 2842SOL    HW220160   4.246   4.192   3.405 -1.8464  1.0218 -0.3331
 2843SOL     OW20161   3.027   3.191  10.994  0.2169 -0.7281 -0.6191
 2843SOL    HW120162   2.948   3.232  10.960  1.2293  0.8700 -1.0320
 2843SOL    HW220163   3.032   3.124  10.926 -1.0649 -1.7883  0.3193
 2844SOL     OW20164   4.089   4.274   9.732  0.5490  0.2902  0.0594
 2844SOL    HW120165   4.184   4.262   9.739  0.2526 -0.7949  2.2606
 2844SOL    HW220166   4.081   4.350   9.789  1.1765  0.0534  0.4638
 2845SOL     OW20167   4.351   1.058   7.215  0.4929 -0.0807  0.0724
 2845SOL    HW120168   4.381   1.141   7.252 -2.0511  0.3726  1.1329
 2845SOL    HW220169   4.257   1.062   7.234  0.5143  0.0182  0.1615
 2846SOL     OW20170   4.516   3.143   4.979  0.2549 -0.1318 -0.1379
 2846SOL    HW120171   4.606   3.129   5.008  0.6734  0.6415 -1.0579
 2846SOL    HW220172   4.484   3.211   5.038 -0.4949 -0.5199 -0.1074
 2847SOL     OW20173   2.142   2.919   2.601  0.2304 -0.0793  0.4963
 2847SOL    HW120174   2.120   2.907   2.509  0.0262  0.4312  0.4812
 2847SOL    HW220175   2.056   2.894   2.637 -1.5905  3.0128 -1.7397
 2848SOL     OW20176   3.808   1.296   9.152 -0.2288  0.2360 -0.3181
 2848SOL    HW120177   3.811   1.246   9.234  0.1280  0.3341 -0.2682
 2848SOL    HW220178   3.823   1.383   9.189 -0.6379 -0.8975  2.5168
 2849SOL     OW20179   1.297   1.592   8.060  0.3188  0.1590  0.3069
 2849SOL    HW120180   1.289   1.687   8.069  0.1106  0.2585 -0.9573
 2849SOL    HW220181   1.214   1.563   8.022  1.6223  0.8584 -3.0238
 2850SOL     OW20182   4.360   3.097  11.883 -0.1308 -0.8771 -0.1141
 2850SOL    HW120183   4.380   3.006  11.906  1.5746  0.1540  2.5519
 2850SOL    HW220184   4.434   3.109  11.825 -0.7917  1.1100 -0.5178
 2851SOL     OW20185   0.567   2.274  14.398  0.8621 -0.5387  0.1375
 2851SOL    HW120186   0.508   2.339  14.436  2.0843 -0.3286  1.7173
 2851SOL    HW220187   0.554   2.202  14.460 -0.2243 -0.4213  0.0466
 2852SOL     OW20188   3.327   0.596   7.239  0.4553  0.0108  0.6424
 2852SOL    HW120189   3.279   0.537   7.180  0.5066  1.7096 -1.0849
 2852SOL    HW220190   3.304   0.561   7.325  0.3439 -0.3548  0.4655
 2853SOL     OW20191   1.809   1.544   7.827 -0.4432 -0.0561  0.0499
 2853SOL    HW120192   1.821   1.510   7.915  1.1030 -1.6220 -0.7563
 2853SOL    HW220193   1.875   1.613   7.825 -0.4607 -0.0397  0.0367
 2854SOL     OW20194   1.308   1.400   1.206  0.3071  0.4130  0.8960
 2854SOL    HW120195   1.339   1.468   1.267 -0.1049  1.8058 -0.4525
 2854SOL    HW220196   1.336   1.323   1.256  0.8399 -0.1224 -0.2262
 2855SOL     OW20197   1.618   1.559   2.769 -0.3097 -0.0131 -0.3752
 2855SOL    HW120198   1.531   1.555   2.808  0.6843 -0.7268  1.7944
 2855SOL    HW220199   1.592   1.595   2.684  0.4242  0.8336 -0.2476
 2856SOL     OW20200   0.961   4.561   8.319  0.1420  0.1823 -0.4575
 2856SOL    HW120201   0.961   4.624   8.392  0.3598  1.2503 -1.3740
 2856SOL    HW220202   1.000   4.487   8.365 -0.8974 -1.3274 -2.0057
 2857SOL     OW20203   1.762   1.956   1.137 -0.1339  0.0486 -0.3758
 2857SOL    HW120204   1.813   1.975   1.058  2.4915  0.3464  1.3577
 2857SOL    HW220205   1.771   1.861   1.144 -0.1725  0.3236  3.6388
 2858SOL     OW20206   3.463   0.442  16.017 -0.3820 -0.2386  0.3992
 2858SOL    HW120207   3.525   0.478  15.953  0.9476  0.6400  2.1910
 2858SOL    HW220208   3.479   0.349  16.000 -1.5911 -0.0211 -1.9289
 2859SOL     OW20209   2.463   2.309   4.596  0.4758 -0.4064 -0.6582
 2859SOL    HW120210   2.376   2.327   4.633  0.5112 -0.0893 -0.7265
 2859SOL    HW220211   2.490   2.236   4.652 -0.4629  0.7959  1.3631
 2860SOL     OW20212   3.165   1.169   8.255  0.6065 -0.0698 -0.1236
 2860SOL    HW120213   3.175   1.198   8.346 -1.0659 -0.1110  0.0753
 2860SOL    HW220214   3.099   1.230   8.223  0.6588  0.0479 -0.0037
 2861SOL     OW20215   4.423   2.119   0.304  0.2461  0.1283 -0.0674
 2861SOL    HW120216   4.429   2.083   0.215  1.3329  0.2793 -0.0547
 2861SOL    HW220217   4.441   2.212   0.292  0.5795 -0.1254 -1.5483
 2862SOL     OW20218   4.302   0.855   6.072  0.6801  0.5631 -0.0135
 2862SOL    HW120219   4.343   0.785   6.021 -3.1286 -0.1830 -2.0871
 2862SOL    HW220220   4.236   0.808   6.123  1.7060  0.4229  1.1992
 2863SOL     OW20221   1.513   3.761  11.696  0.3454 -0.5563  0.1847
 2863SOL    HW120222   1.577   3.693  11.675  2.3420  1.7407 -1.0425
 2863SOL    HW220223   1.531   3.763  11.790 -0.2077  0.9482  0.2585
 2864SOL     OW20224   0.460   0.563   4.423  0.5016 -0.2950 -0.2843
 2864SOL    HW120225   0.469   0.529   4.511 -0.4726 -0.7888 -0.3723
 2864SOL    HW220226   0.375   0.526   4.398  0.6328 -1.5850  1.2380
 2865SOL     OW20227   1.080   3.561   5.376  0.3885 -0.6589 -1.2182
 2865SOL    HW120228   1.038   3.642   5.348  2.2506  0.3517 -1.0415
 2865SOL    HW220229   1.128   3.535   5.297 -0.3026  1.3084 -2.2789
 2866SOL     OW20230   4.223   0.837   2.869  0.8503  0.1873  0.3585
 2866SOL    HW120231   4.277   0.862   2.944  1.3048 -0.9974  0.4259
 2866SOL    HW220232   4.170   0.772   2.915  0.8935 -0.4364 -0.4712
 2867SOL     OW20233   2.834   4.166  10.796 -0.2376 -0.2128 -0.3646
 2867SOL    HW120234   2.887   4.200  10.867  0.3734 -1.0458 -0.4313
 2867SOL    HW220235   2.774   4.107  10.842  0.0877 -0.1537  0.1332
 2868SOL     OW20236   2.576   2.196   2.915 -0.7786 -0.1423 -0.6918
 2868SOL    HW120237   2.506   2.131   2.918 -0.9471  0.0868  0.4128
 2868SOL    HW220238   2.622   2.163   2.992 -0.2768 -0.3185 -1.0643
 2869SOL     OW20239   1.508   3.028  10.655 -0.1500 -0.5527  0.6816
 2869SOL    HW120240   1.509   3.124  10.650  0.3682 -0.7101 -2.0319
 2869SOL    HW220241   1.593   3.017  10.612 -1.6079 -0.8881 -2.0339
 2870SOL     OW20242   2.381   1.055   4.393 -0.4785  0.3786 -0.3163
 2870SOL    HW120243   2.461   1.042   4.443 -0.1702  1.5838 -0.4801
 2870SOL    HW220244   2.342   0.969   4.404 -0.0616  0.7076  3.5035
 2871SOL     OW20245   1.084   3.648   5.064  0.1839 -0.2623 -0.1180
 2871SOL    HW120246   1.158   3.627   5.007 -2.8605 -1.3197 -3.6913
 2871SOL    HW220247   1.023   3.582   5.030 -0.1001 -0.3055  0.4825
 2872SOL     OW20248   2.060   1.260   2.391 -0.7365 -0.0264  0.4426
 2872SOL    HW120249   2.090   1.315   2.464  0.8204  1.4535 -1.3107
 2872SOL    HW220250   2.125   1.190   2.392 -0.6546  0.0881  2.8956
 2873SOL     OW20251   0.939   2.955   1.779 -0.0978 -0.0920  0.0599
 2873SOL    HW120252   0.879   2.925   1.848  0.6648 -0.6681  0.4666
 2873SOL    HW220253   0.984   2.873   1.759 -0.1259 -0.0676 -0.0995
 2874SOL     OW20254   0.103   1.482   0.419 -0.0908 -0.6195  0.8390
 2874SOL    HW120255   0.040   1.418   0.385 -0.7876  0.0767  0.8296
 2874SOL    HW220256   0.059   1.508   0.500  1.2435  0.4179  1.2292
 2875SOL     OW20257   3.459   4.633   7.813  0.5258 -0.0797  0.1351
 2875SOL    HW120258   3.526   4.637   7.882 -1.4299  0.4564  2.0241
 2875SOL    HW220259   3.518   4.645   7.739  1.1029  1.1797  0.7917
 2876SOL     OW20260   1.273   2.139   4.820  0.2500 -0.0117 -1.0196
 2876SOL    HW120261   1.271   2.099   4.907 -0.4074  0.7986 -0.6666
 2876SOL    HW220262   1.218   2.215   4.840  1.7724  0.7753  0.1922
 2877SOL     OW20263   1.562   3.043   9.227 -0.0580  0.1978  0.4256
 2877SOL    HW120264   1.505   3.030   9.303 -0.2360 -0.7749  0.1279
 2877SOL    HW220265   1.574   3.137   9.236  0.1648  0.0316  1.7908
 2878SOL     OW20266   3.878   2.505   3.897 -0.8758 -0.3989 -0.8820
 2878SOL    HW120267   3.892   2.553   3.979 -1.2733 -1.7832 -0.0015
 2878SOL    HW220268   3.933   2.533   3.824  0.8635 -1.6038 -0.0360
 2879SOL     OW20269   1.218   2.286   2.167  0.2487  0.5855  0.7324
 2879SOL    HW120270   1.306   2.323   2.171 -0.0818  1.5433 -0.8587
 2879SOL    HW220271   1.188   2.299   2.077 -0.9565  0.4915  1.1213
 2880SOL     OW20272   0.255   2.838   9.054  0.0712  0.4021 -0.6158
 2880SOL    HW120273   0.342   2.801   9.072  0.5684 -0.5561 -4.8978
 2880SOL    HW220274   0.256   2.908   9.119 -1.0760 -0.0541 -0.1238
 2881SOL     OW20275   0.103   2.653   6.630  0.5391 -0.7024  0.2680
 2881SOL    HW120276   0.042   2.672   6.559  2.3328  0.8060 -0.8399
 2881SOL    HW220277   0.074   2.712   6.700  2.2740 -0.7428  1.0270
 2882SOL     OW20278   4.173   3.745  16.747 -0.1534  0.9597 -0.1620
 2882SOL    HW120279   4.163   3.829  16.701 -2.2304  0.6794 -0.2093
 2882SOL    HW220280   4.264   3.727  16.725 -0.5005 -0.0797 -0.6891
 2883SOL     OW20281   3.064   0.498   3.324  0.4722 -0.1585 -0.4571
 2883SOL    HW120282   3.026   0.550   3.253  0.6332  0.1369 -0.3290
 2883SOL    HW220283   3.050   0.409   3.293  1.4548 -0.0917 -1.0952
 2884SOL     OW20284   1.256   3.356   2.181 -0.6135  0.1233 -0.2015
 2884SOL    HW120285   1.229   3.391   2.096 -0.1125  0.7898 -0.0833
 2884SOL    HW220286   1.325   3.415   2.212  1.0308 -2.1439  0.4615
 2885SOL     OW20287   1.567   1.182   3.539 -0.8183  0.3587  0.2063
 2885SOL    HW120288   1.522   1.232   3.607 -1.4081  1.1047 -0.7344
 2885SOL    HW220289   1.654   1.158   3.571 -0.6119  0.4547 -0.2853
 2886SOL     OW20290   4.162   0.401   7.832  0.0331  0.8909  0.2526
 2886SOL    HW120291   4.232   0.374   7.892  0.1140 -1.3315 -0.8245
 2886SOL    HW220292   4.117   0.318   7.816 -0.0089  1.7678 -4.1476
 2887SOL     OW20293   3.783   3.057   3.564 -0.4513  0.7327 -0.0478
 2887SOL    HW120294   3.790   3.112   3.487  2.9625  0.1155 -0.1477
 2887SOL    HW220295   3.696   3.091   3.588 -1.1673 -0.0093 -1.6371
 2888SOL     OW20296   3.325   3.353  10.688 -0.2777 -0.1607  0.8968
 2888SOL    HW120297   3.287   3.295  10.754  0.4403 -0.8149  0.7322
 2888SOL    HW220298   3.380   3.284  10.651  0.6632  1.0704 -0.0067
 2889SOL     OW20299   3.327   3.695   7.746 -0.2145  0.0558  0.1820
 2889SOL    HW120300   3.328   3.600   7.756 -0.2795  0.0930  0.5148
 2889SOL    HW220301   3.310   3.720   7.836 -1.0589  0.6684 -0.1449
 2890SOL     OW20302   4.667   1.031  15.826 -0.3385 -0.0820 -0.1974
 2890SOL    HW120303   4.647   1.096  15.759  1.1528  0.7901  0.2095
 2890SOL    HW220304   4.606   1.048  15.898 -1.1765  0.1666 -0.9695
 2891SOL     OW20305   3.240   4.382   4.387 -0.1035  0.2699  0.3951
 2891SOL    HW120306   3.299   4.450   4.420  0.6681  0.6511 -1.7701
 2891SOL    HW220307   3.242   4.323   4.463 -2.2536  0.6127  0.7173
 2892SOL     OW20308   1.842   3.819   3.777 -0.3074 -0.4668 -0.2145
 2892SOL    HW120309   1.855   3.735   3.821  2.2260  1.0361  1.9409
 2892SOL    HW220310   1.760   3.805   3.731  1.5014 -0.8997 -3.3253
 2893SOL     OW20311   4.587   1.321   2.563  0.3754 -0.4795 -0.6630
 2893SOL    HW120312   4.644   1.253   2.528 -0.1744 -1.3347  0.0958
 2893SOL    HW220313   4.645   1.353   2.633  0.8759 -0.4628 -1.0875
 2894SOL     OW20314   4.354   0.157  15.404  0.1429 -0.3187  0.6151
 2894SOL    HW120315   4.376   0.167  15.311 -0.7071 -1.9449  0.2530
 2894SOL    HW220316   4.335   0.251  15.413  1.9756  0.0086  1.2566
 2895SOL     OW20317   3.458   0.965   3.432  0.1794  0.1456  0.8610
 2895SOL    HW120318   3.412   1.048   3.444 -0.1092  0.1854 -0.4968
 2895SOL    HW220319   3.499   0.976   3.345 -1.2517  0.3244  0.2170
 2896SOL     OW20320   1.550   2.043   4.996 -0.1911  0.1848  0.2741
 2896SOL    HW120321   1.561   2.078   4.907  0.7791  2.6701  1.3692
 2896SOL    HW220322   1.592   1.957   4.998 -0.4245  0.0706  0.2193
 2897SOL     OW20323   2.897   3.010   9.099 -0.3386  0.4263  0.9341
 2897SOL    HW120324   2.823   3.040   9.047 -1.3339 -1.2007  1.4399
 2897SOL    HW220325   2.919   3.097   9.134 -2.3916  1.3942 -0.2194
 2898SOL     OW20326   0.224   4.175   5.930 -0.4329  0.3565  0.2209
 2898SOL    HW120327   0.200   4.197   6.020 -2.3113  1.5573 -0.5814
 2898SOL    HW220328   0.291   4.235   5.897 -0.3442  0.1053 -0.0538
 2899SOL     OW20329   3.069   3.532   3.316  0.5110 -0.1020  0.0263
 2899SOL    HW120330   3.150   3.581   3.329  2.2266 -2.9178 -0.1870
 2899SOL    HW220331   3.073   3.487   3.401 -0.4362 -0.2040  0.0124
 2900SOL     OW20332   0.856   3.443   3.158 -1.0256 -0.0419 -0.5295
 2900SOL    HW120333   0.880   3.493   3.235 -0.1872 -3.4410  1.4370
 2900SOL    HW220334   0.807   3.367   3.191  0.4265 -0.4946  0.5764
 2901SOL     OW20335   4.514   1.225   6.558  0.2686  0.2960 -0.3701
 2901SOL    HW120336   4.450   1.223   6.487  0.6585  0.6062 -0.7347
 2901SOL    HW220337   4.482   1.306   6.599 -1.7597 -0.5434 -0.3289
 2902SOL     OW20338   2.436   1.970  14.729 -0.0412 -0.2119 -0.3904
 2902SOL    HW120339   2.407   1.894  14.677 -0.2306  0.8123 -1.7818
 2902SOL    HW220340   2.396   2.039  14.676  0.6358  2.5518  2.7035
 2903SOL     OW20341   4.094   4.720   6.281 -0.2438 -0.0250 -0.2942
 2903SOL    HW120342   4.189   4.705   6.272 -0.3270 -1.4546  1.1620
 2903SOL    HW220343   4.092   0.074   6.304 -2.3041 -0.1674  0.0792
 2904SOL     OW20344   3.144   3.476  17.012  0.0469  0.7939  0.1029
 2904SOL    HW120345   3.067   3.433  17.048  1.1831  0.3530  1.9811
 2904SOL    HW220346   3.146   3.559  17.059  1.2570 -0.5272  2.3848
 2905SOL     OW20347   2.818   0.179  10.633 -0.0515  0.1554  0.2632
 2905SOL    HW120348   2.759   0.128  10.688 -1.7534  1.2890 -0.5362
 2905SOL    HW220349   2.835   0.252  10.693 -1.7024  1.0229 -0.3384
 2906SOL     OW20350   1.476   4.233  15.663 -0.5297  0.1681  0.1424
 2906SOL    HW120351   1.486   4.318  15.622  0.8474 -1.3701 -2.7163
 2906SOL    HW220352   1.390   4.238  15.704 -2.5049 -1.0054 -3.8246
 2907SOL     OW20353   4.262   0.914   5.668 -0.5786 -0.4589 -0.0163
 2907SOL    HW120354   4.357   0.923   5.663 -0.4221 -0.8558  1.9738
 2907SOL    HW220355   4.248   0.828   5.628  2.3315 -0.2183 -1.5084
 2908SOL     OW20356   4.524   0.215   1.855  0.9490 -0.3658  0.4887
 2908SOL    HW120357   4.596   0.160   1.886 -0.3666 -0.8020  2.7848
 2908SOL    HW220358   4.454   0.204   1.920  0.3530  0.5440  0.0009
 2909SOL     OW20359   4.514   0.542   7.268 -0.8573 -0.1141 -0.3925
 2909SOL    HW120360   4.496   0.636   7.263  1.7204  0.4159  0.3620
 2909SOL    HW220361   4.504   0.523   7.362  0.2483  1.9770  0.1564
 2910SOL     OW20362   4.549   0.189  12.922 -0.0696 -0.1066 -0.0300
 2910SOL    HW120363   4.454   0.183  12.934 -0.4178  2.6440 -1.3905
 2910SOL    HW220364   4.541   0.250  12.849 -2.7404 -0.0861  0.2803
 2911SOL     OW20365   2.909   0.996   6.908  0.5355  0.5584 -0.3629
 2911SOL    HW120366   2.852   1.064   6.873 -1.7851 -1.2116  0.0145
 2911SOL    HW220367   2.836   0.943   6.938  2.2042 -1.9819 -0.8260
 2912SOL     OW20368   0.559   0.706  14.565  0.4365  0.2063  0.2110
 2912SOL    HW120369   0.586   0.774  14.504  2.1167 -0.8241 -0.2087
 2912SOL    HW220370   0.468   0.692  14.540  0.8243 -2.2617  0.1239
 2913SOL     OW20371   2.896   1.471  10.471  0.6876 -0.3210  0.1645
 2913SOL    HW120372   2.953   1.435  10.404  0.6131 -0.5855  0.2459
 2913SOL    HW220373   2.878   1.388  10.516  2.9355 -1.9609 -2.0400
 2914SOL     OW20374   3.127   2.492   8.759 -0.2867  0.2691  0.0729
 2914SOL    HW120375   3.183   2.570   8.761  0.8020 -0.4716 -1.0275
 2914SOL    HW220376   3.121   2.473   8.852 -0.4208 -0.5587 -0.1071
 2915SOL     OW20377   0.235   1.041  17.401 -0.2534 -0.7791 -0.1706
 2915SOL    HW120378   0.256   1.091  17.480  0.0986 -0.8721 -0.2055
 2915SOL    HW220379   0.185   1.110  17.357  0.8943  0.0908 -0.1017
 2916SOL     OW20380   1.393   1.612   7.743  0.0548 -0.0070 -0.3375
 2916SOL    HW120381   1.305   1.635   7.710 -0.7072  0.6849  2.1952
 2916SOL    HW220382   1.382   1.562   7.823  1.1241  1.9410  1.0241
 2917SOL     OW20383   2.415   2.208   3.334  0.4529 -0.9846  0.4113
 2917SOL    HW120384   2.366   2.260   3.270  1.4924 -0.8176 -0.2374
 2917SOL    HW220385   2.503   2.240   3.314  0.0540 -1.2241 -1.7107
 2918SOL     OW20386   4.255   3.660  14.861 -0.1727 -0.0933 -0.0421
 2918SOL    HW120387   4.229   3.729  14.922  0.5029 -0.0968  0.2374
 2918SOL    HW220388   4.243   3.694  14.772  0.2193 -0.3745 -0.1986
 2919SOL     OW20389   1.965   0.182  14.551 -0.1516  0.5816  0.3390
 2919SOL    HW120390   1.946   0.103  14.600 -0.9455  0.6254  0.1168
 2919SOL    HW220391   1.980   0.156  14.460  0.6106  1.8652  0.0903
 2920SOL     OW20392   1.759   3.049   6.484  0.3993 -0.0927 -0.6273
 2920SOL    HW120393   1.701   3.062   6.409 -1.1212 -1.0342  0.3828
 2920SOL    HW220394   1.732   3.119   6.544 -5.3753 -1.0738 -2.1393
 2921SOL     OW20395   3.414   1.214   9.552  0.2002  0.2293 -0.0050
 2921SOL    HW120396   3.473   1.207   9.477 -0.7030 -0.0001 -0.6987
 2921SOL    HW220397   3.407   1.308   9.569 -0.3619  0.4517 -1.4148
 2922SOL     OW20398   0.167   2.996   3.988 -0.7570 -0.5562 -0.3599
 2922SOL    HW120399   0.074   2.973   3.996 -0.9435 -0.6673 -2.6469
 2922SOL    HW220400   0.217   2.924   4.025 -0.5595 -0.7868 -1.0640
 2923SOL     OW20401   3.455   2.359   7.837 -0.5886  0.3311  0.2654
 2923SOL    HW120402   3.437   2.403   7.754 -1.7775  0.6276  0.6877
 2923SOL    HW220403   3.472   2.274   7.797  2.2680  0.2951  1.5003
 2924SOL     OW20404   4.168   1.035   9.703 -0.2897 -0.3083  0.2589
 2924SOL    HW120405   4.145   1.120   9.666 -2.0461 -0.7270  0.3772
 2924SOL    HW220406   4.247   1.017   9.654 -1.3129 -2.2772 -0.6423
 2925SOL     OW20407   1.430   4.674  17.115 -0.3791 -0.1216  0.0533
 2925SOL    HW120408   1.467   4.684  17.027  0.2546  1.3386  0.4794
 2925SOL    HW220409   1.344   4.715  17.114 -0.0586  0.5709  0.8297
 2926SOL     OW20410   0.131   0.471  11.970  0.5262  0.0006 -0.2304
 2926SOL    HW120411   0.064   0.499  11.908  2.5567  0.7895 -2.0822
 2926SOL    HW220412   0.129   0.544  12.032  0.2672 -1.5261  1.5633
 2927SOL     OW20413   0.343   3.690   5.008  0.7515 -0.2690 -0.2999
 2927SOL    HW120414   0.412   3.655   4.952  1.3792  1.9244 -0.9011
 2927SOL    HW220415   0.353   3.783   4.987  1.5866 -0.0847  0.8813
 2928SOL     OW20416   1.185   2.595   8.013  0.0471  0.1755 -0.0625
 2928SOL    HW120417   1.095   2.629   8.009 -0.3186 -0.8210 -0.3381
 2928SOL    HW220418   1.217   2.610   7.924 -0.2664 -0.0312 -0.2105
 2929SOL     OW20419   0.420   4.425   8.556  0.2438  0.0852  0.6779
 2929SOL    HW120420   0.489   4.379   8.604  1.2790  1.8270  0.8633
 2929SOL    HW220421   0.452   4.509   8.523  1.8208 -0.1948  1.5152
 2930SOL     OW20422   3.267   1.284   7.757  0.5922 -0.0791  0.4746
 2930SOL    HW120423   3.245   1.349   7.824  0.2217  0.2050  0.0748
 2930SOL    HW220424   3.217   1.211   7.794  2.0783 -0.8698  0.9265
 2931SOL     OW20425   3.146   4.153   5.782 -0.0813 -0.6890  0.0607
 2931SOL    HW120426   3.130   4.225   5.843 -3.0359 -2.1889  1.0527
 2931SOL    HW220427   3.219   4.110   5.826  0.1228 -0.4374 -0.0280
 2932SOL     OW20428   2.289   4.123   2.726  0.2624 -0.0790  0.4873
 2932SOL    HW120429   2.292   4.192   2.660 -2.3355 -0.9702 -0.5792
 2932SOL    HW220430   2.201   4.132   2.763  1.2212 -1.3393  3.0646
 2933SOL     OW20431   4.463   0.801   8.931 -0.2353  0.3100 -0.3244
 2933SOL    HW120432   4.381   0.805   8.883  0.2310 -4.3176 -1.5525
 2933SOL    HW220433   4.434   0.820   9.020 -2.0818  1.6743 -1.2168
 2934SOL     OW20434   4.303   4.549   2.115 -0.1604 -0.0577  0.0995
 2934SOL    HW120435   4.323   4.641   2.096 -0.0144 -0.3470 -1.1211
 2934SOL    HW220436   4.207   4.557   2.118  0.0074  1.5028  1.9624
 2935SOL     OW20437   4.071   0.269   8.565  0.4347 -0.5393 -0.1220
 2935SOL    HW120438   4.116   0.189   8.541  0.7844 -0.3457 -0.1043
 2935SOL    HW220439   4.136   0.339   8.558  0.7371 -0.7085  0.9613
 2936SOL     OW20440   0.805   4.326   6.504 -0.2513 -0.9120 -0.4063
 2936SOL    HW120441   0.782   4.371   6.586  0.0277  1.2021 -1.5055
 2936SOL    HW220442   0.869   4.386   6.467 -1.3936  0.2331 -0.5128
 2937SOL     OW20443   1.163   3.825   1.610  0.2207 -0.3989  0.1843
 2937SOL    HW120444   1.173   3.919   1.597  0.1060 -0.1715  1.8021
 2937SOL    HW220445   1.132   3.825   1.701  1.7018  1.2778  0.6731
 2938SOL     OW20446   2.218   2.560   7.120 -0.5534 -0.0007  0.2101
 2938SOL    HW120447   2.281   2.504   7.164  0.4934 -1.2880 -2.9118
 2938SOL    HW220448   2.245   2.558   7.028  0.8374 -0.7572  0.6379
 2939SOL     OW20449   3.562   2.438   9.651 -0.4842 -0.5676 -1.0685
 2939SOL    HW120450   3.503   2.513   9.653 -0.4704 -0.6063  1.0376
 2939SOL    HW220451   3.638   2.464   9.599  0.2773  0.9611  0.8264
 2940SOL     OW20452   1.506   3.503   7.660 -0.4907  0.1997 -0.4046
 2940SOL    HW120453   1.592   3.471   7.633 -0.2043  0.5444  0.1040
 2940SOL    HW220454   1.496   3.568   7.590 -2.2519  0.2007 -0.1665
 2941SOL     OW20455   2.874   0.120   5.934  0.2696  0.2402  0.2535
 2941SOL    HW120456   2.861   0.109   6.028 -1.4668 -0.4303 -0.0632
 2941SOL    HW220457   2.848   0.211   5.925  1.3325  0.5384  0.2169
 2942SOL     OW20458   1.722   0.253  11.604 -0.1187 -0.5068  0.2124
 2942SOL    HW120459   1.811   0.228  11.583  0.0947 -1.0464  1.7983
 2942SOL    HW220460   1.747   0.339  11.637  0.1647 -1.1484  1.6386
 2943SOL     OW20461   1.467   4.283   4.400 -0.1779  0.3056  0.0842
 2943SOL    HW120462   1.475   4.364   4.349  0.6261  0.9120  1.1714
 2943SOL    HW220463   1.375   4.286   4.426 -0.3802 -0.5166 -0.5604
 2944SOL     OW20464   0.910   1.709   4.503 -0.5062  0.0715 -0.1207
 2944SOL    HW120465   0.920   1.676   4.592  0.3358  0.3947 -0.0944
 2944SOL    HW220466   0.886   1.802   4.510  1.2164  0.4840  0.3402
 2945SOL     OW20467   4.700   3.246   4.138  0.3375  0.1690  0.0734
 2945SOL    HW120468   0.036   3.240   4.197 -0.7257 -1.7275  1.2439
 2945SOL    HW220469   4.638   3.299   4.187  0.6956 -0.8371  1.6404
 2946SOL     OW20470   4.207   1.419   5.940 -0.1127 -0.1441 -0.4505
 2946SOL    HW120471   4.221   1.471   5.861 -1.8052 -0.5222 -0.9832
 2946SOL    HW220472   4.295   1.384   5.927  0.4155  0.5905  1.1202
 2947SOL     OW20473   4.242   2.726   2.372 -0.5662  0.3167  0.1675
 2947SOL    HW120474   4.166   2.692   2.326 -0.4523 -0.2176  0.3759
 2947SOL    HW220475   4.277   2.787   2.307 -0.8287 -1.4927 -1.6718
 2948SOL     OW20476   0.408   3.005   6.069  0.2392  0.0256 -0.1539
 2948SOL    HW120477   0.419   2.969   6.157 -0.4473  1.2096  0.4138
 2948SOL    HW220478   0.416   2.922   6.022  1.8467  0.2494 -0.2807
 2949SOL     OW20479   4.341   3.590   7.028  0.1515  0.4881 -0.1822
 2949SOL    HW120480   4.253   3.616   6.998 -0.1359 -0.5702 -0.2791
 2949SOL    HW220481   4.320   3.497   7.029 -0.3662  0.5908 -1.0778
 2950SOL     OW20482   0.492   1.287   3.729 -0.1173  0.3212  0.0147
 2950SOL    HW120483   0.568   1.230   3.726 -1.3715 -1.2994 -0.6631
 2950SOL    HW220484   0.425   1.222   3.708 -0.4742  1.6107 -2.9150
 2951SOL     OW20485   4.447   2.796   6.379 -0.3602 -0.5314 -0.4587
 2951SOL    HW120486   4.499   2.754   6.447 -2.3657  0.7419  1.8353
 2951SOL    HW220487   4.414   2.720   6.332 -2.7424 -1.4403  2.6865
 2952SOL     OW20488   0.422   1.793   2.703  0.3352  1.0757 -0.1113
 2952SOL    HW120489   0.461   1.798   2.791 -0.6149 -0.6798  0.4140
 2952SOL    HW220490   0.494   1.772   2.645 -1.9007 -1.2499 -2.0153
 2953SOL     OW20491   0.503   4.174   7.891  0.1326  0.0022 -0.2873
 2953SOL    HW120492   0.584   4.225   7.888 -0.5944  1.1390 -0.9595
 2953SOL    HW220493   0.509   4.137   7.803 -2.2047  0.6686 -0.7296
 2954SOL     OW20494   2.294   0.998   5.148 -0.2872  0.8032 -0.6627
 2954SOL    HW120495   2.270   0.933   5.083 -0.8138 -1.8637  2.2229
 2954SOL    HW220496   2.263   1.076   5.102  0.1185  0.4035 -1.5998
 2955SOL     OW20497   4.263   3.824   3.054  0.1734 -0.3217  0.1569
 2955SOL    HW120498   4.288   3.917   3.052 -1.8364  0.2903  3.1875
 2955SOL    HW220499   4.185   3.837   2.999 -0.4314  0.1519  1.1165
 2956SOL     OW20500   1.167   0.588   3.438 -0.6852  0.0115  0.6510
 2956SOL    HW120501   1.126   0.650   3.498  0.4681  3.5304 -2.1858
 2956SOL    HW220502   1.091   0.568   3.382  0.5762 -0.2818 -0.9673
 2957SOL     OW20503   4.694   3.239   3.417 -0.0000  0.0607 -0.4734
 2957SOL    HW120504   4.605   3.230   3.449  0.8665  0.4622  2.0637
 2957SOL    HW220505   4.685   3.329   3.384  2.4891  0.0937 -1.0994
 2958SOL     OW20506   1.669   3.627  16.687  0.6584 -0.4317 -0.4199
 2958SOL    HW120507   1.636   3.577  16.613  1.5061 -0.7781 -0.5575
 2958SOL    HW220508   1.761   3.601  16.686  0.3006 -1.6106 -1.5823
 2959SOL     OW20509   4.230   2.687   3.522  0.0932 -0.2642 -0.2002
 2959SOL    HW120510   4.326   2.687   3.530  0.4457  3.8058 -4.7911
 2959SOL    HW220511   4.223   2.766   3.469 -0.1238 -0.4133 -0.3898
 2960SOL     OW20512   2.859   1.201   1.299  0.4293  0.2842  0.0820
 2960SOL    HW120513   2.953   1.213   1.283  0.5781 -1.6392 -0.5986
 2960SOL    HW220514   2.849   1.132   1.233  0.7245 -1.5097  1.9224
 2961SOL     OW20515   3.952   2.217  15.297  0.2830  0.2432  0.4103
 2961SOL    HW120516   3.956   2.123  15.317 -0.7723  0.1331  0.1037
 2961SOL    HW220517   3.907   2.222  15.213  1.1356  0.5337 -0.0366
 2962SOL     OW20518   1.953   3.627  11.523 -0.0142  0.1146  0.0285
 2962SOL    HW120519   1.871   3.594  11.486 -0.5573  2.8906 -1.2532
 2962SOL    HW220520   2.018   3.608  11.455 -0.1135 -0.6252  0.1387
 2963SOL     OW20521   1.182   3.547   6.379 -0.1146  0.1227  0.0100
 2963SOL    HW120522   1.154   3.597   6.455  0.5641  1.7905 -0.8548
 2963SOL    HW220523   1.261   3.594   6.354 -1.0312  1.8320  0.3540
 2964SOL     OW20524   1.415   3.947   8.847 -0.6997  0.3576  0.0347
 2964SOL    HW120525   1.338   3.987   8.887  0.0114  1.1327  0.6376
 2964SOL    HW220526   1.384   3.882   8.785  0.9717  0.7285 -1.1704
 2965SOL     OW20527   1.101   3.417   9.141  0.3945 -0.5817  0.1174
 2965SOL    HW120528   1.150   3.445   9.218  0.5180 -0.3194 -0.0560
 2965SOL    HW220529   1.012   3.413   9.176  0.9403  0.3452  1.6229
 2966SOL     OW20530   2.088   3.711   4.994 -0.0289 -1.0800 -0.4080
 2966SOL    HW120531   2.081   3.796   5.038  1.2382 -0.4282 -1.4575
 2966SOL    HW220532   2.183   3.705   4.985  0.0903  1.0307 -0.4848
 2967SOL     OW20533   3.635   1.551   3.725 -0.1169 -0.4308  0.1900
 2967SOL    HW120534   3.649   1.646   3.723 -0.9548 -0.2638  2.2334
 2967SOL    HW220535   3.614   1.531   3.817 -4.2106 -0.4517 -0.7739
 2968SOL     OW20536   1.294   0.310   5.340  0.2862 -0.5912 -0.4466
 2968SOL    HW120537   1.368   0.340   5.392 -0.0642  0.7169 -0.6873
 2968SOL    HW220538   1.286   0.222   5.376  1.9600  0.7960  3.2717
 2969SOL     OW20539   1.203   0.721   6.944  0.0792 -0.3166 -0.6790
 2969SOL    HW120540   1.226   0.764   6.862  1.5908  1.2036  0.5329
 2969SOL    HW220541   1.143   0.651   6.921 -0.4541  0.7192 -2.4730
 2970SOL     OW20542   3.544   3.742   1.348 -0.1861 -0.2065 -0.2370
 2970SOL    HW120543   3.599   3.757   1.424 -0.0260  1.1515 -0.6136
 2970SOL    HW220544   3.579   3.819   1.302 -1.4592  1.1593  1.0415
 2971SOL     OW20545   3.694   0.428   1.337  0.2534  0.3526 -0.2927
 2971SOL    HW120546   3.737   0.513   1.351  1.3068 -0.1277 -0.6158
 2971SOL    HW220547   3.742   0.376   1.402  0.5964  1.4981  0.3794
 2972SOL     OW20548   0.123   0.834   7.847 -0.5970 -0.2578 -0.4271
 2972SOL    HW120549   0.095   0.909   7.899 -1.9446 -1.2094  0.2262
 2972SOL    HW220550   0.163   0.877   7.771  1.2112 -2.1680 -0.5570
 2973SOL     OW20551   2.837   3.556  14.489 -0.6603  0.2280 -0.3391
 2973SOL    HW120552   2.913   3.598  14.530 -1.1836  1.9966 -1.1405
 2973SOL    HW220553   2.808   3.615  14.419  0.0826 -0.1873 -0.9983
 2974SOL     OW20554   2.979   3.770   9.404  0.1604 -0.4713  0.0972
 2974SOL    HW120555   2.933   3.695   9.364 -1.1295  0.8129 -0.8443
 2974SOL    HW220556   2.928   3.786   9.483 -0.9247 -0.7322 -0.5376
 2975SOL     OW20557   1.800   0.572   9.903  0.2573  0.6561 -0.1222
 2975SOL    HW120558   1.850   0.503   9.860 -2.0548 -1.7515  1.0896
 2975SOL    HW220559   1.717   0.530   9.925  0.7945 -0.8783 -1.0170
 2976SOL     OW20560   1.222   4.737  12.852 -0.0212 -0.3308  0.1382
 2976SOL    HW120561   1.193   4.665  12.795  1.7082  0.3144 -1.5477
 2976SOL    HW220562   1.304   0.031  12.814  0.2176  0.5094  1.3847
 2977SOL     OW20563   3.026   2.244  16.068  0.5117 -0.1229  0.5993
 2977SOL    HW120564   2.951   2.186  16.076  0.2131  0.3658  1.3161
 2977SOL    HW220565   2.993   2.331  16.091 -2.5289 -0.7102 -1.5972
 2978SOL     OW20566   2.399   2.812   4.681 -0.1688  0.5180  0.1478
 2978SOL    HW120567   2.335   2.877   4.710  1.9640  2.4226  0.5217
 2978SOL    HW220568   2.338   2.746   4.647 -0.7650  0.3078  1.6022
 2979SOL     OW20569   2.724   3.425  14.161 -0.0381 -0.0852 -0.1691
 2979SOL    HW120570   2.734   3.501  14.218 -3.0114  0.2031 -0.0465
 2979SOL    HW220571   2.630   3.426  14.143  0.0257  1.0452 -0.4164
 2980SOL     OW20572   2.682   0.200  17.121  0.0619  0.2219 -0.7549
 2980SOL    HW120573   2.665   0.231  17.032 -1.6889  0.4306 -0.3579
 2980SOL    HW220574   2.746   0.265  17.148  1.2998 -0.4161 -2.1162
 2981SOL     OW20575   1.782   3.053   8.714 -0.8290 -0.3234 -0.1308
 2981SOL    HW120576   1.773   3.043   8.619  2.0340 -1.4679 -0.2530
 2981SOL    HW220577   1.862   3.003   8.730 -2.0227 -1.9690  0.6842
 2982SOL     OW20578   0.298   3.469   4.521  0.2389 -0.0502  0.5149
 2982SOL    HW120579   0.282   3.488   4.429  0.3225  0.5458  0.6268
 2982SOL    HW220580   0.368   3.529   4.547  0.1010  0.3142  0.0406
 2983SOL     OW20581   4.391   1.842  14.735 -0.3561  0.2125 -0.0197
 2983SOL    HW120582   4.310   1.891  14.724 -0.8772 -0.9888 -1.4462
 2983SOL    HW220583   4.413   1.802  14.651  2.7959  0.2461  0.7866
 2984SOL     OW20584   4.385   4.207  12.524  0.2068  0.2962  0.5391
 2984SOL    HW120585   4.416   4.238  12.609  2.2184  1.1774 -0.5376
 2984SOL    HW220586   4.346   4.281  12.478  1.1722  0.5489  0.1376
 2985SOL     OW20587   0.701   3.305   6.403  0.1717 -0.8799 -0.4600
 2985SOL    HW120588   0.687   3.225   6.351 -0.6381  0.6786 -2.6608
 2985SOL    HW220589   0.796   3.312   6.409  0.1358 -0.2580 -0.6253
 2986SOL     OW20590   1.072   1.471  17.140 -0.5384 -0.1177 -0.7501
 2986SOL    HW120591   1.012   1.429  17.078  1.4462 -2.1465 -1.2861
 2986SOL    HW220592   1.134   1.399  17.144  0.1006  0.4915  0.2735
 2987SOL     OW20593   0.246   2.791   9.490 -0.2903  0.3609  0.1296
 2987SOL    HW120594   0.155   2.769   9.507 -0.0762  0.1010  0.9394
 2987SOL    HW220595   0.269   2.704   9.455 -1.5212  0.6475 -1.3805
 2988SOL     OW20596   2.841   0.031   0.811 -0.2690  0.4114 -0.0744
 2988SOL    HW120597   2.934   0.010   0.800 -0.4904 -0.5248 -0.2102
 2988SOL    HW220598   2.818   4.699   0.872  2.1331  1.6281  2.2748
 2989SOL     OW20599   4.170   2.467  10.059 -0.2377  0.3285 -0.5635
 2989SOL    HW120600   4.094   2.523  10.043 -0.1672  0.4951 -0.3137
 2989SOL    HW220601   4.136   2.390  10.013  0.4879  0.3048 -1.0630
 2990SOL     OW20602   2.983   0.110   8.663  0.0971  0.0367 -0.3833
 2990SOL    HW120603   2.999   0.164   8.585  2.8481 -0.4247 -0.1554
 2990SOL    HW220604   3.032   0.160   8.729 -0.3826 -0.6676  0.5126
 2991SOL     OW20605   1.439   1.489   0.465  0.0228  0.3165  0.1836
 2991SOL    HW120606   1.362   1.540   0.439  0.2500  1.1342  1.1409
 2991SOL    HW220607   1.411   1.402   0.437  1.0327  0.1475 -0.2837
 2992SOL     OW20608   3.815   4.738   6.692  0.0675  0.5933 -0.6962
 2992SOL    HW120609   3.911   4.739   6.691  0.0699  0.9183  1.5891
 2992SOL    HW220610   3.797   0.082   6.648 -0.1410 -0.2407 -2.2044
 2993SOL     OW20611   1.172   0.575   4.550  0.7320  0.2838  0.5247
 2993SOL    HW120612   1.092   0.542   4.591 -1.2294  1.6553 -2.1569
 2993SOL    HW220613   1.169   0.664   4.586 -1.6312  2.5146 -5.1325
 2994SOL     OW20614   2.494   2.523   0.103  0.1289 -0.2321 -0.0209
 2994SOL    HW120615   2.457   2.578   0.035 -0.9771  0.6906  1.3318
 2994SOL    HW220616   2.575   2.486   0.067 -0.8282  0.7522 -3.0769
 2995SOL     OW20617   1.644   1.102   9.106  0.3550 -0.3138  0.1327
 2995SOL    HW120618   1.730   1.089   9.066 -0.2096  1.7922 -1.7769
 2995SOL    HW220619   1.592   1.083   9.028  0.3279 -1.3783  0.4040
 2996SOL     OW20620   3.820   3.721   1.853 -0.4515  0.1926 -0.0494
 2996SOL    HW120621   3.859   3.723   1.940 -0.8562  0.3011  0.1248
 2996SOL    HW220622   3.762   3.796   1.847 -0.2506  0.5329  2.3072
 2997SOL     OW20623   3.577   2.505  10.974  0.3563  0.5673  0.5063
 2997SOL    HW120624   3.622   2.422  10.989  0.5224  0.3291 -1.3882
 2997SOL    HW220625   3.528   2.486  10.894  1.0093  2.6882 -0.3910
 2998SOL     OW20626   3.156   1.422   7.098  0.5758  0.9438 -0.7808
 2998SOL    HW120627   3.146   1.429   7.003  0.5464 -1.1451 -0.9161
 2998SOL    HW220628   3.251   1.429   7.110  0.6083 -0.6783 -0.1025
 2999SOL     OW20629   4.184   1.285   1.108  0.7506 -0.2234 -0.6600
 2999SOL    HW120630   4.117   1.282   1.176  1.8853 -0.3012  0.4540
 2999SOL    HW220631   4.263   1.306   1.158  0.8632  2.7381 -2.1134
 3000SOL     OW20632   3.379   4.494  12.727 -0.0986 -0.1932 -0.1015
 3000SOL    HW120633   3.384   4.527  12.637 -0.6634 -1.6612 -0.6704
 3000SOL    HW220634   3.470   4.476  12.754  0.0817 -1.9792 -1.8940
 3001SOL     OW20635   1.961   2.796   1.059 -0.0401  0.2588  0.1510
 3001SOL    HW120636   1.961   2.781   0.965  0.4264 -2.8233  0.6327
 3001SOL    HW220637   1.923   2.715   1.094 -0.2640  1.6131  3.0399
 3002SOL     OW20638   2.635   2.084   7.440  0.1242 -0.0887  0.2461
 3002SOL    HW120639   2.549   2.121   7.421 -0.6167 -1.4698  0.9814
 3002SOL    HW220640   2.654   2.115   7.529 -1.4908  0.9773  0.2079
 3003SOL     OW20641   4.607   2.338   6.732 -0.1898 -0.0979  0.2653
 3003SOL    HW120642   4.548   2.341   6.656  0.8059 -2.2206 -0.5863
 3003SOL    HW220643   4.546   2.382   6.792 -0.2574 -0.9995  0.8569
 3004SOL     OW20644   3.613   2.849   2.435 -0.8813  0.5287  0.2716
 3004SOL    HW120645   3.542   2.912   2.445 -1.8404 -0.6301  0.8070
 3004SOL    HW220646   3.564   2.769   2.450 -0.8473  1.1917  4.0007
 3005SOL     OW20647   2.050   3.440  17.709 -0.0417 -0.0413  0.7721
 3005SOL    HW120648   2.083   3.369   0.011 -0.1813  0.5786  1.6377
 3005SOL    HW220649   2.068   3.518   0.007 -0.6514  0.3423  0.4059
 3006SOL     OW20650   0.803   4.633   9.260 -0.0718 -0.4709 -0.3712
 3006SOL    HW120651   0.720   4.681   9.267  0.4726  0.4916 -0.5680
 3006SOL    HW220652   0.831   4.626   9.351  0.8409  3.0826 -0.3882
 3007SOL     OW20653   1.665   4.678  13.979 -0.1295  0.3942  0.5545
 3007SOL    HW120654   1.594   4.652  14.038 -0.7577 -0.6418 -0.6407
 3007SOL    HW220655   1.729   4.612  14.005  0.8115  1.5197  1.0487
 3008SOL     OW20656   1.746   1.943   8.513 -0.3724 -0.2139 -0.8085
 3008SOL    HW120657   1.692   1.989   8.450 -1.4212 -0.5330 -0.1497
 3008SOL    HW220658   1.756   1.858   8.471 -0.3117  0.8721 -2.9904
 3009SOL     OW20659   4.396   1.634   9.280  0.6428 -0.8846 -0.4826
 3009SOL    HW120660   4.366   1.667   9.196 -0.2528  0.8228  0.5031
 3009SOL    HW220661   4.339   1.558   9.292  0.4617 -0.4595  1.4991
 3010SOL     OW20662   1.130   1.396   5.180  0.7385 -0.1194  0.4521
 3010SOL    HW120663   1.140   1.318   5.235 -2.9161 -0.5111  0.5758
 3010SOL    HW220664   1.174   1.353   5.107 -1.9034 -0.7203 -0.7527
 3011SOL     OW20665   0.802   2.858   3.204  0.2950  0.0907  0.1928
 3011SOL    HW120666   0.830   2.943   3.169 -0.8797  0.3205 -0.1973
 3011SOL    HW220667   0.708   2.865   3.189  0.3234 -0.5036 -0.2855
 3012SOL     OW20668   2.977   0.449   4.253 -0.4581 -0.6987 -0.1442
 3012SOL    HW120669   2.919   0.481   4.322 -0.0701 -0.6878  0.1747
 3012SOL    HW220670   2.926   0.373   4.226  0.0414 -1.3739  0.8004
 3013SOL     OW20671   0.923   1.605  17.711  0.3944  0.6472  0.3183
 3013SOL    HW120672   0.955   1.587   0.045  1.9245  3.1791  0.2805
 3013SOL    HW220673   0.980   1.678  17.683  2.3278 -0.4889  1.2715
 3014SOL     OW20674   2.543   4.203  16.667  0.2071  0.0490  0.5411
 3014SOL    HW120675   2.484   4.133  16.641 -2.0744  2.4834 -0.8990
 3014SOL    HW220676   2.624   4.198  16.615  0.0011  0.8335  0.1501
 3015SOL     OW20677   2.586   4.113   0.763  0.7308 -0.4959 -0.0501
 3015SOL    HW120678   2.524   4.053   0.804  1.7792 -1.1803  0.5562
 3015SOL    HW220679   2.653   4.044   0.761  3.0964  1.8032  0.1111
 3016SOL     OW20680   0.230   2.248  17.641 -0.0097 -0.1607  0.4780
 3016SOL    HW120681   0.300   2.189  17.668 -0.5151 -0.1156  1.8792
 3016SOL    HW220682   0.212   2.288  17.726 -0.0207 -1.0319  0.8894
 3017SOL     OW20683   3.759   3.688   4.924  0.3756  0.3932 -0.8274
 3017SOL    HW120684   3.725   3.773   4.951  0.4457  0.2909 -0.4216
 3017SOL    HW220685   3.691   3.631   4.960  1.2945 -0.4159 -0.3769
 3018SOL     OW20686   2.468   0.682   5.120  0.0691  0.3751  0.1706
 3018SOL    HW120687   2.480   0.775   5.135  0.2992  0.0753  1.9376
 3018SOL    HW220688   2.402   0.682   5.051  2.0542 -0.3759 -1.7306
 3019SOL     OW20689   1.315   2.949  15.039 -0.2903 -0.2435 -0.1228
 3019SOL    HW120690   1.275   2.884  15.097 -2.4937  2.0431  0.9061
 3019SOL    HW220691   1.306   3.030  15.089 -1.3408 -0.7752  0.5458
 3020SOL     OW20692   2.346   0.518  15.726  0.1075 -0.1921 -0.2902
 3020SOL    HW120693   2.255   0.511  15.698 -0.2869 -0.9793  1.2125
 3020SOL    HW220694   2.359   0.426  15.748 -0.5545 -0.4328 -0.8927
 3021SOL     OW20695   2.859   3.676   0.645 -0.7065 -0.3322 -0.1506
 3021SOL    HW120696   2.925   3.659   0.712  2.0022  2.7323 -2.0244
 3021SOL    HW220697   2.900   3.642   0.566  0.6178 -0.6483  0.6840
 3022SOL     OW20698   3.112   2.925   4.503  0.5255  0.1730  0.0440
 3022SOL    HW120699   3.205   2.945   4.515  0.7481 -0.9005  0.0950
 3022SOL    HW220700   3.094   2.927   4.409 -1.1134 -3.5745  0.2891
 3023SOL     OW20701   0.424   3.847   3.181 -0.2571 -0.5337 -0.1305
 3023SOL    HW120702   0.507   3.823   3.139 -0.7622  0.3021 -1.6348
 3023SOL    HW220703   0.389   3.922   3.132 -1.7475 -0.9219  0.3723
 3024SOL     OW20704   4.291   2.873  10.446  0.2358 -0.5561  0.0366
 3024SOL    HW120705   4.385   2.865  10.462  0.6507 -2.0906 -3.0708
 3024SOL    HW220706   4.268   2.809  10.513 -0.5064 -1.0473 -0.6826
 3025SOL     OW20707   0.196   4.615   6.755  0.0675  0.2103 -0.5068
 3025SOL    HW120708   0.145   4.615   6.674 -2.7270  1.1573  1.2231
 3025SOL    HW220709   0.123   4.634   6.815  0.6810  2.3675 -0.4341
 3026SOL     OW20710   2.831   3.518   7.496 -0.2177  0.2285 -0.4244
 3026SOL    HW120711   2.916   3.484   7.522 -0.7624 -0.1767  0.8327
 3026SOL    HW220712   2.856   3.517   7.403  2.1801 -1.0903  0.2349
 3027SOL     OW20713   2.946   3.094   7.129 -0.0429 -0.5656  0.6892
 3027SOL    HW120714   2.976   3.181   7.155 -1.8708  0.3300 -0.2597
 3027SOL    HW220715   2.933   3.118   7.037  1.6417 -0.4192  0.4753
 3028SOL     OW20716   4.491   2.125   3.348 -0.0457  0.2070 -0.1002
 3028SOL    HW120717   4.571   2.128   3.401  0.0631  2.6281 -0.3798
 3028SOL    HW220718   4.523   2.075   3.272  2.3485 -0.3472  1.2905
 3029SOL     OW20719   1.940   3.529  16.336 -0.0788  0.6286 -0.0301
 3029SOL    HW120720   1.922   3.531  16.430 -1.1588 -0.1108 -0.2180
 3029SOL    HW220721   2.006   3.460  16.336  0.7696  1.4375 -1.4988
 3030SOL     OW20722   4.702   1.499   9.226 -0.6313 -0.3488  0.0911
 3030SOL    HW120723   4.675   1.588   9.201  1.3317 -0.3125 -1.8924
 3030SOL    HW220724   4.708   1.470   9.135 -0.3426 -1.8862  0.6014
 3031SOL     OW20725   4.549   0.327   9.088 -0.5530  0.2326  0.2154
 3031SOL    HW120726   4.520   0.391   9.023 -2.7825 -1.0382 -0.0294
 3031SOL    HW220727   4.642   0.317   9.069 -0.6693 -2.8896  1.3292
 3032SOL     OW20728   0.453   2.320   2.959 -0.1125 -0.3127 -0.3143
 3032SOL    HW120729   0.383   2.328   3.024 -1.7186 -0.2634 -2.0599
 3032SOL    HW220730   0.424   2.241   2.914  0.0719 -1.4089  1.4880
 3033SOL     OW20731   1.762   4.195   6.454  0.0545 -0.2207 -0.1143
 3033SOL    HW120732   1.725   4.202   6.366 -1.9157  0.1312  0.7317
 3033SOL    HW220733   1.696   4.234   6.511  0.5736  3.4158 -2.0627
 3034SOL     OW20734   0.869   1.318   5.738 -0.4400 -0.1676 -0.9196
 3034SOL    HW120735   0.938   1.294   5.676 -1.0226  0.3718 -1.7710
 3034SOL    HW220736   0.828   1.396   5.701 -1.9386  0.2867  1.7132
 3035SOL     OW20737   0.855   0.605   0.850  0.1373 -0.4292 -0.0047
 3035SOL    HW120738   0.904   0.551   0.788  2.1856  0.3653  0.9005
 3035SOL    HW220739   0.846   0.535   0.914 -2.1556 -0.8033 -0.7380
 3036SOL     OW20740   3.939   4.415   8.721  0.0943 -0.3895 -0.1363
 3036SOL    HW120741   3.959   4.352   8.790 -0.6269 -4.0152 -3.2322
 3036SOL    HW220742   3.878   4.365   8.667  0.3002  0.3281 -1.0332
 3037SOL     OW20743   1.754   1.660  16.219  0.0945  0.3471 -0.3892
 3037SOL    HW120744   1.753   1.726  16.289  0.2911 -1.9042  1.7481
 3037SOL    HW220745   1.663   1.641  16.200  0.5385 -0.8598 -1.3256
 3038SOL     OW20746   3.889   1.288   8.658  0.1275  0.0020 -0.1632
 3038SOL    HW120747   3.967   1.309   8.607  0.8565  0.9932  1.3776
 3038SOL    HW220748   3.934   1.231   8.720 -2.0216 -0.6434  0.8333
 3039SOL     OW20749   1.975   3.172   8.444 -0.9889  0.0908 -0.0038
 3039SOL    HW120750   1.966   3.080   8.470 -1.9628 -0.0547 -0.8373
 3039SOL    HW220751   1.885   3.193   8.419 -1.1681 -0.6357  0.0172
 3040SOL     OW20752   0.813   4.735   7.294  0.6620  0.0540  0.1145
 3040SOL    HW120753   0.768   4.696   7.219 -0.5144 -2.5430  2.1828
 3040SOL    HW220754   0.748   0.062   7.316 -0.3481 -0.9775  0.2251
 3041SOL     OW20755   2.225   1.908   8.920  0.0871 -0.3560  0.0953
 3041SOL    HW120756   2.278   1.868   8.989  0.1120  2.1266  1.5058
 3041SOL    HW220757   2.284   1.971   8.880 -0.5520  0.3528  0.2744
 3042SOL     OW20758   2.280   1.729   4.794  0.0506 -0.2665 -0.0147
 3042SOL    HW120759   2.340   1.689   4.731  0.3278  1.0536 -0.5796
 3042SOL    HW220760   2.214   1.772   4.740 -0.8199 -0.7912  0.6226
 3043SOL     OW20761   2.716   0.686   1.907 -0.2774 -0.0627  0.4530
 3043SOL    HW120762   2.776   0.745   1.862  0.6707 -0.6923  0.8791
 3043SOL    HW220763   2.737   0.608   1.855 -2.0321 -0.5957  0.5115
 3044SOL     OW20764   3.287   3.963  10.839  0.9249  0.2329  0.1313
 3044SOL    HW120765   3.288   3.923  10.926  1.3671 -2.0234 -0.9213
 3044SOL    HW220766   3.356   3.915  10.794  0.6762  1.6364 -1.7534
 3045SOL     OW20767   3.596   1.418   1.746 -0.0246  0.4356  0.0398
 3045SOL    HW120768   3.547   1.393   1.825  2.2392 -2.0251  0.6634
 3045SOL    HW220769   3.680   1.376   1.765  0.1870 -0.1986 -2.2318
 3046SOL     OW20770   1.509   4.583   9.165  0.4677 -0.3374  0.1267
 3046SOL    HW120771   1.527   4.580   9.259  2.7163  0.7141 -0.2660
 3046SOL    HW220772   1.496   4.675   9.143 -0.6524 -0.8147 -1.2305
 3047SOL     OW20773   0.582   2.689   3.815  0.0248  0.0149  0.3204
 3047SOL    HW120774   0.602   2.636   3.738  0.6560  0.7920 -0.0545
 3047SOL    HW220775   0.586   2.777   3.777 -0.8425  0.0728  0.3624
 3048SOL     OW20776   0.447   4.035   2.043  1.0840  0.2286  0.0666
 3048SOL    HW120777   0.521   4.080   2.003 -0.1341 -0.5358 -3.0643
 3048SOL    HW220778   0.477   3.993   2.123  2.4462  0.9117 -0.0954
 3049SOL     OW20779   4.246   4.024   7.247 -0.1195 -0.0688  0.0540
 3049SOL    HW120780   4.320   3.978   7.286  0.5642  0.9788 -0.0047
 3049SOL    HW220781   4.242   3.982   7.161 -2.7146  0.1604  0.0692
 3050SOL     OW20782   3.589   0.569   2.107  0.3643 -0.6171 -0.3516
 3050SOL    HW120783   3.641   0.634   2.059 -0.2977  0.5358  0.5006
 3050SOL    HW220784   3.513   0.625   2.123  0.8569 -0.6787  2.2229
 3051SOL     OW20785   2.259   0.323   3.545  0.1318 -0.1643 -0.1432
 3051SOL    HW120786   2.278   0.328   3.639  0.5000 -2.7918 -0.0746
 3051SOL    HW220787   2.216   0.406   3.527  1.4255  0.1883 -1.5609
 3052SOL     OW20788   3.319   4.324   8.339  0.4072 -0.0475  0.9826
 3052SOL    HW120789   3.256   4.260   8.307  1.2766  0.6618 -2.0941
 3052SOL    HW220790   3.267   4.400   8.365  0.6703 -0.2730  2.1665
 3053SOL     OW20791   0.202   1.005   7.338  0.2142  0.0973 -0.0342
 3053SOL    HW120792   0.242   1.064   7.275  0.4906  0.9691  0.9422
 3053SOL    HW220793   0.214   0.919   7.298 -1.1261  0.7515 -1.8297
 3054SOL     OW20794   3.234   4.266   5.554 -0.2255 -0.0780  0.2053
 3054SOL    HW120795   3.224   4.234   5.644 -1.2458  1.7285  0.7505
 3054SOL    HW220796   3.159   4.236   5.504  1.4976 -1.1666 -1.7041
 3055SOL     OW20797   2.693   3.238   9.173  0.3644 -0.2618  0.2434
 3055SOL    HW120798   2.599   3.222   9.168  0.7754 -1.9243 -2.3387
 3055SOL    HW220799   2.706   3.310   9.111 -0.7196  0.0331  0.3475
 3056SOL     OW20800   1.956   3.318   2.346  0.9775 -0.1005 -0.2610
 3056SOL    HW120801   2.037   3.336   2.297 -0.4358  1.7260 -1.8970
 3056SOL    HW220802   1.913   3.261   2.283 -0.3814  1.3199 -0.5886
 3057SOL     OW20803   2.439   3.884  11.384 -0.6151  0.6551  0.2087
 3057SOL    HW120804   2.485   3.851  11.307  2.5390  2.2676  1.4089
 3057SOL    HW220805   2.359   3.832  11.396 -0.5285  0.5177  0.1935
 3058SOL     OW20806   0.753   1.586  16.565 -0.2720 -0.8564  0.3462
 3058SOL    HW120807   0.691   1.659  16.567 -0.1799 -0.7228 -1.5948
 3058SOL    HW220808   0.822   1.634  16.520  1.0842 -1.9358  1.2849
 3059SOL     OW20809   0.379   2.779   2.430 -0.0536  0.5930  0.0165
 3059SOL    HW120810   0.472   2.802   2.429  0.1435 -0.3643 -2.4056
 3059SOL    HW220811   0.347   2.865   2.402  0.6602  0.7393 -0.3361
 3060SOL     OW20812   1.913   1.142   3.245 -0.1216 -0.3413  0.5911
 3060SOL    HW120813   2.001   1.136   3.282  0.2979  0.0310 -0.3478
 3060SOL    HW220814   1.878   1.227   3.271  0.0375 -0.5712  1.5425
 3061SOL     OW20815   2.761   3.923   0.783 -0.4015  1.0612 -0.4001
 3061SOL    HW120816   2.783   3.830   0.770  1.6239  1.2098  2.0003
 3061SOL    HW220817   2.809   3.954   0.859 -0.4741 -1.5308  0.7136
 3062SOL     OW20818   2.626   4.648   0.093  0.1390 -0.0629  0.2174
 3062SOL    HW120819   2.619   4.563   0.136  0.4317  0.5037  1.4075
 3062SOL    HW220820   2.691   4.635   0.024  0.1912  1.8844 -0.1019
 3063SOL     OW20821   3.275   3.167  16.340  0.4228 -0.2038 -0.2501
 3063SOL    HW120822   3.193   3.131  16.375  1.2828 -1.0757  0.8739
 3063SOL    HW220823   3.279   3.241  16.402 -0.1629 -0.6368  0.3052
 3064SOL     OW20824   2.167   3.107   9.794  0.4017 -0.0766  0.1583
 3064SOL    HW120825   2.136   3.135   9.707  1.6083 -0.5636 -0.4313
 3064SOL    HW220826   2.159   3.183   9.851  0.6520 -0.6485  0.9469
 3065SOL     OW20827   1.483   2.969   6.339  0.5799 -0.2431  0.3004
 3065SOL    HW120828   1.439   2.884   6.336 -3.3774  1.8414 -0.6157
 3065SOL    HW220829   1.570   2.961   6.301  0.3187 -1.2827 -0.0660
 3066SOL     OW20830   0.012   0.229   1.148 -0.5301 -0.8255  0.0921
 3066SOL    HW120831   0.079   0.181   1.196  0.0425  1.2770  1.3718
 3066SOL    HW220832   4.695   0.158   1.117  1.5371 -1.7913 -1.3738
 3067SOL     OW20833   4.575   4.573  11.070 -0.2158  0.2309 -0.1960
 3067SOL    HW120834   4.550   4.663  11.094  1.5929  0.7139 -0.1292
 3067SOL    HW220835   4.628   4.597  10.994 -0.6375 -0.0623 -0.5839
 3068SOL     OW20836   1.672   1.857  12.233 -0.3088  0.2580  0.0790
 3068SOL    HW120837   1.648   1.770  12.264  1.4333 -0.0875  0.4797
 3068SOL    HW220838   1.755   1.840  12.188 -0.7111 -0.9847 -0.1735
 3069SOL     OW20839   3.152   3.668   8.814  0.6028 -0.2130 -0.3040
 3069SOL    HW120840   3.204   3.727   8.868 -0.6484  0.7832 -0.1765
 3069SOL    HW220841   3.174   3.691   8.723 -2.2256  1.0144 -0.6846
 3070SOL     OW20842   4.034   3.734   4.893 -0.3482  0.1294 -0.2984
 3070SOL    HW120843   4.081   3.730   4.976  0.0336  1.2440 -0.4697
 3070SOL    HW220844   3.945   3.705   4.912 -0.6170  0.4369 -1.1045
 3071SOL     OW20845   3.349   4.608   7.210 -0.2779 -0.3617  0.3223
 3071SOL    HW120846   3.384   4.697   7.206 -2.3034  0.3359 -1.9881
 3071SOL    HW220847   3.295   4.605   7.289 -0.1290  0.0735  0.4396
 3072SOL     OW20848   2.995   2.181  15.788 -0.0666 -0.1689 -0.0985
 3072SOL    HW120849   3.025   2.232  15.713  1.6203 -2.2736 -0.8828
 3072SOL    HW220850   3.000   2.247  15.857  2.7457  0.2788 -0.7170
 3073SOL     OW20851   0.386   2.799   1.132  0.0169 -0.7527  0.5803
 3073SOL    HW120852   0.469   2.811   1.177 -0.5891  1.3049  1.1072
 3073SOL    HW220853   0.334   2.739   1.185  0.5105 -1.6349  0.0811
 3074SOL     OW20854   3.185   2.957   8.331 -0.0878  0.1336 -0.5072
 3074SOL    HW120855   3.163   2.928   8.420 -1.7476  3.0699  0.0568
 3074SOL    HW220856   3.124   2.905   8.279 -1.3129  0.8805  0.1621
 3075SOL     OW20857   4.453   0.135   7.349  0.2073  0.0006 -0.1861
 3075SOL    HW120858   4.494   0.103   7.429  0.4394 -0.2588 -0.4075
 3075SOL    HW220859   4.407   0.060   7.312 -1.2801  0.2169  1.2158
 3076SOL     OW20860   0.477   4.623   6.818 -0.2401 -0.0490  0.3376
 3076SOL    HW120861   0.395   4.641   6.771  0.1538 -1.1121 -0.7691
 3076SOL    HW220862   0.432   4.585   6.894 -0.6589  0.3951  0.3122
 3077SOL     OW20863   0.027   2.074  15.574  0.3139 -0.2816  0.2737
 3077SOL    HW120864   0.094   2.095  15.509 -0.2426 -0.4062 -0.3344
 3077SOL    HW220865   0.063   2.099  15.659 -2.4455  0.7907  1.1369
 3078SOL     OW20866   2.492   1.082   6.537  0.3429  0.1035  0.0552
 3078SOL    HW120867   2.444   1.044   6.611  0.2455  0.9640  0.4356
 3078SOL    HW220868   2.456   1.029   6.466  0.7914 -2.2177  1.5638
 3079SOL     OW20869   2.227   2.176   9.268 -0.5466 -0.5979 -0.0322
 3079SOL    HW120870   2.167   2.248   9.248  0.4656 -0.0009 -0.8824
 3079SOL    HW220871   2.250   2.191   9.359  0.4902 -1.9283 -0.0704
 3080SOL     OW20872   0.708   1.479   1.233 -0.2199 -0.1276 -0.2940
 3080SOL    HW120873   0.756   1.499   1.153  0.4232  1.3577  0.4670
 3080SOL    HW220874   0.620   1.483   1.196  0.1224 -0.6615 -1.1684
 3081SOL     OW20875   4.508   4.146   9.447 -0.4840 -0.4781 -0.8285
 3081SOL    HW120876   4.586   4.100   9.481 -0.2497  2.1645  2.2068
 3081SOL    HW220877   4.435   4.101   9.489 -1.1837  0.8160 -0.6778
 3082SOL     OW20878   4.724   1.809   9.398 -0.3510 -0.1741 -0.3153
 3082SOL    HW120879   4.659   1.858   9.348  0.6654  0.8211 -0.6435
 3082SOL    HW220880   0.009   1.866   9.470  2.0869  0.2259 -1.4383
 3083SOL     OW20881   1.794   2.192   4.549  0.3598 -0.3067 -0.5860
 3083SOL    HW120882   1.828   2.153   4.630 -1.1864 -0.0694  0.1810
 3083SOL    HW220883   1.872   2.214   4.499  0.2711  0.4906 -0.3723
 3084SOL     OW20884   3.191   3.145   3.986  0.3719  0.2608 -0.3597
 3084SOL    HW120885   3.123   3.146   3.919  0.5769 -0.5113 -0.5691
 3084SOL    HW220886   3.273   3.119   3.944  0.5893 -1.0004  0.8242
 3085SOL     OW20887   3.435   4.117   0.463  0.1948 -0.3566 -0.2072
 3085SOL    HW120888   3.345   4.109   0.495  0.9062  4.1945  2.8901
 3085SOL    HW220889   3.433   4.041   0.404  2.2788 -1.0122  0.5485
 3086SOL     OW20890   3.988   3.842   9.529 -0.5661 -0.5622 -0.5010
 3086SOL    HW120891   3.956   3.768   9.477 -1.1709 -0.4666 -0.2618
 3086SOL    HW220892   3.921   3.910   9.524 -0.6164 -0.6154 -0.5647
 3087SOL     OW20893   2.084   0.455   1.432  0.2349  0.6081  0.0815
 3087SOL    HW120894   2.159   0.448   1.491  0.9732  0.1413 -0.9220
 3087SOL    HW220895   2.015   0.492   1.487 -1.3399 -5.3176  2.1069
 3088SOL     OW20896   4.011   0.479   6.537  0.3692  0.0409  0.1906
 3088SOL    HW120897   3.926   0.457   6.499  0.2992 -0.5935  0.7134
 3088SOL    HW220898   3.999   0.568   6.571 -0.6700 -0.0911  0.1481
 3089SOL     OW20899   2.253   2.359   0.138 -0.0522  0.4185 -0.2603
 3089SOL    HW120900   2.328   2.417   0.122  0.7481 -0.5960 -0.1963
 3089SOL    HW220901   2.268   2.289   0.074 -0.0579  1.5367 -1.4893
 3090SOL     OW20902   2.959   2.673   9.560  0.0331 -0.2353  0.6767
 3090SOL    HW120903   3.033   2.614   9.571 -1.2658 -2.1521 -1.0278
 3090SOL    HW220904   2.927   2.636   9.478  3.6434  1.3302 -1.4479
 3091SOL     OW20905   0.654   0.954   4.831  0.0499 -0.3889  0.3159
 3091SOL    HW120906   0.740   0.944   4.791  1.0180  1.3136  2.0145
 3091SOL    HW220907   0.620   1.032   4.787 -2.1699 -1.0302  0.8938
 3092SOL     OW20908   1.607   4.570   4.566 -0.0693  0.3558  0.2332
 3092SOL    HW120909   1.685   4.613   4.603  1.0004 -1.0630 -0.3803
 3092SOL    HW220910   1.643   4.485   4.541  0.7077  0.5758  0.5944
 3093SOL     OW20911   1.054   4.474   6.433 -0.6272 -0.6185  0.0940
 3093SOL    HW120912   1.095   4.489   6.348 -0.2355 -0.5182  0.3014
 3093SOL    HW220913   1.083   4.554   6.477  2.8773 -0.9856 -1.5087
 3094SOL     OW20914   1.182   3.463   7.111 -0.1118 -0.1608  0.4935
 3094SOL    HW120915   1.213   3.389   7.164 -0.4985  0.3731  1.4597
 3094SOL    HW220916   1.138   3.417   7.039  0.9817  0.7011 -0.7339
 3095SOL     OW20917   4.697   1.043  16.291 -0.8272 -0.2517 -0.1553
 3095SOL    HW120918   0.007   0.993  16.356  0.9456 -0.2924 -1.5234
 3095SOL    HW220919   0.016   1.112  16.260 -0.9463  0.1966  0.6248
 3096SOL     OW20920   3.923   4.482   1.642  0.0181 -0.5160 -0.2343
 3096SOL    HW120921   3.851   4.487   1.579 -1.4273 -1.9442  1.3033
 3096SOL    HW220922   3.967   4.567   1.643 -0.7675 -0.1230  1.4102
 3097SOL     OW20923   4.522   4.052  11.759  0.4692 -0.3769 -0.1625
 3097SOL    HW120924   4.500   3.968  11.801 -1.0729  0.0180 -0.1794
 3097SOL    HW220925   4.510   4.108  11.836 -0.3603  1.8707 -1.9449
 3098SOL     OW20926   3.087   1.457   5.879 -0.0939  0.6053 -0.1168
 3098SOL    HW120927   3.148   1.509   5.828 -0.1010  0.1094 -0.6383
 3098SOL    HW220928   3.000   1.493   5.862 -0.0778  0.7207  0.0471
 3099SOL     OW20929   3.374   2.530   9.420  0.4214  0.1000 -0.5857
 3099SOL    HW120930   3.333   2.610   9.385 -0.2823 -0.1011 -0.2351
 3099SOL    HW220931   3.295   2.485   9.449  1.2863 -1.4548 -0.6884
 3100SOL     OW20932   1.153   1.059   2.340 -0.2952 -0.4421  0.1570
 3100SOL    HW120933   1.226   1.046   2.280 -0.2095  1.7185 -0.2293
 3100SOL    HW220934   1.203   1.065   2.422 -2.6540 -2.0617  1.7242
 3101SOL     OW20935   1.367   4.149   5.915 -0.1150  0.1124  0.2939
 3101SOL    HW120936   1.423   4.207   5.862 -0.2453  0.0154  0.0499
 3101SOL    HW220937   1.396   4.061   5.890 -1.4177 -1.0139  2.8241
 3102SOL     OW20938   2.016   0.436   8.211  0.2224  0.1862  0.0362
 3102SOL    HW120939   2.005   0.519   8.164 -0.5401 -0.2568 -0.5725
 3102SOL    HW220940   1.933   0.408   8.249 -0.3228  0.1464 -1.1583
 3103SOL     OW20941   1.327   3.420   4.683 -0.0796  0.2149 -0.5799
 3103SOL    HW120942   1.399   3.477   4.654  0.3902  0.3437  0.8298
 3103SOL    HW220943   1.374   3.359   4.740 -0.6573  0.5211  0.2216
 3104SOL     OW20944   0.414   0.001  14.470  0.3667  0.0638  0.1119
 3104SOL    HW120945   0.369   4.687  14.535 -0.1736  1.5995  0.9694
 3104SOL    HW220946   0.498   4.693  14.464 -0.5382 -1.4418 -0.5978
 3105SOL     OW20947   1.879   3.437  16.599 -0.3293 -0.2060 -0.1339
 3105SOL    HW120948   1.827   3.376  16.652  0.7691 -1.5452 -0.6225
 3105SOL    HW220949   1.969   3.422  16.628 -0.7192  0.6359  1.5599
 3106SOL     OW20950   3.684   1.732   7.654 -0.4479  0.0770 -0.8233
 3106SOL    HW120951   3.637   1.789   7.714  0.6617  0.2262 -0.1045
 3106SOL    HW220952   3.688   1.652   7.706  0.3156  0.5306 -0.2011
 3107SOL     OW20953   0.206   3.280   3.307 -0.4108  0.1425 -0.2066
 3107SOL    HW120954   0.150   3.268   3.384 -0.1952 -0.2771 -0.1161
 3107SOL    HW220955   0.158   3.224   3.246 -1.0507 -0.1916  0.5829
 3108SOL     OW20956   0.039   0.291   7.800 -0.3737  0.2986  0.3087
 3108SOL    HW120957   4.719   0.357   7.764 -2.6376 -0.5745  2.4573
 3108SOL    HW220958   0.078   0.348   7.866  2.7465 -1.6073  0.1261
 3109SOL     OW20959   2.659   0.622  12.830 -0.0376 -0.6972 -0.1486
 3109SOL    HW120960   2.715   0.605  12.906  1.5258  4.1555 -0.2259
 3109SOL    HW220961   2.613   0.700  12.860  0.0745 -1.2788  1.5398
 3110SOL     OW20962   4.698   4.050   8.741 -0.3526  0.1341 -0.4796
 3110SOL    HW120963   4.691   3.984   8.671  1.9927 -0.4230 -0.1946
 3110SOL    HW220964   4.607   4.077   8.750 -0.0378  1.6599 -1.8782
 3111SOL     OW20965   2.279   3.655  11.873  0.1003 -0.0171  0.2517
 3111SOL    HW120966   2.196   3.683  11.835  1.5002  1.8268 -1.4320
 3111SOL    HW220967   2.251   3.643  11.964 -1.9175  1.2087 -0.2024
 3112SOL     OW20968   2.117   3.402  14.797 -0.2507  0.2827  0.1801
 3112SOL    HW120969   2.147   3.493  14.795  0.3321  0.1224  1.4127
 3112SOL    HW220970   2.079   3.405  14.885  2.7824 -1.6273  1.5707
 3113SOL     OW20971   1.323   1.512  16.938 -0.4351  0.4731 -0.0823
 3113SOL    HW120972   1.305   1.529  17.030  0.7198  1.6165 -0.0700
 3113SOL    HW220973   1.415   1.535  16.933 -0.4813  0.6639 -0.0581
 3114SOL     OW20974   2.722   4.264  13.503 -0.1008 -0.1704  0.2396
 3114SOL    HW120975   2.692   4.274  13.593  0.0688 -0.9103  0.3749
 3114SOL    HW220976   2.771   4.184  13.520 -0.2498  0.4765  3.6456
 3115SOL     OW20977   2.786   1.266   0.596  0.4699  0.2821  0.3770
 3115SOL    HW120978   2.754   1.332   0.535 -0.9743 -0.1082  0.7047
 3115SOL    HW220979   2.710   1.220   0.631  0.4262 -0.6017 -0.8746
 3116SOL     OW20980   3.932   3.406   8.981 -0.0357 -0.1242  0.3121
 3116SOL    HW120981   3.851   3.451   9.004  0.9906 -0.1356  3.9413
 3116SOL    HW220982   3.963   3.380   9.067  1.1589  0.8381  0.1679
 3117SOL     OW20983   2.673   0.522   5.025  0.4477 -0.9191 -0.1953
 3117SOL    HW120984   2.744   0.515   5.088  2.5429  1.4550 -2.2858
 3117SOL    HW220985   2.625   0.592   5.071  1.5951 -1.0221  1.1574
 3118SOL     OW20986   3.874   4.072   6.791 -0.0342  0.5422 -0.1397
 3118SOL    HW120987   3.801   4.131   6.770 -0.2946 -0.2245 -1.3649
 3118SOL    HW220988   3.940   4.088   6.724 -0.0756  0.0999 -0.2857
 3119SOL     OW20989   2.949   4.370   9.374  0.0751 -0.7921  0.2835
 3119SOL    HW120990   2.918   4.456   9.401 -0.7920 -1.0251  0.0228
 3119SOL    HW220991   2.955   4.323   9.457 -0.4895  1.3179  1.5081
 3120SOL     OW20992   2.603   4.587   4.906 -0.0324 -0.4444  0.0227
 3120SOL    HW120993   2.548   4.513   4.931  0.4982 -0.5892  0.7665
 3120SOL    HW220994   2.586   4.585   4.811 -0.8241 -2.1234  0.1991
 3121SOL     OW20995   3.808   1.238  12.868  0.3908  0.5191  0.1014
 3121SOL    HW120996   3.893   1.263  12.832  0.3736  1.2684  0.5798
 3121SOL    HW220997   3.827   1.219  12.960  1.4381  0.9901 -0.0188
 3122SOL     OW20998   2.321   2.762   3.275 -0.5041 -0.2575  0.2285
 3122SOL    HW120999   2.269   2.817   3.217 -0.0989 -0.2223 -0.0971
 3122SOL    HW221000   2.389   2.730   3.216  0.4027  2.5786 -0.2532
 3123SOL     OW21001   2.770   2.922   5.505  0.0588 -0.1964 -0.0644
 3123SOL    HW121002   2.803   3.011   5.500  0.6045 -0.3052  1.7893
 3123SOL    HW221003   2.772   2.892   5.414 -0.2063 -0.4033 -0.0027
 3124SOL     OW21004   2.684   4.275  13.773 -0.1580 -0.0919  0.6140
 3124SOL    HW121005   2.649   4.289  13.861  0.8244 -0.8200  1.1194
 3124SOL    HW221006   2.778   4.285  13.787 -0.3932 -0.2594  2.2614
 3125SOL     OW21007   4.462   2.940   8.990 -0.0860 -0.3314  0.2519
 3125SOL    HW121008   4.397   2.875   9.016  0.7068 -1.0906  0.2918
 3125SOL    HW221009   4.434   3.012   9.047  0.2136  0.1603 -0.2253
 3126SOL     OW21010   4.532   1.684   9.774 -0.3321  0.2789 -0.1134
 3126SOL    HW121011   4.530   1.652   9.684  0.2786  0.9498 -0.3612
 3126SOL    HW221012   4.622   1.666   9.801 -0.4866 -1.9125 -1.0380
 3127SOL     OW21013   1.185   3.167  16.462  0.2211 -0.2868  0.1229
 3127SOL    HW121014   1.259   3.125  16.418  0.1648 -0.1948 -0.0576
 3127SOL    HW221015   1.147   3.209  16.385  1.1489 -0.8813 -0.6520
 3128SOL     OW21016   3.590   3.512  17.138 -0.0509  0.0364 -0.1349
 3128SOL    HW121017   3.534   3.437  17.119 -1.9591  0.9617  1.8022
 3128SOL    HW221018   3.526   3.577  17.108  0.5482  0.2456 -0.9495
 3129SOL     OW21019   1.888   3.066   5.866  0.1222 -0.2265  0.3307
 3129SOL    HW121020   1.818   3.065   5.801 -1.4886  2.4356  2.0420
 3129SOL    HW221021   1.887   2.976   5.896 -0.0348  0.1336  1.4068
 3130SOL     OW21022   4.721   4.687   4.421  0.2814  0.1714  0.7956
 3130SOL    HW121023   4.650   4.624   4.407  1.9078 -1.0863 -1.6042
 3130SOL    HW221024   0.044   4.657   4.355 -0.3730  1.0539 -0.2087
 3131SOL     OW21025   2.816   3.165   2.551  0.3065  0.1876 -0.1275
 3131SOL    HW121026   2.768   3.157   2.469 -0.3182 -1.2582  0.3640
 3131SOL    HW221027   2.785   3.241   2.601 -0.8253 -0.0257 -0.4980
 3132SOL     OW21028   4.381   3.189   0.498 -0.0727 -0.0575  0.0009
 3132SOL    HW121029   4.339   3.138   0.568  1.5341  1.2466  1.8760
 3132SOL    HW221030   4.465   3.208   0.539 -0.7885  0.4132  1.2597
 3133SOL     OW21031   1.406   3.544   4.373  0.2321  0.0229 -0.5817
 3133SOL    HW121032   1.344   3.536   4.301 -1.7875 -1.9978  1.3901
 3133SOL    HW221033   1.435   3.454   4.384 -0.6223 -0.2191 -0.2535
 3134SOL     OW21034   1.209   0.575   5.054 -0.6480  0.7535 -0.3462
 3134SOL    HW121035   1.248   0.622   5.128 -1.0937  1.2245 -0.4121
 3134SOL    HW221036   1.285   0.569   4.997  0.8616 -2.4435  1.9751
 3135SOL     OW21037   3.068   1.737   9.586 -0.0795 -1.2261  0.1077
 3135SOL    HW121038   3.158   1.735   9.619  0.0022  1.7414  0.0415
 3135SOL    HW221039   3.024   1.765   9.666  0.8175  1.0825 -0.2060
 3136SOL     OW21040   4.601   3.581   6.926  0.2063  0.2919 -0.0955
 3136SOL    HW121041   4.604   3.486   6.916  0.2278  0.2674  0.1429
 3136SOL    HW221042   4.508   3.586   6.949  0.5369  2.8346  0.6059
 3137SOL     OW21043   4.580   2.260  15.803  0.4752  0.7127 -0.1525
 3137SOL    HW121044   4.519   2.319  15.846  0.5323  1.9503 -1.7316
 3137SOL    HW221045   4.615   2.324  15.741  1.2229  0.3316 -0.1290
 3138SOL     OW21046   0.675   4.520  13.646 -0.0160  0.0592 -0.0801
 3138SOL    HW121047   0.719   4.600  13.616  0.4794 -0.4049 -0.6122
 3138SOL    HW221048   0.713   4.449  13.593 -0.6354  0.3448 -0.9036
 3139SOL     OW21049   2.994   1.454   2.069  0.0815 -0.2870  0.2851
 3139SOL    HW121050   3.055   1.455   1.995 -0.5387  0.9188 -0.2046
 3139SOL    HW221051   2.983   1.360   2.081 -0.0244 -0.4940 -1.4564
 3140SOL     OW21052   1.893   3.022   4.304  0.1263 -0.3393 -0.1644
 3140SOL    HW121053   1.913   3.078   4.229 -3.6016  0.1163 -0.8158
 3140SOL    HW221054   1.978   3.023   4.350  0.6632 -1.2552 -1.1337
 3141SOL     OW21055   4.473   1.119   2.105  0.0222  0.9955  0.0793
 3141SOL    HW121056   4.383   1.144   2.125 -0.3417 -0.9299  0.8559
 3141SOL    HW221057   4.466   1.125   2.009 -2.0876 -0.7095  0.1390
 3142SOL     OW21058   1.479   0.862   3.994  0.2537  0.5323  0.1286
 3142SOL    HW121059   1.399   0.830   3.951 -0.1084 -0.1001  1.2594
 3142SOL    HW221060   1.505   0.925   3.927 -2.4921  3.2567  1.6051
 3143SOL     OW21061   4.318   4.295   7.791  0.4894 -0.6764 -0.3567
 3143SOL    HW121062   4.412   4.304   7.807  0.5632 -1.9659 -0.1116
 3143SOL    HW221063   4.311   4.218   7.847  0.5210 -0.9145 -0.6774
 3144SOL     OW21064   3.778   1.892   7.043  0.2033  0.3986 -0.0578
 3144SOL    HW121065   3.724   1.813   7.050  1.8612 -0.7599 -0.4106
 3144SOL    HW221066   3.709   1.958   7.050  1.2030  1.5514 -1.2256
 3145SOL     OW21067   1.824   2.426   5.010  0.3825 -0.0306  0.0270
 3145SOL    HW121068   1.738   2.417   4.970  0.0509  0.7019  0.5757
 3145SOL    HW221069   1.873   2.355   4.968  0.2487 -0.6812  0.9635
 3146SOL     OW21070   0.376   0.896   4.623  0.1548  0.0502 -0.0706
 3146SOL    HW121071   0.351   0.959   4.690  0.6767 -0.0717  0.2362
 3146SOL    HW221072   0.290   0.864   4.597 -0.6408  1.4786  0.7943
 3147SOL     OW21073   0.145   1.771   2.989 -0.3264 -0.1987  0.1350
 3147SOL    HW121074   0.200   1.790   2.913  3.1133 -0.4921  2.5796
 3147SOL    HW221075   0.186   1.815   3.064 -0.0873  0.8247 -0.5987
 3148SOL     OW21076   1.965   4.481  15.502 -0.7624  0.3418 -0.6114
 3148SOL    HW121077   1.910   4.525  15.567  1.8964  1.8014  0.6513
 3148SOL    HW221078   1.928   4.518  15.422 -0.5584  0.9375 -0.4339
 3149SOL     OW21079   0.656   2.667   4.727  0.4534  0.3187  0.4206
 3149SOL    HW121080   0.643   2.704   4.814  1.8487 -0.9063  1.1471
 3149SOL    HW221081   0.644   2.745   4.672  0.4856  1.1343  1.5645
 3150SOL     OW21082   1.701   1.899   1.534  0.0756  0.0743 -0.0718
 3150SOL    HW121083   1.623   1.852   1.563 -0.3892  0.9271  0.0330
 3150SOL    HW221084   1.657   1.981   1.515  0.7967  0.8686  1.7260
 3151SOL     OW21085   0.897   1.116   9.502 -0.5594  0.2356 -0.1586
 3151SOL    HW121086   0.874   1.073   9.420 -0.1673 -0.0164 -0.1386
 3151SOL    HW221087   0.853   1.201   9.508 -0.6626  0.1510  0.3201
 3152SOL     OW21088   4.403   0.489   7.539 -0.0189  0.3879 -0.0223
 3152SOL    HW121089   4.346   0.413   7.524  1.8924 -1.1946  0.7252
 3152SOL    HW221090   4.329   0.547   7.556  0.2101  0.6281  0.1567
 3153SOL     OW21091   0.722   1.925   3.408 -0.0768 -0.0135  0.4146
 3153SOL    HW121092   0.687   1.966   3.487 -2.4899  1.4030 -1.4006
 3153SOL    HW221093   0.676   1.841   3.411 -1.6545  0.8103 -0.8202
 3154SOL     OW21094   0.638   2.095  16.915 -0.9375  0.2536  0.5911
 3154SOL    HW121095   0.594   2.022  16.872  0.7584 -0.4591  0.0970
 3154SOL    HW221096   0.605   2.086  17.004 -1.3806  1.0662  0.5103
 3155SOL     OW21097   1.708   4.386   9.072 -0.4324 -0.0954 -0.1801
 3155SOL    HW121098   1.778   4.433   9.117 -0.4630 -0.0182 -0.2135
 3155SOL    HW221099   1.629   4.440   9.078 -0.6996 -0.7000  1.9366
 3156SOL     OW21100   1.267   2.239   1.663 -0.0494  0.2978 -0.1486
 3156SOL    HW121101   1.208   2.249   1.737 -0.2896  0.3780 -0.3533
 3156SOL    HW221102   1.228   2.163   1.619  0.1594  0.8560 -1.3171
 3157SOL     OW21103   0.405   0.969   4.357 -0.5874  0.2415  0.4560
 3157SOL    HW121104   0.410   0.939   4.448 -0.3878 -2.1557 -0.3401
 3157SOL    HW221105   0.469   0.911   4.315 -2.0157 -0.8560 -0.1724
 3158SOL     OW21106   2.535   4.470   3.715 -0.1622 -0.0463 -0.2952
 3158SOL    HW121107   2.618   4.467   3.666  0.0824 -0.5896  0.1515
 3158SOL    HW221108   2.462   4.488   3.656 -0.5067  0.0958  0.1750
 3159SOL     OW21109   3.994   1.965   6.170 -0.0111  0.5712 -0.3679
 3159SOL    HW121110   4.014   1.927   6.084  2.0483  0.6099  0.0868
 3159SOL    HW221111   3.899   1.965   6.163  0.0188  0.5165 -0.7653
 3160SOL     OW21112   3.306   2.219  16.225  0.2183 -0.1926 -0.7083
 3160SOL    HW121113   3.239   2.158  16.256 -0.7684  1.4042  0.3214
 3160SOL    HW221114   3.262   2.250  16.146 -1.5649 -1.3451 -0.1651
 3161SOL     OW21115   3.950   0.963   3.835 -0.1298 -0.7485  0.2248
 3161SOL    HW121116   3.999   0.977   3.916  1.9577 -1.4992 -0.9003
 3161SOL    HW221117   3.981   0.876   3.809  0.5690 -0.3861 -0.1624
 3162SOL     OW21118   4.193   4.218   0.687  0.1022  0.2724 -0.3540
 3162SOL    HW121119   4.103   4.189   0.701 -0.2801  1.0629 -1.1883
 3162SOL    HW221120   4.231   4.130   0.685  0.0226  0.2273  0.2625
 3163SOL     OW21121   2.743   3.541   5.545  0.0305 -0.3469 -0.9331
 3163SOL    HW121122   2.695   3.505   5.471  0.9671 -0.5081 -1.4518
 3163SOL    HW221123   2.678   3.551   5.616  0.7175 -1.9264 -0.0882
 3164SOL     OW21124   1.234   3.903   5.217 -0.4824  0.3119 -0.1123
 3164SOL    HW121125   1.271   3.903   5.128  0.0951  1.2336  0.1271
 3164SOL    HW221126   1.217   3.995   5.236 -2.3646  0.3672 -2.0071
 3165SOL     OW21127   4.664   3.701   3.800 -0.0921  0.2854  0.8509
 3165SOL    HW121128   4.654   3.613   3.836 -1.1388 -0.0598 -0.2863
 3165SOL    HW221129   0.016   3.717   3.825 -0.2591 -0.4162  1.8798
 3166SOL     OW21130   0.373   3.881  17.439  0.4013  0.6908  0.1235
 3166SOL    HW121131   0.345   3.848  17.525  2.5393  1.2768  1.0244
 3166SOL    HW221132   0.370   3.804  17.382  2.5940  1.0766 -0.5046
 3167SOL     OW21133   4.236   0.285   7.480  0.6497  0.0488 -0.1130
 3167SOL    HW121134   4.291   0.232   7.423  0.4358  0.9711 -1.1743
 3167SOL    HW221135   4.183   0.215   7.517  0.0956  0.0669 -0.8735
 3168SOL     OW21136   3.529   2.554   2.515  1.0298  0.1741 -0.2075
 3168SOL    HW121137   3.487   2.496   2.452 -0.4267  0.3214  0.6146
 3168SOL    HW221138   3.614   2.512   2.521 -0.0598 -1.8421  1.1068
 3169SOL     OW21139   2.400   0.370   0.282  0.3042 -0.3486 -0.1358
 3169SOL    HW121140   2.352   0.449   0.258 -0.0081 -0.1994  0.9981
 3169SOL    HW221141   2.441   0.356   0.197 -0.7513  0.1871 -0.7459
 3170SOL     OW21142   3.612   2.424  10.289 -0.7411  0.1076  0.0906
 3170SOL    HW121143   3.575   2.351  10.238  0.4471 -0.5255  0.1458
 3170SOL    HW221144   3.581   2.500  10.239  2.1482  1.4189  0.3197
 3171SOL     OW21145   2.072   4.266   5.176 -0.0381  0.1625 -0.4334
 3171SOL    HW121146   2.017   4.323   5.123  1.0540  0.9720 -0.6827
 3171SOL    HW221147   2.155   4.312   5.181  0.2872 -0.4860  0.2103
 3172SOL     OW21148   4.471   1.429   1.896  0.5099 -0.2260  0.0255
 3172SOL    HW121149   4.417   1.415   1.973  0.8292  0.7190  0.4309
 3172SOL    HW221150   4.550   1.461   1.941 -0.4562  0.9133  0.9345
 3173SOL     OW21151   1.793   1.225   4.067  0.3385 -0.0354 -0.0333
 3173SOL    HW121152   1.753   1.279   4.135 -2.3337 -0.8363 -0.9474
 3173SOL    HW221153   1.736   1.148   4.071  0.8052 -0.4418 -1.0679
 3174SOL     OW21154   0.388   1.892   5.821  0.4563 -0.4606 -0.0072
 3174SOL    HW121155   0.325   1.837   5.867  1.0699 -0.2894  1.0556
 3174SOL    HW221156   0.406   1.836   5.745  1.4932  2.2436 -1.7445
 3175SOL     OW21157   2.366   3.026   5.148  0.0244 -0.3424  0.1973
 3175SOL    HW121158   2.462   3.032   5.141 -0.0900  2.6378  1.2775
 3175SOL    HW221159   2.328   3.113   5.136 -0.1837 -0.3208  0.9902
 3176SOL     OW21160   0.722   3.142   6.653  0.8597 -0.3338 -0.6165
 3176SOL    HW121161   0.658   3.171   6.588  0.2967  0.1624  0.1618
 3176SOL    HW221162   0.688   3.175   6.736  1.0449 -1.1339 -0.2266
 3177SOL     OW21163   3.499   2.783   8.369 -0.3955  0.2457  0.2240
 3177SOL    HW121164   3.461   2.696   8.383 -0.3619 -0.0238 -1.3931
 3177SOL    HW221165   3.572   2.764   8.311 -0.0076  0.0566  0.7733
 3178SOL     OW21166   2.766   0.003   9.724 -0.0318  0.1488 -0.0617
 3178SOL    HW121167   2.847   4.719   9.679 -0.1779 -0.8345  0.1928
 3178SOL    HW221168   2.746   0.087   9.683  3.2319  0.4798 -0.9162
 3179SOL     OW21169   3.877   4.461   7.289  0.5532  1.3462  0.4209
 3179SOL    HW121170   3.921   4.432   7.369 -1.0216  0.4469  0.9515
 3179SOL    HW221171   3.803   4.401   7.284  1.7813 -0.2091  0.8140
 3180SOL     OW21172   0.831   0.101   8.412  0.1755 -0.3813  0.2549
 3180SOL    HW121173   0.859   0.189   8.434  1.0543 -0.9509  1.4303
 3180SOL    HW221174   0.789   0.112   8.326  1.3303  2.7328  0.0997
 3181SOL     OW21175   2.152   2.370   3.805  0.1507 -0.4251  0.3168
 3181SOL    HW121176   2.197   2.332   3.730 -3.2145 -0.2106 -1.8245
 3181SOL    HW221177   2.137   2.294   3.861 -0.5985 -0.3809  0.1836
 3182SOL     OW21178   4.646   1.553   8.809 -0.0003  0.3758  0.3600
 3182SOL    HW121179   4.649   1.490   8.881 -1.3245  0.5657  0.5771
 3182SOL    HW221180   4.643   1.638   8.853 -1.3005 -0.0561  1.1175
 3183SOL     OW21181   3.849   0.293   1.036  0.1844  0.1320 -0.0014
 3183SOL    HW121182   3.845   0.217   1.094  0.0360  0.0731 -0.0883
 3183SOL    HW221183   3.786   0.274   0.966 -0.3958  2.5785 -0.1246
 3184SOL     OW21184   3.293   2.523  12.172 -0.0546 -0.7143 -0.1649
 3184SOL    HW121185   3.203   2.536  12.141  0.0339  1.7289  0.5584
 3184SOL    HW221186   3.338   2.601  12.138 -0.4985 -0.0363  0.8011
 3185SOL     OW21187   3.378   1.837   6.413  0.6065  0.1003  0.1052
 3185SOL    HW121188   3.321   1.770   6.451  0.1026  1.0477  1.0205
 3185SOL    HW221189   3.371   1.912   6.472  0.1121 -1.4521  2.0103
 3186SOL     OW21190   1.956   0.455   7.658 -0.1151  0.0165  0.5037
 3186SOL    HW121191   1.917   0.375   7.622  0.4753 -1.3016  2.8619
 3186SOL    HW221192   1.911   0.524   7.608 -0.3897 -0.1896  0.4668
 3187SOL     OW21193   1.171   2.582   4.774 -0.3575 -0.1006  0.1694
 3187SOL    HW121194   1.208   2.581   4.685  1.8527 -2.2021  1.1165
 3187SOL    HW221195   1.229   2.649   4.811  1.4168 -1.9503  0.7685
 3188SOL     OW21196   3.011   0.283   8.454 -0.1555  0.0867  0.7181
 3188SOL    HW121197   2.937   0.341   8.469  0.9971  1.9834 -0.9468
 3188SOL    HW221198   3.081   0.343   8.428 -0.8174 -0.0059 -1.1981
 3189SOL     OW21199   0.784   3.782  15.841 -0.3964 -0.3251 -0.1759
 3189SOL    HW121200   0.747   3.699  15.813  0.6120  0.2296 -3.1724
 3189SOL    HW221201   0.877   3.761  15.833 -0.1260  0.1445  1.6589
 3190SOL     OW21202   2.093   0.278   9.713 -0.1087 -0.0563  0.2475
 3190SOL    HW121203   2.119   0.304   9.801 -0.7952  0.0067  0.4250
 3190SOL    HW221204   2.172   0.300   9.663 -0.6036  1.9537  0.3792
 3191SOL     OW21205   4.102   4.536   2.381 -0.6739  0.1088  0.7383
 3191SOL    HW121206   4.128   4.453   2.422  0.6744 -0.1739 -0.7024
 3191SOL    HW221207   4.065   4.512   2.296  0.9908  0.1112  0.0228
 3192SOL     OW21208   1.133   2.931  16.016 -0.2172  0.3432 -0.2697
 3192SOL    HW121209   1.161   2.896  16.100  1.8984  2.0180 -0.3115
 3192SOL    HW221210   1.114   2.847  15.973  4.3206 -0.5497 -0.5186
 3193SOL     OW21211   1.907   2.826   2.795 -0.2516  0.8338  0.4322
 3193SOL    HW121212   1.891   2.896   2.732  1.1803  0.7943  0.0307
 3193SOL    HW221213   1.950   2.868   2.870  0.0597 -1.4737  1.5643
 3194SOL     OW21214   2.166   1.355   6.323  0.8006  0.7950 -0.0066
 3194SOL    HW121215   2.226   1.352   6.398  0.2639 -0.8980  0.3671
 3194SOL    HW221216   2.201   1.427   6.271 -1.9236  1.0284 -1.4619
 3195SOL     OW21217   1.711   4.238   6.164 -0.0883 -0.1040  0.3269
 3195SOL    HW121218   1.676   4.327   6.153  0.1950 -0.3511 -2.5835
 3195SOL    HW221219   1.730   4.209   6.075 -2.3317 -5.9086  1.7776
 3196SOL     OW21220   0.672   0.663   1.546  0.0687  0.1837 -0.3595
 3196SOL    HW121221   0.673   0.726   1.474  1.0732 -2.2862 -2.4960
 3196SOL    HW221222   0.592   0.612   1.530 -0.0162 -0.0602  0.8338
 3197SOL     OW21223   0.624   2.249   4.899 -0.2440 -0.2342 -0.1570
 3197SOL    HW121224   0.549   2.207   4.859  0.9036 -1.9193 -0.5489
 3197SOL    HW221225   0.699   2.207   4.857 -0.1919 -1.0624  0.7753
 3198SOL     OW21226   4.515   3.309   4.563  0.0808  0.1956 -0.4858
 3198SOL    HW121227   4.600   3.342   4.592  0.5505  2.1785 -4.2023
 3198SOL    HW221228   4.454   3.376   4.595 -0.1061 -0.3445  0.2893
 3199SOL     OW21229   1.198   3.160   2.576 -0.3355 -0.3261  0.2180
 3199SOL    HW121230   1.124   3.100   2.586 -1.2233  0.7512  0.0866
 3199SOL    HW221231   1.263   3.094   2.552 -1.0870 -1.1283  0.3725
 3200SOL     OW21232   2.058   0.334  11.097  0.2945  0.1343 -0.3478
 3200SOL    HW121233   2.110   0.327  11.016  3.3968  0.1969  1.6446
 3200SOL    HW221234   2.050   0.240  11.110 -0.9191  0.1524 -0.9743
 3201SOL     OW21235   1.439   0.329  14.136  0.6582 -0.4491 -0.2765
 3201SOL    HW121236   1.481   0.412  14.157 -0.1195  0.2126 -1.3264
 3201SOL    HW221237   1.494   0.303  14.063  3.0257  0.8458  1.0586
 3202SOL     OW21238   4.629   3.875   1.957 -0.8059  0.6790 -0.2120
 3202SOL    HW121239   4.696   3.926   2.002 -0.0268  0.7220 -1.4140
 3202SOL    HW221240   4.687   3.821   1.904  0.5501  2.1816 -0.2575
 3203SOL     OW21241   0.778   4.715  12.532 -0.1123 -0.3747  0.3472
 3203SOL    HW121242   0.781   4.626  12.567  0.4893 -0.3495  0.3565
 3203SOL    HW221243   0.761   4.705  12.438 -3.2000  1.6100  0.6719
 3204SOL     OW21244   2.022   0.677   2.979  0.3397  0.4402  0.6446
 3204SOL    HW121245   2.054   0.589   3.002  0.2191  0.5362  1.1831
 3204SOL    HW221246   1.931   0.669   3.005  0.9122 -0.5689  2.3292
 3205SOL     OW21247   1.368   3.894   3.990  0.4205 -0.2189  0.3520
 3205SOL    HW121248   1.361   3.800   3.972  0.1579  0.2729 -2.0480
 3205SOL    HW221249   1.288   3.930   3.953 -0.9665 -2.4348  1.2405
 3206SOL     OW21250   3.232   3.561   7.474  0.0906  0.2768  0.1275
 3206SOL    HW121251   3.323   3.548   7.451  0.9018  3.0473  1.7380
 3206SOL    HW221252   3.202   3.475   7.505 -0.5196  0.4098 -0.0781
 3207SOL     OW21253   0.497   0.687  15.087  0.0319 -0.0161  0.4039
 3207SOL    HW121254   0.431   0.618  15.077 -0.5949  0.4540  1.3167
 3207SOL    HW221255   0.530   0.704  14.999 -0.0842  1.2807  0.6061
 3208SOL     OW21256   1.348   3.361   1.616 -0.4822  0.0112  0.0498
 3208SOL    HW121257   1.313   3.447   1.593  1.2266  0.4377 -0.9217
 3208SOL    HW221258   1.361   3.318   1.531 -2.2157 -1.6452  0.6120
 3209SOL     OW21259   1.774   0.663   4.916 -0.2872  0.3176 -0.4709
 3209SOL    HW121260   1.790   0.588   4.973 -1.2707 -0.9588 -1.8927
 3209SOL    HW221261   1.847   0.718   4.944  0.7480 -0.9660 -0.6303
 3210SOL     OW21262   1.207   3.964  10.612  0.3055  0.2382 -0.1215
 3210SOL    HW121263   1.164   4.017  10.679 -0.5293 -0.5752 -0.0159
 3210SOL    HW221264   1.168   3.878  10.630  0.2451  1.0064  3.5181
 3211SOL     OW21265   3.541   2.719   6.515  0.0069  0.1801 -0.6143
 3211SOL    HW121266   3.488   2.700   6.437  1.3533 -1.8510 -1.0324
 3211SOL    HW221267   3.477   2.681   6.576 -0.3845 -1.3053 -1.9326
 3212SOL     OW21268   3.271   3.742   3.757  0.4004  0.2600 -0.1543
 3212SOL    HW121269   3.317   3.794   3.823 -0.2634 -0.2260  0.6868
 3212SOL    HW221270   3.191   3.791   3.740  0.1065 -0.0712  0.3002
 3213SOL     OW21271   4.202   0.646   4.868 -0.0746 -0.5498 -0.3065
 3213SOL    HW121272   4.278   0.658   4.925 -1.3753  0.0424  1.2737
 3213SOL    HW221273   4.146   0.719   4.893  0.4911 -1.3151  3.1231
 3214SOL     OW21274   1.102   1.313   8.975 -0.6825  0.1416  0.8144
 3214SOL    HW121275   1.038   1.254   9.015  1.0100 -2.0587  0.2721
 3214SOL    HW221276   1.187   1.272   8.992 -0.3778  0.4559  0.0700
 3215SOL     OW21277   2.496   1.790   9.327  0.2375 -0.0278  0.0914
 3215SOL    HW121278   2.404   1.806   9.345  0.1851 -1.6060  1.1642
 3215SOL    HW221279   2.529   1.878   9.343 -3.8880  1.3591  0.7876
 3216SOL     OW21280   2.285   2.978   3.509 -0.8190 -0.2809  0.1254
 3216SOL    HW121281   2.263   2.925   3.432  1.6844  1.3873 -1.7478
 3216SOL    HW221282   2.206   2.954   3.557 -1.2633 -1.3708 -1.1264
 3217SOL     OW21283   2.229   1.685   8.760  0.5873  0.1282  0.0352
 3217SOL    HW121284   2.237   1.770   8.802 -1.3778 -0.2404  1.1652
 3217SOL    HW221285   2.198   1.635   8.836  0.3234 -0.9659 -0.7935
 3218SOL     OW21286   1.992   3.363   6.494 -0.0747  0.7561 -0.1298
 3218SOL    HW121287   2.043   3.442   6.476 -0.7722  2.0833  3.6964
 3218SOL    HW221288   2.017   3.304   6.423 -1.1501 -1.9904  1.7468
 3219SOL     OW21289   2.811   3.878   3.671  0.4627  0.4752 -0.4281
 3219SOL    HW121290   2.802   3.816   3.598  1.2060 -1.3579  1.0401
 3219SOL    HW221291   2.718   3.894   3.689  0.7424  1.1216  0.4545
 3220SOL     OW21292   4.072   1.229   8.303 -0.1856  0.7975 -0.0541
 3220SOL    HW121293   4.094   1.215   8.211  0.9474  1.7866  0.0680
 3220SOL    HW221294   4.139   1.179   8.350  0.9007  2.5917  0.2934
 3221SOL     OW21295   1.343   4.087   8.615 -0.3076 -0.4543  0.2221
 3221SOL    HW121296   1.328   4.050   8.527 -0.4728 -2.0121  0.9012
 3221SOL    HW221297   1.409   4.034   8.658  0.8141 -0.1984 -1.1755
 3222SOL     OW21298   2.062   3.676   0.466  0.1960 -0.4068  0.2465
 3222SOL    HW121299   2.104   3.681   0.380 -1.8274  1.1317 -0.6400
 3222SOL    HW221300   2.079   3.584   0.487 -2.7113 -1.2120 -0.9675
 3223SOL     OW21301   3.239   1.038  16.007  0.0279  0.0887  0.4595
 3223SOL    HW121302   3.196   0.977  15.946  2.2067 -1.5205  0.5260
 3223SOL    HW221303   3.198   1.121  15.985 -1.8769 -0.6677  1.1456
 3224SOL     OW21304   3.154   2.276   1.919  0.4090  0.0757  0.6062
 3224SOL    HW121305   3.241   2.240   1.938  0.4666 -1.0491 -1.7714
 3224SOL    HW221306   3.141   2.238   1.832 -0.9296  0.8285  0.4783
 3225SOL     OW21307   1.563   2.372   4.910  0.3221  0.2479  0.5446
 3225SOL    HW121308   1.487   2.411   4.952  0.5570  2.1505 -0.7949
 3225SOL    HW221309   1.575   2.296   4.967  1.4917  0.2649  0.3293
 3226SOL     OW21310   1.501   3.308  10.590  0.3962 -0.5359  0.1810
 3226SOL    HW121311   1.596   3.307  10.574  0.8267 -1.3072  2.7322
 3226SOL    HW221312   1.505   3.374  10.658  1.6081 -1.5972  1.1484
 3227SOL     OW21313   0.353   0.911   9.563  0.4373  0.2179 -0.2695
 3227SOL    HW121314   0.278   0.938   9.616  0.1270 -1.7090  0.2865
 3227SOL    HW221315   0.421   0.977   9.579  0.0672  0.0962  1.8880
 3228SOL     OW21316   2.851   3.592   9.225 -0.3157 -0.0565 -0.7072
 3228SOL    HW121317   2.799   3.620   9.150 -0.2499 -0.4742 -0.9105
 3228SOL    HW221318   2.937   3.576   9.186  1.1665  1.0913  2.0866
 3229SOL     OW21319   4.043   1.563   6.497  0.0701 -0.4412 -0.1288
 3229SOL    HW121320   4.057   1.642   6.446 -1.4312 -0.3590 -0.4085
 3229SOL    HW221321   4.136   1.554   6.517  0.0518 -1.0869 -0.3249
 3230SOL     OW21322   3.966   1.892   1.820 -0.2108 -0.2870 -0.1153
 3230SOL    HW121323   3.953   1.814   1.766 -1.4866 -1.3024  1.6573
 3230SOL    HW221324   3.944   1.957   1.754 -0.8214 -0.2821  0.0932
 3231SOL     OW21325   3.562   4.063   7.807 -0.6507  0.5813  0.2059
 3231SOL    HW121326   3.492   4.117   7.770 -2.3370 -0.8527  1.3511
 3231SOL    HW221327   3.560   4.091   7.898  2.1355 -1.3017  0.8520
 3232SOL     OW21328   4.038   0.142   7.025 -0.3963  0.0824  0.1917
 3232SOL    HW121329   3.955   0.117   7.065  0.0711 -1.6038  0.1330
 3232SOL    HW221330   4.026   0.119   6.933 -1.4540  1.0524  0.0894
 3233SOL     OW21331   3.906   2.789  17.093  0.0377  0.3402 -0.4999
 3233SOL    HW121332   3.908   2.785  16.998  0.3425  0.9796 -0.5193
 3233SOL    HW221333   4.000   2.781  17.106 -0.2039 -1.2461  0.2422
 3234SOL     OW21334   4.137   1.190   6.479 -0.2954  0.2604 -0.3227
 3234SOL    HW121335   4.125   1.096   6.467 -1.1035  0.7303 -3.1273
 3234SOL    HW221336   4.200   1.205   6.409  1.0831 -2.9021  0.2168
 3235SOL     OW21337   1.094   0.979   3.788  0.0732  0.3643 -0.4292
 3235SOL    HW121338   1.015   1.007   3.834  1.4129  1.0126  1.4954
 3235SOL    HW221339   1.122   1.065   3.758 -0.5065  0.1245 -1.6636
 3236SOL     OW21340   2.670   3.487  15.549 -0.2790  0.6830  0.1838
 3236SOL    HW121341   2.730   3.424  15.510 -2.2880 -0.7542 -0.5878
 3236SOL    HW221342   2.597   3.426  15.563 -0.3054  0.4723 -0.8785
 3237SOL     OW21343   0.273   1.255   7.818  0.0823 -0.1629 -0.6812
 3237SOL    HW121344   0.309   1.235   7.731 -1.0739  1.7012 -1.5770
 3237SOL    HW221345   0.349   1.213   7.859  0.3589  2.3542  1.3767
 3238SOL     OW21346   4.076   1.733   4.417  0.3301  0.3672 -0.0255
 3238SOL    HW121347   4.106   1.779   4.496  0.7464  1.5219 -0.8641
 3238SOL    HW221348   4.012   1.799   4.391  0.4615  1.1926  1.7194
 3239SOL     OW21349   0.915   1.242  16.520  0.2235  0.3038 -0.1243
 3239SOL    HW121350   0.900   1.296  16.442  0.0691 -0.3683 -0.5646
 3239SOL    HW221351   0.828   1.218  16.553 -0.6755  3.4584 -0.1584
 3240SOL     OW21352   0.642   1.288   8.662  0.3581 -0.0697  0.2334
 3240SOL    HW121353   0.547   1.295   8.655  0.3860  0.7850  0.8054
 3240SOL    HW221354   0.661   1.361   8.720 -2.8273  0.1635  0.9901
 3241SOL     OW21355   1.875   3.469   5.864 -0.2863 -0.5801  0.3145
 3241SOL    HW121356   1.860   3.559   5.894  0.1063 -0.6607  0.7443
 3241SOL    HW221357   1.865   3.479   5.770  0.0641 -0.4499  0.2920
 3242SOL     OW21358   4.268   3.489   5.094  0.1170 -0.2938 -0.1326
 3242SOL    HW121359   4.174   3.507   5.094  0.4784  1.5848 -1.3320
 3242SOL    HW221360   4.264   3.396   5.117 -0.1548 -0.2762 -0.1054
 3243SOL     OW21361   4.312   0.180   7.971 -0.0743 -0.4546  0.1418
 3243SOL    HW121362   4.342   0.109   7.914 -0.2114 -1.2670  1.0648
 3243SOL    HW221363   4.221   0.161   7.950  0.7105 -2.3122 -1.5747
 3244SOL     OW21364   2.250   3.565  16.103  0.1227 -0.3687  0.5822
 3244SOL    HW121365   2.220   3.652  16.075 -0.8022 -1.2430 -1.1289
 3244SOL    HW221366   2.210   3.507  16.039  0.3633  0.3335 -0.2193
 3245SOL     OW21367   1.875   3.415   2.797 -0.3570 -0.2500 -0.2308
 3245SOL    HW121368   1.791   3.369   2.794 -0.4767 -0.0883  0.6907
 3245SOL    HW221369   1.933   3.349   2.758 -1.1884 -1.3589  0.4143
 3246SOL     OW21370   1.741   4.310   2.298  1.0336 -0.1779  0.2563
 3246SOL    HW121371   1.739   4.359   2.380  0.6816 -1.0166  0.7495
 3246SOL    HW221372   1.774   4.375   2.236  0.6402  0.6940  0.9532
 3247SOL     OW21373   1.984   4.368  13.205 -0.2419  0.5341 -0.0314
 3247SOL    HW121374   1.973   4.365  13.300  0.2748 -2.2222 -0.0623
 3247SOL    HW221375   2.064   4.418  13.185 -0.4614  1.1660  0.6845
 3248SOL     OW21376   0.383   0.994   4.955 -0.3746 -0.0013 -0.0466
 3248SOL    HW121377   0.458   0.950   4.914 -1.6103 -1.3421 -0.8939
 3248SOL    HW221378   0.418   1.083   4.947  1.2549 -0.5551  0.9092
 3249SOL     OW21379   2.335   3.958   0.286 -0.0402 -0.0225  0.5519
 3249SOL    HW121380   2.270   4.016   0.246  1.4509  1.7978  0.8067
 3249SOL    HW221381   2.406   4.022   0.280  2.4439 -2.6316  2.1846
 3250SOL     OW21382   2.299   0.322   1.598  0.1278 -0.0636 -0.0591
 3250SOL    HW121383   2.228   0.259   1.610  0.2657 -0.1831  0.1243
 3250SOL    HW221384   2.373   0.264   1.580  0.0925 -0.0994 -0.0906
 3251SOL     OW21385   4.248   3.522   9.218  0.2548  0.4081  0.1717
 3251SOL    HW121386   4.186   3.450   9.208 -1.7756  2.2456 -0.5488
 3251SOL    HW221387   4.331   3.475   9.210  0.9896  1.7541 -0.1672
 3252SOL     OW21388   4.551   0.383   3.782  0.4007 -0.4884  0.1088
 3252SOL    HW121389   4.546   0.327   3.705 -0.5142 -3.1358  2.1062
 3252SOL    HW221390   4.625   0.347   3.832  1.0707  0.4349 -0.2131
 3253SOL     OW21391   1.588   2.963   6.835 -0.1960 -0.8325  0.0600
 3253SOL    HW121392   1.547   3.046   6.811 -0.6693 -0.9363  0.4940
 3253SOL    HW221393   1.676   2.991   6.813 -0.2064  0.2461  1.3542
 3254SOL     OW21394   3.111   3.531   9.117 -0.7046 -0.1964 -0.4749
 3254SOL    HW121395   3.189   3.577   9.147 -0.5728  0.2800 -1.5100
 3254SOL    HW221396   3.111   3.563   9.026  0.9469  1.3395  0.0687
 3255SOL     OW21397   0.637   1.291  10.209  0.6356 -0.3171 -0.2212
 3255SOL    HW121398   0.730   1.314  10.212  0.5536  0.1973 -1.4113
 3255SOL    HW221399   0.611   1.325  10.294 -0.7860 -1.1683 -0.3272
 3256SOL     OW21400   1.331   3.411   3.939  0.1230  0.2565 -0.3878
 3256SOL    HW121401   1.261   3.355   3.906  0.9829 -1.0614 -0.0132
 3256SOL    HW221402   1.402   3.347   3.930  0.3213  0.5391 -0.8135
 3257SOL     OW21403   3.083   2.298   4.907 -0.3582  0.5093  0.4847
 3257SOL    HW121404   3.121   2.381   4.877 -1.8327  0.6828 -0.8976
 3257SOL    HW221405   2.996   2.301   4.868 -1.1468  0.7341  2.2455
 3258SOL     OW21406   2.050   1.970   1.693  0.4374 -0.4499  0.0837
 3258SOL    HW121407   2.097   1.908   1.637 -0.7972 -0.1219 -1.3353
 3258SOL    HW221408   1.959   1.941   1.699 -0.5914  2.3793 -1.9932
 3259SOL     OW21409   4.004   2.475  15.189  0.2161  0.5184  0.2935
 3259SOL    HW121410   4.094   2.455  15.213 -0.0392 -1.8352 -0.7526
 3259SOL    HW221411   3.969   2.386  15.193 -1.5495  1.1379 -1.4134
 3260SOL     OW21412   1.971   0.413   3.963 -0.0704  0.8083  0.4186
 3260SOL    HW121413   1.996   0.336   4.016  0.7186  1.6143  1.2111
 3260SOL    HW221414   2.011   0.478   4.021 -0.7572  0.0339  1.7775
 3261SOL     OW21415   2.169   0.473   2.600 -0.0886 -0.2166  0.1173
 3261SOL    HW121416   2.105   0.411   2.633 -0.4151  0.9080  1.5971
 3261SOL    HW221417   2.128   0.558   2.619 -0.8901 -0.1504 -1.8786
 3262SOL     OW21418   1.696   1.374   5.166 -0.3026  0.4566  0.6168
 3262SOL    HW121419   1.747   1.407   5.240 -1.8046  1.1520  1.3401
 3262SOL    HW221420   1.762   1.373   5.097 -1.0655  1.3305 -0.1206
 3263SOL     OW21421   0.722   0.877   8.704 -0.1638 -0.0751  0.2358
 3263SOL    HW121422   0.652   0.884   8.640 -0.3481  1.8376  0.6444
 3263SOL    HW221423   0.803   0.855   8.657 -0.8865 -0.1415 -0.9648
 3264SOL     OW21424   2.126   1.348   3.352 -0.1076  0.2110  0.0487
 3264SOL    HW121425   2.220   1.346   3.332  0.2973  0.5347  1.9264
 3264SOL    HW221426   2.114   1.443   3.350  0.0251  0.2149 -1.0856
 3265SOL     OW21427   4.086   3.013  15.144 -0.1222  0.3375 -0.4937
 3265SOL    HW121428   3.992   3.009  15.160 -0.0256 -0.9801 -0.2263
 3265SOL    HW221429   4.097   2.944  15.078  0.4995 -0.9122  0.9175
 3266SOL     OW21430   2.037   3.203   0.130 -0.4013 -0.5761  0.0264
 3266SOL    HW121431   2.092   3.177   0.203 -1.2870 -0.7490  0.6213
 3266SOL    HW221432   1.976   3.266   0.169  1.0682  0.8598 -0.0067
 3267SOL     OW21433   4.407   2.237  17.572  0.1818  0.1631 -0.1030
 3267SOL    HW121434   4.319   2.272  17.565 -0.3788 -1.4151 -0.9799
 3267SOL    HW221435   4.436   2.239  17.481  0.0276  1.4020 -0.1233
 3268SOL     OW21436   1.181   1.134  15.037 -0.3006 -0.2158 -0.1963
 3268SOL    HW121437   1.223   1.055  15.003 -0.7939 -0.1707 -0.9199
 3268SOL    HW221438   1.247   1.202  15.024  1.0000 -1.0812  1.9288
 3269SOL     OW21439   0.362   1.963  10.629  0.0626  0.2834 -0.8225
 3269SOL    HW121440   0.373   1.882  10.580 -0.5460 -0.2821 -0.0259
 3269SOL    HW221441   0.272   1.957  10.660 -0.1968  1.8943 -1.2316
 3270SOL     OW21442   3.344   2.769  14.789  0.7872  0.2750  0.1374
 3270SOL    HW121443   3.334   2.858  14.824 -1.2418 -0.1879  0.7063
 3270SOL    HW221444   3.353   2.783  14.695  0.0666  0.7106  0.1332
 3271SOL     OW21445   0.238   1.966   6.123  0.2492  0.0155 -0.0976
 3271SOL    HW121446   0.277   1.962   6.210 -1.9199  1.3356  0.9424
 3271SOL    HW221447   0.179   1.892   6.139 -1.5104  1.2823 -0.6058
 3272SOL     OW21448   4.415   2.230   2.626 -0.1523 -0.2874  0.0099
 3272SOL    HW121449   4.353   2.195   2.562 -1.4022  0.5335  0.7473
 3272SOL    HW221450   4.356   2.280   2.683  1.7406  0.5374  1.2340
 3273SOL     OW21451   2.529   3.756   4.363  0.5376 -0.5156  0.1121
 3273SOL    HW121452   2.588   3.680   4.361 -0.2233 -1.0685 -0.9510
 3273SOL    HW221453   2.527   3.771   4.269 -1.8991 -0.4154  0.1795
 3274SOL     OW21454   0.589   2.807   4.065  0.0367 -0.0051 -0.6958
 3274SOL    HW121455   0.578   2.887   4.015 -1.4488 -0.4539 -1.1036
 3274SOL    HW221456   0.586   2.740   3.996  1.0774 -0.4550 -0.3086
 3275SOL     OW21457   2.296   4.724  17.062  0.0892  0.6875  0.4871
 3275SOL    HW121458   2.336   4.653  17.112  0.1128  1.1227  1.0953
 3275SOL    HW221459   2.374   0.021  17.019 -0.5069  1.5928  0.1552
 3276SOL     OW21460   4.112   1.217   1.418  1.1364  0.6173 -0.3576
 3276SOL    HW121461   4.144   1.130   1.394  2.5944  0.9305  0.4966
 3276SOL    HW221462   4.172   1.240   1.488  1.5980 -1.6079 -0.0317
 3277SOL     OW21463   1.274   1.759   4.440 -0.6465 -0.0274 -0.1782
 3277SOL    HW121464   1.290   1.679   4.491 -0.3377 -0.8060 -1.4931
 3277SOL    HW221465   1.230   1.814   4.505  0.3809  0.1239  0.3846
 3278SOL     OW21466   4.717   2.028   0.175  0.8909  0.3177  0.0990
 3278SOL    HW121467   4.706   1.939   0.210  2.2491  0.0949 -0.0458
 3278SOL    HW221468   4.650   2.026   0.106 -0.9234 -2.1755  1.9130
 3279SOL     OW21469   4.566   4.667   7.489 -0.1380  0.0151  0.7060
 3279SOL    HW121470   4.588   4.647   7.580 -1.5113  0.3466  1.1028
 3279SOL    HW221471   4.581   4.576   7.461 -1.1936  0.0307  0.0815
 3280SOL     OW21472   1.862   2.259   3.341  0.3234 -0.5636 -0.0884
 3280SOL    HW121473   1.859   2.352   3.364 -2.3566 -0.6750  0.0556
 3280SOL    HW221474   1.891   2.266   3.250 -3.6218  2.5392 -1.1241
 3281SOL     OW21475   2.524   2.499  15.170  0.1972  0.4997 -0.3918
 3281SOL    HW121476   2.580   2.576  15.176 -2.9201  2.7877 -0.5952
 3281SOL    HW221477   2.490   2.488  15.259  1.0918 -0.6416 -0.1816
 3282SOL     OW21478   2.593   1.186   1.416  0.0186 -0.0620 -0.0649
 3282SOL    HW121479   2.554   1.123   1.355 -0.4040  1.3026 -1.1941
 3282SOL    HW221480   2.681   1.195   1.380 -0.3079 -0.6071 -0.9923
 3283SOL     OW21481   3.862   4.114   3.371  0.1714 -0.6841 -0.3161
 3283SOL    HW121482   3.785   4.170   3.360 -0.4815 -1.2422  1.3572
 3283SOL    HW221483   3.812   4.035   3.392  0.4665 -1.2435 -1.7282
 3284SOL     OW21484   2.947   3.726   2.975 -0.7227  0.0384 -0.2729
 3284SOL    HW121485   2.907   3.740   2.890 -0.7700  0.2435 -0.2159
 3284SOL    HW221486   3.038   3.709   2.948 -0.1186  0.8671  1.2178
 3285SOL     OW21487   4.528   1.521   2.959  0.0984  0.5528  0.0149
 3285SOL    HW121488   4.459   1.475   2.910  1.2381  0.2810 -1.3410
 3285SOL    HW221489   4.590   1.449   2.969 -0.4283 -0.2909 -2.7851
 3286SOL     OW21490   1.514   3.237   6.983 -0.1872  0.2025  0.3347
 3286SOL    HW121491   1.497   3.228   6.889 -1.8737  2.3452  0.4347
 3286SOL    HW221492   1.426   3.217   7.016 -1.1921  0.6565 -2.0389
 3287SOL     OW21493   0.580   0.811   3.841  0.0340 -0.0466 -0.1669
 3287SOL    HW121494   0.507   0.750   3.838 -0.6575  0.7933 -0.3934
 3287SOL    HW221495   0.534   0.879   3.891 -0.1526 -1.2126  1.2510
 3288SOL     OW21496   3.425   1.657   5.573 -0.1279  0.1481  0.8037
 3288SOL    HW121497   3.416   1.733   5.515  0.3774 -1.0114 -0.7787
 3288SOL    HW221498   3.519   1.665   5.588 -0.4678 -2.2308  3.9600
 3289SOL     OW21499   1.039   3.212   5.857  0.1370 -0.3953 -0.1510
 3289SOL    HW121500   0.964   3.173   5.902  2.0516 -0.9503  2.5357
 3289SOL    HW221501   1.018   3.197   5.765 -2.4686  0.2274  0.3352
 3290SOL     OW21502   3.322   1.696   3.894  0.0527  0.2584  0.4630
 3290SOL    HW121503   3.340   1.653   3.977  1.1463 -2.1561 -1.0228
 3290SOL    HW221504   3.406   1.736   3.873 -0.4923  0.2644 -1.7420
 3291SOL     OW21505   3.355   2.798  15.129  0.2899  0.1463 -0.6394
 3291SOL    HW121506   3.270   2.768  15.160 -0.5558  1.0820 -2.0700
 3291SOL    HW221507   3.329   2.818  15.039 -0.4537  2.2494  0.0425
 3292SOL     OW21508   3.069   3.922   4.176 -0.0667 -0.0692  0.1084
 3292SOL    HW121509   3.039   3.866   4.104  1.5061 -0.6224 -0.1087
 3292SOL    HW221510   3.036   4.004   4.139  0.1458  0.1066  0.3107
 3293SOL     OW21511   0.001   1.024   7.528  0.5344  0.0611 -0.2986
 3293SOL    HW121512   4.687   1.103   7.523  0.1814 -0.0376  2.0119
 3293SOL    HW221513   0.066   1.036   7.458  0.6339 -1.6294 -0.5153
 3294SOL     OW21514   2.856   1.948  17.529 -0.1471  0.0634 -0.0596
 3294SOL    HW121515   2.916   1.948  17.604  1.9830  1.3426 -1.7466
 3294SOL    HW221516   2.831   2.040  17.533 -0.8704 -0.1597  0.4372
 3295SOL     OW21517   3.023   3.787  17.394  0.2369 -0.3524  0.1008
 3295SOL    HW121518   2.929   3.805  17.395  0.7981  2.4994  0.9310
 3295SOL    HW221519   3.032   3.758  17.485 -1.9965  3.9181  1.6800
 3296SOL     OW21520   1.768   0.428  11.134  0.2501  0.4858 -0.1947
 3296SOL    HW121521   1.858   0.397  11.122 -0.0221 -1.0155  1.6565
 3296SOL    HW221522   1.744   0.382  11.214  2.4763  0.5062  0.4959
 3297SOL     OW21523   1.428   0.659   5.261 -0.1600 -0.2132 -0.6733
 3297SOL    HW121524   1.412   0.614   5.344 -1.9536  1.0559 -0.3268
 3297SOL    HW221525   1.434   0.750   5.291 -1.8632 -1.0588  2.3378
 3298SOL     OW21526   4.305   3.113  10.683  0.3726  0.3282 -0.4799
 3298SOL    HW121527   4.280   3.113  10.775 -0.1280  1.7166 -0.6180
 3298SOL    HW221528   4.314   3.019  10.670 -1.2949  0.0257  0.6380
 3299SOL     OW21529   3.591   0.335   5.636  0.9303  0.1372 -0.2372
 3299SOL    HW121530   3.666   0.277   5.625 -1.8321 -3.4072 -0.4556
 3299SOL    HW221531   3.549   0.298   5.714  2.4229  0.9787  0.9637
 3300SOL     OW21532   2.800   2.240   4.565 -0.1374  0.1768 -0.2585
 3300SOL    HW121533   2.737   2.309   4.545 -1.0744 -0.3212  0.9385
 3300SOL    HW221534   2.857   2.254   4.490  0.6318 -0.1122  0.2816
 3301SOL     OW21535   0.029   4.042   5.041  0.1136  0.2287 -0.3181
 3301SOL    HW121536   0.033   3.946   5.045 -3.2018  0.2169  2.5594
 3301SOL    HW221537   0.065   4.070   5.125  0.4930  3.2971 -1.5057
 3302SOL     OW21538   2.738   3.210   4.442  0.1218 -0.2408 -0.2009
 3302SOL    HW121539   2.829   3.230   4.463  0.3866 -1.0473 -0.5536
 3302SOL    HW221540   2.732   3.227   4.348 -2.7483 -0.1604 -0.0180
 3303SOL     OW21541   3.382   4.627  10.616  0.0736  0.3714  0.5172
 3303SOL    HW121542   3.313   4.689  10.638 -0.0382  0.4557 -0.0725
 3303SOL    HW221543   3.409   4.665  10.533 -0.5726  0.1624  0.2127
 3304SOL     OW21544   2.629   3.553   1.758 -0.0387  0.2118  0.2272
 3304SOL    HW121545   2.543   3.530   1.722 -0.0366 -0.4342  0.6338
 3304SOL    HW221546   2.643   3.480   1.818 -2.0433  0.1518  0.6295
 3305SOL     OW21547   3.409   3.592   9.212 -0.4364  0.2225  0.0153
 3305SOL    HW121548   3.473   3.610   9.144 -0.0558 -1.9835 -0.2098
 3305SOL    HW221549   3.416   3.652   9.286 -0.2749  2.4553 -1.8179
 3306SOL     OW21550   4.523   2.663   5.198  0.2038 -0.2338  0.0744
 3306SOL    HW121551   4.549   2.576   5.167 -2.1553 -0.4783 -1.2202
 3306SOL    HW221552   4.613   2.696   5.199  1.4285 -3.6826  0.7926
 3307SOL     OW21553   1.297   1.207   5.854  0.3483  0.1775 -0.6056
 3307SOL    HW121554   1.214   1.251   5.871  0.5703  0.7746 -1.0861
 3307SOL    HW221555   1.341   1.282   5.814 -0.3830 -0.2234 -2.1593
 3308SOL     OW21556   2.969   0.382   7.828  0.0579  0.0330  0.2870
 3308SOL    HW121557   2.978   0.372   7.923 -1.5859  0.2879  0.4677
 3308SOL    HW221558   3.056   0.414   7.804  0.5722 -0.3021  1.7394
 3309SOL     OW21559   1.573   3.423   2.020  0.6491 -0.2519  0.0482
 3309SOL    HW121560   1.624   3.383   1.949  0.8140  3.6440 -2.0461
 3309SOL    HW221561   1.532   3.493   1.968 -0.3338  0.4524  1.7518
 3310SOL     OW21562   4.724   1.121   8.355 -0.0444 -0.5764 -0.2477
 3310SOL    HW121563   4.722   1.090   8.446  1.0914  1.5272  0.5029
 3310SOL    HW221564   0.031   1.205   8.366 -0.6062 -0.1329 -1.3220
 3311SOL     OW21565   2.339   1.207   7.041 -0.1616  0.9681  0.2860
 3311SOL    HW121566   2.285   1.175   6.969  1.6337  2.5525 -1.7415
 3311SOL    HW221567   2.364   1.293   7.010 -1.3390  0.6948 -1.4001
 3312SOL     OW21568   2.685   3.179   2.277 -0.2238 -0.3390  0.5844
 3312SOL    HW121569   2.638   3.251   2.318 -0.0445  2.3155 -3.8941
 3312SOL    HW221570   2.632   3.158   2.200  1.2517  0.6794 -0.7147
 3313SOL     OW21571   0.250   1.923   5.197  0.1617  0.2286 -0.5321
 3313SOL    HW121572   0.250   1.991   5.130  1.0474  1.0894  0.3556
 3313SOL    HW221573   0.325   1.875   5.161  0.5993 -1.0460  2.0651
 3314SOL     OW21574   1.871   0.770  10.873 -0.3912  0.0062 -0.0652
 3314SOL    HW121575   1.825   0.813  10.801  0.6553 -1.0377 -1.3584
 3314SOL    HW221576   1.814   0.695  10.889 -1.7321  0.5953 -2.0619
 3315SOL     OW21577   1.459   4.298   7.644 -0.3732  0.1067 -0.3897
 3315SOL    HW121578   1.442   4.244   7.566 -1.7469 -1.7780  1.2256
 3315SOL    HW221579   1.397   4.367   7.619 -0.5810  0.9592  2.5806
 3316SOL     OW21580   1.720   4.580  11.039  0.2095  0.1572 -0.2962
 3316SOL    HW121581   1.741   4.671  11.019  0.8667  0.5282  2.1034
 3316SOL    HW221582   1.750   4.546  10.955 -0.7955 -2.6568  0.4720
 3317SOL     OW21583   1.950   1.939   6.601 -0.4113  0.3825  0.6144
 3317SOL    HW121584   1.861   1.946   6.633 -0.0554 -0.2574  1.7393
 3317SOL    HW221585   1.970   1.847   6.617 -0.1637  0.1556 -0.9699
 3318SOL     OW21586   0.144   3.442  13.548  0.3521 -0.6299 -0.0020
 3318SOL    HW121587   0.070   3.399  13.505  2.3777 -1.5217 -2.5870
 3318SOL    HW221588   0.177   3.491  13.473  1.1260  0.1450  0.8340
 3319SOL     OW21589   1.607   0.303   2.436 -0.0408 -0.4781  0.8479
 3319SOL    HW121590   1.648   0.337   2.357 -1.1590  0.7452  0.7913
 3319SOL    HW221591   1.517   0.279   2.413  0.0756 -0.8632  0.7936
 3320SOL     OW21592   2.129   1.441   2.168 -0.0205 -0.4208  0.1350
 3320SOL    HW121593   2.089   1.369   2.217 -1.2590 -0.1375 -0.4663
 3320SOL    HW221594   2.205   1.394   2.134 -0.0571 -0.1893 -0.2569
 3321SOL     OW21595   1.277   1.316   4.969 -0.1597 -0.1306  0.0714
 3321SOL    HW121596   1.198   1.340   4.921  1.1516  0.4546 -1.7858
 3321SOL    HW221597   1.325   1.265   4.904 -0.7534  1.1572 -1.3661
 3322SOL     OW21598   4.382   3.335   2.282  0.3200  0.1801  0.0433
 3322SOL    HW121599   4.291   3.336   2.250  0.9621  1.7445 -1.7927
 3322SOL    HW221600   4.419   3.389   2.211  1.0005 -1.9452 -1.2073
 3323SOL     OW21601   0.112   0.870  11.264 -0.0766 -0.7987 -0.1710
 3323SOL    HW121602   0.119   0.776  11.251 -0.1021 -0.9042  0.5657
 3323SOL    HW221603   0.180   0.893  11.201 -0.7946  0.9107 -0.3338
 3324SOL     OW21604   1.747   0.059   5.873  0.5696  0.6280 -0.1760
 3324SOL    HW121605   1.725   0.065   5.966  2.0538 -0.3658  0.2437
 3324SOL    HW221606   1.770   4.705   5.865  1.2955  0.9132 -1.5350
 3325SOL     OW21607   3.176   3.768   0.312 -0.6084  0.0242  0.0665
 3325SOL    HW121608   3.254   3.711   0.312 -0.0749  0.7608  0.4104
 3325SOL    HW221609   3.110   3.706   0.343  0.2455 -1.3045 -0.7411
 3326SOL     OW21610   1.459   2.699  17.701  0.5978  0.6601 -0.0317
 3326SOL    HW121611   1.365   2.715  17.700  0.6867  1.0594 -2.8413
 3326SOL    HW221612   1.477   2.684   0.040  2.7611 -1.5965 -0.8041
 3327SOL     OW21613   0.782   2.563   2.219  0.1865 -0.1879 -0.1517
 3327SOL    HW121614   0.729   2.596   2.292  3.0034  1.9818  0.9611
 3327SOL    HW221615   0.721   2.501   2.179  0.7745 -0.3466 -0.7968
 3328SOL     OW21616   4.684   2.656   3.741  0.1802 -0.1724 -0.2255
 3328SOL    HW121617   4.648   2.695   3.821 -0.7593 -3.2124  0.8361
 3328SOL    HW221618   4.695   2.567   3.774 -1.5016 -0.8325 -1.4582
 3329SOL     OW21619   2.795   3.194   7.992 -0.0732 -0.3204 -0.5590
 3329SOL    HW121620   2.797   3.289   8.006 -0.8927 -0.5745  1.1934
 3329SOL    HW221621   2.733   3.190   7.919 -0.4182  0.7844 -0.3254
 3330SOL     OW21622   1.854   0.692  14.022 -0.5252 -0.2606 -1.0400
 3330SOL    HW121623   1.887   0.780  14.040 -0.8186 -0.1404 -1.0891
 3330SOL    HW221624   1.841   0.666  14.113  2.7416 -0.3324 -0.5878
 3331SOL     OW21625   1.345   0.715   7.171 -0.2479 -0.2060  0.1814
 3331SOL    HW121626   1.283   0.655   7.213  0.5636 -0.4495  1.0316
 3331SOL    HW221627   1.303   0.728   7.086  0.3473  2.3561  0.2568
 3332SOL     OW21628   2.890   2.933   7.336  0.4694  0.5564  0.0197
 3332SOL    HW121629   2.900   2.999   7.268  1.7195  1.0311  0.6571
 3332SOL    HW221630   2.953   2.963   7.403  1.1271  0.4797 -0.5684
 3333SOL     OW21631   4.578   1.039   0.847 -0.1293 -0.4323  0.3776
 3333SOL    HW121632   4.495   1.087   0.840  1.4348  2.5172  1.8598
 3333SOL    HW221633   4.587   1.050   0.942  0.0982  3.1006 -0.0390
 3334SOL     OW21634   3.389   4.388  11.228 -0.1530  0.6869 -0.6571
 3334SOL    HW121635   3.455   4.399  11.160 -0.0908 -2.2867 -1.0753
 3334SOL    HW221636   3.319   4.446  11.197  0.0943  0.6833 -1.2150
 3335SOL     OW21637   3.355   3.731   5.263 -0.0622 -0.4022  0.3651
 3335SOL    HW121638   3.353   3.825   5.282 -0.6830  0.2036 -2.7376
 3335SOL    HW221639   3.411   3.730   5.185 -0.7752 -0.4673 -0.1452
 3336SOL     OW21640   2.303   2.526   0.958 -0.0263  0.0749  0.4267
 3336SOL    HW121641   2.315   2.587   0.886  0.5239 -0.6819 -0.1331
 3336SOL    HW221642   2.295   2.443   0.909  1.9973  0.3912 -0.4564
 3337SOL     OW21643   2.535   2.495   1.094 -0.6330 -0.4785  0.0922
 3337SOL    HW121644   2.508   2.427   1.157 -0.4527 -0.3972  0.2576
 3337SOL    HW221645   2.455   2.504   1.043 -0.9652 -1.7113  0.3742
 3338SOL     OW21646   4.700   1.228   0.610  0.7587  0.1842 -0.1563
 3338SOL    HW121647   4.705   1.312   0.656  0.8168  0.0759  0.0363
 3338SOL    HW221648   4.662   1.258   0.528 -0.2564  1.1926  0.6947
 3339SOL     OW21649   2.158   3.114   4.387  0.1885  0.2492 -0.0440
 3339SOL    HW121650   2.176   3.127   4.294 -0.5314  0.6825 -0.1257
 3339SOL    HW221651   2.247   3.102   4.418  0.4287 -0.0786 -0.8557
 3340SOL     OW21652   2.853   1.242  16.714  0.0619  0.2807  0.6303
 3340SOL    HW121653   2.801   1.293  16.776  0.3231  0.8551  0.3703
 3340SOL    HW221654   2.830   1.157  16.753  0.1962 -0.2003 -0.3359
 3341SOL     OW21655   2.551   2.166   1.810  0.5659  0.5495  0.1427
 3341SOL    HW121656   2.526   2.203   1.895  1.5934  0.1709  0.6146
 3341SOL    HW221657   2.513   2.079   1.818  0.0484  0.6676 -1.1087
 3342SOL     OW21658   4.055   0.192  14.553 -0.3278 -0.2315  0.2319
 3342SOL    HW121659   4.109   0.264  14.587  1.6976 -1.5447 -0.2224
 3342SOL    HW221660   4.064   0.202  14.458  1.2383  0.4644  0.4467
 3343SOL     OW21661   3.598   0.924   4.913  0.1450 -0.2146 -0.2930
 3343SOL    HW121662   3.510   0.935   4.878  0.8866  2.0916 -1.4331
 3343SOL    HW221663   3.619   1.017   4.907 -2.1086  0.1321 -3.0644
 3344SOL     OW21664   1.397   3.744   2.762 -0.7009  0.7531 -0.3419
 3344SOL    HW121665   1.420   3.825   2.807  1.5612 -0.3166  0.4026
 3344SOL    HW221666   1.439   3.675   2.813 -2.1544 -2.0811 -2.9915
 3345SOL     OW21667   1.619   0.270   5.309 -0.5457 -0.1916 -0.2216
 3345SOL    HW121668   1.591   0.286   5.218  1.5349 -1.8123 -1.1479
 3345SOL    HW221669   1.577   0.335   5.365  0.7496  0.8760 -0.4841
 3346SOL     OW21670   4.466   0.690  12.443 -0.1252 -0.1301  0.2375
 3346SOL    HW121671   4.508   0.772  12.467 -1.1124  1.2553 -2.7298
 3346SOL    HW221672   4.409   0.726  12.375 -1.2518  1.0764  1.8339
 3347SOL     OW21673   4.585   2.214   2.854  0.3784 -0.7086  0.0024
 3347SOL    HW121674   4.538   2.156   2.794 -0.4100 -0.9893  0.8973
 3347SOL    HW221675   4.520   2.284   2.857  1.4573  0.2469  1.1905
 3348SOL     OW21676   2.669   0.448   2.232  0.5571  0.5352 -0.5087
 3348SOL    HW121677   2.705   0.512   2.293  0.7798  0.2345 -0.3294
 3348SOL    HW221678   2.673   0.496   2.149 -0.5241  0.0505 -0.8524
 3349SOL     OW21679   0.031   0.023   7.890 -0.3855 -0.0082 -0.1569
 3349SOL    HW121680   0.007   0.110   7.857 -0.6616 -0.2826 -0.6733
 3349SOL    HW221681   0.060   0.046   7.978 -0.2245 -0.9680  0.0453
 3350SOL     OW21682   3.212   3.072   9.714  0.3316 -0.9842 -0.2007
 3350SOL    HW121683   3.165   3.011   9.658  0.2297 -1.0854 -0.0050
 3350SOL    HW221684   3.242   3.019   9.788 -1.1316 -0.0859  1.0598
 3351SOL     OW21685   3.814   0.543   5.398  0.5594  0.5944  0.3460
 3351SOL    HW121686   3.862   0.471   5.356 -0.9238  0.0164 -0.3710
 3351SOL    HW221687   3.729   0.508   5.372  0.4618  0.6680  0.5721
 3352SOL     OW21688   2.857   2.279   7.362 -0.1423 -0.3933  0.1469
 3352SOL    HW121689   2.851   2.248   7.271  4.3226 -0.0361 -0.2545
 3352SOL    HW221690   2.782   2.338   7.357  0.6836  0.7190  0.8660
 3353SOL     OW21691   3.572   1.389   5.305 -0.4266  0.3158  0.4318
 3353SOL    HW121692   3.588   1.399   5.399  2.6530 -0.8281  0.0112
 3353SOL    HW221693   3.494   1.445   5.305 -0.8930 -0.3285  2.1149
 3354SOL     OW21694   3.756   3.750  16.804 -0.0267  0.2118 -0.4260
 3354SOL    HW121695   3.797   3.784  16.884  0.1563 -1.0158  0.0114
 3354SOL    HW221696   3.793   3.813  16.744 -1.6853  1.4498 -0.1450
 3355SOL     OW21697   1.578   4.319   6.639 -0.1982  0.2818 -0.2642
 3355SOL    HW121698   1.542   4.398   6.598 -0.3029 -0.0044 -0.7280
 3355SOL    HW221699   1.497   4.275   6.664  1.0015 -1.9718 -0.3784
 3356SOL     OW21700   0.254   2.842   7.884 -0.0317 -0.6311 -0.5182
 3356SOL    HW121701   0.308   2.764   7.873 -0.0627 -0.9790  1.9762
 3356SOL    HW221702   0.173   2.816   7.840 -0.0316 -1.7148  0.1178
 3357SOL     OW21703   4.494   1.663  10.711  0.2494 -0.3186  0.4573
 3357SOL    HW121704   4.582   1.634  10.732 -0.3837 -1.1682  1.9654
 3357SOL    HW221705   4.451   1.580  10.733 -1.1122  0.3694  0.4040
 3358SOL     OW21706   0.157   0.624   9.053 -0.3385 -0.1516 -0.2962
 3358SOL    HW121707   0.180   0.716   9.038 -0.6192 -0.2191 -1.1251
 3358SOL    HW221708   0.240   0.583   9.077 -0.3051 -0.2444 -0.5765
 3359SOL     OW21709   0.695   3.917   6.114  0.0741  0.5043  0.0641
 3359SOL    HW121710   0.771   3.947   6.163 -0.7820  1.3686  0.8773
 3359SOL    HW221711   0.642   3.997   6.121 -0.3092  0.2307  0.3200
 3360SOL     OW21712   2.756   3.923   8.713 -0.3085  0.2661  0.3269
 3360SOL    HW121713   2.808   3.948   8.790  1.0458  2.1564 -1.1874
 3360SOL    HW221714   2.687   3.870   8.752  0.9698 -1.7345 -0.1729
 3361SOL     OW21715   2.700   1.718   4.999  0.2001 -0.1847  0.1996
 3361SOL    HW121716   2.688   1.643   5.058  2.5944  0.1046  1.0647
 3361SOL    HW221717   2.715   1.682   4.911  0.8038 -3.4458  1.6370
 3362SOL     OW21718   3.482   0.498   7.514 -0.3034 -0.0397 -0.0702
 3362SOL    HW121719   3.464   0.573   7.570  0.8298 -0.0542  0.3155
 3362SOL    HW221720   3.573   0.479   7.537 -0.9641 -0.4443  2.2325
 3363SOL     OW21721   0.033   2.988   3.693 -0.0021  0.1084 -0.0520
 3363SOL    HW121722   4.728   2.907   3.719  1.4961 -1.2510 -1.7019
 3363SOL    HW221723   4.710   3.011   3.624 -1.0609  2.7561  1.8058
 3364SOL     OW21724   1.779   4.349   9.345  0.3264  0.7194  0.0874
 3364SOL    HW121725   1.821   4.266   9.323  1.0400  0.1054  3.7960
 3364SOL    HW221726   1.706   4.341   9.284  0.5438  1.1427 -0.2262
 3365SOL     OW21727   1.902   0.670   4.115  0.2476  0.3042 -0.1837
 3365SOL    HW121728   1.861   0.659   4.029 -0.8687  0.4821  0.3200
 3365SOL    HW221729   1.844   0.724   4.169  0.7590  2.2245 -1.5750
 3366SOL     OW21730   1.662   1.085   7.915 -0.3589 -0.1219  0.5195
 3366SOL    HW121731   1.572   1.084   7.882  0.2066  0.0384 -1.0341
 3366SOL    HW221732   1.706   1.146   7.857 -0.4839 -0.4383  0.0856
 3367SOL     OW21733   3.376   3.281  14.774  0.1387 -0.3335 -0.2804
 3367SOL    HW121734   3.410   3.325  14.696 -0.7070 -0.5825 -0.7802
 3367SOL    HW221735   3.310   3.346  14.795 -1.0778 -1.7097  0.1440
 3368SOL     OW21736   1.042   1.631   1.404 -0.0826 -0.0156  0.4762
 3368SOL    HW121737   1.049   1.725   1.387 -2.3076  0.3042  1.3862
 3368SOL    HW221738   0.981   1.608   1.334  1.0236 -0.0309 -0.4859
 3369SOL     OW21739   2.615   4.043   1.066  0.1218 -0.7774 -0.1476
 3369SOL    HW121740   2.550   3.976   1.090  0.2248 -0.1774  1.7705
 3369SOL    HW221741   2.697   3.995   1.071  1.0662  0.8027 -0.5073
 3370SOL     OW21742   0.327   3.306   4.217 -0.1633 -0.2444 -0.0290
 3370SOL    HW121743   0.280   3.223   4.229  0.7022 -0.8740 -1.0411
 3370SOL    HW221744   0.254   3.367   4.208  1.7513  2.0507  0.3566
 3371SOL     OW21745   3.650   4.651  12.523 -0.4359  0.0606 -0.1412
 3371SOL    HW121746   3.738   4.686  12.506  0.8775 -2.6705  0.9342
 3371SOL    HW221747   3.641   4.681  12.613 -0.6540 -1.1525  0.2480
 3372SOL     OW21748   2.833   0.037   7.661 -0.2453 -0.3337 -0.2454
 3372SOL    HW121749   2.780   4.707   7.701 -2.0573  2.0952  1.6147
 3372SOL    HW221750   2.769   0.094   7.618 -0.8278 -0.7176  0.1166
 3373SOL     OW21751   0.607   2.867   6.475 -0.3161 -0.6639 -0.0277
 3373SOL    HW121752   0.513   2.876   6.459 -0.1357  3.3146  1.0848
 3373SOL    HW221753   0.631   2.786   6.432  0.6388  0.0801 -0.8944
 3374SOL     OW21754   4.361   2.668   2.000 -0.2575  0.1078 -0.6247
 3374SOL    HW121755   4.371   2.753   2.043 -0.7849 -1.5249  2.7381
 3374SOL    HW221756   4.441   2.672   1.949  0.7787 -1.5916  0.8489
 3375SOL     OW21757   0.187   1.716   1.980  0.5474  0.5790  1.2644
 3375SOL    HW121758   0.141   1.739   1.899  3.5033  0.2469 -0.4923
 3375SOL    HW221759   0.249   1.651   1.946  0.4133 -0.1314  2.3861
 3376SOL     OW21760   1.508   3.422   3.438  0.0974 -0.1034 -0.5831
 3376SOL    HW121761   1.470   3.334   3.429  0.7660 -0.4957  0.4573
 3376SOL    HW221762   1.556   3.432   3.356  0.8823  0.9237  0.0054
 3377SOL     OW21763   2.179   2.552   1.200 -0.0318  0.0388  0.2512
 3377SOL    HW121764   2.222   2.558   1.115 -0.4382  1.4442  0.1617
 3377SOL    HW221765   2.214   2.628   1.246 -0.2219 -1.1027  2.2833
 3378SOL     OW21766   2.029   1.731  13.794  0.1126 -0.0021 -0.2967
 3378SOL    HW121767   2.043   1.799  13.728 -1.4472 -0.3646 -0.9975
 3378SOL    HW221768   2.113   1.737  13.840 -1.0586 -0.6003  1.9431
 3379SOL     OW21769   1.807   2.745   4.782  0.2528 -0.4529 -0.1873
 3379SOL    HW121770   1.887   2.744   4.835 -1.6964  1.1430  2.7924
 3379SOL    HW221771   1.775   2.835   4.788  1.6942  0.1890 -2.0750
 3380SOL     OW21772   1.504   2.095   1.448 -0.1432 -0.0207  0.1605
 3380SOL    HW121773   1.469   2.138   1.370  3.1578  1.8257 -0.3008
 3380SOL    HW221774   1.432   2.036   1.469 -0.3004  0.2119  0.2763
 3381SOL     OW21775   2.586   4.380   2.751 -0.1433 -0.9369 -0.3162
 3381SOL    HW121776   2.509   4.435   2.762  0.9393  0.8433 -1.8415
 3381SOL    HW221777   2.567   4.303   2.806  2.1282 -0.0575  1.6780
 3382SOL     OW21778   0.118   3.781   6.112  0.2927  0.0171  0.1075
 3382SOL    HW121779   0.188   3.838   6.079 -1.8874  0.6441 -3.4528
 3382SOL    HW221780   0.171   3.719   6.163  0.7202 -0.3143 -0.7188
 3383SOL     OW21781   3.307   3.978   2.745  0.2643 -0.6589  0.5270
 3383SOL    HW121782   3.287   3.886   2.764 -1.6174  0.2103  2.8018
 3383SOL    HW221783   3.384   3.967   2.799 -0.2594 -1.0901  1.1911
 3384SOL     OW21784   1.185   3.302  10.947  0.0265 -0.1591  0.0090
 3384SOL    HW121785   1.253   3.235  10.933  1.1320  0.8171  0.6633
 3384SOL    HW221786   1.188   3.327  11.039  0.7927  0.4042 -0.1665
 3385SOL     OW21787   1.930   0.452   3.216 -0.1028  0.1095 -0.3363
 3385SOL    HW121788   1.962   0.517   3.279 -1.0841  0.3216 -0.0525
 3385SOL    HW221789   2.009   0.428   3.167  1.1483  3.3346  0.0797
 3386SOL     OW21790   4.105   4.458   1.364  0.4610 -0.6053  0.8492
 3386SOL    HW121791   4.035   4.511   1.327  1.7378 -1.3176 -2.5938
 3386SOL    HW221792   4.077   4.368   1.346 -0.8308  0.5886 -3.0048
 3387SOL     OW21793   1.481   0.434   8.927 -0.1148  0.2896  0.0530
 3387SOL    HW121794   1.442   0.361   8.975  1.0052  0.7750  1.7038
 3387SOL    HW221795   1.566   0.396   8.905  1.1536  1.2440  3.3993
 3388SOL     OW21796   0.459   1.542   4.409 -0.3204  0.2192 -0.7465
 3388SOL    HW121797   0.542   1.510   4.375  0.2179  1.7569 -0.8847
 3388SOL    HW221798   0.489   1.633   4.407  0.8196 -0.1608 -0.2870
 3389SOL     OW21799   2.589   4.291   9.699 -0.4787  0.3753  0.4498
 3389SOL    HW121800   2.580   4.358   9.631 -0.7397 -0.0376  0.0816
 3389SOL    HW221801   2.626   4.342   9.772  1.7825  0.4943 -0.8126
 3390SOL     OW21802   1.313   1.769  11.995  0.3979  0.7378  0.1941
 3390SOL    HW121803   1.225   1.803  12.006  0.4688  0.4042  1.7571
 3390SOL    HW221804   1.300   1.676  12.014  1.9544 -0.0003 -2.2638
 3391SOL     OW21805   2.117   2.402  16.565 -0.1848  0.4019 -0.2434
 3391SOL    HW121806   2.210   2.384  16.553 -0.0921  0.0748  0.9547
 3391SOL    HW221807   2.115   2.443  16.652  0.7606 -0.7546  0.3177
 3392SOL     OW21808   3.356   0.011   5.170 -0.2833 -0.7059  0.1414
 3392SOL    HW121809   3.377   4.687   5.101  0.0078  1.6541 -1.9001
 3392SOL    HW221810   3.263   4.737   5.186 -0.7451  3.0814  0.3859
 3393SOL     OW21811   1.867   3.224   2.084  0.2963 -0.1043  0.8428
 3393SOL    HW121812   1.828   3.200   2.000  0.9780 -1.5552  0.9281
 3393SOL    HW221813   1.953   3.187   2.063  0.6399  0.3831  1.4123
 3394SOL     OW21814   4.118   4.059   2.814  0.4184  0.0388  0.0427
 3394SOL    HW121815   4.114   3.972   2.853 -2.1505  0.0900 -0.0951
 3394SOL    HW221816   4.191   4.038   2.755  0.4111  0.3894 -0.0912
 3395SOL     OW21817   2.743   0.646   6.969  0.2149 -0.0819  0.1641
 3395SOL    HW121818   2.714   0.712   7.032 -3.1794 -1.8271  0.4388
 3395SOL    HW221819   2.717   0.568   7.018  2.8549 -2.5267 -2.3037
 3396SOL     OW21820   2.460   3.515   9.045  0.3709  0.2588 -0.1122
 3396SOL    HW121821   2.420   3.535   8.961 -1.9944  2.6265  1.5847
 3396SOL    HW221822   2.541   3.471   9.020  1.2448  0.6065  2.0618
 3397SOL     OW21823   4.670   3.016   4.555  0.1448 -0.7010 -0.5595
 3397SOL    HW121824   4.643   2.993   4.644 -1.4017 -0.1088 -0.8763
 3397SOL    HW221825   4.644   3.108   4.560  1.7344 -0.3619  1.4483
 3398SOL     OW21826   0.382   2.236   6.122  0.6090 -0.3275  0.0529
 3398SOL    HW121827   0.304   2.208   6.170  1.2452 -0.1069  1.2320
 3398SOL    HW221828   0.346   2.269   6.040  0.2527  1.7858  1.0452
 3399SOL     OW21829   3.839   1.332   3.229 -0.1712 -0.3369 -0.1406
 3399SOL    HW121830   3.752   1.371   3.242 -0.9146 -2.0279 -0.0297
 3399SOL    HW221831   3.844   1.360   3.138 -1.0108  1.8919  0.5038
 3400SOL     OW21832   3.247   1.014   7.175  0.0332 -0.1380  0.0645
 3400SOL    HW121833   3.174   1.025   7.235  0.4187 -1.7656  0.8202
 3400SOL    HW221834   3.207   1.051   7.097  0.3804  0.1600  0.0260
 3401SOL     OW21835   0.256   2.840   2.713  0.2608  0.1821  0.2182
 3401SOL    HW121836   0.312   2.830   2.636  1.8503  0.5449  1.3144
 3401SOL    HW221837   0.280   2.757   2.753  0.6924  0.9253  1.5354
 3402SOL     OW21838   3.990   2.706   2.800 -0.1756  0.2646 -0.2439
 3402SOL    HW121839   3.939   2.754   2.735 -0.2600  0.5509  0.0352
 3402SOL    HW221840   3.938   2.626   2.810  1.0515 -0.2438  2.2219
 3403SOL     OW21841   2.653   3.702   1.187  0.4040  0.6531 -0.0073
 3403SOL    HW121842   2.698   3.696   1.271  0.5880 -2.8834 -0.3867
 3403SOL    HW221843   2.572   3.654   1.201  0.4400  0.3060 -1.0196
 3404SOL     OW21844   4.485   3.478  10.076 -0.3926 -0.6209 -0.2999
 3404SOL    HW121845   4.580   3.483  10.075 -0.3749 -0.8919  0.1547
 3404SOL    HW221846   4.453   3.565  10.101  1.4488  0.1149 -0.5191
 3405SOL     OW21847   0.680   2.801  15.742 -0.0790 -0.3891 -0.0822
 3405SOL    HW121848   0.678   2.729  15.805 -3.3702  1.0102  1.4681
 3405SOL    HW221849   0.617   2.774  15.676  0.0990 -0.9971  0.0013
 3406SOL     OW21850   4.721   1.012   1.689  0.2444 -0.1267 -0.3895
 3406SOL    HW121851   0.021   0.943   1.742  0.4553  0.3181  0.0302
 3406SOL    HW221852   4.638   0.980   1.654  0.0800 -0.8112  0.6082
 3407SOL     OW21853   2.120   0.479   6.023  0.4396  0.2318  0.0365
 3407SOL    HW121854   2.051   0.414   6.009  0.6274  0.3942 -1.6545
 3407SOL    HW221855   2.176   0.458   5.949  1.9591 -0.5488  1.4022
 3408SOL     OW21856   0.270   3.772   6.427  0.5476  0.4013  0.6025
 3408SOL    HW121857   0.251   3.787   6.520 -0.4626 -0.3061  0.5206
 3408SOL    HW221858   0.360   3.795   6.407 -0.1738  0.9336 -2.1041
 3409SOL     OW21859   3.529   1.280   8.966  0.0643 -0.0655 -0.2000
 3409SOL    HW121860   3.515   1.330   9.047  0.5333 -1.3540  0.6637
 3409SOL    HW221861   3.488   1.340   8.904 -3.2960 -1.7929  0.3613
 3410SOL     OW21862   0.023   4.292   9.332  0.4737  0.6770 -0.0878
 3410SOL    HW121863   4.670   4.287   9.359  0.4038 -4.0892 -1.1670
 3410SOL    HW221864   0.057   4.225   9.391  2.3064  3.7440  2.3465
 3411SOL     OW21865   1.498   2.459   6.441 -0.2704  0.1221 -0.4523
 3411SOL    HW121866   1.439   2.385   6.424 -0.2715  0.1137 -0.4127
 3411SOL    HW221867   1.580   2.427   6.404  0.3914  2.2653 -0.7985
 3412SOL     OW21868   1.631   2.772   4.055  0.3156  0.3961 -0.6572
 3412SOL    HW121869   1.550   2.728   4.080  1.1769 -0.2005  1.1229
 3412SOL    HW221870   1.665   2.791   4.143  2.5374 -1.7480 -1.0367
 3413SOL     OW21871   0.059   0.712   4.342  0.4771 -0.1169  0.2107
 3413SOL    HW121872   4.736   0.641   4.325  1.7846 -1.1453 -0.2115
 3413SOL    HW221873   0.091   0.737   4.255 -1.3868 -0.2496 -0.5217
 3414SOL     OW21874   1.283   4.623   1.547 -0.3904  0.6518 -0.6385
 3414SOL    HW121875   1.277   4.552   1.484 -2.1456 -0.8300  1.1802
 3414SOL    HW221876   1.244   4.695   1.497  0.8447  1.2451 -0.7516
 3415SOL     OW21877   4.196   3.148  16.409  0.3107  0.1164  0.0300
 3415SOL    HW121878   4.144   3.086  16.359  2.3149 -1.9079  0.4187
 3415SOL    HW221879   4.201   3.218  16.344 -0.8999 -1.6287 -1.9551
 3416SOL     OW21880   4.394   2.840   2.589  0.4181 -0.4825 -0.2469
 3416SOL    HW121881   4.356   2.808   2.508 -1.5967  1.4755 -0.0718
 3416SOL    HW221882   4.328   2.811   2.651  0.4452 -1.4875 -0.6891
 3417SOL     OW21883   2.943   2.718   1.201  0.5474  0.6845 -0.4689
 3417SOL    HW121884   2.950   2.643   1.142 -1.7758 -0.2341  0.4078
 3417SOL    HW221885   2.847   2.726   1.197  0.4108  1.0352  3.5128
 3418SOL     OW21886   4.718   3.977  15.964 -0.5042  0.0044 -0.0597
 3418SOL    HW121887   0.014   4.011  16.046  0.0884 -1.4909  0.3076
 3418SOL    HW221888   0.060   3.978  15.913  0.5193 -2.1915  1.5000
 3419SOL     OW21889   3.577   2.893   5.349  0.2396 -0.0435  0.2963
 3419SOL    HW121890   3.569   2.973   5.401 -3.4342  0.4647 -1.0777
 3419SOL    HW221891   3.591   2.942   5.269  1.1800 -2.7255 -1.1825
 3420SOL     OW21892   3.859   2.016   3.643 -0.7280  0.3196 -0.4393
 3420SOL    HW121893   3.896   1.984   3.726  0.1714  1.7761 -0.2880
 3420SOL    HW221894   3.851   2.110   3.659  1.2138  0.0488  2.0546
 3421SOL     OW21895   0.823   2.737  11.925 -0.2993 -0.0756  0.4522
 3421SOL    HW121896   0.766   2.661  11.931 -1.7234  1.0483  1.0257
 3421SOL    HW221897   0.767   2.812  11.945  0.9400  1.9801 -3.8161
 3422SOL     OW21898   1.209   3.067  12.475 -0.2068  0.3103 -0.2466
 3422SOL    HW121899   1.220   3.151  12.430 -0.3175  0.4078 -0.0912
 3422SOL    HW221900   1.268   3.086  12.547 -1.2185 -0.5708  0.8167
 3423SOL     OW21901   3.289   1.443   8.808  0.4982  0.2389  0.1739
 3423SOL    HW121902   3.246   1.360   8.829  0.3854 -0.6105 -3.5667
 3423SOL    HW221903   3.256   1.443   8.718 -1.3202 -0.2690  0.8383
 3424SOL     OW21904   4.623   1.517   0.614  0.2349 -0.2333  0.0101
 3424SOL    HW121905   4.544   1.565   0.588  0.6580 -0.4457 -1.6345
 3424SOL    HW221906   4.625   1.541   0.707  0.8957 -2.1307  0.4846
 3425SOL     OW21907   0.146   0.614   4.077 -0.2262  0.4386 -0.3158
 3425SOL    HW121908   0.184   0.550   4.016 -1.5642 -0.3297 -0.3463
 3425SOL    HW221909   0.101   0.675   4.017 -0.6356 -0.3528 -0.8111
 3426SOL     OW21910   1.612   2.241   7.154  0.1642  0.2686 -0.3185
 3426SOL    HW121911   1.574   2.328   7.142 -0.9252 -0.2486 -0.6291
 3426SOL    HW221912   1.704   2.261   7.142  0.7184 -0.8190  2.0217
 3427SOL     OW21913   2.425   2.256   0.550  0.0551  0.2717  0.0917
 3427SOL    HW121914   2.338   2.279   0.517 -0.5785 -0.2228  1.3978
 3427SOL    HW221915   2.403   2.173   0.593  0.5149  0.8025  1.3519
 3428SOL     OW21916   1.042   2.772   5.790 -0.0311 -0.4573 -0.0926
 3428SOL    HW121917   0.963   2.816   5.760 -1.2179 -0.3736  3.1502
 3428SOL    HW221918   1.003   2.714   5.856 -1.4731 -0.3851 -0.8864
 3429SOL     OW21919   1.385   1.604   8.391 -0.0381 -0.3202 -0.4218
 3429SOL    HW121920   1.360   1.695   8.374  0.0543  0.0691  1.5496
 3429SOL    HW221921   1.454   1.594   8.326 -0.4246  2.8661 -1.3323
 3430SOL     OW21922   2.497   4.274   4.438  0.0848 -0.1812 -0.4745
 3430SOL    HW121923   2.455   4.306   4.518 -0.9024 -0.8571 -0.7230
 3430SOL    HW221924   2.426   4.263   4.375 -1.4729  0.3547  1.1603
 3431SOL     OW21925   2.791   2.076   2.664  0.2857  0.0335  0.5351
 3431SOL    HW121926   2.707   2.038   2.639  1.4296 -1.7368 -0.6589
 3431SOL    HW221927   2.764   2.108   2.750  1.5854  1.4476  0.4238
 3432SOL     OW21928   0.900   1.031  12.714  0.5191 -0.3289 -0.0826
 3432SOL    HW121929   0.919   1.034  12.621  0.5511  1.1215 -0.0356
 3432SOL    HW221930   0.943   0.948  12.736 -1.5497 -1.1681  0.7982
 3433SOL     OW21931   0.007   4.337   2.026  0.0873 -0.3209  0.0218
 3433SOL    HW121932   4.653   4.360   2.024 -0.0535 -0.5946  3.4544
 3433SOL    HW221933   0.030   4.355   1.935  1.0876 -0.8951  0.1556
 3434SOL     OW21934   0.403   4.715   5.692 -0.0962 -0.0650 -0.3806
 3434SOL    HW121935   0.358   4.631   5.701 -0.4978  0.2819  0.9668
 3434SOL    HW221936   0.336   0.041   5.715 -0.9475 -0.7720 -0.8735
 3435SOL     OW21937   3.537   0.065   4.691 -0.5304 -0.3155 -0.3533
 3435SOL    HW121938   3.540   0.015   4.773 -3.9064 -0.4743 -0.3347
 3435SOL    HW221939   3.628   0.062   4.662  0.5131  0.2063  2.8739
 3436SOL     OW21940   1.375   1.283   4.117 -0.4048 -0.3099 -0.3931
 3436SOL    HW121941   1.432   1.304   4.043 -0.6022  0.1493 -0.4166
 3436SOL    HW221942   1.309   1.352   4.106  0.2918  0.4217 -0.0397
 3437SOL     OW21943   1.616   0.547   7.153 -0.2103 -0.5403  0.0995
 3437SOL    HW121944   1.631   0.472   7.210 -0.8314 -0.4598  0.3674
 3437SOL    HW221945   1.522   0.564   7.162  0.0401  1.9819 -2.0903
 3438SOL     OW21946   2.491   0.528   2.949  0.2431 -0.3867 -0.0093
 3438SOL    HW121947   2.437   0.510   3.025 -1.1697 -2.0919 -1.4218
 3438SOL    HW221948   2.470   0.452   2.894  0.6271 -1.2198  1.0009
 3439SOL     OW21949   4.556   2.131   8.762  0.1656  0.3433  0.0883
 3439SOL    HW121950   4.633   2.188   8.753 -1.1843  2.3852  1.3341
 3439SOL    HW221951   4.590   2.055   8.809  0.6272  0.0604 -0.7001
 3440SOL     OW21952   2.067   0.637  12.321 -1.0075 -0.6291 -0.7418
 3440SOL    HW121953   1.994   0.632  12.382 -0.0813  2.5779  0.6517
 3440SOL    HW221954   2.074   0.731  12.304 -2.7298  0.0594  2.4704
 3441SOL     OW21955   2.498   2.665  13.487 -0.3413 -0.3290 -0.8614
 3441SOL    HW121956   2.484   2.703  13.401  0.3565 -0.1300 -0.8854
 3441SOL    HW221957   2.407   2.640  13.504  0.7333 -3.2363  0.4841
 3442SOL     OW21958   4.026   4.238   8.935 -0.3397  0.5109 -0.4630
 3442SOL    HW121959   3.957   4.179   8.904  0.9335 -1.7307  1.0140
 3442SOL    HW221960   3.978   4.280   9.006 -1.8089  0.1903 -1.2568
 3443SOL     OW21961   1.723   2.928   1.158 -0.1358  0.3505 -0.0199
 3443SOL    HW121962   1.647   2.875   1.181 -0.6166  0.8223 -0.4896
 3443SOL    HW221963   1.779   2.867   1.111  1.0500  1.7802 -0.4622
 3444SOL     OW21964   2.440   4.692   8.105  0.3629 -0.1368 -0.7046
 3444SOL    HW121965   2.482   4.620   8.152 -0.5573 -0.0564  0.2502
 3444SOL    HW221966   2.355   4.691   8.148 -0.3358 -0.7065 -2.1366
 3445SOL     OW21967   1.882   0.372  14.756  0.5298  0.6468  0.7004
 3445SOL    HW121968   1.878   0.299  14.818  0.5323  0.7542  0.8264
 3445SOL    HW221969   1.922   0.331  14.679  0.0583  1.8441 -0.1839
 3446SOL     OW21970   3.603   2.603   5.866 -0.2945  0.0586  0.2700
 3446SOL    HW121971   3.678   2.608   5.806 -0.3863 -1.0448  0.0691
 3446SOL    HW221972   3.599   2.510   5.888 -0.4622 -0.2307 -0.9661
 3447SOL     OW21973   1.970   0.059   3.514 -0.2636  0.1658  0.3041
 3447SOL    HW121974   1.893   0.033   3.565 -0.2674 -2.0465 -0.8293
 3447SOL    HW221975   1.963   0.154   3.504 -1.2803 -0.0233 -0.8398
 3448SOL     OW21976   0.406   3.908   4.877  0.4804  0.1397 -0.0483
 3448SOL    HW121977   0.443   3.925   4.790 -0.7239  0.6794 -0.4507
 3448SOL    HW221978   0.425   3.979   4.938 -3.3570  0.1437  1.1373
 3449SOL     OW21979   2.349   0.145   6.844 -0.0616 -1.0949  0.0615
 3449SOL    HW121980   2.337   0.167   6.937 -0.9623 -1.0978 -0.0523
 3449SOL    HW221981   2.437   0.176   6.823 -1.4253  2.0652 -1.0128
 3450SOL     OW21982   4.167   3.553  17.046 -0.1547  0.0051  0.0922
 3450SOL    HW121983   4.252   3.550  17.002 -0.7247  0.0006 -1.0310
 3450SOL    HW221984   4.176   3.468  17.088 -0.4306  0.9235  1.9727
 3451SOL     OW21985   1.076   0.831   5.574 -0.0990  0.6259 -0.5435
 3451SOL    HW121986   0.991   0.850   5.614 -0.1895  0.6688 -0.7594
 3451SOL    HW221987   1.045   0.765   5.512  2.5192 -1.2208  0.1014
 3452SOL     OW21988   1.519   0.049  10.768 -0.2640 -0.2901 -0.2968
 3452SOL    HW121989   1.560   0.104  10.701  0.4695 -1.8383 -1.1251
 3452SOL    HW221990   1.526   0.109  10.842  1.9226  0.2362 -0.9135
 3453SOL     OW21991   3.262   3.334   9.793 -0.1956 -0.3156  0.2354
 3453SOL    HW121992   3.242   3.241   9.784 -0.0271 -0.3342  0.0636
 3453SOL    HW221993   3.175   3.372   9.780 -0.7963 -1.5376  0.6555
 3454SOL     OW21994   4.039   1.865   8.720  0.0664 -0.0266  0.1856
 3454SOL    HW121995   4.047   1.770   8.727  2.1760  0.1454  0.1864
 3454SOL    HW221996   3.949   1.882   8.692  0.6434 -0.2772 -1.8395
 3455SOL     OW21997   2.446   4.093   6.884  0.0503  0.4656 -0.2465
 3455SOL    HW121998   2.518   4.148   6.913  0.4086  0.8557 -1.8689
 3455SOL    HW221999   2.454   4.113   6.790 -2.1909  2.0021 -0.1079
 3456SOL     OW22000   0.397   3.893   0.779  0.6754  0.3977 -0.8317
 3456SOL    HW122001   0.492   3.883   0.787  0.5339 -1.2332 -1.0355
 3456SOL    HW222002   0.372   3.821   0.838 -0.4529 -1.6380 -3.7564
 3457SOL     OW22003   4.368   1.268   6.300 -0.7424 -0.3716 -0.1881
 3457SOL    HW122004   4.323   1.209   6.239 -0.6501 -1.9665  1.2604
 3457SOL    HW222005   4.323   1.351   6.288  0.9816  0.5970  0.0681
 3458SOL     OW22006   4.681   3.616  14.900  0.5275 -0.0928 -0.0505
 3458SOL    HW122007   4.667   3.666  14.820  0.4391 -1.7267 -1.0687
 3458SOL    HW222008   4.630   3.671  14.959 -0.6678 -1.7536  0.4445
 3459SOL     OW22009   4.477   2.221  17.321  0.6438 -0.1245 -0.0246
 3459SOL    HW122010   4.483   2.184  17.233  0.4251 -2.1004  0.7909
 3459SOL    HW222011   4.440   2.304  17.293  1.3365 -0.5769 -2.2924
 3460SOL     OW22012   0.591   0.940   8.457  0.4705  0.3758 -0.2094
 3460SOL    HW122013   0.660   0.995   8.421  0.0325  1.3259  0.3902
 3460SOL    HW222014   0.519   0.996   8.429 -1.6112 -2.2866 -0.1191
 3461SOL     OW22015   4.308   4.088  14.648 -0.7581 -0.3226 -0.4888
 3461SOL    HW122016   4.256   4.009  14.633 -2.8667  0.7238  1.2368
 3461SOL    HW222017   4.396   4.057  14.668 -1.0887 -1.4853 -0.8355
 3462SOL     OW22018   2.739   2.818   6.993 -0.3681 -0.6481 -0.3221
 3462SOL    HW122019   2.706   2.866   7.069  1.5045 -0.5763  0.4628
 3462SOL    HW222020   2.663   2.768   6.965 -0.6376 -0.4461  0.0528
 3463SOL     OW22021   0.294   3.267   2.730 -0.8914 -0.0034  0.2535
 3463SOL    HW122022   0.239   3.194   2.703  0.6779 -1.1513  0.1359
 3463SOL    HW222023   0.316   3.240   2.819  0.5047 -0.0969 -0.1204
 3464SOL     OW22024   1.004   0.290   2.187 -0.3258  0.0652  0.0510
 3464SOL    HW122025   0.946   0.358   2.153  0.3089  0.7814  0.3834
 3464SOL    HW222026   0.945   0.216   2.199  1.3414 -1.4362 -0.8701
 3465SOL     OW22027   4.256   0.514   5.857  0.7216  0.0805 -0.2998
 3465SOL    HW122028   4.239   0.580   5.790  1.3258  1.0991  0.5623
 3465SOL    HW222029   4.208   0.440   5.820  1.0257 -0.4148  0.2979
 3466SOL     OW22030   1.073   3.426  11.307  0.3100 -0.0225  0.0763
 3466SOL    HW122031   1.031   3.466  11.382 -0.3917  0.8101 -0.7581
 3466SOL    HW222032   1.053   3.493  11.241 -1.5352 -2.3027 -1.7133
 3467SOL     OW22033   3.346   0.310   7.388  0.5312  0.1177 -0.1309
 3467SOL    HW122034   3.414   0.371   7.416 -0.0989  1.5493 -1.6757
 3467SOL    HW222035   3.308   0.294   7.475  1.7924  0.6977  0.5169
 3468SOL     OW22036   2.575   0.760   0.375 -0.1267  0.3514  0.3332
 3468SOL    HW122037   2.494   0.777   0.327  0.2190  0.2878 -0.2802
 3468SOL    HW222038   2.579   0.826   0.445  0.6893 -0.0766  0.6925
 3469SOL     OW22039   2.100   0.162   4.020  0.0648 -0.2928  0.5309
 3469SOL    HW122040   2.178   0.199   3.980 -0.4662 -0.5047 -0.7029
 3469SOL    HW222041   2.101   0.075   3.981  0.1419 -1.6183  3.4841
 3470SOL     OW22042   1.898   2.823   5.998 -0.0822 -0.3102 -0.2757
 3470SOL    HW122043   1.974   2.815   6.056  0.4910  0.6112 -0.8957
 3470SOL    HW222044   1.917   2.756   5.932  1.1553 -1.0422  0.8277
 3471SOL     OW22045   3.066   0.984   2.277 -0.0032  0.3326 -0.1362
 3471SOL    HW122046   3.003   1.034   2.328 -1.3387 -1.8542  0.3544
 3471SOL    HW222047   3.105   1.054   2.224  0.5875  0.2331  0.1753
 3472SOL     OW22048   1.764   1.271   1.905 -0.0395 -0.0322 -0.3003
 3472SOL    HW122049   1.851   1.279   1.866  0.6030  0.4858  1.2430
 3472SOL    HW222050   1.743   1.179   1.891 -0.0011 -0.1979  0.7105
 3473SOL     OW22051   1.814   4.546   5.650  0.2504  0.5593 -0.1315
 3473SOL    HW122052   1.805   4.498   5.568  0.5633 -1.1992  0.8759
 3473SOL    HW222053   1.907   4.569   5.646  0.1129  1.3085  0.8874
 3474SOL     OW22054   1.741   3.362   0.040 -0.1207  0.5115 -0.1518
 3474SOL    HW122055   1.755   3.445  17.747  1.9249  1.6456  2.5285
 3474SOL    HW222056   1.772   3.377   0.129 -1.7539  1.8188  0.2079
 3475SOL     OW22057   2.570   1.466  10.620  0.0143  0.1082 -0.2235
 3475SOL    HW122058   2.660   1.436  10.627  0.4308  0.7617 -2.8508
 3475SOL    HW222059   2.532   1.386  10.657  1.3647 -1.1251 -1.5507
 3476SOL     OW22060   0.468   3.284   1.975  0.0211 -0.0204 -0.4670
 3476SOL    HW122061   0.512   3.330   2.046  1.0524 -1.4005 -0.2039
 3476SOL    HW222062   0.378   3.288   2.007  0.4287 -1.4728  0.8756
 3477SOL     OW22063   3.750   0.404   6.378 -0.3026  0.8347 -0.2086
 3477SOL    HW122064   3.733   0.333   6.317  0.6020  1.7130 -1.4725
 3477SOL    HW222065   3.661   0.441   6.378 -1.3236 -1.5985 -0.8903
 3478SOL     OW22066   0.168   0.050  14.312 -0.5796 -0.0696  0.2427
 3478SOL    HW122067   0.159   0.024  14.404  0.8166  0.1465  0.4483
 3478SOL    HW222068   0.196   0.141  14.315  1.7131 -0.6851 -2.0843
 3479SOL     OW22069   2.084   4.584   7.299 -0.0974 -0.3469  0.0753
 3479SOL    HW122070   2.015   4.535   7.345  1.0230  0.3954  2.5299
 3479SOL    HW222071   2.165   4.562   7.345 -0.1912  1.4700  1.1037
 3480SOL     OW22072   3.604   0.804   8.090  0.1461  0.2372 -0.0088
 3480SOL    HW122073   3.600   0.729   8.031  2.6150 -0.3027  0.4728
 3480SOL    HW222074   3.548   0.869   8.049 -0.8925  1.3742  3.2031
 3481SOL     OW22075   3.347   4.103   2.045  0.2031 -0.1227  0.2264
 3481SOL    HW122076   3.312   4.191   2.045 -1.1331 -0.6550 -0.4931
 3481SOL    HW222077   3.326   4.095   1.952 -1.8230 -0.8060  0.7388
 3482SOL     OW22078   3.733   3.241   7.920  0.1339 -0.3049 -0.6714
 3482SOL    HW122079   3.715   3.301   7.847  0.5991 -0.8761 -1.2518
 3482SOL    HW222080   3.645   3.225   7.954  0.4924  1.0523  0.9275
 3483SOL     OW22081   0.088   1.299  16.219 -0.9194  0.0845  0.0653
 3483SOL    HW122082   0.127   1.358  16.154 -1.2126 -0.5947 -0.7321
 3483SOL    HW222083   0.144   1.319  16.294  2.7466 -0.7941 -2.4578
 3484SOL     OW22084   0.624   1.885   6.659 -0.0658 -0.1453  0.0854
 3484SOL    HW122085   0.680   1.856   6.587 -1.6041  1.8091 -1.9102
 3484SOL    HW222086   0.640   1.979   6.648 -0.5105  0.3518  3.6528
 3485SOL     OW22087   3.499   1.018  13.998 -0.2058  0.2723  0.1300
 3485SOL    HW122088   3.466   0.931  14.021 -1.7054  1.5308  2.7697
 3485SOL    HW222089   3.475   1.061  14.080  3.6596  1.5036  0.6209
 3486SOL     OW22090   3.773   4.602   4.603 -0.0806 -0.1894 -0.2321
 3486SOL    HW122091   3.789   4.576   4.512  0.0409 -0.0974 -0.2376
 3486SOL    HW222092   3.804   4.692   4.596 -0.0106 -0.2474 -0.6820
 3487SOL     OW22093   2.599   4.350  17.022 -0.3782 -0.1346  0.3742
 3487SOL    HW122094   2.641   4.371  16.938  0.6038  4.0536  1.9222
 3487SOL    HW222095   2.575   4.439  17.045  0.2331  0.3486 -0.8350
 3488SOL     OW22096   4.065   4.194  12.303  0.3559  0.5770 -0.4325
 3488SOL    HW122097   3.969   4.194  12.296  0.3175 -0.1388  0.0238
 3488SOL    HW222098   4.076   4.099  12.300  0.5481  0.5244  1.9334
 3489SOL     OW22099   1.200   0.132  12.529  0.0823 -0.3088 -0.0062
 3489SOL    HW122100   1.200   0.125  12.434  0.5437 -1.2221  0.0625
 3489SOL    HW222101   1.295   0.136  12.536 -0.0026  2.2492 -0.2989
 3490SOL     OW22102   0.215   2.262   7.441  0.1534  0.7636 -0.3231
 3490SOL    HW122103   0.265   2.180   7.443  0.5835  1.0901  1.8003
 3490SOL    HW222104   0.173   2.257   7.355 -0.6970 -1.2965  0.1942
 3491SOL     OW22105   3.712   1.679   2.626  0.1780 -0.4277 -0.0559
 3491SOL    HW122106   3.766   1.629   2.687  0.3122 -2.3054 -1.6888
 3491SOL    HW222107   3.783   1.731   2.587  0.2290 -0.6535 -0.2692
 3492SOL     OW22108   1.740   0.141   1.503  0.1349 -0.1916  0.4448
 3492SOL    HW122109   1.739   0.054   1.542  1.3688  0.1405  1.2502
 3492SOL    HW222110   1.736   0.194   1.583  0.6639  0.1440  0.2556
 3493SOL     OW22111   2.995   4.596   4.336 -0.4636  0.7425  0.1888
 3493SOL    HW122112   3.002   4.612   4.242  3.3118  1.3189  0.5557
 3493SOL    HW222113   2.958   4.508   4.330  1.4972  0.0357 -1.3149
 3494SOL     OW22114   3.269   4.726  10.919  0.0529  0.2887 -0.5628
 3494SOL    HW122115   3.223   4.655  10.875 -0.9499  0.9716 -0.6142
 3494SOL    HW222116   3.313   4.687  10.995 -0.9049 -0.4712 -0.3930
 3495SOL     OW22117   2.299   2.456   6.509 -0.3400 -0.5169 -0.3201
 3495SOL    HW122118   2.331   2.368   6.487 -1.6930 -0.7353 -1.4467
 3495SOL    HW222119   2.212   2.432   6.543  0.4403 -3.1079 -0.1630
 3496SOL     OW22120   0.597   0.900   6.359  0.6249  0.3868 -0.2810
 3496SOL    HW122121   0.542   0.844   6.305 -1.0865  2.2221 -0.4034
 3496SOL    HW222122   0.675   0.850   6.385 -1.0179 -1.9587  0.1451
 3497SOL     OW22123   3.856   1.715   2.276  0.5710 -0.2922  0.0940
 3497SOL    HW122124   3.941   1.715   2.319  0.5856  0.4233  0.0581
 3497SOL    HW222125   3.864   1.789   2.216 -1.7319 -0.8798 -0.9511
 3498SOL     OW22126   1.025   1.163   2.063 -0.6002  0.3329 -0.0349
 3498SOL    HW122127   1.092   1.170   2.130  0.1016 -0.3490 -0.6762
 3498SOL    HW222128   0.946   1.165   2.118  0.1301  1.9114  0.9513
 3499SOL     OW22129   4.665   4.136  16.469  0.3020 -0.1678  0.1763
 3499SOL    HW122130   4.704   4.223  16.478  2.3512 -1.1452  0.8471
 3499SOL    HW222131   0.002   4.080  16.486  2.1530  2.7107  1.3426
 3500SOL     OW22132   1.191   2.008  14.790 -0.2099 -0.2217  0.9752
 3500SOL    HW122133   1.178   1.941  14.722 -3.4871  0.5543  0.8350
 3500SOL    HW222134   1.128   2.069  14.752 -0.0681 -1.4997 -1.3372
 3501SOL     OW22135   0.999   0.614   2.993  0.6871  0.2007  0.1570
 3501SOL    HW122136   1.001   0.537   3.050 -0.8001 -0.5517 -0.7948
 3501SOL    HW222137   1.079   0.660   3.018  0.5952  1.8292 -2.5161
 3502SOL     OW22138   3.958   0.388   3.865 -0.3050 -0.0495  0.0058
 3502SOL    HW122139   3.900   0.338   3.923 -0.0165  0.8745  1.0916
 3502SOL    HW222140   3.951   0.337   3.784 -0.1637 -1.3815  0.8258
 3503SOL     OW22141   4.571   3.461  10.721  0.1493 -0.0695 -0.2039
 3503SOL    HW122142   4.573   3.518  10.644 -1.3292 -0.1059 -0.2709
 3503SOL    HW222143   4.476   3.462  10.732 -0.1031  0.3121 -2.4050
 3504SOL     OW22144   2.380   2.110   8.792 -0.7860 -0.0504  0.7462
 3504SOL    HW122145   2.403   2.127   8.883  0.3102  0.3444  0.3963
 3504SOL    HW222146   2.367   2.196   8.751  0.2993  0.5113  1.6106
 3505SOL     OW22147   0.507   0.095   5.306 -0.3453  0.1580 -0.2146
 3505SOL    HW122148   0.441   0.090   5.375  0.7029  0.8498  0.8245
 3505SOL    HW222149   0.448   0.139   5.245 -1.6364 -0.9209  0.2531
 3506SOL     OW22150   4.661   3.590   4.447  0.4632  0.0630  0.4552
 3506SOL    HW122151   4.653   3.677   4.487  0.3839  0.7571 -1.0761
 3506SOL    HW222152   4.698   3.539   4.520 -0.4341  0.5745  1.2760
 3507SOL     OW22153   0.369   1.034   2.364  0.1567 -0.0326 -0.2803
 3507SOL    HW122154   0.317   1.081   2.429  2.2903  1.3364  0.4243
 3507SOL    HW222155   0.442   1.092   2.345 -2.2373  2.2219 -2.6233
 3508SOL     OW22156   2.359   4.503   3.111  0.8489 -0.1428  0.3936
 3508SOL    HW122157   2.443   4.500   3.157  0.8720 -1.9962  0.1937
 3508SOL    HW222158   2.354   4.412   3.085  1.1347 -0.3311  0.9950
 3509SOL     OW22159   3.086   1.080   3.220 -0.7648  0.0367  0.2950
 3509SOL    HW122160   3.026   1.051   3.152 -0.6248 -1.4569  0.8129
 3509SOL    HW222161   3.030   1.074   3.297 -2.5710  0.0094 -1.0264
 3510SOL     OW22162   2.436   3.771   7.488  0.0837 -0.2258 -0.2598
 3510SOL    HW122163   2.511   3.776   7.548 -0.7143  2.9075  0.4425
 3510SOL    HW222164   2.474   3.799   7.405 -1.9061  2.4013 -0.2833
 3511SOL     OW22165   4.725   2.731   9.556  0.3561  0.4855 -0.6974
 3511SOL    HW122166   4.719   2.662   9.622  2.7189 -1.3062 -2.3743
 3511SOL    HW222167   4.669   2.802   9.587  0.1687 -0.3748  0.9407
 3512SOL     OW22168   0.079   4.556   9.304 -0.4546  0.5202  0.1485
 3512SOL    HW122169   4.738   4.598   9.334 -1.2411 -2.0146  1.6180
 3512SOL    HW222170   0.071   4.469   9.343 -0.4591  0.0261 -0.9305
 3513SOL     OW22171   0.485   2.953  10.990  0.2065 -0.2517 -0.2936
 3513SOL    HW122172   0.439   2.914  10.916 -0.7469 -1.1324  0.7728
 3513SOL    HW222173   0.459   3.045  10.996  1.1653  0.0699 -1.0376
 3514SOL     OW22174   4.466   2.865   8.737  0.2781  0.1411  0.0521
 3514SOL    HW122175   4.556   2.893   8.722  1.0816 -2.1283  0.6619
 3514SOL    HW222176   4.467   2.876   8.832 -1.8178  1.7747 -0.1114
 3515SOL     OW22177   1.843   1.967  15.748 -0.0162 -0.2516 -0.5294
 3515SOL    HW122178   1.786   1.891  15.754  0.5899 -0.5469  1.5171
 3515SOL    HW222179   1.785   2.043  15.741 -0.1201 -0.3156 -0.3629
 3516SOL     OW22180   2.125   3.855   3.359 -0.2167 -0.0018 -0.4007
 3516SOL    HW122181   2.069   3.853   3.436 -0.6674  0.7929 -0.7101
 3516SOL    HW222182   2.073   3.832   3.282 -1.2931 -0.2180  0.4003
 3517SOL     OW22183   2.342   1.079   3.343  0.0178 -0.9148  0.4080
 3517SOL    HW122184   2.351   1.171   3.321  0.7356 -1.0148  0.2836
 3517SOL    HW222185   2.433   1.051   3.351 -0.1551 -1.2592  1.2298
 3518SOL     OW22186   2.243   3.128   2.126 -0.4186  0.4838 -0.1861
 3518SOL    HW122187   2.242   3.036   2.150 -2.5190  1.4190  3.3681
 3518SOL    HW222188   2.186   3.124   2.049 -1.2858 -1.0746  0.5586
 3519SOL     OW22189   4.483   4.007  13.271  0.1832  0.1493  0.2857
 3519SOL    HW122190   4.535   3.984  13.194 -1.4383  0.5139 -0.9202
 3519SOL    HW222191   4.434   4.081  13.235  1.1631 -0.4381 -2.2379
 3520SOL     OW22192   2.778   0.641  16.797  0.0129 -0.4011  0.7065
 3520SOL    HW122193   2.753   0.693  16.721  1.3095  0.7641  1.0795
 3520SOL    HW222194   2.835   0.578  16.751 -1.9347 -2.6297  1.3520
 3521SOL     OW22195   4.130   2.030  14.475  0.2090  0.4001  0.4751
 3521SOL    HW122196   4.142   2.105  14.416 -1.2507  0.5607  0.3845
 3521SOL    HW222197   4.211   1.980  14.459  0.3790  0.4651  1.1266
 3522SOL     OW22198   0.237   1.607   4.236 -0.1784  0.3446 -0.3753
 3522SOL    HW122199   0.180   1.543   4.279 -0.2669  1.2823  0.9096
 3522SOL    HW222200   0.288   1.618   4.316 -2.9591  1.1281  1.3137
 3523SOL     OW22201   2.318   0.011   1.716  0.4741  0.1441 -0.3375
 3523SOL    HW122202   2.372   0.027   1.794 -1.5694 -0.2185  1.1324
 3523SOL    HW222203   2.368   0.060   1.650  0.4207 -0.0425 -0.5181
 3524SOL     OW22204   3.751   0.229   0.779  0.1291 -0.3038  0.6430
 3524SOL    HW122205   3.736   0.273   0.695 -0.0176  0.1868  0.9240
 3524SOL    HW222206   3.704   0.147   0.767  1.2132 -1.1080  1.8794
 3525SOL     OW22207   1.989   1.233   7.954 -0.3149  0.1385  0.2656
 3525SOL    HW122208   2.053   1.200   7.890 -0.3925  1.0353 -0.2619
 3525SOL    HW222209   1.997   1.328   7.956 -0.6718  0.1373  1.8195
 3526SOL     OW22210   2.591   3.919   9.511  0.1901  0.2583 -0.7088
 3526SOL    HW122211   2.553   4.001   9.480 -1.9843 -0.9382 -1.2021
 3526SOL    HW222212   2.524   3.894   9.574 -0.7203  1.3886 -1.2455
 3527SOL     OW22213   1.712   0.106   2.652  0.4538  0.0799 -0.2917
 3527SOL    HW122214   1.625   0.114   2.612 -0.5534  2.6154  2.4379
 3527SOL    HW222215   1.719   0.173   2.720  1.9827 -2.5937  2.2101
 3528SOL     OW22216   4.109   4.704   8.838 -0.1488 -0.2252 -0.1608
 3528SOL    HW122217   4.127   4.626   8.784 -0.0589 -0.0091 -0.4411
 3528SOL    HW222218   4.018   4.700   8.866 -0.2250 -1.6791 -0.6193
 3529SOL     OW22219   2.557   1.449   5.347 -1.1428 -0.0298 -0.6533
 3529SOL    HW122220   2.632   1.454   5.288  0.7827  0.6288  1.8500
 3529SOL    HW222221   2.489   1.490   5.293 -0.4152  1.6539 -0.2917
 3530SOL     OW22222   0.920   1.187  11.412  0.5432  0.1612 -0.7020
 3530SOL    HW122223   1.002   1.210  11.369  1.3454  0.4370  0.9706
 3530SOL    HW222224   0.868   1.263  11.386  0.2465  0.7984  1.7238
 3531SOL     OW22225   1.689   1.891   4.669  0.2180 -0.0561  0.1075
 3531SOL    HW122226   1.641   1.972   4.684 -0.0972 -0.1338 -0.4967
 3531SOL    HW222227   1.725   1.890   4.580  0.9164 -0.0612  0.3911
 3532SOL     OW22228   0.134   1.226   1.557  0.3712  0.2093  0.6738
 3532SOL    HW122229   0.093   1.148   1.596 -0.5558  1.2508  1.7748
 3532SOL    HW222230   0.225   1.201   1.574  1.5089  3.0535 -1.3350
 3533SOL     OW22231   3.822   2.907   3.236  0.5313 -0.2066  0.2730
 3533SOL    HW122232   3.847   2.852   3.311  0.5017  1.2906  1.3941
 3533SOL    HW222233   3.747   2.856   3.203 -0.1862  2.2015 -1.7302
 3534SOL     OW22234   2.518   3.169   6.543 -0.4148 -0.4001  1.0562
 3534SOL    HW122235   2.559   3.130   6.620  1.2544 -0.1158  0.2971
 3534SOL    HW222236   2.445   3.217   6.583 -0.9096 -0.3766  0.1124
 3535SOL     OW22237   4.314   3.492  12.260  0.2517 -0.4920  0.2527
 3535SOL    HW122238   4.359   3.433  12.321  0.8283 -0.3200 -0.0103
 3535SOL    HW222239   4.270   3.430  12.201 -0.6483  0.3917 -0.0017
 3536SOL     OW22240   0.805   0.586   2.789  0.3356 -0.1909 -0.5642
 3536SOL    HW122241   0.854   0.621   2.864 -0.4324  1.0816 -0.6658
 3536SOL    HW222242   0.797   0.495   2.817 -1.3775 -0.0503 -0.6071
 3537SOL     OW22243   1.356   2.900   3.357  0.3081  0.3826  0.0411
 3537SOL    HW122244   1.365   2.805   3.348  1.9102  0.5518 -0.1937
 3537SOL    HW222245   1.305   2.901   3.438 -1.9363 -1.6956 -1.3632
 3538SOL     OW22246   2.391   0.035   5.553 -0.6148  0.1552 -0.3536
 3538SOL    HW122247   2.457   0.083   5.503 -0.1881 -1.8062 -1.7087
 3538SOL    HW222248   2.447   4.705   5.589  1.2156  1.0980 -1.3466
 3539SOL     OW22249   1.154   1.231   3.724 -0.4855  0.3828 -0.6131
 3539SOL    HW122250   1.106   1.293   3.779  0.8162  0.3853  0.4889
 3539SOL    HW222251   1.151   1.275   3.638 -2.5629  1.5069  0.0370
 3540SOL     OW22252   4.547   3.123   2.168 -0.2963  0.0956 -0.5098
 3540SOL    HW122253   4.557   3.194   2.105  1.7079 -1.3879 -1.8830
 3540SOL    HW222254   4.504   3.177   2.234 -0.6022 -1.2374  0.3968
 3541SOL     OW22255   3.744   0.119   7.024 -0.1601  0.4037 -0.8763
 3541SOL    HW122256   3.759   0.041   6.970 -0.4123 -0.2915  0.0694
 3541SOL    HW222257   3.712   0.170   6.949  0.2601 -1.0210 -2.0460
 3542SOL     OW22258   2.883   2.391   4.001  0.1575  0.0773 -0.0850
 3542SOL    HW122259   2.935   2.425   4.074 -1.4530 -0.2850  1.2268
 3542SOL    HW222260   2.817   2.348   4.056 -0.3435 -0.6978 -1.2826
 3543SOL     OW22261   0.559   2.714   8.876 -0.3154 -0.1981  0.6649
 3543SOL    HW122262   0.490   2.728   8.812 -1.1888 -4.0569  0.7468
 3543SOL    HW222263   0.641   2.742   8.836 -0.4805 -0.6842 -0.0170
 3544SOL     OW22264   4.389   2.702   0.756  0.1075  0.0095 -0.1513
 3544SOL    HW122265   4.478   2.689   0.724  0.8110 -1.4837  2.3998
 3544SOL    HW222266   4.402   2.716   0.850 -0.0481  0.1544 -0.1507
 3545SOL     OW22267   3.554   1.857   1.726  0.6709 -0.3846 -0.1276
 3545SOL    HW122268   3.509   1.886   1.647  0.8700  0.7995  0.1860
 3545SOL    HW222269   3.640   1.828   1.694 -0.0459 -0.7708 -1.7092
 3546SOL     OW22270   4.629   2.229   4.603 -0.8068  0.1722  0.3622
 3546SOL    HW122271   4.655   2.320   4.594  1.2467 -0.3584  0.9399
 3546SOL    HW222272   4.704   2.191   4.648  0.1021  1.3253 -0.1883
 3547SOL     OW22273   3.315   3.203   8.264 -0.2834  0.1637  0.1751
 3547SOL    HW122274   3.270   3.123   8.290 -2.9739  1.1178 -1.4770
 3547SOL    HW222275   3.361   3.223   8.345 -1.2679 -2.2677  1.3052
 3548SOL     OW22276   2.910   2.866   2.946  0.4187 -0.2488  0.3678
 3548SOL    HW122277   2.902   2.915   2.864  1.3792  1.0662  1.0526
 3548SOL    HW222278   2.826   2.819   2.944  0.5866 -0.4612 -1.9772
 3549SOL     OW22279   0.886   0.495   4.523 -0.3673  0.1649 -0.4247
 3549SOL    HW122280   0.874   0.463   4.434 -2.2485  0.6182 -0.3363
 3549SOL    HW222281   0.829   0.572   4.527 -0.8214 -0.1991  0.0386
 3550SOL     OW22282   4.085   1.717   7.305 -0.2024 -0.1595  0.2145
 3550SOL    HW122283   4.101   1.639   7.358  0.0136 -0.0551  0.3009
 3550SOL    HW222284   3.990   1.707   7.298 -0.0788  0.6654 -2.8768
 3551SOL     OW22285   1.666   4.547   3.234 -0.3693 -0.2179 -0.9486
 3551SOL    HW122286   1.654   4.642   3.239 -1.1237 -0.4752  2.2568
 3551SOL    HW222287   1.573   4.524   3.244  0.2975 -2.7087 -0.6532
 3552SOL     OW22288   0.723   4.269  13.505 -0.2743  0.1485 -0.1258
 3552SOL    HW122289   0.796   4.208  13.490 -0.3638  0.7091 -2.8205
 3552SOL    HW222290   0.655   4.220  13.458 -1.7784  1.8013  0.3506
 3553SOL     OW22291   1.461   0.542   4.603 -0.0212  0.0801  0.1278
 3553SOL    HW122292   1.366   0.531   4.595  0.2068 -1.9597  0.2206
 3553SOL    HW222293   1.486   0.470   4.546 -1.8394  1.1460 -2.0114
 3554SOL     OW22294   2.675   0.362   6.322  0.6168  0.4970 -0.3944
 3554SOL    HW122295   2.609   0.307   6.362 -1.0920  2.3921 -0.6187
 3554SOL    HW222296   2.729   0.384   6.398 -0.4250  1.2971  0.1089
 3555SOL     OW22297   2.171   4.738   8.276  0.1674  0.5097 -0.0626
 3555SOL    HW122298   2.195   0.091   8.258 -0.8085  0.4956 -1.4471
 3555SOL    HW222299   2.076   0.001   8.264  0.1146  0.5503  0.3516
 3556SOL     OW22300   2.249   2.615   2.868 -0.2823  0.4968  0.0306
 3556SOL    HW122301   2.317   2.642   2.807  0.4946  2.1001  1.6061
 3556SOL    HW222302   2.289   2.531   2.889 -0.3392  0.8269  1.4814
 3557SOL     OW22303   3.253   0.957   2.624 -0.2915 -0.0660 -0.2621
 3557SOL    HW122304   3.314   0.932   2.693 -0.3551  0.2389 -0.0982
 3557SOL    HW222305   3.311   0.946   2.548 -1.2581 -0.0159 -1.0074
 3558SOL     OW22306   0.413   4.043   7.316 -0.0393 -0.3676 -0.1625
 3558SOL    HW122307   0.378   3.978   7.254  0.6966 -1.8999  1.0224
 3558SOL    HW222308   0.365   4.015   7.393 -1.9029  1.4682 -0.6582
 3559SOL     OW22309   0.368   1.432  10.090  0.6497  0.1226  0.1577
 3559SOL    HW122310   0.346   1.510  10.141  1.2418 -0.1105  0.7706
 3559SOL    HW222311   0.400   1.364  10.150 -0.0439 -1.5709 -1.3838
 3560SOL     OW22312   2.215   0.081  11.565 -0.5786 -0.0613 -0.0816
 3560SOL    HW122313   2.171   4.735  11.570 -1.9196  0.7170  1.3491
 3560SOL    HW222314   2.303   0.061  11.534 -1.5350 -1.2737 -2.0283
 3561SOL     OW22315   0.287   0.449   4.805 -0.0358 -0.5867 -0.2579
 3561SOL    HW122316   0.370   0.456   4.758 -0.1139 -0.5311 -0.3901
 3561SOL    HW222317   0.260   0.365   4.768 -0.2376  0.3535 -2.2806
 3562SOL     OW22318   1.212   0.632  11.814 -0.0286 -0.1371 -0.1651
 3562SOL    HW122319   1.212   0.719  11.854 -0.9761  0.2858 -1.0743
 3562SOL    HW222320   1.125   0.633  11.774 -0.6437  0.7942  1.1770
 3563SOL     OW22321   1.299   1.027   4.223 -0.0795  0.3955 -0.4380
 3563SOL    HW122322   1.252   0.970   4.163 -1.4413  1.1102 -0.0533
 3563SOL    HW222323   1.279   1.117   4.195  0.7529  1.3939  2.1657
 3564SOL     OW22324   1.362   0.610   0.010 -0.3800 -0.0761  0.1649
 3564SOL    HW122325   1.438   0.554   0.027 -0.9196 -0.4277  1.4464
 3564SOL    HW222326   1.368   0.687   0.067  1.9199  1.9741 -2.8872
 3565SOL     OW22327   1.656   1.428  17.253  0.6326 -0.4719 -0.2982
 3565SOL    HW122328   1.717   1.487  17.209  0.4915  1.2444  1.7793
 3565SOL    HW222329   1.620   1.367  17.188 -1.5107  1.0680 -0.5437
 3566SOL     OW22330   4.637   1.192  13.627 -0.4446 -0.4364  0.3840
 3566SOL    HW122331   4.556   1.231  13.658  0.6760  1.2538  1.1762
 3566SOL    HW222332   4.638   1.104  13.666 -0.0695 -1.2036 -1.3405
 3567SOL     OW22333   0.800   4.663   6.314  0.0844 -0.1960 -0.3847
 3567SOL    HW122334   0.784   4.657   6.408 -0.1659  0.2661 -0.4023
 3567SOL    HW222335   0.763   0.011   6.304 -1.4965 -0.6436  1.5773
 3568SOL     OW22336   3.092   0.566   1.977 -0.5347 -0.3740 -0.2570
 3568SOL    HW122337   3.076   0.661   1.973  2.3219 -0.0038 -2.4039
 3568SOL    HW222338   3.170   0.565   2.033  0.2331  1.5731 -1.2867
 3569SOL     OW22339   1.527   0.454   5.107  0.0316 -0.2643 -0.4426
 3569SOL    HW122340   1.526   0.507   5.027 -1.2093  0.6205  0.1630
 3569SOL    HW222341   1.476   0.516   5.159 -1.2795 -2.1856  0.5824
 3570SOL     OW22342   2.819   0.613   5.242  0.2055 -0.0558  0.3582
 3570SOL    HW122343   2.867   0.675   5.298  2.8057 -0.8959 -0.9509
 3570SOL    HW222344   2.750   0.586   5.303  1.1471 -0.9377  1.0336
 3571SOL     OW22345   0.526   0.132  12.617 -0.6558 -0.2415 -0.3915
 3571SOL    HW122346   0.493   0.086  12.539 -1.7832  0.8312 -0.5357
 3571SOL    HW222347   0.444   0.163  12.656 -0.9192 -0.7239 -0.5626
 3572SOL     OW22348   3.017   0.856   8.035  0.5819 -0.6492  0.1708
 3572SOL    HW122349   3.043   0.777   8.082  0.2220  0.3606  2.0698
 3572SOL    HW222350   3.098   0.907   8.030  1.1983 -1.8789 -2.1935
 3573SOL     OW22351   3.398   2.234   4.167 -0.2745 -0.4772  0.1027
 3573SOL    HW122352   3.345   2.171   4.216 -0.9520 -2.6507 -3.3953
 3573SOL    HW222353   3.479   2.184   4.161 -0.0529 -0.0236 -0.6907
 3574SOL     OW22354   1.265   1.305  16.505  0.4763  0.1298 -0.2842
 3574SOL    HW122355   1.215   1.316  16.424  0.8922 -1.1710 -0.7100
 3574SOL    HW222356   1.290   1.394  16.530 -1.0280 -0.1117  2.0303
 3575SOL     OW22357   3.805   3.067   6.212  0.5527 -0.3371 -0.1021
 3575SOL    HW122358   3.746   3.024   6.151 -0.3906 -0.0601  0.6245
 3575SOL    HW222359   3.887   3.020   6.196  1.2518  1.8353 -2.8263
 3576SOL     OW22360   3.817   0.241   4.079 -0.4800  0.3470 -0.0531
 3576SOL    HW122361   3.759   0.235   4.155  1.6406 -1.9690  1.3821
 3576SOL    HW222362   3.901   0.228   4.124 -0.4895 -1.2866 -0.4833
 3577SOL     OW22363   3.885   1.030  14.993  0.2924 -0.3350 -0.1926
 3577SOL    HW122364   3.843   0.989  15.069 -0.7874  0.0496 -0.5810
 3577SOL    HW222365   3.978   1.010  15.006  0.8834  1.7817 -1.3304
 3578SOL     OW22366   2.072   0.283   1.851  0.2213  0.6626  0.0826
 3578SOL    HW122367   2.144   0.347   1.844 -0.5631  1.6642  1.1570
 3578SOL    HW222368   2.086   0.246   1.763 -2.8090  0.6938 -0.3877
 3579SOL     OW22369   1.793   0.918   8.335  0.1416 -0.6350  0.5535
 3579SOL    HW122370   1.779   0.947   8.245  0.3195  1.0392  1.0767
 3579SOL    HW222371   1.879   0.882   8.312  0.3031  0.7903 -1.0755
 3580SOL     OW22372   2.453   3.092   7.072 -0.0302  0.0708  0.1037
 3580SOL    HW122373   2.422   3.002   7.056  1.8391 -0.6027  0.2872
 3580SOL    HW222374   2.453   3.087   7.168 -0.1497 -2.6327 -0.0251
 3581SOL     OW22375   0.591   3.569   0.876 -0.7347  0.3043  0.4363
 3581SOL    HW122376   0.520   3.555   0.813  1.2018  1.4875 -2.0064
 3581SOL    HW222377   0.643   3.643   0.844 -0.9664  1.7319  3.3716
 3582SOL     OW22378   1.939   1.552   6.338  0.1277  0.1206 -0.1179
 3582SOL    HW122379   1.910   1.462   6.349 -1.1670  0.8267  2.0811
 3582SOL    HW222380   2.020   1.552   6.389  0.3599  3.5477 -0.4840
 3583SOL     OW22381   2.663   1.022   4.975  0.5320  0.4403 -0.2219
 3583SOL    HW122382   2.747   1.063   4.999  1.1001 -0.0969 -1.2961
 3583SOL    HW222383   2.696   0.948   4.925  2.3576  0.4126  1.0142
 3584SOL     OW22384   2.645   3.601   7.667  0.0597 -0.2895  0.1855
 3584SOL    HW122385   2.724   3.575   7.620  0.3188 -0.7417  0.8892
 3584SOL    HW222386   2.662   3.695   7.663 -4.8256  0.6878  1.9220
 3585SOL     OW22387   3.036   1.733   5.476  0.0133 -0.0700 -0.4964
 3585SOL    HW122388   3.035   1.736   5.380  1.4709 -0.4308 -0.5364
 3585SOL    HW222389   3.011   1.823   5.494 -0.4872 -0.1514 -0.7936
 3586SOL     OW22390   3.319   3.780   8.994 -0.5094 -0.2036 -0.6506
 3586SOL    HW122391   3.365   3.818   9.069  0.5423  2.4850 -2.6577
 3586SOL    HW222392   3.394   3.733   8.957 -1.7640 -1.9530 -1.0037
 3587SOL     OW22393   4.103   1.237  13.537  0.5663 -0.2046 -0.3387
 3587SOL    HW122394   4.191   1.275  13.538  0.6304 -0.3314 -1.1696
 3587SOL    HW222395   4.063   1.320  13.563  1.6450  0.2274 -0.0714
 3588SOL     OW22396   4.448   3.689   8.540  0.1832 -1.0014  0.2584
 3588SOL    HW122397   4.479   3.603   8.512  0.7768 -1.1983  1.4817
 3588SOL    HW222398   4.376   3.665   8.599 -0.3349  0.3528  0.1867
 3589SOL     OW22399   4.648   2.993   4.059  0.3290 -0.5767  0.2947
 3589SOL    HW122400   4.622   2.952   4.141  2.0162  0.3186  1.2762
 3589SOL    HW222401   4.663   3.085   4.080  0.3408 -0.3042 -0.9382
 3590SOL     OW22402   1.248   2.544   6.021 -0.0009  0.0564  0.2603
 3590SOL    HW122403   1.223   2.469   5.966  1.6684  0.2207 -0.7160
 3590SOL    HW222404   1.295   2.601   5.961 -0.7188 -0.3725 -0.7321
 3591SOL     OW22405   3.367   0.974   5.485 -0.4170  0.0718 -0.2022
 3591SOL    HW122406   3.284   0.954   5.442 -0.8509 -1.1706  1.2254
 3591SOL    HW222407   3.357   1.065   5.512 -0.9188 -0.0974  0.1858
 3592SOL     OW22408   3.192   1.223   2.167  0.1224 -0.5098  0.2901
 3592SOL    HW122409   3.283   1.205   2.145  0.7839  1.2283  1.6776
 3592SOL    HW222410   3.197   1.291   2.233 -0.8615  1.2907 -1.4810
 3593SOL     OW22411   0.451   2.921   8.403  0.0835 -0.3628  0.0751
 3593SOL    HW122412   0.359   2.904   8.384  0.5374 -0.8801 -1.6292
 3593SOL    HW222413   0.492   2.841   8.370  0.1647  0.5933 -2.1613
 3594SOL     OW22414   3.288   3.954   2.431  0.5906  0.1782 -0.0391
 3594SOL    HW122415   3.218   3.921   2.374 -0.3558  2.4947 -0.1916
 3594SOL    HW222416   3.241   3.968   2.513 -0.4487 -0.8396 -0.4574
 3595SOL     OW22417   2.413   3.115  12.127 -0.4408 -0.0622 -0.5069
 3595SOL    HW122418   2.494   3.163  12.144 -0.3966 -0.2840 -0.0947
 3595SOL    HW222419   2.343   3.179  12.111 -0.2369  0.3595  0.2982
 3596SOL     OW22420   0.923   0.038   2.277 -0.1279  0.3025 -0.3255
 3596SOL    HW122421   0.912   4.709   2.210 -1.1485 -0.8942  1.0539
 3596SOL    HW222422   0.835   0.055   2.311 -1.3450 -1.4455 -2.6425
 3597SOL     OW22423   1.850   0.275   2.040 -0.1602  0.2560 -0.3351
 3597SOL    HW122424   1.925   0.280   1.981  0.4107  0.2970  0.3975
 3597SOL    HW222425   1.777   0.232   1.996 -0.0452  0.9072 -1.1622
 3598SOL     OW22426   0.126   4.221   3.098  0.1697 -0.2202  0.4909
 3598SOL    HW122427   0.163   4.203   3.184 -0.4318 -1.8346  0.4073
 3598SOL    HW222428   0.205   4.203   3.046  0.8643 -0.3166  1.5722
 3599SOL     OW22429   0.173   4.016   9.225  0.2816  0.0423 -0.3868
 3599SOL    HW122430   0.111   4.072   9.177 -3.2510 -3.1037  0.5915
 3599SOL    HW222431   0.247   4.029   9.166  1.2855  0.9693  1.0939
 3600SOL     OW22432   3.138   4.009   9.033  0.3163  0.1608 -0.0695
 3600SOL    HW122433   3.207   3.957   8.991  2.4686  2.9704  0.0398
 3600SOL    HW222434   3.151   3.995   9.127 -1.0143 -4.3613 -0.5745
 3601SOL     OW22435   0.488   0.602  16.662 -0.3476 -0.2591 -0.3138
 3601SOL    HW122436   0.523   0.530  16.610 -0.6813 -2.3533  2.3588
 3601SOL    HW222437   0.445   0.559  16.736 -1.1780 -0.7437 -1.0713
 3602SOL     OW22438   2.097   1.142   2.081 -0.2025  0.1737 -0.2346
 3602SOL    HW122439   2.168   1.095   2.126 -0.2948  1.1276  0.9189
 3602SOL    HW222440   2.036   1.069   2.089 -0.6384  0.3726 -1.8496
 3603SOL     OW22441   1.448   4.345   3.772  0.1268  0.0696  0.3517
 3603SOL    HW122442   1.362   4.383   3.753 -0.1679  0.4789  2.5138
 3603SOL    HW222443   1.438   4.301   3.856 -0.5767  0.4776  0.4808
 3604SOL     OW22444   1.135   0.781   6.331 -0.4814 -0.3303 -0.3586
 3604SOL    HW122445   1.176   0.735   6.404 -0.5212  1.5342  0.8357
 3604SOL    HW222446   1.210   0.778   6.272  0.3573 -0.0031  0.7017
 3605SOL     OW22447   3.052   1.655   8.002  0.4074 -0.6568 -0.3684
 3605SOL    HW122448   3.110   1.581   7.982  0.5740 -0.4723 -0.5676
 3605SOL    HW222449   2.975   1.599   8.007  1.2973 -1.6197  2.7823
 3606SOL     OW22450   3.525   4.484   9.615 -0.1577 -0.0965  0.1550
 3606SOL    HW122451   3.450   4.449   9.664 -0.4227 -1.1440 -1.0092
 3606SOL    HW222452   3.588   4.472   9.686 -1.5894 -0.5062  1.3784
 3607SOL     OW22453   2.346   2.126   7.918  0.3065  0.1017  0.1299
 3607SOL    HW122454   2.379   2.178   7.992 -0.2833  0.6866 -0.0178
 3607SOL    HW222455   2.252   2.141   7.909  0.3635 -0.3644 -1.2732
 3608SOL     OW22456   3.685   3.604   4.643 -0.4873  0.2824 -0.6612
 3608SOL    HW122457   3.610   3.609   4.703 -0.4449 -1.0484 -0.4899
 3608SOL    HW222458   3.758   3.639   4.694 -0.1895 -2.2822  0.6699
 3609SOL     OW22459   2.465   4.492  14.218  0.3762  0.2496 -0.0569
 3609SOL    HW122460   2.412   4.451  14.286  1.4664 -0.3876  0.4055
 3609SOL    HW222461   2.539   4.532  14.266 -2.1642  1.6864  2.6467
 3610SOL     OW22462   1.945   3.202   8.021 -0.8644 -0.4390 -0.3336
 3610SOL    HW122463   1.918   3.227   7.933 -4.2286  0.9720  1.1073
 3610SOL    HW222464   1.931   3.287   8.064 -1.1767 -0.5961 -0.1245
 3611SOL     OW22465   1.831   0.418  10.258  0.3899  0.2002 -0.1682
 3611SOL    HW122466   1.775   0.456  10.326  1.3415  0.9558  0.1826
 3611SOL    HW222467   1.763   0.400  10.193 -1.3320 -0.5374  1.8331
 3612SOL     OW22468   2.055   2.960   6.973 -0.5752 -0.0752 -0.3220
 3612SOL    HW122469   2.031   2.868   6.979 -0.8428  0.0399  0.4147
 3612SOL    HW222470   2.140   2.963   7.016 -0.9094  0.0587  0.3283
 3613SOL     OW22471   1.571   3.164   9.575  0.8998  0.2102 -0.5768
 3613SOL    HW122472   1.658   3.201   9.562  0.4947  0.8130 -1.5388
 3613SOL    HW222473   1.576   3.107   9.652 -1.5748 -1.8865 -1.9753
 3614SOL     OW22474   2.845   2.954  13.765  0.2048 -0.0815  0.8676
 3614SOL    HW122475   2.888   2.869  13.774 -0.4109 -0.3151  1.6267
 3614SOL    HW222476   2.768   2.917  13.721  1.7261 -1.4289 -0.6576
 3615SOL     OW22477   3.585   3.114   8.780  0.0740  0.9237 -0.9782
 3615SOL    HW122478   3.591   3.059   8.702 -0.2401 -1.1707  0.4627
 3615SOL    HW222479   3.669   3.159   8.788  0.1978  0.4471  0.3708
 3616SOL     OW22480   3.261   0.458  12.229  0.0747  0.3522  0.2137
 3616SOL    HW122481   3.263   0.393  12.299 -0.1753  0.1491  0.0290
 3616SOL    HW222482   3.168   0.476  12.217 -0.4725 -0.6906  2.7788
 3617SOL     OW22483   1.342   1.191   9.055 -0.0265 -0.0773  0.1114
 3617SOL    HW122484   1.408   1.261   9.062  0.1481 -0.0706 -1.5912
 3617SOL    HW222485   1.376   1.124   8.996 -1.0170 -0.8721  0.4401
 3618SOL     OW22486   2.264   1.897   9.387 -0.0220 -0.1884 -0.3130
 3618SOL    HW122487   2.242   1.985   9.355 -1.2308 -0.4910 -0.3291
 3618SOL    HW222488   2.309   1.917   9.468 -0.3354 -1.6345  0.2171
 3619SOL     OW22489   2.150   2.168  15.131  0.6371  0.1730  0.9316
 3619SOL    HW122490   2.125   2.251  15.090  0.8031  0.2110  0.9084
 3619SOL    HW222491   2.188   2.125  15.054  2.7355  1.8205  1.0504
 3620SOL     OW22492   0.449   1.499  11.022  0.0526 -0.8649 -0.1766
 3620SOL    HW122493   0.391   1.479  11.096  0.1391  0.0957  0.1433
 3620SOL    HW222494   0.446   1.408  10.991 -1.1648 -0.3385 -1.5924
 3621SOL     OW22495   0.608   2.781   0.430 -0.5825 -0.4271 -0.3805
 3621SOL    HW122496   0.690   2.830   0.439  0.0003 -1.7825  1.6716
 3621SOL    HW222497   0.620   2.717   0.500 -1.7706 -0.0235  0.1980
 3622SOL     OW22498   1.887   4.004  14.160 -0.6153 -0.0966 -0.2884
 3622SOL    HW122499   1.862   4.031  14.248  0.3810 -1.1573  0.3162
 3622SOL    HW222500   1.889   4.092  14.123 -4.3469  0.9244  1.9783
 3623SOL     OW22501   1.367   0.383   8.586 -0.1601 -0.0964 -0.7793
 3623SOL    HW122502   1.391   0.296   8.555  0.1446 -0.8778  1.6487
 3623SOL    HW222503   1.287   0.366   8.635 -0.4180  3.6605  0.1545
 3624SOL     OW22504   0.536   2.055   4.148  0.5883 -0.0983 -0.4406
 3624SOL    HW122505   0.484   2.024   4.222 -0.9362  2.0424 -0.6018
 3624SOL    HW222506   0.474   2.113   4.103  0.4919  0.0026 -0.1767
 3625SOL     OW22507   2.047   0.247  10.208  0.2117 -0.0521  0.1701
 3625SOL    HW122508   2.059   0.228  10.302  1.0003  3.1667  0.7145
 3625SOL    HW222509   1.978   0.312  10.217 -0.5371 -1.0004  1.2924
 3626SOL     OW22510   1.793   0.807  11.133 -0.5208  0.0009  0.3422
 3626SOL    HW122511   1.735   0.734  11.112 -1.7134  0.8324  0.7567
 3626SOL    HW222512   1.837   0.823  11.050 -2.7193 -0.2743 -0.8740
 3627SOL     OW22513   2.177   1.337   2.793  0.1393 -0.4317 -0.4083
 3627SOL    HW122514   2.158   1.322   2.886  0.6817 -2.0417 -0.5589
 3627SOL    HW222515   2.165   1.246   2.767 -4.2634 -0.6384  2.2835
 3628SOL     OW22516   0.144   3.045   9.698 -0.0136  0.6077  0.0849
 3628SOL    HW122517   0.063   3.088   9.727  0.1539 -0.1892  1.7473
 3628SOL    HW222518   0.178   3.118   9.646 -0.2983  2.1460  2.0560
 3629SOL     OW22519   0.951   4.235   7.961 -0.2520  0.0874 -0.1136
 3629SOL    HW122520   1.019   4.238   8.028  0.0700  1.3290 -0.5048
 3629SOL    HW222521   0.890   4.177   8.007  0.7132 -0.2970  0.6756
 3630SOL     OW22522   4.490   4.381   8.946 -0.2500  0.1557 -0.3230
 3630SOL    HW122523   4.531   4.313   8.999  2.1358 -1.7041 -4.5380
 3630SOL    HW222524   4.500   4.453   9.009 -0.6538  0.2424 -0.3549
 3631SOL     OW22525   2.326   3.110   4.098  0.4366  0.6445 -0.0937
 3631SOL    HW122526   2.297   3.023   4.069  1.6511  0.5551 -1.0855
 3631SOL    HW222527   2.418   3.103   4.123 -0.2200 -1.0061  1.8542
 3632SOL     OW22528   3.614   0.645  15.873 -0.7868 -0.1341 -0.1686
 3632SOL    HW122529   3.655   0.618  15.790  1.8602 -2.0166  1.7537
 3632SOL    HW222530   3.566   0.718  15.835 -0.0261  0.7894  0.6704
 3633SOL     OW22531   1.447   3.040  15.361 -0.3785  0.1611  0.3108
 3633SOL    HW122532   1.365   3.049  15.312  0.9912 -0.4212 -2.0883
 3633SOL    HW222533   1.495   3.122  15.364 -1.5486  0.8783 -0.6267
 3634SOL     OW22534   2.211   3.333   8.145  0.4580  0.7499  0.0013
 3634SOL    HW122535   2.188   3.252   8.100 -1.1387  0.5875  1.1189
 3634SOL    HW222536   2.130   3.384   8.146 -1.7254 -2.7085  1.8775
 3635SOL     OW22537   1.725   3.955   2.089 -0.4993  0.1457  0.4288
 3635SOL    HW122538   1.733   3.877   2.033 -0.0746  2.5648 -2.9057
 3635SOL    HW222539   1.717   4.029   2.030 -1.3811  0.6857  1.2412
 3636SOL     OW22540   3.365   2.508   7.629 -0.0076  0.3350  0.2333
 3636SOL    HW122541   3.297   2.564   7.668  0.2634  0.8580 -0.0471
 3636SOL    HW222542   3.390   2.565   7.556  0.0530  1.3410  1.0372
 3637SOL     OW22543   2.039   1.293   8.240  0.9968  0.0794 -0.3828
 3637SOL    HW122544   1.974   1.272   8.173  2.5576 -0.0868 -1.8503
 3637SOL    HW222545   2.004   1.380   8.262 -1.2016  0.3489 -4.9516
 3638SOL     OW22546   3.577   0.642   3.808  0.1475  0.4888  0.1042
 3638SOL    HW122547   3.605   0.709   3.746 -0.8404  1.6498  0.9246
 3638SOL    HW222548   3.491   0.614   3.776 -0.0752  0.6328  0.5712
 3639SOL     OW22549   0.708   2.119   2.322  0.0194  0.1850 -0.5598
 3639SOL    HW122550   0.696   2.196   2.378  2.0963  0.4352 -0.4763
 3639SOL    HW222551   0.789   2.154   2.285 -0.1815  0.6466 -0.5703
 3640SOL     OW22552   2.245   2.630   8.046 -0.2822  0.3357 -0.3270
 3640SOL    HW122553   2.190   2.552   8.055 -2.6480  2.0940  0.5871
 3640SOL    HW222554   2.329   2.596   8.016  1.5210  0.6476  4.3961
 3641SOL     OW22555   4.568   1.452   3.841 -0.6319  0.4098 -0.8486
 3641SOL    HW122556   4.640   1.515   3.850 -0.9491  0.8232 -1.1656
 3641SOL    HW222557   4.509   1.489   3.906  1.3512  0.7026  0.7740
 3642SOL     OW22558   0.852   3.890  13.376  0.2773 -0.0717  0.2523
 3642SOL    HW122559   0.769   3.938  13.377 -0.7774 -1.9221  0.8761
 3642SOL    HW222560   0.909   3.956  13.416 -2.1677  1.4281  1.2479
 3643SOL     OW22561   0.163   1.555  15.213  0.5664  0.0064  0.2897
 3643SOL    HW122562   0.203   1.501  15.282  0.5350  0.2279  0.4813
 3643SOL    HW222563   0.093   1.498  15.180  1.6213  0.3701 -2.5514
 3644SOL     OW22564   4.301   1.648   1.857  0.0147  0.1831  0.5291
 3644SOL    HW122565   4.329   1.666   1.767 -0.9737 -2.2686 -0.2575
 3644SOL    HW222566   4.325   1.556   1.861 -0.5353  0.0178 -0.0095
 3645SOL     OW22567   2.436   1.624   3.190 -0.5657  0.3005  0.4100
 3645SOL    HW122568   2.362   1.630   3.129 -0.5959  1.2834  0.5448
 3645SOL    HW222569   2.514   1.627   3.134  0.2039  4.5377  1.6744
 3646SOL     OW22570   0.184   3.847   8.131  0.1163 -0.5513  0.4810
 3646SOL    HW122571   0.164   3.785   8.061  0.7658 -0.7741  0.4900
 3646SOL    HW222572   0.115   3.818   8.191 -0.3070  2.0656  1.2459
 3647SOL     OW22573   2.073   0.888   2.421 -0.2976  0.1319 -0.0388
 3647SOL    HW122574   1.994   0.929   2.458 -0.3814  2.1407 -2.4657
 3647SOL    HW222575   2.042   0.799   2.405 -1.9765  1.0990 -2.1298
 3648SOL     OW22576   0.901   4.440  16.597  0.2137 -0.1676 -0.1043
 3648SOL    HW122577   0.928   4.491  16.674  0.5299  0.3089 -0.5311
 3648SOL    HW222578   0.878   4.359  16.643 -0.2467 -0.5558 -1.0332
 3649SOL     OW22579   4.003   2.439   8.642 -0.1038 -0.2657  0.3903
 3649SOL    HW122580   3.952   2.367   8.605  0.6319 -0.4085 -0.3411
 3649SOL    HW222581   3.970   2.512   8.591 -0.8442 -0.2592  0.8705
 3650SOL     OW22582   0.778   1.803   3.681  0.3566  0.0368 -0.0351
 3650SOL    HW122583   0.768   1.739   3.611  0.1077  1.3281 -1.2013
 3650SOL    HW222584   0.694   1.806   3.726  1.1887 -0.4788  1.5325
 3651SOL     OW22585   2.208   3.216   5.023  0.0077 -0.3774  0.1787
 3651SOL    HW122586   2.132   3.157   5.025 -0.2487 -0.0664 -0.9170
 3651SOL    HW222587   2.183   3.289   4.967 -1.0797 -0.5563  0.4201
 3652SOL     OW22588   2.724   1.158  16.213 -0.0597  0.0270  0.6447
 3652SOL    HW122589   2.680   1.206  16.143 -2.3105 -2.3214  0.4388
 3652SOL    HW222590   2.793   1.107  16.170 -1.8420 -3.7467  2.2760
 3653SOL     OW22591   0.191   0.169   5.660 -0.2171 -0.0384 -0.2810
 3653SOL    HW122592   0.120   0.110   5.686 -1.3083  1.1920 -0.4761
 3653SOL    HW222593   0.140   0.247   5.639  1.1049  0.6737 -0.8605
 3654SOL     OW22594   2.772   2.878   5.170  0.2560  0.1059 -0.4316
 3654SOL    HW122595   2.766   2.886   5.075  0.3059  1.9745 -0.2683
 3654SOL    HW222596   2.771   2.970   5.196  1.7734  0.1795 -0.6766
 3655SOL     OW22597   0.281   0.641  14.504 -0.2858  0.0532  0.0928
 3655SOL    HW122598   0.209   0.650  14.567 -0.7518 -1.0115 -0.2940
 3655SOL    HW222599   0.273   0.549  14.482 -1.8538  0.1890  0.0529
 3656SOL     OW22600   3.361   3.293   9.199 -0.1184 -0.4323  0.5862
 3656SOL    HW122601   3.440   3.346   9.212 -1.3109  1.0054  1.8822
 3656SOL    HW222602   3.404   3.208   9.189  0.6826 -0.0026  0.3828
 3657SOL     OW22603   2.037   1.454   4.234  0.2090  0.1390  0.2938
 3657SOL    HW122604   1.991   1.400   4.298 -0.2650  1.1861  0.8394
 3657SOL    HW222605   2.040   1.395   4.159  0.5093  2.5956 -1.6465
 3658SOL     OW22606   3.377   0.398   6.196 -0.4941  0.4144 -0.4322
 3658SOL    HW122607   3.354   0.310   6.167 -1.2915  0.6832 -0.6144
 3658SOL    HW222608   3.418   0.387   6.282 -0.9246 -2.1707 -0.5591
 3659SOL     OW22609   1.727   2.350   6.354  0.1920 -0.0830  0.5868
 3659SOL    HW122610   1.725   2.257   6.333  1.8275  1.1613 -5.1223
 3659SOL    HW222611   1.802   2.377   6.300 -1.5959 -0.7198 -2.1884
 3660SOL     OW22612   1.065   3.682  16.875 -0.2865  0.5302 -0.0943
 3660SOL    HW122613   1.089   3.756  16.931 -1.0681  0.7096  0.0048
 3660SOL    HW222614   1.138   3.682  16.813 -1.4583  0.1089 -1.4690
 3661SOL     OW22615   1.356   4.003  14.609 -0.8255 -0.2146  0.1380
 3661SOL    HW122616   1.374   4.093  14.581 -2.2231 -0.4327 -1.4446
 3661SOL    HW222617   1.311   3.958  14.537 -0.1020  0.8417 -0.9776
 3662SOL     OW22618   0.283   1.885   7.769  0.0463  0.3180 -0.2273
 3662SOL    HW122619   0.256   1.869   7.860 -0.0592  0.1432 -0.2895
 3662SOL    HW222620   0.301   1.978   7.781 -0.4413  0.3508  0.2528
 3663SOL     OW22621   2.997   1.582   3.115  0.1367 -0.2975 -0.3305
 3663SOL    HW122622   3.014   1.627   3.032  0.4386  1.9542  0.9520
 3663SOL    HW222623   2.979   1.492   3.088  2.6893 -1.1817  0.8781
 3664SOL     OW22624   2.070   1.205   6.095  0.5603  0.0509 -0.3466
 3664SOL    HW122625   2.083   1.272   6.029  0.8471 -1.6977 -2.0838
 3664SOL    HW222626   2.084   1.251   6.177  0.9749 -0.4757 -0.1214
 3665SOL     OW22627   1.685   0.064   7.092  0.2748 -0.0801  0.2396
 3665SOL    HW122628   1.733   4.720   7.092 -1.4958 -1.1036 -1.6770
 3665SOL    HW222629   1.753   0.128   7.072 -0.8078  1.0553  0.2293
 3666SOL     OW22630   4.020   3.249  11.852 -0.2470 -0.7986  0.8828
 3666SOL    HW122631   4.031   3.193  11.929 -1.3377 -1.2324  0.7172
 3666SOL    HW222632   4.014   3.337  11.890  2.0415 -0.9037  1.4576
 3667SOL     OW22633   3.720   2.392   9.135 -0.0568 -0.3507 -0.6669
 3667SOL    HW122634   3.792   2.414   9.075 -0.6383  2.9916 -0.1327
 3667SOL    HW222635   3.745   2.306   9.171 -0.9446 -1.4428 -2.6386
 3668SOL     OW22636   2.508   0.104   5.963 -0.1731 -0.0897 -0.0025
 3668SOL    HW122637   2.502   0.196   5.988  0.2401 -0.2678  0.7460
 3668SOL    HW222638   2.483   0.112   5.871  2.5348 -0.9549 -0.8348
 3669SOL     OW22639   1.943   1.551   5.377 -0.2057  0.2844  0.3054
 3669SOL    HW122640   1.991   1.513   5.451 -0.9563 -0.5208  0.3711
 3669SOL    HW222641   1.858   1.510   5.391  0.6770 -1.4992  0.3943
 3670SOL     OW22642   0.863   2.401  17.614 -0.3972 -0.4944 -0.0358
 3670SOL    HW122643   0.927   2.412  17.685  2.5269 -0.2910 -2.7178
 3670SOL    HW222644   0.892   2.320  17.574 -0.7598 -1.6299  1.9982
 3671SOL     OW22645   2.957   0.466   2.205  0.5800 -0.5874  0.0791
 3671SOL    HW122646   2.895   0.428   2.142  0.6841 -0.9694  0.2107
 3671SOL    HW222647   3.044   0.448   2.172  1.1671 -0.2050  1.4335
 3672SOL     OW22648   0.491   0.307  13.164 -0.0955  0.4221  0.1781
 3672SOL    HW122649   0.448   0.285  13.081  0.4465 -1.9262  0.5430
 3672SOL    HW222650   0.426   0.304  13.235  0.6852 -0.5369  0.8500
 3673SOL     OW22651   0.664   1.681   2.389  0.2771  0.5649 -0.1652
 3673SOL    HW122652   0.747   1.727   2.399  1.2507 -1.0361 -0.8126
 3673SOL    HW222653   0.600   1.750   2.405  0.6927  1.4165 -2.1788
 3674SOL     OW22654   2.334   1.120   7.969 -0.1407 -0.4188 -0.2078
 3674SOL    HW122655   2.258   1.063   7.979  0.1096 -1.0316 -1.6692
 3674SOL    HW222656   2.403   1.100   8.032 -0.7698 -2.2325 -0.1025
 3675SOL     OW22657   0.374   2.110   3.659  0.3855 -0.0127  0.0810
 3675SOL    HW122658   0.344   2.042   3.720  1.8779 -0.0013  0.8389
 3675SOL    HW222659   0.328   2.079   3.581  1.6578  0.9785 -1.0575
 3676SOL     OW22660   3.519   1.766   9.765  0.2425 -0.2039  0.2100
 3676SOL    HW122661   3.447   1.798   9.819 -0.8388 -1.4727 -0.4780
 3676SOL    HW222662   3.585   1.835   9.772  1.9752 -1.5227 -2.8237
 3677SOL     OW22663   0.067   1.216   2.345  0.1033  0.1064  0.8658
 3677SOL    HW122664   4.719   1.175   2.344  0.7597 -1.2101 -1.6575
 3677SOL    HW222665   0.050   1.310   2.345  2.2715  0.5040  1.2052
 3678SOL     OW22666   1.230   3.929   7.159 -0.6673  0.0914 -0.0924
 3678SOL    HW122667   1.242   3.958   7.250 -0.5404 -1.9693  0.5398
 3678SOL    HW222668   1.134   3.935   7.151 -0.7440  0.4035  0.9639
 3679SOL     OW22669   1.509   2.811   2.451  0.3993  0.0373 -0.0720
 3679SOL    HW122670   1.433   2.772   2.492  0.2508 -1.9612 -2.2520
 3679SOL    HW222671   1.504   2.902   2.481  1.4220 -0.6329  2.0823
 3680SOL     OW22672   1.383   0.142  14.632  0.4580  0.3173 -0.2282
 3680SOL    HW122673   1.395   0.156  14.726 -0.6814  0.2768 -0.0801
 3680SOL    HW222674   1.474   0.126  14.607  0.5300 -0.8973  0.7919
 3681SOL     OW22675   1.260   1.674   9.273 -0.2380  0.1560 -0.1918
 3681SOL    HW122676   1.337   1.671   9.217  0.0367 -0.7780  0.2324
 3681SOL    HW222677   1.196   1.725   9.223  0.6297  0.7725 -0.6876
 3682SOL     OW22678   3.798   2.527   9.985  0.4268 -0.3925 -0.0168
 3682SOL    HW122679   3.764   2.551  10.071  1.3337 -1.2412  0.5722
 3682SOL    HW222680   3.784   2.432   9.980  1.7006 -0.6688  1.7045
 3683SOL     OW22681   3.086   0.422   7.369 -0.0466 -0.3776  0.1536
 3683SOL    HW122682   3.174   0.384   7.369  0.1918  0.1954  2.1344
 3683SOL    HW222683   3.052   0.371   7.442 -0.0619 -1.0672 -0.3297
 3684SOL     OW22684   0.755   3.171   9.453 -0.5256  0.0257  0.1099
 3684SOL    HW122685   0.679   3.129   9.414 -0.5309  0.8349 -0.7762
 3684SOL    HW222686   0.820   3.137   9.391 -1.2244 -0.4751 -0.3444
 3685SOL     OW22687   0.056   2.851  14.886  0.4496  0.0890  0.3076
 3685SOL    HW122688   0.141   2.864  14.844  0.6193 -0.5091  0.4658
 3685SOL    HW222689   0.006   2.817  14.812 -1.4083  0.3895  1.4008
 3686SOL     OW22690   0.817   1.210   7.294  0.1318 -0.7703 -0.3633
 3686SOL    HW122691   0.750   1.144   7.274 -0.5586  0.1999 -1.2789
 3686SOL    HW222692   0.773   1.256   7.366  1.3599  2.1166 -1.4637
 3687SOL     OW22693   2.891   3.350  15.420  0.4773 -0.2452  0.0090
 3687SOL    HW122694   2.941   3.414  15.471 -0.6112  0.3730  0.3059
 3687SOL    HW222695   2.915   3.369  15.329  1.3016  2.7987  0.8569
 3688SOL     OW22696   0.552   4.431   4.408 -0.1758 -0.1432  0.0725
 3688SOL    HW122697   0.587   4.361   4.353  0.9701  0.7181 -0.2787
 3688SOL    HW222698   0.481   4.389   4.457 -0.7055 -0.1430 -0.6945
 3689SOL     OW22699   1.085   3.100   6.463  0.5622 -0.2854  0.0855
 3689SOL    HW122700   1.050   3.032   6.405  1.3467 -0.8014  0.2052
 3689SOL    HW222701   1.048   3.184   6.436  1.5509  0.7293  1.9052
 3690SOL     OW22702   1.274   4.718   8.388  0.8950 -0.3967  0.4623
 3690SOL    HW122703   1.226   0.036   8.328 -1.7993 -0.7116  2.2915
 3690SOL    HW222704   1.316   0.042   8.447 -0.6285  1.7930 -0.7593
 3691SOL     OW22705   3.318   3.166  10.902 -0.0207  0.4860  0.1929
 3691SOL    HW122706   3.262   3.173  10.980  0.3993  0.5927  0.4822
 3691SOL    HW222707   3.387   3.106  10.932 -0.3117  1.4939  2.9174
 3692SOL     OW22708   1.780   1.647   8.493  0.2074 -0.3928  0.4667
 3692SOL    HW122709   1.742   1.568   8.531  1.0278 -0.8501  0.3216
 3692SOL    HW222710   1.828   1.681   8.569 -0.2094  1.0666  0.0825
 3693SOL     OW22711   1.518   3.282  16.059  0.3790  0.3693  0.3002
 3693SOL    HW122712   1.568   3.206  16.089 -1.4912  0.1085  2.7403
 3693SOL    HW222713   1.546   3.348  16.123 -0.7210  0.5755  0.5576
 3694SOL     OW22714   1.964   4.073   2.178 -0.0855 -0.0001 -0.1404
 3694SOL    HW122715   1.883   4.025   2.165 -1.0363  1.5522 -0.0098
 3694SOL    HW222716   1.952   4.085   2.273  1.1400 -0.2411  0.0484
 3695SOL     OW22717   2.394   2.693  10.152 -0.6893  0.1625  0.6094
 3695SOL    HW122718   2.422   2.733  10.069 -1.2744 -0.7639 -0.0284
 3695SOL    HW222719   2.360   2.765  10.206  0.6295  0.4284  1.0865
 3696SOL     OW22720   3.435   3.333   8.495 -0.2755 -0.1420 -0.1772
 3696SOL    HW122721   3.520   3.366   8.525  0.3476 -0.3242 -1.7543
 3696SOL    HW222722   3.373   3.337   8.568  2.1454  2.4714  1.7098
 3697SOL     OW22723   0.220   2.892   6.895  0.5210 -0.5700 -0.5051
 3697SOL    HW122724   0.222   2.798   6.912 -1.1135 -0.1585  2.0805
 3697SOL    HW222725   0.134   2.901   6.854  0.6401 -2.4000 -1.1376
 3698SOL     OW22726   0.106   3.645   7.915  0.2892  0.1074  1.1436
 3698SOL    HW122727   0.171   3.576   7.922  0.4393 -0.1287 -2.4984
 3698SOL    HW222728   0.102   3.655   7.820  0.6172  0.9224  1.2172
 3699SOL     OW22729   4.130   3.193   6.237  0.0960  0.4529 -0.0616
 3699SOL    HW122730   4.191   3.243   6.182  1.4761 -1.5928 -0.4200
 3699SOL    HW222731   4.089   3.271   6.275  0.1940  0.4781 -0.0063
 3700SOL     OW22732   3.178   4.230   1.792 -0.1061 -0.0082  1.0920
 3700SOL    HW122733   3.114   4.298   1.814  0.0281  0.1860  0.8890
 3700SOL    HW222734   3.114   4.159   1.788 -2.3746  2.1106 -0.9184
 3701SOL     OW22735   0.250   4.377   9.557  0.2638  0.2865  0.4865
 3701SOL    HW122736   0.171   4.322   9.559  0.1295  0.5714  3.2585
 3701SOL    HW222737   0.293   4.337   9.481  0.4224  2.0858 -0.3634
 3702SOL     OW22738   1.363   0.629   8.204 -0.8212 -0.5572  0.0833
 3702SOL    HW122739   1.371   0.667   8.117 -2.6185  1.8426  0.9619
 3702SOL    HW222740   1.435   0.680   8.241 -1.3073  0.3443 -0.2234
 3703SOL     OW22741   0.757   1.796  17.435 -0.2384  0.3575  0.5638
 3703SOL    HW122742   0.813   1.775  17.360 -0.7674  0.3490  0.1744
 3703SOL    HW222743   0.724   1.710  17.461 -1.4634  0.3153 -1.1859
 3704SOL     OW22744   4.538   0.328   7.028 -0.4407 -0.2679  0.2970
 3704SOL    HW122745   4.546   0.307   7.121  2.9034  0.6264  0.2152
 3704SOL    HW222746   4.452   0.287   7.017  0.2979 -1.8869  0.7104
 3705SOL     OW22747   3.135   1.527  17.036 -0.2442  0.1543  0.2989
 3705SOL    HW122748   3.222   1.487  17.032 -0.3522 -0.4713  3.5995
 3705SOL    HW222749   3.129   1.534  16.941 -0.9235  1.0153  0.4011
 3706SOL     OW22750   3.575   3.659   9.013 -0.5015 -0.8345  0.2050
 3706SOL    HW122751   3.584   3.662   8.918 -1.6826 -0.5835  0.1065
 3706SOL    HW222752   3.659   3.697   9.037 -0.9637  0.7289 -0.6315
 3707SOL     OW22753   0.259   4.602   8.134 -0.7234  0.1091 -0.3270
 3707SOL    HW122754   0.251   4.690   8.098  1.0533 -0.3387 -1.8233
 3707SOL    HW222755   0.282   4.559   8.052 -0.9378 -0.3393 -0.1493
 3708SOL     OW22756   3.855   3.828  12.069  0.3254 -0.3744 -0.0472
 3708SOL    HW122757   3.761   3.812  12.071  0.2260  0.1434 -1.0904
 3708SOL    HW222758   3.882   3.737  12.051  0.7602 -0.1085 -0.7300
 3709SOL     OW22759   3.363   3.999   7.200  0.6314  0.3674 -0.5090
 3709SOL    HW122760   3.391   3.907   7.191 -0.1944  0.1186 -0.5242
 3709SOL    HW222761   3.294   4.000   7.133 -0.5965 -0.7312  0.7496
 3710SOL     OW22762   1.319   0.129   7.776  0.2845  0.2978 -0.0870
 3710SOL    HW122763   1.298   0.210   7.822 -1.5903 -1.3270  1.9746
 3710SOL    HW222764   1.283   0.150   7.690 -0.7907  1.6902  0.7034
 3711SOL     OW22765   3.163   3.837  14.248  0.1137  0.1627 -0.0323
 3711SOL    HW122766   3.145   3.908  14.310  1.5696  0.2245  0.3093
 3711SOL    HW222767   3.080   3.790  14.253  0.9790 -1.1286  1.9693
 3712SOL     OW22768   3.718   1.465   2.239 -0.4874 -0.0574 -0.0071
 3712SOL    HW122769   3.735   1.559   2.245 -0.9995  0.0698 -0.5423
 3712SOL    HW222770   3.655   1.476   2.310 -1.3017 -1.5103 -0.5139
 3713SOL     OW22771   3.203   2.020   2.230 -0.5291  0.3000  0.4817
 3713SOL    HW122772   3.201   2.019   2.134 -1.0261  0.0640  0.4946
 3713SOL    HW222773   3.272   1.956   2.247 -0.2579 -0.0304 -1.8712
 3714SOL     OW22774   3.876   0.350  12.057  0.0103 -0.1075  0.1225
 3714SOL    HW122775   3.927   0.303  11.992  0.7892  1.3939 -0.3555
 3714SOL    HW222776   3.924   0.328  12.137 -0.9720 -1.2424  0.3969
 3715SOL     OW22777   1.820   4.324   5.863  0.2543  0.3544  0.1179
 3715SOL    HW122778   1.844   4.417   5.863 -2.1904  0.9842 -0.8394
 3715SOL    HW222779   1.866   4.286   5.938  0.3601  2.4388  1.1081
 3716SOL     OW22780   1.583   3.933   6.397 -1.0289 -0.1701  0.0257
 3716SOL    HW122781   1.537   4.014   6.418  0.5092  0.9861 -1.0148
 3716SOL    HW222782   1.578   3.924   6.302 -0.3236  2.2848 -0.2465
 3717SOL     OW22783   3.221   3.802  16.860  0.3968  0.1292  0.4233
 3717SOL    HW122784   3.214   3.897  16.859 -0.5561 -0.0004 -4.1803
 3717SOL    HW222785   3.131   3.777  16.843  0.9560  0.1823 -2.5588
 3718SOL     OW22786   1.403   3.683  14.395  0.0349 -0.1146  0.1875
 3718SOL    HW122787   1.495   3.706  14.384 -0.2097 -0.5082 -2.5914
 3718SOL    HW222788   1.401   3.623  14.320  3.7646  0.2647 -0.2268
 3719SOL     OW22789   0.853   4.291   5.459  0.0508  0.1474  0.3088
 3719SOL    HW122790   0.829   4.308   5.550 -0.3150  0.7108  0.1116
 3719SOL    HW222791   0.912   4.218   5.477  1.3858  0.6516 -1.9464
 3720SOL     OW22792   3.884   2.173   8.170 -0.2205  0.1562 -0.6814
 3720SOL    HW122793   3.885   2.133   8.083 -0.4653  0.1013 -0.6581
 3720SOL    HW222794   3.867   2.094   8.221  0.5518  0.7638  0.5243
 3721SOL     OW22795   3.081   2.902   5.420  0.4720  0.4365 -0.0722
 3721SOL    HW122796   3.023   2.842   5.373  0.5033  0.2108  0.1766
 3721SOL    HW222797   3.124   2.938   5.343  0.8325 -1.2012 -0.6293
 3722SOL     OW22798   1.155   2.615  16.698  0.2469  0.2194 -0.0888
 3722SOL    HW122799   1.076   2.565  16.717 -0.2089  0.5980 -0.9975
 3722SOL    HW222800   1.168   2.655  16.784 -0.1352  0.1943 -0.0219
 3723SOL     OW22801   2.420   1.682   9.807  0.2546  0.3008 -0.1719
 3723SOL    HW122802   2.377   1.751   9.859  0.2507 -0.7586  1.2212
 3723SOL    HW222803   2.487   1.739   9.768 -0.4631  1.7076  0.6174
 3724SOL     OW22804   1.979   2.439   8.864 -0.3313  0.4742  0.6281
 3724SOL    HW122805   1.948   2.526   8.888 -0.5462  0.0541  1.8539
 3724SOL    HW222806   1.965   2.437   8.769 -1.4512 -1.0674  0.8195
 3725SOL     OW22807   3.704   4.071   5.525 -0.4717  0.3189  0.1104
 3725SOL    HW122808   3.616   4.105   5.509  0.3196  2.6713  0.6547
 3725SOL    HW222809   3.725   4.121   5.604  0.6722  3.3792 -2.1270
 3726SOL     OW22810   3.812   0.889  11.722 -0.1029 -0.8523 -0.1123
 3726SOL    HW122811   3.818   0.880  11.817  0.0525  2.4225  0.1924
 3726SOL    HW222812   3.895   0.934  11.705 -0.9709  1.2101  1.1404
 3727SOL     OW22813   1.491   0.100   9.125 -0.3115  0.1090  0.4379
 3727SOL    HW122814   1.550   0.159   9.173  1.5335 -1.9534  0.6949
 3727SOL    HW222815   1.422   0.164   9.106  1.1338  1.4714 -0.3097
 3728SOL     OW22816   3.534   3.187   1.535 -0.2537 -0.0994  0.2737
 3728SOL    HW122817   3.453   3.220   1.497  0.5842  0.2723 -1.1927
 3728SOL    HW222818   3.499   3.119   1.592 -0.6129  1.2859  1.6939
 3729SOL     OW22819   3.446   0.383   0.682 -0.1087 -0.1206  0.6171
 3729SOL    HW122820   3.440   0.402   0.588 -1.0339 -0.7503  0.5403
 3729SOL    HW222821   3.407   0.295   0.682  0.0066 -0.1712 -1.0425
 3730SOL     OW22822   4.119   4.133   6.312  0.0008  0.0337 -0.5596
 3730SOL    HW122823   4.193   4.107   6.257 -0.3692 -0.0457 -1.0161
 3730SOL    HW222824   4.087   4.205   6.258 -0.2810 -0.8541 -1.5727
 3731SOL     OW22825   4.153   1.400   9.403  1.1467  0.0034 -0.0101
 3731SOL    HW122826   4.130   1.365   9.317 -0.6641  1.5256 -0.1297
 3731SOL    HW222827   4.093   1.351   9.458  0.0712  1.0213 -0.2921
 3732SOL     OW22828   3.676   1.327  15.259 -0.3835  0.9550  0.1122
 3732SOL    HW122829   3.641   1.415  15.270 -1.7962  0.4585 -0.3556
 3732SOL    HW222830   3.599   1.280  15.291 -2.0015  3.6176  0.1289
 3733SOL     OW22831   2.994   3.664  14.675  0.5678 -0.8092 -0.0429
 3733SOL    HW122832   3.075   3.716  14.668 -1.2823  1.9805 -0.5755
 3733SOL    HW222833   3.026   3.583  14.715  0.6448  0.2768  2.1159
 3734SOL     OW22834   2.807   1.968   4.410 -0.1284  0.1739  0.2372
 3734SOL    HW122835   2.796   2.006   4.498  0.3186 -2.6790  1.5332
 3734SOL    HW222836   2.885   2.016   4.384 -0.9680  2.6358  2.2162
 3735SOL     OW22837   4.737   3.356   2.592 -0.2234  0.2326  0.3567
 3735SOL    HW122838   4.726   3.433   2.648 -0.1799 -1.8856  3.3207
 3735SOL    HW222839   0.010   3.288   2.659  1.5290 -1.9935 -2.2331
 3736SOL     OW22840   2.885   4.670  11.913  0.2619 -0.0864 -0.4433
 3736SOL    HW122841   2.934   4.673  11.831  0.8034  2.2820 -0.0349
 3736SOL    HW222842   2.876   4.575  11.920 -0.7266  0.0133 -0.3261
 3737SOL     OW22843   1.437   1.276  12.037 -0.2824  0.4420 -0.1049
 3737SOL    HW122844   1.364   1.300  11.980 -0.1318  1.0432 -0.0404
 3737SOL    HW222845   1.517   1.313  11.999  2.2308 -1.0205  3.7740
 3738SOL     OW22846   2.561   1.607   7.326 -0.4711 -0.1943 -0.2611
 3738SOL    HW122847   2.653   1.631   7.330 -0.1347 -1.4322 -0.5872
 3738SOL    HW222848   2.547   1.563   7.410 -0.0758  1.5128  0.7146
 3739SOL     OW22849   3.314   0.929   7.645  0.2723 -0.1480  0.2639
 3739SOL    HW122850   3.261   0.852   7.624 -0.8255  0.2401  1.6335
 3739SOL    HW222851   3.289   0.994   7.579  3.1542  0.1969 -0.4607
 3740SOL     OW22852   0.452   4.294   0.053 -0.2429  0.3440 -0.6626
 3740SOL    HW122853   0.412   4.255  17.729 -1.6633 -0.7723  0.6445
 3740SOL    HW222854   0.538   4.302   0.012  0.7631 -1.0384  1.1605
 3741SOL     OW22855   0.851   2.815   2.038 -0.4141  0.2274  0.7981
 3741SOL    HW122856   0.887   2.792   2.124 -2.4588 -0.3695  1.4869
 3741SOL    HW222857   0.818   2.730   2.009 -0.9264 -0.6627  4.0302
 3742SOL     OW22858   1.838   4.181   6.992  0.3340  0.6131  0.0357
 3742SOL    HW122859   1.811   4.257   6.941 -1.2587 -0.3831 -0.5916
 3742SOL    HW222860   1.837   4.118   6.920 -0.8848  2.8179 -1.8560
 3743SOL     OW22861   2.701   2.693  16.956 -0.0518  1.0993  0.1930
 3743SOL    HW122862   2.709   2.765  16.893  1.2854  2.5630  2.0633
 3743SOL    HW222863   2.608   2.685  16.978 -0.4208  1.3796 -1.2386
 3744SOL     OW22864   3.560   1.835   2.267 -0.3120  0.1369 -0.4393
 3744SOL    HW122865   3.614   1.774   2.316 -0.9672  1.4010  1.8759
 3744SOL    HW222866   3.479   1.785   2.262  0.2795 -0.9399  0.9449
 3745SOL     OW22867   1.276   0.038   3.177 -0.2534 -0.6900 -0.1872
 3745SOL    HW122868   1.310   0.126   3.161 -1.3755 -0.2101  0.0792
 3745SOL    HW222869   1.349   4.725   3.211 -0.3587  0.1092  1.2615
 3746SOL     OW22870   0.439   2.123   8.245  0.0752 -0.9554 -0.1943
 3746SOL    HW122871   0.439   2.034   8.209  3.0870 -0.6680 -0.8856
 3746SOL    HW222872   0.521   2.122   8.294 -0.6822 -0.2782  1.0920
 3747SOL     OW22873   1.970   2.626  10.101  0.2515  0.1497 -0.0578
 3747SOL    HW122874   1.937   2.705  10.058  2.1083  1.2461  0.5312
 3747SOL    HW222875   1.896   2.609  10.160  1.1693 -1.4592  0.6234
 3748SOL     OW22876   1.248   4.595   4.391  0.1291  0.1638 -0.6655
 3748SOL    HW122877   1.328   4.556   4.355  1.3252  0.9855  1.1163
 3748SOL    HW222878   1.290   4.630   4.469 -1.4348 -0.6503  0.5569
 3749SOL     OW22879   0.703   1.255   2.676 -0.0155 -0.1681  0.5005
 3749SOL    HW122880   0.797   1.260   2.659 -0.1322  1.1818  0.2714
 3749SOL    HW222881   0.697   1.169   2.719 -1.4320 -0.0989  0.4624
 3750SOL     OW22882   3.237   4.460   3.585  0.1975  0.1173 -0.8420
 3750SOL    HW122883   3.177   4.396   3.624  0.3388  1.1120  1.0240
 3750SOL    HW222884   3.246   4.531   3.649 -0.9238  0.6613 -1.2898
 3751SOL     OW22885   0.507   0.589   2.837  0.5257  0.0122  0.2798
 3751SOL    HW122886   0.598   0.613   2.853  1.0287 -0.7610 -1.3520
 3751SOL    HW222887   0.516   0.499   2.803  0.0249  0.8888 -2.1603
 3752SOL     OW22888   3.835   3.371   5.280  0.4242  0.0537  0.2516
 3752SOL    HW122889   3.809   3.350   5.369  1.0313  0.8807  0.6235
 3752SOL    HW222890   3.767   3.433   5.255 -0.3937 -0.1267  2.0493
 3753SOL     OW22891   0.554   2.929   3.525  0.2700 -0.0447  0.8058
 3753SOL    HW122892   0.565   2.846   3.478 -1.5075  1.1105 -1.6833
 3753SOL    HW222893   0.488   2.896   3.585  1.2031 -0.2299  1.7208
 3754SOL     OW22894   4.515   4.472   9.535 -0.2292  0.3905  0.2608
 3754SOL    HW122895   4.576   4.542   9.558  0.6826 -0.3159  0.0072
 3754SOL    HW222896   4.489   4.492   9.445  0.9522  0.3627 -0.0867
 3755SOL     OW22897   1.887   4.036   2.459 -0.1422  0.3049 -0.4673
 3755SOL    HW122898   1.832   4.075   2.527 -2.1433  0.5476 -2.2153
 3755SOL    HW222899   1.925   3.966   2.512 -0.4676 -0.4887 -1.2801
 3756SOL     OW22900   2.789   0.541   8.167  0.2789 -0.6230 -0.1929
 3756SOL    HW122901   2.841   0.609   8.212 -1.2993  1.3528 -1.3364
 3756SOL    HW222902   2.853   0.474   8.145 -0.1121 -1.5269  1.4670
 3757SOL     OW22903   0.018   4.256   6.928  0.3650 -0.1165 -0.0140
 3757SOL    HW122904   4.730   4.345   6.950 -0.2439 -0.8804  2.2852
 3757SOL    HW222905   4.689   4.204   6.971  0.7683 -0.2893  0.4150
 3758SOL     OW22906   2.031   2.448   6.586 -0.7723  0.5911  0.4144
 3758SOL    HW122907   1.963   2.492   6.536  1.2224 -0.1866 -2.9319
 3758SOL    HW222908   1.974   2.417   6.657 -0.4948  0.0110  0.3813
 3759SOL     OW22909   3.645   4.414   2.359 -0.1502 -0.2989  0.4870
 3759SOL    HW122910   3.716   4.362   2.322 -1.3283  0.4427 -2.8274
 3759SOL    HW222911   3.674   4.500   2.327 -1.3764 -0.4275 -1.0055
 3760SOL     OW22912   1.470   4.310   8.339 -0.0224  0.3808 -0.0888
 3760SOL    HW122913   1.443   4.232   8.386  0.3852  0.7928  0.8296
 3760SOL    HW222914   1.533   4.274   8.276 -0.4755 -1.3157  0.4333
 3761SOL     OW22915   0.956   4.718  12.966 -0.1822  0.1505 -0.0883
 3761SOL    HW122916   1.041   4.729  12.924 -0.2255  0.1882 -0.1662
 3761SOL    HW222917   0.949   0.057  13.021 -1.1959  0.1379 -0.1905
 3762SOL     OW22918   4.578   1.813   3.924 -0.5207  0.7779  0.6870
 3762SOL    HW122919   4.535   1.819   4.009 -1.3717 -0.9746  0.3778
 3762SOL    HW222920   4.516   1.767   3.868  0.6160 -1.5367  1.3228
 3763SOL     OW22921   3.311   0.673   4.304 -0.4466  0.2542  0.1799
 3763SOL    HW122922   3.384   0.615   4.280 -1.9375 -1.1422 -0.9971
 3763SOL    HW222923   3.243   0.606   4.298  0.4338 -0.6463  0.2635
 3764SOL     OW22924   3.582   3.865   6.836 -0.5928 -0.3167 -0.3011
 3764SOL    HW122925   3.628   3.878   6.919  1.1936 -2.0899 -1.0053
 3764SOL    HW222926   3.509   3.926   6.843  0.4428  0.6464  2.1390
 3765SOL     OW22927   3.349   3.553   4.511  0.4570  0.1257 -0.3123
 3765SOL    HW122928   3.293   3.512   4.446  1.0640  0.4068 -1.0167
 3765SOL    HW222929   3.416   3.596   4.457 -2.0260 -0.5062 -3.9062
 3766SOL     OW22930   1.600   3.014   9.784  0.1874 -0.1293  0.3724
 3766SOL    HW122931   1.675   3.026   9.842 -1.5472  0.9189  2.4021
 3766SOL    HW222932   1.540   2.987   9.853 -2.1459  0.3281 -1.4533
 3767SOL     OW22933   1.970   0.539  11.536  0.2238  0.4083  0.4662
 3767SOL    HW122934   1.911   0.573  11.469  1.8822  2.8593  0.2201
 3767SOL    HW222935   2.055   0.538  11.492 -0.3369 -1.1773 -0.5738
 3768SOL     OW22936   0.122   1.494   3.000  0.4032  0.0071 -0.6146
 3768SOL    HW122937   0.211   1.499   3.036  1.2064  0.4717 -2.6174
 3768SOL    HW222938   0.102   1.586   3.014  4.0037  0.5636  0.9530
 3769SOL     OW22939   0.723   2.973   1.611  0.1357  0.1986 -0.3497
 3769SOL    HW122940   0.793   2.951   1.673  0.5816  0.3722 -0.7858
 3769SOL    HW222941   0.701   3.061   1.641  0.0229 -1.2400  3.7204
 3770SOL     OW22942   1.050   0.027   7.110  0.1179 -0.1232 -0.2277
 3770SOL    HW122943   0.999   0.021   7.191  0.3797  4.0745  0.2649
 3770SOL    HW222944   1.071   4.676   7.087  1.0378  0.4738 -1.7543
 3771SOL     OW22945   2.171   1.111   8.568 -0.0533  0.1253 -0.1227
 3771SOL    HW122946   2.129   1.027   8.591 -1.9503  1.0881 -0.0671
 3771SOL    HW222947   2.263   1.085   8.569 -0.0649  0.0587 -1.4543
 3772SOL     OW22948   0.086   3.778   5.102 -0.3288  0.6174 -0.3858
 3772SOL    HW122949   0.174   3.739   5.099  0.3822  2.4017 -2.9644
 3772SOL    HW222950   0.051   3.722   5.171 -0.5886  0.5233 -0.5937
 3773SOL     OW22951   3.897   1.571   8.023 -0.1554 -0.1234  0.4498
 3773SOL    HW122952   3.835   1.633   8.062 -0.4524  0.4062 -0.8435
 3773SOL    HW222953   3.835   1.511   7.981 -0.9833 -0.2724  1.8877
 3774SOL     OW22954   2.602   0.023  17.546 -0.1664 -0.0949 -0.6614
 3774SOL    HW122955   2.577   4.671  17.562  1.3797 -0.5767 -0.9949
 3774SOL    HW222956   2.545   0.037  17.471 -0.7408 -0.7802 -0.3468
 3775SOL     OW22957   2.445   0.034   8.734 -0.6313 -0.9504  0.2869
 3775SOL    HW122958   2.415   0.086   8.660  2.5391  3.1001  1.8602
 3775SOL    HW222959   2.521   4.731   8.693  0.0959 -1.9748  2.6456
 3776SOL     OW22960   4.188   0.868   8.281 -0.6744 -0.1233  0.4337
 3776SOL    HW122961   4.141   0.849   8.199 -0.3119 -1.8038  0.6260
 3776SOL    HW222962   4.247   0.943   8.270  0.3489 -0.7460  1.7271
 3777SOL     OW22963   0.224   3.714   9.024 -0.3823  0.1593  0.4810
 3777SOL    HW122964   0.167   3.755   9.089 -0.4990 -1.0729  1.1528
 3777SOL    HW222965   0.180   3.747   8.945  0.3170 -2.5659 -1.0745
 3778SOL     OW22966   3.192   0.123  14.686  0.3676  0.6102 -0.1470
 3778SOL    HW122967   3.220   0.206  14.648  0.4741 -1.5914 -4.8949
 3778SOL    HW222968   3.215   0.139  14.777 -0.8491  3.4038 -0.3308
 3779SOL     OW22969   1.820   1.673   4.115 -0.0027  0.2541  0.3714
 3779SOL    HW122970   1.739   1.635   4.149  0.4779 -0.2723  0.9283
 3779SOL    HW222971   1.816   1.608   4.044  0.7633 -0.0158  0.5727
 3780SOL     OW22972   0.559   3.631   6.684  0.4152  0.1475 -0.1493
 3780SOL    HW122973   0.490   3.602   6.625 -1.0773  0.1209  1.5974
 3780SOL    HW222974   0.585   3.547   6.722 -1.0353 -0.2608 -0.0634
 3781SOL     OW22975   1.582   3.716   9.102 -0.2204  0.0264 -0.2253
 3781SOL    HW122976   1.630   3.643   9.141 -0.2600 -0.8661 -1.8171
 3781SOL    HW222977   1.622   3.723   9.015  1.4712  0.8734  0.6333
 3782SOL     OW22978   1.490   0.823   7.565  0.6662  0.5913 -0.4703
 3782SOL    HW122979   1.440   0.905   7.563 -0.1369  0.0513 -1.8559
 3782SOL    HW222980   1.553   0.852   7.499  0.1248  1.6502 -0.5200
 3783SOL     OW22981   2.202   2.715  12.947 -0.1543 -0.3818 -0.1685
 3783SOL    HW122982   2.187   2.621  12.958 -0.3401 -0.1639  1.5295
 3783SOL    HW222983   2.204   2.720  12.852 -2.6516 -0.1707 -0.2267
 3784SOL     OW22984   1.107   1.344   1.611 -0.0474  0.7154 -0.2153
 3784SOL    HW122985   1.102   1.440   1.607 -0.3126  0.7395  0.6496
 3784SOL    HW222986   1.034   1.331   1.671 -0.9530  0.9269 -1.2715
 3785SOL     OW22987   4.062   2.589   3.110  0.2430 -0.4723 -0.8314
 3785SOL    HW122988   4.024   2.592   3.198 -0.3065  0.7704 -1.1125
 3785SOL    HW222989   4.040   2.499   3.085  1.0695  0.1812 -3.8821
 3786SOL     OW22990   2.128   1.431   9.634  0.7174 -0.5905 -0.6620
 3786SOL    HW122991   2.099   1.515   9.600  0.8943 -0.6132 -0.8662
 3786SOL    HW222992   2.220   1.449   9.615  1.6624 -0.1503  4.3050
 3787SOL     OW22993   0.004   1.219   7.801 -0.5320 -0.5321  0.0560
 3787SOL    HW122994   0.097   1.241   7.799 -0.2898 -1.7273 -2.8525
 3787SOL    HW222995   0.008   1.127   7.830  1.7709 -0.4995 -0.1916
 3788SOL     OW22996   2.476   1.223   1.684  0.3505  1.0756  0.1998
 3788SOL    HW122997   2.425   1.304   1.684 -1.6426 -0.1919 -3.9639
 3788SOL    HW222998   2.533   1.241   1.610 -0.6582 -0.3976 -0.9292
 3789SOL     OW22999   1.143   1.533  16.352 -0.1161  0.0178 -0.0295
 3789SOL    HW123000   1.063   1.565  16.395 -0.2064  3.0418 -2.4647
 3789SOL    HW223001   1.124   1.517  16.260  0.4219 -3.0415  0.3975
 3790SOL     OW23002   2.827   0.262   7.046  0.4659  0.8433  0.2706
 3790SOL    HW123003   2.861   0.351   7.061  1.9430  0.5525 -1.3696
 3790SOL    HW223004   2.838   0.220   7.131 -0.8681  1.7262  0.8894
 3791SOL     OW23005   0.309   1.957   6.663 -0.9433  0.4946 -0.3826
 3791SOL    HW123006   0.377   1.972   6.729  0.0890 -1.4474 -1.0054
 3791SOL    HW223007   0.252   1.892   6.703  0.5448 -1.0889 -0.8047
 3792SOL     OW23008   0.640   2.111   3.627 -0.1438  0.4255  0.4353
 3792SOL    HW123009   0.546   2.122   3.647  0.1805  0.4807  1.9444
 3792SOL    HW223010   0.675   2.074   3.708  2.2358 -0.6949 -1.1069
 3793SOL     OW23011   3.666   3.422   8.565 -0.3039  0.4985 -0.1743
 3793SOL    HW123012   3.707   3.373   8.637  1.3333  1.2178 -0.6033
 3793SOL    HW223013   3.744   3.430   8.510  0.1343 -1.3140  0.1807
 3794SOL     OW23014   2.267   3.084   6.184  0.5659 -0.3765  0.0714
 3794SOL    HW123015   2.268   3.078   6.088 -0.8836 -1.6355  0.1117
 3794SOL    HW223016   2.351   3.120   6.211  0.1552  0.3680  0.3557
 3795SOL     OW23017   4.285   4.294   6.567  0.0844  0.1126 -0.0458
 3795SOL    HW123018   4.332   4.290   6.651 -1.5498  0.0833  0.8680
 3795SOL    HW223019   4.340   4.357   6.520 -0.8882  1.1656  0.2031
 3796SOL     OW23020   0.811   4.170   1.133 -0.0689  0.4282  0.7085
 3796SOL    HW123021   0.800   4.102   1.200 -0.8781  0.9970  1.1583
 3796SOL    HW223022   0.745   4.137   1.072  0.2379 -0.2622  0.7567
 3797SOL     OW23023   0.278   0.839   5.171 -0.2063  0.2229  0.0545
 3797SOL    HW123024   0.280   0.754   5.127  1.9866 -0.2997  1.1793
 3797SOL    HW223025   0.304   0.896   5.098  0.5032  0.3288  0.3988
 3798SOL     OW23026   4.665   0.769   8.431 -0.1764  0.0288 -0.0867
 3798SOL    HW123027   0.002   0.723   8.395  4.0990  3.0768  5.1194
 3798SOL    HW223028   4.691   0.793   8.520  1.6005 -0.5590 -0.4332
 3799SOL     OW23029   3.968   2.172   1.647  0.2630  0.2856  0.1167
 3799SOL    HW123030   3.965   2.100   1.584 -1.0854  1.1032 -0.7539
 3799SOL    HW223031   3.996   2.242   1.589 -1.5739  0.3213 -0.7107
 3800SOL     OW23032   0.786   4.294   4.622  0.4238  0.2615 -0.7440
 3800SOL    HW123033   0.754   4.267   4.708  0.5881  0.1768 -0.7102
 3800SOL    HW223034   0.835   4.372   4.646 -1.2103  1.1019 -0.1399
 3801SOL     OW23035   1.927   0.972   1.257  0.2618 -0.5828  0.6254
 3801SOL    HW123036   1.859   1.007   1.314  0.0691 -0.2905  0.2126
 3801SOL    HW223037   1.992   0.946   1.323  2.1114  0.2832 -0.8334
 3802SOL     OW23038   2.549   2.718   4.447 -0.3994  0.7222 -0.0511
 3802SOL    HW123039   2.622   2.657   4.437 -0.6304  0.2421  1.2285
 3802SOL    HW223040   2.550   2.731   4.542  0.5296  0.7736 -0.0727
 3803SOL     OW23041   4.679   2.964   6.410  0.2485 -0.3781 -0.1146
 3803SOL    HW123042   4.738   2.950   6.336  1.3290 -2.6224  1.1437
 3803SOL    HW223043   4.607   2.914   6.370 -1.4710  1.4644  0.7017
 3804SOL     OW23044   0.129   3.784   2.801  0.4200  0.4382  0.4128
 3804SOL    HW123045   0.186   3.711   2.779  1.6230  1.0191  1.6215
 3804SOL    HW223046   0.079   3.746   2.873 -0.1940 -1.1580 -0.8552
 3805SOL     OW23047   1.934   2.883   5.525  0.3547  0.3860 -0.1591
 3805SOL    HW123048   1.944   2.945   5.598  1.8553 -0.7857  0.6260
 3805SOL    HW223049   1.958   2.800   5.564  1.3176  0.3217 -0.9037
 3806SOL     OW23050   0.798   1.131   3.136 -0.4340 -0.1136 -0.4137
 3806SOL    HW123051   0.718   1.126   3.083 -2.1451 -1.1581  2.2566
 3806SOL    HW223052   0.773   1.071   3.207  1.7965 -0.8336 -0.2618
 3807SOL     OW23053   4.170   2.189  12.135 -0.4192  0.5705  0.3283
 3807SOL    HW123054   4.200   2.279  12.125 -0.0120  0.1621 -2.3033
 3807SOL    HW223055   4.107   2.205  12.205 -2.8646  0.9823 -1.9631
 3808SOL     OW23056   0.786   1.030  10.027  0.0723  0.7248 -0.2189
 3808SOL    HW123057   0.860   1.091  10.020  0.7058 -0.0190 -0.0132
 3808SOL    HW223058   0.719   1.098  10.030  0.7762  1.3495  1.0369
 3809SOL     OW23059   1.636   1.394  16.705  0.1735 -0.1243 -0.0248
 3809SOL    HW123060   1.587   1.324  16.748  1.4108  1.3626  3.8818
 3809SOL    HW223061   1.707   1.339  16.672 -1.0975  0.4455 -3.7356
 3810SOL     OW23062   1.399   3.097  16.306 -0.2470  0.0981  0.4542
 3810SOL    HW123063   1.365   3.010  16.285 -4.7092  1.5257  1.7316
 3810SOL    HW223064   1.481   3.111  16.260 -0.5712 -1.9357 -0.7379
 3811SOL     OW23065   3.791   3.393   5.555 -0.1371 -0.7114  0.0261
 3811SOL    HW123066   3.814   3.486   5.556  0.8089 -0.9910  2.4545
 3811SOL    HW223067   3.696   3.398   5.540 -0.2748 -0.9197  0.8430
 3812SOL     OW23068   1.478   4.718  12.698 -0.3032 -0.1706  0.3105
 3812SOL    HW123069   1.444   4.638  12.659 -0.9166  1.3375 -2.2428
 3812SOL    HW223070   1.552   4.685  12.748 -0.7006 -0.7342  0.5268
 3813SOL     OW23071   2.114   1.268   5.187 -0.3088  0.5170  0.3003
 3813SOL    HW123072   2.065   1.247   5.267 -1.8872  1.1030 -0.5107
 3813SOL    HW223073   2.043   1.319   5.148 -0.8973 -1.5012 -1.3158
 3814SOL     OW23074   1.473   4.041  14.967  0.4626  0.2249  0.0504
 3814SOL    HW123075   1.501   4.115  14.913  0.2240  1.3338  1.4254
 3814SOL    HW223076   1.556   3.995  14.974 -0.5748 -1.4877  1.1721
 3815SOL     OW23077   0.916   2.589   8.221 -0.3063  0.7648 -0.8618
 3815SOL    HW123078   0.912   2.584   8.317  1.8653 -1.1742 -0.8601
 3815SOL    HW223079   0.935   2.681   8.208  0.8423  0.8604  1.5520
 3816SOL     OW23080   4.457   1.622   7.554 -0.1135  0.2107 -0.2187
 3816SOL    HW123081   4.475   1.532   7.581  0.1030  0.3182  0.0036
 3816SOL    HW223082   4.365   1.621   7.579  0.2205  1.1100  1.0581
 3817SOL     OW23083   3.561   1.446   7.353  0.2614  0.8316  0.2656
 3817SOL    HW123084   3.533   1.492   7.432  1.5754  0.6891  0.7993
 3817SOL    HW223085   3.531   1.509   7.287  2.3293  1.0164 -0.4896
 3818SOL     OW23086   3.153   3.632   7.158  0.3227  0.1730 -0.3355
 3818SOL    HW123087   3.070   3.666   7.192 -0.7162 -1.9289 -0.7395
 3818SOL    HW223088   3.117   3.580   7.086 -0.9743  0.8685 -0.1828
 3819SOL     OW23089   4.637   4.044   2.740 -0.0144 -0.0250 -0.3513
 3819SOL    HW123090   4.592   4.128   2.737  1.2765  0.6605 -0.2989
 3819SOL    HW223091   4.669   4.015   2.825  0.6891  0.7711 -0.3528
 3820SOL     OW23092   1.608   3.573   6.111 -0.3367 -0.5862  0.2571
 3820SOL    HW123093   1.679   3.616   6.063 -2.6988  2.6898 -0.3175
 3820SOL    HW223094   1.541   3.576   6.043  2.1679  2.5676 -2.0832
 3821SOL     OW23095   0.443   3.883   9.517 -0.0795  0.1389  0.4099
 3821SOL    HW123096   0.468   3.792   9.502  0.1933  0.4726 -1.1497
 3821SOL    HW223097   0.350   3.869   9.535  0.1274 -0.5938  0.9099
 3822SOL     OW23098   2.707   2.998   3.501 -0.0194  0.1959  0.1246
 3822SOL    HW123099   2.760   3.077   3.497 -0.0548  0.1345 -1.6420
 3822SOL    HW223100   2.752   2.939   3.441  0.3171  0.9212 -0.3274
 3823SOL     OW23101   2.658   3.867   9.254  0.3790 -0.8192 -0.6203
 3823SOL    HW123102   2.681   3.955   9.225 -0.7896 -0.3734 -0.1681
 3823SOL    HW223103   2.654   3.877   9.349 -2.1895  3.6538 -1.2059
 3824SOL     OW23104   4.643   3.335  15.069  0.3119  0.8618  0.4083
 3824SOL    HW123105   4.656   3.385  15.149  4.2831  1.7873 -0.7823
 3824SOL    HW223106   4.599   3.399  15.014 -1.2542 -0.3481  0.2429
 3825SOL     OW23107   3.817   3.625   2.106  0.3599  0.1951  0.3033
 3825SOL    HW123108   3.855   3.662   2.186 -1.4901  0.0530  1.2350
 3825SOL    HW223109   3.727   3.657   2.112 -0.0863 -1.0030  0.0970
 3826SOL     OW23110   4.062   1.246  12.210 -0.5633  0.9056 -0.0517
 3826SOL    HW123111   4.078   1.153  12.195 -1.3751  0.3569  2.5047
 3826SOL    HW223112   4.137   1.271  12.264  0.3765  0.7178 -1.2818
 3827SOL     OW23113   1.114   2.909   3.936  0.2538  0.2288  0.0693
 3827SOL    HW123114   1.040   2.970   3.943 -1.3996 -1.6670 -0.6714
 3827SOL    HW223115   1.069   2.844   3.881  0.6774  0.9858 -1.1617
 3828SOL     OW23116   3.037   2.993   5.017  0.8349 -0.0784  0.1604
 3828SOL    HW123117   3.084   3.074   5.001  2.5979 -1.2876 -0.8505
 3828SOL    HW223118   3.101   2.943   5.066  0.3798 -0.1053  0.7259
 3829SOL     OW23119   1.276   1.022   5.544  0.1902  0.8466  0.0408
 3829SOL    HW123120   1.208   0.956   5.558  1.6123 -0.5194  0.4882
 3829SOL    HW223121   1.343   0.970   5.498 -1.7482 -0.0466 -1.7838
 3830SOL     OW23122   0.038   0.900   6.866  0.0496 -0.0521  0.0037
 3830SOL    HW123123   0.068   0.831   6.807  3.5038  2.8523 -1.6674
 3830SOL    HW223124   4.717   0.947   6.809  1.0895  0.4365 -0.6851
 3831SOL     OW23125   1.298   0.311   7.979 -0.6575 -0.4541 -0.3685
 3831SOL    HW123126   1.210   0.327   8.014 -0.2215 -2.0447  1.4854
 3831SOL    HW223127   1.328   0.397   7.951  0.5077 -0.4968  0.7605
 3832SOL     OW23128   2.783   2.117   6.840  0.0777 -0.1254 -0.8779
 3832SOL    HW123129   2.759   2.204   6.870  1.0772  0.0241 -0.5220
 3832SOL    HW223130   2.789   2.123   6.745 -0.1750  0.7276 -0.8384
 3833SOL     OW23131   1.777   0.452   2.244 -0.4980  0.1142 -0.1546
 3833SOL    HW123132   1.799   0.390   2.175  0.1538  2.0679 -1.7191
 3833SOL    HW223133   1.712   0.514   2.210 -0.3369  1.1224  1.4041
 3834SOL     OW23134   3.144   2.379   6.570 -0.0440 -0.6408 -0.1423
 3834SOL    HW123135   3.115   2.294   6.602  0.7784  0.2696  3.0041
 3834SOL    HW223136   3.060   2.423   6.556  0.0257  0.7686  3.8209
 3835SOL     OW23137   1.113   1.199  16.695  0.2629  0.0142  0.4554
 3835SOL    HW123138   1.045   1.190  16.628  1.1064 -1.4136 -0.2023
 3835SOL    HW223139   1.186   1.220  16.636 -0.6139  1.2483 -0.1867
 3836SOL     OW23140   2.029   2.303   2.996 -0.4845 -0.7949 -0.6775
 3836SOL    HW123141   1.979   2.383   3.012 -0.3472 -1.1306  1.4989
 3836SOL    HW223142   2.009   2.281   2.905  0.8831  1.4933 -1.5452
 3837SOL     OW23143   0.417   2.940   7.667 -0.0526  0.0107 -0.1478
 3837SOL    HW123144   0.342   2.930   7.726  0.6786  0.5649  0.8930
 3837SOL    HW223145   0.385   3.004   7.603  0.2971  0.9379  0.6025
 3838SOL     OW23146   2.437   4.157   9.489 -0.0221  0.4821  0.9649
 3838SOL    HW123147   2.357   4.115   9.520  0.0763  1.1476  2.1074
 3838SOL    HW223148   2.488   4.179   9.567 -1.2632  2.3571  1.2484
 3839SOL     OW23149   3.792   3.095   4.191 -0.1299 -0.0971  0.7526
 3839SOL    HW123150   3.843   3.067   4.115 -0.8914 -1.1397  0.6163
 3839SOL    HW223151   3.761   3.011   4.225 -0.0075 -0.7318 -0.6894
 3840SOL     OW23152   2.600   4.462   7.602 -0.4478 -0.2766  0.0882
 3840SOL    HW123153   2.622   4.493   7.690  0.8618  2.9802 -1.3722
 3840SOL    HW223154   2.511   4.431   7.616 -0.9417  1.3838  0.5619
 3841SOL     OW23155   3.957   3.252  17.641  0.0645 -0.3901  0.2064
 3841SOL    HW123156   3.981   3.332  17.593  1.4373 -2.3127 -2.2685
 3841SOL    HW223157   3.863   3.259  17.624  0.0740  0.8411  0.5837
 3842SOL     OW23158   2.646   2.385   7.195  0.5852 -0.0939  0.1832
 3842SOL    HW123159   2.586   2.459   7.200  1.0223  0.4400 -2.6488
 3842SOL    HW223160   2.653   2.365   7.102  2.6151 -0.9592  0.5064
 3843SOL     OW23161   1.497   1.561   5.126  0.3267  0.5920 -0.3888
 3843SOL    HW123162   1.556   1.490   5.149 -0.2797  0.4250  0.6556
 3843SOL    HW223163   1.560   1.628   5.098 -0.1615  1.2394  0.0420
 3844SOL     OW23164   0.351   1.800   8.982  0.1728  0.0409 -0.0009
 3844SOL    HW123165   0.321   1.797   8.891  0.0296 -0.9701  0.0743
 3844SOL    HW223166   0.329   1.717   9.024  4.6343 -0.8661  0.5968
 3845SOL     OW23167   0.327   2.202   4.054 -0.2921 -0.2453  0.0761
 3845SOL    HW123168   0.299   2.226   3.966  1.0594 -0.8746 -0.5093
 3845SOL    HW223169   0.253   2.148   4.085 -2.0199  1.8325 -0.4262
 3846SOL     OW23170   3.448   2.859   8.626 -0.0311 -0.8273 -0.1014
 3846SOL    HW123171   3.379   2.924   8.614  0.5746 -0.3830 -1.1689
 3846SOL    HW223172   3.482   2.847   8.537 -0.6829  0.7689 -0.5597
 3847SOL     OW23173   2.137   1.577   1.542 -0.9686  0.0803 -0.0228
 3847SOL    HW123174   2.078   1.580   1.467 -0.7245  1.6658 -0.1487
 3847SOL    HW223175   2.065   1.604   1.600 -2.1213  0.7002 -1.7422
 3848SOL     OW23176   4.093   0.223   6.456  0.2459 -0.6770  0.1841
 3848SOL    HW123177   4.106   0.317   6.472  1.5006 -1.0121  1.1408
 3848SOL    HW223178   4.033   0.196   6.525  1.2990 -0.4755  1.1912
 3849SOL     OW23179   2.577   1.338  14.126 -0.6211 -0.0183  0.2000
 3849SOL    HW123180   2.562   1.278  14.054  1.9396  1.2024 -1.3483
 3849SOL    HW223181   2.546   1.287  14.201  0.5341 -1.8322 -0.5762
 3850SOL     OW23182   0.839   3.470   4.585  0.1164 -0.0458 -0.2098
 3850SOL    HW123183   0.931   3.492   4.573  0.4875  0.2480  3.0650
 3850SOL    HW223184   0.807   3.554   4.552 -1.6122 -1.1791 -1.4614
 3851SOL     OW23185   0.962   3.465   2.680  0.0671 -0.3833  0.0335
 3851SOL    HW123186   0.953   3.462   2.776 -1.9223  1.3741 -0.0914
 3851SOL    HW223187   1.036   3.524   2.665  2.8169 -4.3353 -1.7061
 3852SOL     OW23188   0.409   3.174  17.213  0.0289  0.1012  0.4237
 3852SOL    HW123189   0.317   3.167  17.240  0.1376  0.5910  0.9217
 3852SOL    HW223190   0.398   3.238  17.143  0.9142 -0.7034 -0.4525
 3853SOL     OW23191   2.698   3.839   7.595  0.3731  0.1063 -0.2606
 3853SOL    HW123192   2.792   3.857   7.583  0.5489 -1.6505 -1.5135
 3853SOL    HW223193   2.664   3.924   7.622 -0.3246 -0.2461 -0.0287
 3854SOL     OW23194   2.654   2.889   1.519 -0.1748  0.4015 -0.6145
 3854SOL    HW123195   2.617   2.801   1.531 -1.4513  1.0119 -0.0774
 3854SOL    HW223196   2.574   2.939   1.506 -1.0280 -1.0214 -0.8477
 3855SOL     OW23197   0.925   3.595   2.913  0.0365 -0.4349  0.0389
 3855SOL    HW123198   0.879   3.575   2.994 -1.2054 -0.5259 -0.6757
 3855SOL    HW223199   0.918   3.690   2.907  0.0327 -0.4875 -0.8481
 3856SOL     OW23200   2.132   0.339  13.603 -0.4968  0.2023 -0.2974
 3856SOL    HW123201   2.116   0.264  13.660  3.0293 -1.4476 -1.4708
 3856SOL    HW223202   2.040   0.364  13.598 -0.9264 -0.9517  1.5254
 3857SOL     OW23203   2.426   4.103   7.383 -0.0003 -0.0983  0.1744
 3857SOL    HW123204   2.462   4.098   7.471 -0.0638 -1.1488  0.1370
 3857SOL    HW223205   2.334   4.103   7.409 -0.3947  0.1091 -1.2166
 3858SOL     OW23206   0.916   4.514  16.117 -0.8542 -0.3871 -0.5008
 3858SOL    HW123207   0.838   4.550  16.159 -0.1764  2.2435 -1.5326
 3858SOL    HW223208   0.989   4.556  16.161 -2.5835  2.8034 -0.6589
 3859SOL     OW23209   3.101   2.891   9.519  0.3363  0.4070  0.2562
 3859SOL    HW123210   3.032   2.956   9.522 -1.4608 -1.4649 -0.6559
 3859SOL    HW223211   3.054   2.812   9.548  0.8064 -0.1661 -0.5341
 3860SOL     OW23212   0.119   4.602   4.216 -0.7308  0.1462  0.2574
 3860SOL    HW123213   0.093   4.512   4.195 -1.9099  0.2209  1.4187
 3860SOL    HW223214   0.118   4.637   4.127  0.1765  0.0001  0.1870
 3861SOL     OW23215   3.435   0.505   6.850 -0.1871 -0.0170 -0.1866
 3861SOL    HW123216   3.380   0.472   6.922  1.2859  0.1487  1.0104
 3861SOL    HW223217   3.370   0.511   6.780  0.5531 -0.7416 -0.9364
 3862SOL     OW23218   1.369   0.866   4.834  0.4108  0.2024  0.7084
 3862SOL    HW123219   1.293   0.829   4.788  1.6188  0.0255 -1.1482
 3862SOL    HW223220   1.379   0.955   4.801 -1.4287  0.2465  0.2799
 3863SOL     OW23221   1.786   1.580  14.553  0.2056 -0.0726 -0.1373
 3863SOL    HW123222   1.857   1.522  14.525  0.4547  0.2612 -0.1973
 3863SOL    HW223223   1.712   1.544  14.504  0.8491 -0.3121 -0.9336
 3864SOL     OW23224   2.919   1.526   9.123  0.2728 -0.0311 -0.0809
 3864SOL    HW123225   2.929   1.432   9.110 -2.0554 -0.2892  0.1259
 3864SOL    HW223226   2.864   1.526   9.201 -0.6049 -1.6418 -0.7120
 3865SOL     OW23227   4.087   1.957   0.846  0.1098 -0.0545  0.1434
 3865SOL    HW123228   4.078   1.863   0.829  1.4836 -0.2203  0.3995
 3865SOL    HW223229   4.012   1.978   0.902  0.0752 -0.3886  0.2215
 3866SOL     OW23230   2.334   0.187   8.927 -0.2267  0.5924  0.4355
 3866SOL    HW123231   2.379   0.265   8.895  1.1123 -0.1554  0.5120
 3866SOL    HW223232   2.359   0.115   8.869 -1.1482 -0.4954  1.3701
 3867SOL     OW23233   1.542   2.013   7.607  0.1188 -0.1199  0.2817
 3867SOL    HW123234   1.632   2.026   7.577  0.1682 -0.5746  0.2307
 3867SOL    HW223235   1.550   1.956   7.683  1.5554  0.3378  0.4819
 3868SOL     OW23236   1.698   2.232  11.513  0.4004 -0.1060  0.3625
 3868SOL    HW123237   1.649   2.303  11.472 -1.6670 -2.5516 -1.3293
 3868SOL    HW223238   1.637   2.165  11.483  1.4498  0.3704 -2.8496
 3869SOL     OW23239   3.442   0.449   4.270 -0.0503 -0.5687  0.2455
 3869SOL    HW123240   3.460   0.357   4.291  0.9855 -0.8663 -1.8661
 3869SOL    HW223241   3.382   0.432   4.197  1.2485  1.7363 -1.3338
 3870SOL     OW23242   0.983   2.983   6.924  0.0709  0.2975 -0.3110
 3870SOL    HW123243   0.988   3.018   6.835 -1.5163 -1.5736 -1.1371
 3870SOL    HW223244   0.891   2.997   6.947 -0.3396  0.1659 -1.8945
 3871SOL     OW23245   4.267   2.477   8.686 -0.3991 -0.3096 -0.1677
 3871SOL    HW123246   4.297   2.386   8.699 -1.8330 -0.5177  1.7213
 3871SOL    HW223247   4.175   2.458   8.671  0.2053 -0.4798 -3.6789
 3872SOL     OW23248   4.252   1.053   3.435  0.3024 -0.8765  0.2326
 3872SOL    HW123249   4.282   1.099   3.514 -2.2746 -1.0818  1.3586
 3872SOL    HW223250   4.282   1.101   3.358 -0.4842 -1.8611 -0.6848
 3873SOL     OW23251   1.380   3.596  14.094  0.0911  0.0737  0.4305
 3873SOL    HW123252   1.409   3.514  14.133 -2.5604 -0.1548  1.9027
 3873SOL    HW223253   1.348   3.558  14.012  0.7062  2.0012 -0.7212
 3874SOL     OW23254   0.051   2.080   4.762 -0.1603 -0.4114 -0.2368
 3874SOL    HW123255   0.114   2.018   4.724 -0.1640  0.9287 -2.4521
 3874SOL    HW223256   0.098   2.117   4.837  0.3799 -2.3738  0.3780
 3875SOL     OW23257   2.919   1.501  13.277 -0.0925 -0.0764 -0.0698
 3875SOL    HW123258   2.920   1.596  13.282 -1.0050 -0.0774  0.0513
 3875SOL    HW223259   2.857   1.492  13.205  0.9240 -2.2781 -0.6697
 3876SOL     OW23260   4.443   1.163   9.221  0.2956  0.1334  0.1128
 3876SOL    HW123261   4.351   1.166   9.246 -0.1646  1.1318 -1.6952
 3876SOL    HW223262   4.484   1.219   9.287  1.6358 -0.1107 -0.5173
 3877SOL     OW23263   4.141   0.490  12.293  0.2092  0.4655 -0.4026
 3877SOL    HW123264   4.078   0.422  12.317  1.2255 -1.0462 -1.9442
 3877SOL    HW223265   4.081   0.565  12.294  0.5486  0.7395 -0.5245
 3878SOL     OW23266   0.238   2.942   0.955 -0.0120 -0.3136 -0.2754
 3878SOL    HW123267   0.306   2.897   1.007  0.8678  2.2971  0.8197
 3878SOL    HW223268   0.275   3.023   0.921 -0.1221 -0.5363 -0.9184
 3879SOL     OW23269   2.368   1.669   3.869  0.3489 -0.0570 -0.1499
 3879SOL    HW123270   2.364   1.765   3.864  0.5766 -0.1616 -2.2930
 3879SOL    HW223271   2.314   1.650   3.946  0.4293  1.8573  0.3935
 3880SOL     OW23272   3.017   0.015   5.508  0.1691 -0.3845  0.0226
 3880SOL    HW123273   3.046   0.037   5.597 -1.6768  0.0811  0.5010
 3880SOL    HW223274   3.063   4.672   5.488  0.4798 -0.3200  0.4657
 3881SOL     OW23275   1.921   3.150   1.055 -0.0791  0.2298 -0.4528
 3881SOL    HW123276   1.846   3.183   1.007 -0.2476  0.4793 -0.0197
 3881SOL    HW223277   1.888   3.065   1.085 -0.7318  1.1108  1.3463
 3882SOL     OW23278   3.156   0.160   2.244  0.3419 -0.3202  0.4412
 3882SOL    HW123279   3.243   0.188   2.215 -1.1118  1.3438 -2.2735
 3882SOL    HW223280   3.144   0.231   2.307 -0.5751  1.0085 -1.2426
 3883SOL     OW23281   3.368   2.327   9.012  0.3167 -0.0929  0.6304
 3883SOL    HW123282   3.455   2.311   9.048 -0.0674 -0.4666  1.4156
 3883SOL    HW223283   3.384   2.420   8.996  1.7576 -0.7539 -1.7651
 3884SOL     OW23284   2.734   3.623  13.702  0.2488 -0.9894 -0.0483
 3884SOL    HW123285   2.739   3.708  13.745  4.4132 -3.4333  4.2859
 3884SOL    HW223286   2.738   3.556  13.770  0.6941 -0.5971  0.3123
 3885SOL     OW23287   0.819   3.331   5.550  0.1390  0.0482  0.5505
 3885SOL    HW123288   0.765   3.296   5.620 -0.4646 -0.5561 -0.2129
 3885SOL    HW223289   0.753   3.344   5.482  1.5983  1.0581 -0.6922
 3886SOL     OW23290   3.655   1.093  10.018 -0.2686  0.2252 -0.0886
 3886SOL    HW123291   3.702   1.110   9.936 -0.6309  3.4615  0.3774
 3886SOL    HW223292   3.730   1.100  10.078  0.3057  2.0244 -0.9906
 3887SOL     OW23293   0.803   3.336   1.628  0.5829 -0.0457 -0.1341
 3887SOL    HW123294   0.866   3.287   1.682 -0.1334  0.1979  0.9279
 3887SOL    HW223295   0.858   3.412   1.610  0.7979 -0.1320  0.1436
 3888SOL     OW23296   2.814   4.570   5.935 -0.0393 -0.0335 -0.0812
 3888SOL    HW123297   2.849   4.655   5.960  2.3071 -1.3203  1.0672
 3888SOL    HW223298   2.825   4.519   6.016 -0.9747 -0.9619 -0.5447
 3889SOL     OW23299   0.239   1.663   6.468  0.0001 -0.0837 -0.4460
 3889SOL    HW123300   0.300   1.591   6.450 -2.3350 -2.3264  0.6570
 3889SOL    HW223301   0.280   1.742   6.431  0.6694  0.2650  1.0237
 3890SOL     OW23302   1.205   0.538   9.491 -0.0030  0.8101  0.0719
 3890SOL    HW123303   1.140   0.547   9.421 -1.0164  1.0296  1.0302
 3890SOL    HW223304   1.217   0.626   9.526  1.9570  0.7787 -0.5489
 3891SOL     OW23305   4.259   4.353  11.818 -0.3001  0.4366  0.2940
 3891SOL    HW123306   4.178   4.303  11.826  0.5705 -1.2832 -1.5636
 3891SOL    HW223307   4.248   4.408  11.740  1.5122  0.4957  0.0774
 3892SOL     OW23308   2.160   0.766   3.797  0.2055 -0.6715 -0.0476
 3892SOL    HW123309   2.199   0.706   3.861 -1.0964 -2.1420 -0.6406
 3892SOL    HW223310   2.170   0.843   3.852 -3.3447  0.5740 -1.0972
 3893SOL     OW23311   4.502   0.455   3.306 -0.0646  0.7028  0.1623
 3893SOL    HW123312   4.443   0.494   3.242  0.9754  5.0621  1.8819
 3893SOL    HW223313   4.445   0.388   3.344 -0.1782  1.4993  1.4011
 3894SOL     OW23314   2.483   2.677   1.530 -0.4182 -0.1829  0.5400
 3894SOL    HW123315   2.401   2.655   1.574 -1.8135  1.5964 -1.1865
 3894SOL    HW223316   2.532   2.594   1.529  3.3146  2.0407 -3.4537
 3895SOL     OW23317   0.252   1.432   8.875  0.3364 -0.3183 -0.7271
 3895SOL    HW123318   0.264   1.480   8.957  4.1604  1.7269 -2.5364
 3895SOL    HW223319   0.162   1.458   8.853 -0.5473 -1.6831  1.2232
 3896SOL     OW23320   0.297   0.384   1.032  0.7586  0.4984 -0.1683
 3896SOL    HW123321   0.233   0.422   0.972  1.8195 -0.5350 -1.9501
 3896SOL    HW223322   0.312   0.298   0.993  1.4058  0.8802 -0.7448
 3897SOL     OW23323   4.250   2.748   2.818 -0.5322  0.3291 -0.0369
 3897SOL    HW123324   4.160   2.721   2.798 -0.8013  1.5808 -0.5353
 3897SOL    HW223325   4.263   2.712   2.905 -1.7017 -0.5550 -0.2227
 3898SOL     OW23326   1.579   3.276   2.255 -0.2033  0.1344 -0.0345
 3898SOL    HW123327   1.585   3.318   2.169 -1.9401  0.0408 -0.2087
 3898SOL    HW223328   1.535   3.197   2.223  0.5793 -0.9069  1.4754
 3899SOL     OW23329   1.917   2.814   5.133  0.4915 -0.4697 -0.5627
 3899SOL    HW123330   1.829   2.777   5.145 -1.0581  2.8450 -1.5110
 3899SOL    HW223331   1.976   2.741   5.117  1.4441  0.2320 -0.2238
 3900SOL     OW23332   3.881   2.593   8.446  0.5082 -0.1189  0.3208
 3900SOL    HW123333   3.954   2.631   8.398  0.0087 -1.1871 -1.2959
 3900SOL    HW223334   3.850   2.531   8.379  0.7772  0.9926 -0.8400
 3901SOL     OW23335   2.730   4.358  16.792 -0.5058 -0.2066 -0.1566
 3901SOL    HW123336   2.652   4.309  16.768 -0.7352 -0.2213  0.6060
 3901SOL    HW223337   2.717   4.440  16.744  0.5620 -0.0457 -0.1640
 3902SOL     OW23338   4.439   1.598   4.792 -0.5251  0.1194 -0.0124
 3902SOL    HW123339   4.408   1.660   4.726  1.3178 -0.3711 -1.3256
 3902SOL    HW223340   4.508   1.645   4.840  1.4446 -0.5657 -2.2234
 3903SOL     OW23341   4.449   1.026   8.760  0.0964 -0.3432  0.8440
 3903SOL    HW123342   4.477   1.074   8.838  2.7805 -0.2556 -0.1831
 3903SOL    HW223343   4.363   1.067   8.751 -1.3458 -3.3866  0.6461
 3904SOL     OW23344   0.682   2.363   2.458 -1.3081 -0.0848  0.2179
 3904SOL    HW123345   0.607   2.405   2.415 -0.6428  2.0583  1.1395
 3904SOL    HW223346   0.666   2.401   2.545 -1.9162 -2.2799  1.0643
 3905SOL     OW23347   3.902   2.599  17.491 -0.0018  0.8109  0.6344
 3905SOL    HW123348   3.958   2.522  17.497 -2.4031 -1.0342 -0.4557
 3905SOL    HW223349   3.858   2.610  17.575  1.3905  0.7436  1.3629
 3906SOL     OW23350   4.487   4.169   4.571  0.5309  0.0463  0.0815
 3906SOL    HW123351   4.412   4.111   4.586 -0.3458  0.8740 -1.1834
 3906SOL    HW223352   4.480   4.221   4.651  0.8538  0.4416 -0.1492
 3907SOL     OW23353   2.456   2.313   2.025  0.5917 -0.1693  0.3668
 3907SOL    HW123354   2.408   2.242   2.069 -1.1047  0.7795  0.0213
 3907SOL    HW223355   2.443   2.384   2.087 -0.0741  1.5703 -1.7722
 3908SOL     OW23356   0.941   3.022  16.225 -0.1913  0.0913  0.0253
 3908SOL    HW123357   0.996   3.002  16.150 -1.8301  0.5304 -1.3024
 3908SOL    HW223358   0.881   3.076  16.175 -1.1297 -1.2520 -0.3066
 3909SOL     OW23359   1.445   2.769  11.608 -0.5262  0.2209 -0.1481
 3909SOL    HW123360   1.421   2.790  11.518 -2.5924  0.7549  0.5464
 3909SOL    HW223361   1.364   2.777  11.657 -0.3980  0.3101  0.0500
 3910SOL     OW23362   0.501   2.315  14.940 -0.7751  0.5605 -0.0331
 3910SOL    HW123363   0.518   2.316  15.034  1.9614 -2.9615 -0.5103
 3910SOL    HW223364   0.542   2.237  14.903 -1.6382 -0.7594  1.8382
 3911SOL     OW23365   2.901   3.251   4.927 -0.8134  0.2971 -0.0833
 3911SOL    HW123366   2.988   3.275   4.897  0.6736 -1.0557  3.1336
 3911SOL    HW223367   2.903   3.166   4.884 -0.1195 -0.3459  1.2091
 3912SOL     OW23368   2.725   0.754   8.865  0.2017  0.0723 -0.0369
 3912SOL    HW123369   2.728   0.675   8.919  0.0311  0.1256  0.0489
 3912SOL    HW223370   2.649   0.795   8.906  0.2122  0.5897 -0.5445
 3913SOL     OW23371   1.124   1.981   8.771 -0.9497 -0.2231 -0.1280
 3913SOL    HW123372   1.160   1.893   8.760  1.7288  0.7278  1.0055
 3913SOL    HW223373   1.181   2.024   8.707  0.6120  1.9486  2.6887
 3914SOL     OW23374   2.026   0.474   8.900 -0.1516  0.8572  0.2044
 3914SOL    HW123375   1.965   0.519   8.842 -0.7190 -2.8917 -2.1185
 3914SOL    HW223376   2.073   0.546   8.943  0.0636  0.2176  1.0438
 3915SOL     OW23377   3.184   0.814   5.320 -0.0555  0.0333  0.3817
 3915SOL    HW123378   3.239   0.737   5.332  0.1139 -0.4523 -3.5840
 3915SOL    HW223379   3.108   0.800   5.377 -0.1667 -0.8061  0.0255
 3916SOL     OW23380   1.360   2.022   9.211 -0.0466  0.2905  0.2862
 3916SOL    HW123381   1.301   1.951   9.238 -0.6417  0.7834  0.2887
 3916SOL    HW223382   1.345   2.089   9.277 -0.7508  0.3491  0.0650
 3917SOL     OW23383   2.997   2.975   1.094  0.0246  0.4987  0.5081
 3917SOL    HW123384   2.903   2.974   1.075 -0.2242 -0.7233  1.8385
 3917SOL    HW223385   2.995   2.904   1.158 -0.3317 -1.8127 -2.0851
 3918SOL     OW23386   0.147   1.828   8.037  0.0386 -0.4942  0.5036
 3918SOL    HW123387   0.079   1.863   8.095 -0.2642  0.6242 -0.5414
 3918SOL    HW223388   0.084   1.801   7.970 -0.0598  0.6953  0.1165
 3919SOL     OW23389   0.106   1.788   2.225  0.1193  0.3779  0.8560
 3919SOL    HW123390   0.125   1.778   2.132 -0.6671  1.1626  0.6091
 3919SOL    HW223391   0.090   1.881   2.242 -0.5911  1.1021 -3.7764
 3920SOL     OW23392   0.916   2.973   7.952  0.2316 -0.6572 -0.2199
 3920SOL    HW123393   0.937   3.011   8.037 -1.1514 -0.7401  0.1549
 3920SOL    HW223394   0.830   2.938   7.971 -0.9516  2.0742 -0.5985
 3921SOL     OW23395   1.222   0.711   3.178  0.0281 -0.2452 -0.4425
 3921SOL    HW123396   1.316   0.729   3.186 -0.3067  1.7717 -0.8026
 3921SOL    HW223397   1.216   0.622   3.211  0.1701 -0.6457 -1.4939
 3922SOL     OW23398   4.542   4.190  15.409  0.0451 -0.4446 -0.3392
 3922SOL    HW123399   4.476   4.231  15.465  1.1044  0.6678  0.0794
 3922SOL    HW223400   4.612   4.184  15.474 -0.7906 -0.2546  0.5757
 3923SOL     OW23401   0.940   3.513   6.795  0.0975  0.2803  0.1460
 3923SOL    HW123402   0.906   3.601   6.811  1.7254  0.8647  0.4541
 3923SOL    HW223403   0.991   3.524   6.714 -3.0943 -1.3355 -2.0731
 3924SOL     OW23404   0.328   3.320   0.519 -0.1377 -0.8648 -0.4476
 3924SOL    HW123405   0.405   3.292   0.470 -0.2190  0.0132 -1.0808
 3924SOL    HW223406   0.252   3.278   0.479  1.2474 -2.4553 -1.4115
 3925SOL     OW23407   1.827   4.500   3.458 -0.7534  0.0845  0.1057
 3925SOL    HW123408   1.842   4.593   3.474  1.0795 -0.1730 -0.0474
 3925SOL    HW223409   1.787   4.499   3.371  0.1668  0.6607 -0.3334
 3926SOL     OW23410   0.856   0.367  12.992  0.2248  0.1323  0.0079
 3926SOL    HW123411   0.831   0.413  13.072 -0.9253  0.9403 -0.8157
 3926SOL    HW223412   0.945   0.333  13.003  0.3726 -0.1789 -2.1588
 3927SOL     OW23413   2.765   0.651   1.622  0.2941 -0.1528 -0.3003
 3927SOL    HW123414   2.679   0.609   1.618  0.9356 -1.2853 -2.2453
 3927SOL    HW223415   2.825   0.592   1.575  0.3907 -1.2463  1.1547
 3928SOL     OW23416   2.476   4.340   7.226 -0.4479 -0.6161  0.2180
 3928SOL    HW123417   2.552   4.349   7.168 -1.8443  2.1619 -1.2041
 3928SOL    HW223418   2.483   4.249   7.255  1.3390 -0.9845 -1.3779
 3929SOL     OW23419   1.630   0.572   3.676  0.2656  0.1428 -0.9429
 3929SOL    HW123420   1.557   0.595   3.619 -1.4026 -1.6187  0.4986
 3929SOL    HW223421   1.587   0.495   3.713  1.7102 -0.6769 -0.9802
 3930SOL     OW23422   0.107   1.724   6.136  0.2065  0.1968 -0.6674
 3930SOL    HW123423   0.130   1.631   6.132 -1.3747 -0.3303  1.9852
 3930SOL    HW223424   0.080   1.730   6.228 -0.2795  0.1548 -0.8067
 3931SOL     OW23425   2.622   1.626   8.569  0.5114  0.1890  0.1731
 3931SOL    HW123426   2.605   1.548   8.622 -3.8906  0.5958 -0.6631
 3931SOL    HW223427   2.711   1.650   8.593  0.4295 -1.2533  1.9057
 3932SOL     OW23428   0.174   1.690  12.555  0.2910  0.6619  0.3214
 3932SOL    HW123429   0.085   1.654  12.553  0.2606  0.7977 -0.9593
 3932SOL    HW223430   0.221   1.622  12.508 -0.6094 -0.9462  1.7465
 3933SOL     OW23431   0.249   3.345  17.648  0.2423  0.2000 -0.1421
 3933SOL    HW123432   0.255   3.276  17.714  0.3589  0.0701 -0.2894
 3933SOL    HW223433   0.310   3.409  17.684 -0.6345  1.6952 -1.3109
 3934SOL     OW23434   4.427   2.460   6.541 -0.5790 -0.2697  0.3545
 3934SOL    HW123435   4.362   2.510   6.590 -0.9222  1.1562 -1.5548
 3934SOL    HW223436   4.395   2.461   6.451 -1.0682 -0.3790  0.5259
 3935SOL     OW23437   1.646   2.531   5.977 -0.6397 -0.7581  0.3882
 3935SOL    HW123438   1.579   2.521   6.045  0.2408  1.2766  1.5543
 3935SOL    HW223439   1.726   2.502   6.022 -1.0670 -0.7900  1.1277
 3936SOL     OW23440   1.556   4.601   5.776  0.1642  0.3674  0.1749
 3936SOL    HW123441   1.529   4.689   5.800 -1.3599 -0.0509 -0.0535
 3936SOL    HW223442   1.639   4.618   5.730 -0.0520  1.0408  0.0329
 3937SOL     OW23443   4.595   3.503   3.124 -0.2575  0.1491  0.4689
 3937SOL    HW123444   4.511   3.538   3.092 -0.2215  0.6077  0.8794
 3937SOL    HW223445   4.580   3.409   3.138  1.7691 -0.4965 -1.8500
 3938SOL     OW23446   2.258   0.381  14.133 -0.2525 -0.6132 -0.6846
 3938SOL    HW123447   2.344   0.380  14.174 -1.0054 -1.6020  0.8634
 3938SOL    HW223448   2.202   0.401  14.208 -1.4746  0.0809 -1.7808
 3939SOL     OW23449   1.636   3.269   1.808 -0.2877  0.2308 -0.2629
 3939SOL    HW123450   1.646   3.221   1.726 -0.1705 -0.6722  0.2917
 3939SOL    HW223451   1.561   3.222   1.843 -0.4684 -0.9897 -2.3507
 3940SOL     OW23452   4.629   1.392   6.079  0.2650  0.0079  0.4064
 3940SOL    HW123453   4.717   1.410   6.044 -1.1455 -1.0766 -3.6594
 3940SOL    HW223454   4.666   1.327   6.139 -0.3983 -1.6765 -1.0218
 3941SOL     OW23455   0.975   2.441   2.522 -0.0715  0.1085  0.1664
 3941SOL    HW123456   0.896   2.409   2.479  0.1344  1.3885 -1.1484
 3941SOL    HW223457   0.960   2.422   2.614 -0.5207 -0.5995 -0.0497
 3942SOL     OW23458   2.178   3.389   7.238  0.0833 -0.3305  0.2859
 3942SOL    HW123459   2.255   3.363   7.188  0.3352 -1.7535  1.4328
 3942SOL    HW223460   2.107   3.386   7.174  0.7393 -1.4469 -0.3909
 3943SOL     OW23461   3.021   3.517   1.282 -0.3353 -0.3352 -0.3954
 3943SOL    HW123462   2.944   3.555   1.327 -1.1435 -1.3816 -0.9027
 3943SOL    HW223463   3.015   3.426   1.310  2.2664 -0.0875  0.9881
 3944SOL     OW23464   2.670   2.746  15.144 -0.1278 -0.3594  0.4887
 3944SOL    HW123465   2.690   2.827  15.097  0.4490 -1.6217 -1.4265
 3944SOL    HW223466   2.748   2.738  15.199 -2.1062  1.2080  3.4788
 3945SOL     OW23467   1.454   2.234   5.957 -0.0133  0.8477  0.8353
 3945SOL    HW123468   1.530   2.190   5.919  0.1633  0.5514  1.5416
 3945SOL    HW223469   1.410   2.252   5.874  1.5287  0.2575 -0.1059
 3946SOL     OW23470   4.581   2.150  12.984 -0.2882  0.3343  0.4527
 3946SOL    HW123471   4.509   2.172  13.044  0.0402 -1.5689  1.5538
 3946SOL    HW223472   4.583   2.229  12.931  0.1537  0.3342  0.4716
 3947SOL     OW23473   1.268   0.844  17.242 -0.2360  0.2648  0.3149
 3947SOL    HW123474   1.248   0.821  17.333 -1.8852 -2.2692 -0.6828
 3947SOL    HW223475   1.219   0.924  17.225  0.0678 -0.2033 -2.7037
 3948SOL     OW23476   2.309   0.642   9.759  0.2193  0.6680  0.3897
 3948SOL    HW123477   2.259   0.650   9.841  1.3830 -1.1812  1.2797
 3948SOL    HW223478   2.371   0.573   9.782 -2.4074 -0.8716  2.7904
 3949SOL     OW23479   3.643   0.788   4.538 -0.2201  0.4631  0.2577
 3949SOL    HW123480   3.661   0.703   4.499  1.4464  1.0115 -0.1705
 3949SOL    HW223481   3.576   0.764   4.603  2.2973 -0.8574  2.3668
 3950SOL     OW23482   4.444   1.859   2.007  0.4491  0.7312 -0.1144
 3950SOL    HW123483   4.362   1.875   1.960  0.1221 -1.7728 -0.4107
 3950SOL    HW223484   4.443   1.764   2.003  0.9056  0.6663  1.4662
 3951SOL     OW23485   1.052   0.203   9.177  0.2703  0.3065  0.4878
 3951SOL    HW123486   0.991   0.243   9.238  0.4852 -0.4991  1.2365
 3951SOL    HW223487   0.989   0.169   9.113 -1.1941  4.7294 -0.4272
 3952SOL     OW23488   3.711   2.153   5.823  0.3304 -0.2457 -0.1555
 3952SOL    HW123489   3.656   2.152   5.745 -1.3145 -1.6912  1.0212
 3952SOL    HW223490   3.714   2.063   5.857  0.7007  0.8929  2.8145
 3953SOL     OW23491   2.575   3.453   6.270 -0.1680  0.3973 -0.6688
 3953SOL    HW123492   2.547   3.361   6.268 -2.0150  0.9873 -1.8450
 3953SOL    HW223493   2.567   3.473   6.363  0.5983 -2.5365  0.0266
 3954SOL     OW23494   4.737   1.129   9.526 -0.1349 -0.3250 -0.3916
 3954SOL    HW123495   4.698   1.194   9.468 -1.6263 -2.0621 -1.3233
 3954SOL    HW223496   0.040   1.169   9.602  1.0678  0.1792 -1.3211
 3955SOL     OW23497   3.782   3.724   5.571 -0.4342 -0.2401 -0.3920
 3955SOL    HW123498   3.862   3.771   5.549 -1.5095  1.4851 -0.6373
 3955SOL    HW223499   3.800   3.706   5.663  1.4928 -0.8908 -0.8940
 3956SOL     OW23500   4.384   0.122   2.279 -0.0090 -0.6639 -0.6754
 3956SOL    HW123501   4.366   0.160   2.193 -2.1262 -0.9971 -0.3880
 3956SOL    HW223502   4.476   0.137   2.298 -0.1570 -1.0284  0.3516
 3957SOL     OW23503   2.064   3.254  15.258  0.2758 -0.4956 -0.0431
 3957SOL    HW123504   1.991   3.266  15.198 -0.1072  2.6588  1.0262
 3957SOL    HW223505   2.031   3.178  15.305  0.1193  0.3516  1.2400
 3958SOL     OW23506   4.120   0.072  12.180 -0.1751 -0.1706  0.2082
 3958SOL    HW123507   4.083   0.053  12.267  0.2724 -0.6917  0.2841
 3958SOL    HW223508   4.133   4.726  12.139 -0.8559 -1.9160  3.5904
 3959SOL     OW23509   1.546   3.301   4.341  0.1389  0.7549 -0.1882
 3959SOL    HW123510   1.530   3.258   4.257  2.0406  0.2092 -0.2851
 3959SOL    HW223511   1.629   3.345   4.323  0.0149  1.1842  0.3175
 3960SOL     OW23512   0.709   0.177   6.304 -0.4608  0.3851  0.2451
 3960SOL    HW123513   0.742   0.246   6.362  1.9730 -0.8036  0.2847
 3960SOL    HW223514   0.616   0.179   6.324 -0.4162 -1.1368  0.5807
 3961SOL     OW23515   4.510   1.883   4.179  0.0001 -0.0957  0.0154
 3961SOL    HW123516   4.445   1.827   4.222 -1.1205  0.6877 -0.6537
 3961SOL    HW223517   4.589   1.831   4.199 -0.7384 -1.3315 -0.2529
 3962SOL     OW23518   0.027   2.066   2.257  0.3059  0.2914 -0.4433
 3962SOL    HW123519   0.040   2.143   2.202 -0.1047  0.1296 -0.7698
 3962SOL    HW223520   0.011   2.120   2.333  0.9267 -1.1869  0.7466
 3963SOL     OW23521   1.796   2.940   3.662 -0.4902  0.1520  0.2615
 3963SOL    HW123522   1.746   2.971   3.737 -2.5927  0.8721 -1.4330
 3963SOL    HW223523   1.752   2.856   3.654 -0.0740  0.1737 -2.4304
 3964SOL     OW23524   0.731   4.146   8.504  0.1446  0.0591 -0.6530
 3964SOL    HW123525   0.758   4.236   8.525 -0.8586  0.2203 -0.0794
 3964SOL    HW223526   0.809   4.094   8.485 -0.4999 -0.8730 -0.7441
 3965SOL     OW23527   3.155   1.083   6.944 -0.1866 -0.0160 -0.7923
 3965SOL    HW123528   3.185   1.017   6.882 -0.5917 -1.5964  0.6715
 3965SOL    HW223529   3.061   1.081   6.927 -0.3779  0.4115  0.1864
 3966SOL     OW23530   1.126   4.113   1.969 -0.2043  0.3943 -0.2479
 3966SOL    HW123531   1.074   4.193   1.972 -1.3158 -0.3449 -0.0578
 3966SOL    HW223532   1.163   4.112   1.880 -0.9530 -0.0108 -0.5511
 3967SOL     OW23533   4.673   1.348   8.998 -0.1735  0.2886  0.3853
 3967SOL    HW123534   0.001   1.284   9.021 -1.4945 -1.7336 -1.3238
 3967SOL    HW223535   4.597   1.290   8.990  0.1158  0.0015 -0.2877
 3968SOL     OW23536   1.733   3.027   8.225  0.3776  0.1690  0.1543
 3968SOL    HW123537   1.797   2.956   8.221  0.6158  0.4827 -1.5166
 3968SOL    HW223538   1.708   3.038   8.134 -3.3334 -1.8651  0.9195
 3969SOL     OW23539   0.924   2.707   4.926  0.7926  0.7794 -1.0629
 3969SOL    HW123540   0.877   2.789   4.911  0.6218  0.1151 -4.0711
 3969SOL    HW223541   0.989   2.704   4.857  1.9169  0.8746 -0.0128
 3970SOL     OW23542   1.504   1.683   3.673 -0.4666  0.0179  0.4604
 3970SOL    HW123543   1.486   1.606   3.619 -0.9169 -0.4098  1.2262
 3970SOL    HW223544   1.518   1.747   3.603  2.9870 -0.4422  0.7537
 3971SOL     OW23545   2.794   2.308  13.103 -0.6414 -0.1854 -0.1787
 3971SOL    HW123546   2.854   2.370  13.145 -0.7465  1.9367 -3.1530
 3971SOL    HW223547   2.717   2.319  13.158 -0.7469  1.7562 -0.7255
 3972SOL     OW23548   2.626   0.606   7.271 -0.4725 -0.6809  0.0268
 3972SOL    HW123549   2.599   0.542   7.337  0.0199  0.6911  1.5627
 3972SOL    HW223550   2.713   0.630   7.304 -2.9489  1.8918  4.7536
 3973SOL     OW23551   1.927   0.689  13.609 -0.7098 -0.0172  0.0230
 3973SOL    HW123552   1.967   0.650  13.687  0.3494  0.3259 -0.3481
 3973SOL    HW223553   1.948   0.642  13.529  1.5504  0.8922  0.0767
 3974SOL     OW23554   1.526   4.485   6.945  0.2036 -0.1172 -0.1424
 3974SOL    HW123555   1.463   4.502   6.876  2.6760 -1.2161 -2.6840
 3974SOL    HW223556   1.606   4.468   6.895 -1.0307  0.9093 -2.4288
 3975SOL     OW23557   0.319   0.366  14.081 -0.1133 -0.5799  0.1465
 3975SOL    HW123558   0.257   0.435  14.106 -2.4389 -2.8142  0.6104
 3975SOL    HW223559   0.360   0.340  14.163 -0.8660  0.7745  0.9587
 3976SOL     OW23560   4.053   3.783   8.197 -0.5473 -0.0457  0.1177
 3976SOL    HW123561   4.070   3.709   8.256 -1.9718 -0.3863  0.1011
 3976SOL    HW223562   4.077   3.745   8.113 -0.3215 -1.4379  0.8061
 3977SOL     OW23563   0.028   0.115   6.681  0.1254  0.0282 -0.4027
 3977SOL    HW123564   4.716   0.185   6.640  0.1289 -0.2428 -0.8649
 3977SOL    HW223565   0.009   0.051   6.613  2.4724 -0.8142 -0.2467
 3978SOL     OW23566   0.529   0.893   6.637 -0.1310 -0.0743 -0.7523
 3978SOL    HW123567   0.533   0.906   6.542  1.4790  0.9543 -0.5361
 3978SOL    HW223568   0.527   0.797   6.642  0.7488  0.0210  1.4351
 3979SOL     OW23569   1.594   2.697   9.080 -0.6941  0.1567  0.2427
 3979SOL    HW123570   1.553   2.778   9.050  2.2767  2.4279  2.3566
 3979SOL    HW223571   1.515   2.643   9.085 -0.6799  0.2005  0.9878
 3980SOL     OW23572   0.138   3.568  15.092 -0.3895  0.5484 -0.1398
 3980SOL    HW123573   0.068   3.576  15.027  0.2095  2.0996 -0.5795
 3980SOL    HW223574   0.077   3.557  15.165  0.3053 -0.9635  0.2271
 3981SOL     OW23575   2.740   2.077  12.949  0.4615  0.6320 -0.2866
 3981SOL    HW123576   2.652   2.042  12.932  1.0076 -0.9387  0.2193
 3981SOL    HW223577   2.731   2.147  13.014  2.9858 -0.0251  0.7597
 3982SOL     OW23578   1.787   1.750  16.957  0.2788  0.3285  0.2314
 3982SOL    HW123579   1.796   1.747  16.861 -2.7004  2.6187 -0.1093
 3982SOL    HW223580   1.879   1.761  16.983  1.5663 -1.3677 -3.6129
 3983SOL     OW23581   0.807   0.309  14.626 -0.1416  0.1246 -0.1734
 3983SOL    HW123582   0.864   0.342  14.556  0.3595 -0.3020  0.0363
 3983SOL    HW223583   0.830   0.354  14.707  1.4333 -0.8775 -0.0710
 3984SOL     OW23584   2.436   4.202   6.610 -0.8239  0.1105  0.3690
 3984SOL    HW123585   2.421   4.296   6.601  0.5950  0.3091  0.1808
 3984SOL    HW223586   2.389   4.151   6.544  3.0278 -0.6366 -1.7713
 3985SOL     OW23587   1.508   0.370   3.821 -0.1731 -0.4109  0.3125
 3985SOL    HW123588   1.591   0.328   3.843  1.4923  0.9674 -3.2778
 3985SOL    HW223589   1.439   0.306   3.840  0.4849 -0.5384  2.2812
 3986SOL     OW23590   2.744   3.422  13.895  0.1664  0.0886  0.0145
 3986SOL    HW123591   2.758   3.329  13.875 -0.7065  0.2307 -1.2594
 3986SOL    HW223592   2.747   3.426  13.991 -1.3070  1.6685 -0.0137
 3987SOL     OW23593   0.971   3.474   4.875  0.1001 -0.2937  0.3095
 3987SOL    HW123594   1.032   3.403   4.897  0.8225  0.1718 -0.2187
 3987SOL    HW223595   1.012   3.502   4.794  0.3897 -0.4411  0.4028
 3988SOL     OW23596   3.814   4.135   1.957  0.7585  0.3575  0.1172
 3988SOL    HW123597   3.844   4.069   2.019 -2.8211 -1.4106 -0.0552
 3988SOL    HW223598   3.888   4.154   1.899 -0.8558 -0.7352 -2.3042
 3989SOL     OW23599   1.005   1.206   2.797 -0.4354  0.4636 -0.0597
 3989SOL    HW123600   1.066   1.139   2.829 -0.4350  0.1890 -0.6325
 3989SOL    HW223601   0.923   1.160   2.814 -0.5564 -1.0811 -4.8963
 3990SOL     OW23602   3.206   4.285   5.103  0.2670 -0.4999 -0.0831
 3990SOL    HW123603   3.262   4.341   5.157  0.6670 -0.8783 -0.1065
 3990SOL    HW223604   3.153   4.353   5.062 -0.3965 -1.8505 -1.4771
 3991SOL     OW23605   1.291   2.252   4.425  0.4939  0.4576 -0.0091
 3991SOL    HW123606   1.294   2.157   4.427  1.5957  0.4975  0.4033
 3991SOL    HW223607   1.376   2.283   4.456 -0.1562  0.3586  1.8284
 3992SOL     OW23608   0.271   0.355  14.647 -0.2006 -0.8534 -0.2387
 3992SOL    HW123609   0.362   0.333  14.668  0.1737  1.2705  0.3812
 3992SOL    HW223610   0.234   0.340  14.734  1.0742 -0.9461  0.2815
 3993SOL     OW23611   0.004   0.477   3.434  0.2769 -0.1309  0.4904
 3993SOL    HW123612   4.733   0.568   3.462 -2.4372 -0.8623  1.9125
 3993SOL    HW223613   4.664   0.466   3.380 -0.9143  0.1496  2.1919
 3994SOL     OW23614   4.367   3.641  14.391  0.2330 -0.4106  0.0554
 3994SOL    HW123615   4.432   3.695  14.347 -3.0916  0.8056 -3.3271
 3994SOL    HW223616   4.335   3.590  14.317 -0.6231 -0.1840  0.2644
 3995SOL     OW23617   0.149   0.378   6.495 -0.3019 -0.0489  0.8623
 3995SOL    HW123618   0.068   0.360   6.542 -0.3204 -1.1885  0.4015
 3995SOL    HW223619   0.211   0.419   6.556  0.7456  0.4441 -0.5206
 3996SOL     OW23620   2.114   0.223   4.582  0.0553 -0.1102 -0.1850
 3996SOL    HW123621   2.196   0.174   4.580 -0.2953 -0.6989 -0.3440
 3996SOL    HW223622   2.101   0.234   4.488  2.1689  0.6961 -0.3848
 3997SOL     OW23623   4.234   0.059   4.218 -0.1915  0.2976 -0.7966
 3997SOL    HW123624   4.268   0.127   4.159  0.0763 -1.0356 -2.1860
 3997SOL    HW223625   4.285   4.718   4.211 -1.0800 -0.6027  3.3403
 3998SOL     OW23626   2.091   0.112   2.971 -0.0185  0.2504 -0.0700
 3998SOL    HW123627   2.002   0.134   2.945  0.2588  2.8308  1.1574
 3998SOL    HW223628   2.086   0.046   3.039  0.4954 -1.6776 -1.8976
 3999SOL     OW23629   0.719   4.030   9.293  0.1300 -0.4957 -0.3853
 3999SOL    HW123630   0.745   3.947   9.253  2.2787 -0.4867  1.0056
 3999SOL    HW223631   0.795   4.080   9.261  0.0950  0.0949  0.4395
 4000SOL     OW23632   3.885   2.073  13.643 -0.7537  0.0314  0.1693
 4000SOL    HW123633   3.812   2.134  13.632 -2.3126 -2.0276 -0.8987
 4000SOL    HW223634   3.842   2.012  13.702  0.4726  0.9057  1.9708
 4001SOL     OW23635   1.217   3.770   8.966  0.1292 -0.2553 -0.3266
 4001SOL    HW123636   1.263   3.764   9.050 -1.8926 -1.7561  0.6738
 4001SOL    HW223637   1.129   3.739   8.984  0.3060  0.0280  1.0295
 4002SOL     OW23638   0.623   3.220   2.509 -0.2584 -0.3499  0.1967
 4002SOL    HW123639   0.687   3.287   2.487 -1.8763  1.7015  1.7656
 4002SOL    HW223640   0.646   3.198   2.599  0.7403  0.1523  0.0639
 4003SOL     OW23641   1.435   0.077   2.619  0.0495  0.3238 -0.1223
 4003SOL    HW123642   1.386   0.135   2.677 -1.1512 -0.3446 -0.4679
 4003SOL    HW223643   1.431   4.735   2.669  0.4740 -1.0027 -2.2172
 4004SOL     OW23644   0.187   0.178   1.917  0.0791 -0.0214 -0.0551
 4004SOL    HW123645   0.238   0.100   1.894  0.0456  0.1584 -0.7231
 4004SOL    HW223646   0.245   0.224   1.977  0.9213  0.8697 -1.5800
 4005SOL     OW23647   2.316   2.361   7.319 -0.2823  0.4127 -1.0511
 4005SOL    HW123648   2.306   2.320   7.233  0.9868  0.4466 -1.2209
 4005SOL    HW223649   2.298   2.283   7.372 -1.8013  1.6962  0.3106
 4006SOL     OW23650   2.501   0.983   0.515 -1.0560  0.4765  0.4012
 4006SOL    HW123651   2.530   1.041   0.585  0.2485 -0.6022  0.7526
 4006SOL    HW223652   2.416   1.025   0.509 -1.1061  0.3650  0.3225
 4007SOL     OW23653   3.153   4.505   7.020  0.1582 -0.0007  1.0656
 4007SOL    HW123654   3.227   4.556   7.052 -0.1844 -0.3137  2.3536
 4007SOL    HW223655   3.145   4.434   7.083  0.9940 -0.4536  0.6550
 4008SOL     OW23656   4.407   3.775   5.767  0.1947 -0.2835  0.0058
 4008SOL    HW123657   4.477   3.832   5.736  2.1647 -3.1446 -0.8712
 4008SOL    HW223658   4.377   3.829   5.840 -0.5083 -1.6455  0.7250
 4009SOL     OW23659   3.731   1.198  10.490  0.0420  0.4630 -0.1058
 4009SOL    HW123660   3.644   1.236  10.503  0.2022  0.0810  1.9523
 4009SOL    HW223661   3.722   1.109  10.523 -0.9918  1.2114  1.6323
 4010SOL     OW23662   0.561   1.218  17.084  0.2069  0.0112 -0.1658
 4010SOL    HW123663   0.523   1.131  17.094 -0.3995  0.2107 -0.7000
 4010SOL    HW223664   0.494   1.256  17.142  0.2366 -1.2784  0.6972
 4011SOL     OW23665   0.404   0.788   7.717  0.5462  0.2421  0.1682
 4011SOL    HW123666   0.443   0.760   7.634 -1.5032  0.3619 -0.8513
 4011SOL    HW223667   0.348   0.860   7.688  0.0975  0.3640  1.3324
 4012SOL     OW23668   0.808   1.863  16.852 -0.3178  0.7191  0.6520
 4012SOL    HW123669   0.862   1.914  16.912  1.7074 -1.7165  0.8727
 4012SOL    HW223670   0.724   1.891  16.890  0.0574 -0.7042  2.4782
 4013SOL     OW23671   4.416   2.578  15.712  0.2585 -0.6856 -0.3517
 4013SOL    HW123672   4.403   2.603  15.804  0.8016  0.5927 -0.6252
 4013SOL    HW223673   4.339   2.613  15.668  0.9234 -2.4829 -2.9302
 4014SOL     OW23674   1.429   2.634  10.080 -0.3248  0.1443  0.3176
 4014SOL    HW123675   1.475   2.718  10.075  0.9997 -0.6553 -0.8381
 4014SOL    HW223676   1.347   2.652  10.127 -1.8244 -0.3626 -2.1232
 4015SOL     OW23677   3.115   3.829  10.453  0.2196  0.0355 -0.1432
 4015SOL    HW123678   3.062   3.869  10.385  3.4190  3.1218 -0.8405
 4015SOL    HW223679   3.162   3.762  10.404 -2.7319 -2.3257  0.2688
 4016SOL     OW23680   1.996   4.354   7.813 -0.1724  0.1308 -0.2957
 4016SOL    HW123681   1.919   4.335   7.759 -0.6156  1.8686 -0.2496
 4016SOL    HW223682   1.997   4.277   7.871 -0.0843  0.7941  0.5800
 4017SOL     OW23683   4.177   2.434   5.930  0.4783  0.0151 -0.2097
 4017SOL    HW123684   4.105   2.371   5.926  0.3795 -0.0220  1.8471
 4017SOL    HW223685   4.137   2.509   5.886  1.5886  0.1064 -1.0576
 4018SOL     OW23686   1.448   2.472  13.153 -0.1604 -0.3176 -0.3928
 4018SOL    HW123687   1.440   2.378  13.134 -0.6214  0.3813 -3.6441
 4018SOL    HW223688   1.433   2.479  13.248  0.3219  0.4015 -0.3793
 4019SOL     OW23689   1.539   2.337   5.651 -0.1282  0.0028 -0.4621
 4019SOL    HW123690   1.615   2.389   5.626 -1.0976  1.6930  0.0804
 4019SOL    HW223691   1.470   2.404   5.649 -0.3115 -0.2512 -2.0648
 4020SOL     OW23692   1.287   4.249   6.177 -0.0819  0.5274 -0.3741
 4020SOL    HW123693   1.293   4.200   6.095  0.3086  0.2705 -0.1920
 4020SOL    HW223694   1.329   4.332   6.153  0.6007  0.4996  0.7364
 4021SOL     OW23695   1.178   2.957   8.371 -0.2694  0.4385 -0.1550
 4021SOL    HW123696   1.166   2.931   8.462 -0.2849 -1.0964 -0.6103
 4021SOL    HW223697   1.266   2.995   8.371  1.6422 -4.0364 -0.0237
 4022SOL     OW23698   1.564   0.989   5.704  0.2558 -0.4655 -0.3610
 4022SOL    HW123699   1.643   1.043   5.696  0.7510 -1.2087 -0.4743
 4022SOL    HW223700   1.498   1.057   5.689  1.9093  1.5279  1.4084
 4023SOL     OW23701   4.493   2.625   7.231  0.1966 -0.5471  0.1515
 4023SOL    HW123702   4.450   2.663   7.154 -0.3525 -1.4096  0.0359
 4023SOL    HW223703   4.585   2.632   7.205  0.5427 -2.4447  0.9143
 4024SOL     OW23704   2.104   2.228   7.546  0.6832  0.0735 -0.5009
 4024SOL    HW123705   2.051   2.255   7.471 -0.1362  0.3004  0.1696
 4024SOL    HW223706   2.153   2.160   7.499 -0.4379 -1.4513  0.5441
 4025SOL     OW23707   0.923   4.062   5.122  0.5747 -0.1086 -0.7672
 4025SOL    HW123708   0.853   4.115   5.162  1.2598  0.7864 -0.7685
 4025SOL    HW223709   0.880   3.977   5.128 -1.4723  0.9607 -0.2229
 4026SOL     OW23710   0.420   1.203   1.569  0.4264 -0.1707  0.3309
 4026SOL    HW123711   0.500   1.221   1.519 -1.1095  1.2007 -1.6187
 4026SOL    HW223712   0.439   1.217   1.662 -0.9513 -1.2533  0.7779
 4027SOL     OW23713   2.314   0.808   4.374 -0.0979 -0.5422 -0.1104
 4027SOL    HW123714   2.247   0.832   4.310  1.1658  3.1686 -0.0480
 4027SOL    HW223715   2.314   0.712   4.369 -1.8716 -0.4876 -1.2265
 4028SOL     OW23716   0.578   3.150   5.411  0.2186  0.0129  0.0745
 4028SOL    HW123717   0.497   3.113   5.376 -0.2723  0.8929  0.2758
 4028SOL    HW223718   0.638   3.100   5.356 -1.6278 -1.8250 -0.2601
 4029SOL     OW23719   2.299   2.609   9.312 -0.1552 -0.2858 -0.3442
 4029SOL    HW123720   2.293   2.617   9.408 -1.0649 -0.2600 -0.3970
 4029SOL    HW223721   2.392   2.589   9.302 -0.0463  1.0793 -2.0408
 4030SOL     OW23722   3.464   1.026  17.714  0.0462 -0.9710 -0.2407
 4030SOL    HW123723   3.418   0.946  17.690  1.4875 -1.5785 -1.0251
 4030SOL    HW223724   3.408   1.086  17.666 -0.0813 -0.9816 -0.1067
 4031SOL     OW23725   0.455   3.574   9.150 -0.9079 -0.2236  0.0592
 4031SOL    HW123726   0.403   3.638   9.100  2.5754  1.6141 -1.2669
 4031SOL    HW223727   0.495   3.528   9.075  0.6454 -2.5212  2.3070
 4032SOL     OW23728   1.348   4.571   6.738  0.2992 -0.0437 -0.1155
 4032SOL    HW123729   1.370   4.583   6.645  0.5918 -0.6304 -0.1203
 4032SOL    HW223730   1.271   4.516   6.725  0.1287  0.5766 -1.7246
 4033SOL     OW23731   1.183   2.423  16.987  0.1873  0.0929  0.5929
 4033SOL    HW123732   1.242   2.415  16.912 -1.6912  0.9395 -0.9769
 4033SOL    HW223733   1.175   2.518  16.992  0.0375  0.1089  0.0289
 4034SOL     OW23734   3.861   3.595   3.259 -0.2604  0.0825  0.6183
 4034SOL    HW123735   3.931   3.545   3.300  0.0503  1.0078  1.2282
 4034SOL    HW223736   3.815   3.523   3.216  0.2147 -0.0719  0.3815
 4035SOL     OW23737   4.048   3.962   3.257 -0.3525 -0.6557  0.0354
 4035SOL    HW123738   3.987   4.024   3.296  0.1602  0.3829 -0.8333
 4035SOL    HW223739   4.017   3.965   3.166 -2.1565 -1.1357  0.6248
 4036SOL     OW23740   3.665   1.704   9.357  0.0836  0.3216  0.5294
 4036SOL    HW123741   3.571   1.714   9.372  0.1128  0.9616  0.2884
 4036SOL    HW223742   3.704   1.778   9.402 -0.9289  0.7260  0.7486
 4037SOL     OW23743   3.400   2.365  13.959  0.4280 -0.4795  0.0477
 4037SOL    HW123744   3.346   2.328  13.890  0.7700 -2.9167  1.0766
 4037SOL    HW223745   3.459   2.419  13.906  1.7143 -1.9850 -0.0770
 4038SOL     OW23746   2.820   3.985   4.885 -0.2099  0.2025 -0.4765
 4038SOL    HW123747   2.799   3.922   4.955  1.7092  0.6990  0.5673
 4038SOL    HW223748   2.879   3.931   4.832  1.7516 -1.7482  3.5857
 4039SOL     OW23749   0.266   2.719   9.988 -0.4669 -0.0266  0.4755
 4039SOL    HW123750   0.296   2.767   9.910  1.0678 -0.8808  0.5354
 4039SOL    HW223751   0.314   2.637   9.992  0.7957  0.6489 -0.8432
 4040SOL     OW23752   1.840   3.797   3.462  0.5073 -0.0910  0.3787
 4040SOL    HW123753   1.789   3.738   3.406 -0.6606  0.0261  1.3198
 4040SOL    HW223754   1.764   3.823   3.514  1.0210  1.7803  0.2102
 4041SOL     OW23755   3.815   2.049  10.180 -0.0386 -0.4249  0.2203
 4041SOL    HW123756   3.748   1.980  10.176 -0.6757  0.2054  0.1322
 4041SOL    HW223757   3.803   2.069  10.273  1.1325  0.6801  0.1183
 4042SOL     OW23758   2.672   0.680  12.569 -0.3874  0.0621  0.0215
 4042SOL    HW123759   2.648   0.643  12.654 -0.4664 -0.6210 -0.3061
 4042SOL    HW223760   2.725   0.758  12.589  0.2763 -0.4389  0.2068
 4043SOL     OW23761   0.240   0.303   2.853  0.1801  0.3389 -0.3101
 4043SOL    HW123762   0.293   0.348   2.918  1.0356  0.6499 -1.2200
 4043SOL    HW223763   0.303   0.247   2.808 -1.2198 -1.9106  0.4939
 4044SOL     OW23764   3.776   3.112   7.297  0.6314 -0.1514 -0.1513
 4044SOL    HW123765   3.750   3.126   7.388  0.2353 -2.3648  0.0809
 4044SOL    HW223766   3.701   3.080   7.246 -1.2953  0.7103  2.1002
 4045SOL     OW23767   3.283   1.694   6.676  0.1892 -0.2019  0.2050
 4045SOL    HW123768   3.362   1.743   6.699  1.3395 -1.6336 -0.7162
 4045SOL    HW223769   3.316   1.609   6.649  0.2718 -0.8849  2.4416
 4046SOL     OW23770   3.196   4.511   2.867  0.6468  0.0288 -0.4778
 4046SOL    HW123771   3.196   4.415   2.864  0.5310 -0.0003  0.4757
 4046SOL    HW223772   3.104   4.517   2.842  0.8427 -2.7877 -1.9220
 4047SOL     OW23773   2.597   0.995  17.388  0.3661  0.3791  0.2615
 4047SOL    HW123774   2.643   1.005  17.305 -0.0264 -0.7238 -0.0875
 4047SOL    HW223775   2.520   0.942  17.371  0.8206 -0.4828  0.8559
 4048SOL     OW23776   3.531   2.398   6.697 -0.4449  0.2548  0.7747
 4048SOL    HW123777   3.456   2.458   6.703  0.9560  1.9619  0.9857
 4048SOL    HW223778   3.533   2.384   6.791 -0.7055 -1.4330  0.5308
 4049SOL     OW23779   0.958   4.463   9.522  0.3487 -0.0525  0.5260
 4049SOL    HW123780   1.011   4.444   9.444  1.5121  2.0067  0.8072
 4049SOL    HW223781   0.870   4.450   9.487  1.1486 -0.1959 -1.4069
 4050SOL     OW23782   3.609   3.651  10.348  0.3991 -0.1727  0.2999
 4050SOL    HW123783   3.583   3.617  10.263  0.6114 -0.2330  0.2603
 4050SOL    HW223784   3.696   3.612  10.353 -0.2029 -1.5354  0.0268
 4051SOL     OW23785   4.665   1.340   1.094  0.3115 -0.0686  0.0024
 4051SOL    HW123786   4.669   1.422   1.045 -1.0590  0.0358  0.0672
 4051SOL    HW223787   0.018   1.315   1.100 -0.2895 -1.6692  2.7757
 4052SOL     OW23788   2.501   0.425   4.442 -0.5096 -0.6824  0.4014
 4052SOL    HW123789   2.573   0.380   4.487  0.8382  1.8728  0.8732
 4052SOL    HW223790   2.533   0.416   4.352  0.5286 -1.2868  0.8257
 4053SOL     OW23791   1.601   3.357   8.600 -0.0121 -0.1867 -0.4636
 4053SOL    HW123792   1.658   3.321   8.532 -0.1173  0.9461 -1.1414
 4053SOL    HW223793   1.525   3.301   8.583  0.3525 -0.7994 -0.0732
 4054SOL     OW23794   0.481   2.199   0.981 -0.2581  0.0294 -0.5030
 4054SOL    HW123795   0.396   2.155   0.987  0.0006 -0.4398 -0.2604
 4054SOL    HW223796   0.449   2.286   1.002 -0.9153 -0.9852  2.7450
 4055SOL     OW23797   3.521   1.873   6.741  0.4453 -0.0505 -0.3763
 4055SOL    HW123798   3.575   1.858   6.664 -1.8750 -0.2633 -1.9902
 4055SOL    HW223799   3.560   1.811   6.802 -0.1673 -1.7961 -1.7467
 4056SOL     OW23800   4.653   1.090  17.440  0.8093  0.1329 -0.2111
 4056SOL    HW123801   4.655   1.095  17.344  0.1760  2.2731 -0.1018
 4056SOL    HW223802   4.564   1.056  17.450 -0.0475  1.9729 -1.7587
 4057SOL     OW23803   1.444   3.140   3.341 -0.2276 -0.3893  0.1756
 4057SOL    HW123804   1.534   3.109   3.352 -0.1652  0.0635  0.9545
 4057SOL    HW223805   1.394   3.064   3.369  0.9351 -1.2911 -0.2184
 4058SOL     OW23806   2.557   0.412   1.260  0.1651 -0.2103 -0.6271
 4058SOL    HW123807   2.608   0.379   1.334 -0.8863 -2.0352 -0.7384
 4058SOL    HW223808   2.626   0.459   1.212  0.6396 -0.6195 -0.3504
 4059SOL     OW23809   1.873   1.320   6.491 -0.3337  0.3360 -0.3631
 4059SOL    HW123810   1.803   1.281   6.439  0.6101 -1.0858 -0.5538
 4059SOL    HW223811   1.943   1.260   6.465 -0.1450 -0.2640  1.5241
 4060SOL     OW23812   0.058   4.522   5.296  0.4505  0.0149  0.2991
 4060SOL    HW123813   0.074   4.552   5.207 -1.5729 -0.0523 -0.0909
 4060SOL    HW223814   0.018   4.436   5.281 -1.2288  0.6626  1.0354
 4061SOL     OW23815   3.475   0.974   7.898 -0.1143  0.4825  0.0913
 4061SOL    HW123816   3.538   0.992   7.828 -0.3309 -2.6133 -0.8888
 4061SOL    HW223817   3.392   0.962   7.852 -1.0574  0.1631  1.8783
 4062SOL     OW23818   0.709   4.307   7.772 -0.3339  0.1237 -0.3709
 4062SOL    HW123819   0.675   4.322   7.683 -1.4831  0.8572  0.1808
 4062SOL    HW223820   0.792   4.262   7.761 -0.5380 -0.0044 -1.4065
 4063SOL     OW23821   4.155   3.883   9.788  0.1023  0.6937 -0.0886
 4063SOL    HW123822   4.089   3.901   9.855 -1.4790 -4.8994 -0.0936
 4063SOL    HW223823   4.103   3.855   9.713 -0.9634  0.1633  0.8523
 4064SOL     OW23824   1.107   3.976  16.673 -0.8445  0.1268 -0.3283
 4064SOL    HW123825   1.183   3.957  16.618  1.1934  0.5700  2.3089
 4064SOL    HW223826   1.118   4.070  16.688  1.5173 -0.4861  1.9004
 4065SOL     OW23827   4.364   3.443  14.208 -0.2422  0.1452  0.2357
 4065SOL    HW123828   4.293   3.378  14.215  2.2744 -2.6826 -0.5541
 4065SOL    HW223829   4.422   3.399  14.145 -2.4799 -0.6143 -1.2942
 4066SOL     OW23830   1.994   4.197  14.674 -0.3971 -0.0278 -0.1344
 4066SOL    HW123831   2.019   4.105  14.682  0.4358  0.5598  3.8935
 4066SOL    HW223832   1.948   4.205  14.757  0.8823 -1.9806  0.7447
 4067SOL     OW23833   1.699   3.269   7.332 -0.2718  0.0101 -0.1558
 4067SOL    HW123834   1.756   3.199   7.362  0.6547 -0.1522 -2.3047
 4067SOL    HW223835   1.655   3.234   7.255 -2.4810 -1.8497  1.9608
 4068SOL     OW23836   4.267   3.957   5.465 -0.1342  0.2208  0.4014
 4068SOL    HW123837   4.344   3.967   5.520  1.2568  0.1749 -1.5517
 4068SOL    HW223838   4.295   3.887   5.407 -1.4930  2.3013 -2.7444
 4069SOL     OW23839   4.455   4.487   3.330 -0.0995  0.3121 -0.4768
 4069SOL    HW123840   4.402   4.447   3.398  2.3145  0.7464  1.6387
 4069SOL    HW223841   4.499   4.407   3.302 -1.2249  0.2449 -2.0831
 4070SOL     OW23842   3.859   3.835   8.404  0.0077  0.1659 -0.5147
 4070SOL    HW123843   3.903   3.804   8.325  0.0554  0.3990 -0.5801
 4070SOL    HW223844   3.808   3.908   8.369  1.6336  1.4661 -0.1544
 4071SOL     OW23845   3.452   4.637   2.084  0.9258 -0.2287  0.1199
 4071SOL    HW123846   3.439   4.692   2.161  0.2884  1.2862 -1.0665
 4071SOL    HW223847   3.436   4.551   2.123  1.0670 -0.5212 -0.4580
 4072SOL     OW23848   4.634   3.739   9.111  0.1962  0.0660  0.1360
 4072SOL    HW123849   4.575   3.798   9.158  0.1560 -1.2260  1.7369
 4072SOL    HW223850   4.595   3.740   9.024  0.0752  1.8607  0.2153
 4073SOL     OW23851   2.727   4.187   4.488 -0.0975  0.0556  0.3238
 4073SOL    HW123852   2.700   4.097   4.503  1.0823 -0.3742 -0.1498
 4073SOL    HW223853   2.641   4.230   4.483 -1.1823 -1.8863  2.2672
 4074SOL     OW23854   1.774   0.746   7.273 -0.3967  0.4039  0.1047
 4074SOL    HW123855   1.726   0.826   7.292  1.2092  1.7421 -1.4630
 4074SOL    HW223856   1.716   0.688   7.224  0.8086 -2.8386  2.4803
 4075SOL     OW23857   1.155   2.829   5.190  0.0873 -0.2219  0.2056
 4075SOL    HW123858   1.162   2.849   5.283 -3.8024  1.7733  0.0598
 4075SOL    HW223859   1.122   2.739   5.193  2.2169 -0.9140  2.6310
 4076SOL     OW23860   0.538   3.010   3.885 -0.2275  0.3279 -0.3243
 4076SOL    HW123861   0.463   2.993   3.829 -0.0822 -2.0009  0.2084
 4076SOL    HW223862   0.515   3.099   3.911 -1.2151 -0.3070  0.9766
 4077SOL     OW23863   3.531   3.911  10.265 -0.2806 -0.0459 -0.4488
 4077SOL    HW123864   3.483   3.954  10.335 -0.5852 -0.0082 -0.6816
 4077SOL    HW223865   3.559   3.829  10.304  0.8296  1.0691  1.0827
 4078SOL     OW23866   1.395   0.185   5.022 -0.0545  0.3904  0.6295
 4078SOL    HW123867   1.358   0.102   4.991  0.3725 -0.1152  1.4662
 4078SOL    HW223868   1.324   0.232   5.064 -0.0220 -0.1047  1.2375
 4079SOL     OW23869   1.135   1.137   3.404  0.0973  0.3166 -0.0974
 4079SOL    HW123870   1.225   1.106   3.412 -0.5864 -1.2101  1.6298
 4079SOL    HW223871   1.096   1.063   3.358 -2.0020  0.5514  1.3217
 4080SOL     OW23872   3.013   2.403  11.901 -0.2899  0.0678  0.3653
 4080SOL    HW123873   3.027   2.492  11.934  1.2618  0.1571 -0.5758
 4080SOL    HW223874   2.966   2.410  11.818  1.5161 -0.6213 -0.7067
 4081SOL     OW23875   0.149   4.534   5.579 -0.4578 -0.1305  0.7002
 4081SOL    HW123876   0.143   4.552   5.486 -3.7864 -1.4875  0.6409
 4081SOL    HW223877   0.177   4.443   5.569  0.9334  0.3603  0.1058
 4082SOL     OW23878   2.938   1.987   5.552 -0.1114 -0.5219 -0.1734
 4082SOL    HW123879   2.982   2.061   5.511 -2.7882  2.0344  1.5776
 4082SOL    HW223880   2.852   2.024   5.570  1.4034  2.8245  0.0202
 4083SOL     OW23881   3.617   1.153   5.185 -0.2672 -0.0433 -0.0250
 4083SOL    HW123882   3.603   1.101   5.264 -0.6650 -1.1298 -0.8009
 4083SOL    HW223883   3.617   1.241   5.222  4.0894  0.3509 -1.0010
 4084SOL     OW23884   3.521   4.033  17.175 -0.4000 -0.3028  0.2327
 4084SOL    HW123885   3.482   3.959  17.128 -0.5305  1.6584 -2.6915
 4084SOL    HW223886   3.570   4.076  17.105  2.5427 -0.2717  2.2711
 4085SOL     OW23887   3.556   1.859   2.734  0.8482  0.0427  0.3742
 4085SOL    HW123888   3.555   1.816   2.820  1.5319 -0.7456 -0.0191
 4085SOL    HW223889   3.620   1.808   2.684  2.1162  0.7303  1.2891
 4086SOL     OW23890   4.487   0.549   4.007  0.1226 -0.1552  0.3389
 4086SOL    HW123891   4.428   0.620   3.982  0.5094  0.0770  0.0915
 4086SOL    HW223892   4.507   0.517   3.919 -0.5753  0.8647 -0.1853
 4087SOL     OW23893   1.462   2.424   6.143  0.2518  0.7555 -0.1714
 4087SOL    HW123894   1.449   2.345   6.091  1.8231 -0.3728  1.1762
 4087SOL    HW223895   1.374   2.459   6.133  0.9926  2.5109 -0.5817
 4088SOL     OW23896   1.941   4.195  15.521 -0.0106  0.2729  0.1294
 4088SOL    HW123897   1.960   4.285  15.495  1.1154  0.4266  1.4839
 4088SOL    HW223898   1.872   4.169  15.461  2.2479 -2.1292 -1.4001
 4089SOL     OW23899   0.214   3.046   7.132 -0.5731 -0.0149 -0.1627
 4089SOL    HW123900   0.133   3.039   7.183 -0.3156  0.2627  0.2920
 4089SOL    HW223901   0.205   2.974   7.071  1.2106 -0.4760  0.0963
 4090SOL     OW23902   1.495   0.820  15.834 -0.2958 -0.1031 -0.4945
 4090SOL    HW123903   1.449   0.892  15.877  0.8947  0.7492 -0.6356
 4090SOL    HW223904   1.580   0.859  15.813 -0.7664  1.3490  0.3109
 4091SOL     OW23905   3.734   1.058  13.815 -0.4087 -0.7324 -0.3384
 4091SOL    HW123906   3.710   1.019  13.899  0.3460  0.9994  0.6816
 4091SOL    HW223907   3.813   1.105  13.843 -2.4672  1.6200  1.4648
 4092SOL     OW23908   3.616   1.451  12.898  0.6561  0.0053 -0.1658
 4092SOL    HW123909   3.670   1.383  12.857  2.1932 -0.2389  2.2618
 4092SOL    HW223910   3.637   1.444  12.991  0.8532  1.7951 -0.0793
 4093SOL     OW23911   4.137   4.335  10.328 -0.0136  0.0223 -0.1734
 4093SOL    HW123912   4.076   4.273  10.369 -1.4506  1.2802 -0.4088
 4093SOL    HW223913   4.225   4.297  10.330  0.1777  0.4931  0.2577
 4094SOL     OW23914   2.057   0.193   4.847  0.0333 -0.4750 -0.0899
 4094SOL    HW123915   2.129   0.131   4.857 -0.8649 -1.7616 -1.6776
 4094SOL    HW223916   2.057   0.193   4.752  0.7101 -0.7631 -0.0916
 4095SOL     OW23917   2.474   0.031  16.625 -0.5799  0.3551  0.4966
 4095SOL    HW123918   2.537   0.071  16.565  0.2461  1.1282  1.8599
 4095SOL    HW223919   2.389   0.055  16.588 -1.0329 -1.6973  0.1988
 4096SOL     OW23920   3.246   3.815   4.610  0.6590 -0.3649  0.5099
 4096SOL    HW123921   3.283   3.892   4.568  0.0218 -0.9158 -1.0939
 4096SOL    HW223922   3.286   3.748   4.553  2.2417  0.5764  0.5169
 4097SOL     OW23923   0.524   1.762  16.606 -0.0037 -0.0484  0.2203
 4097SOL    HW123924   0.432   1.785  16.591  0.4285  1.7136  0.3328
 4097SOL    HW223925   0.558   1.832  16.662  0.5204 -0.7212  0.7324
 4098SOL     OW23926   4.523   0.063  17.566  0.4651  0.0802 -0.1957
 4098SOL    HW123927   4.505   0.064  17.660  3.8079  0.2456  0.4351
 4098SOL    HW223928   4.562   4.715  17.556  1.3987  0.5308 -0.5102
 4099SOL     OW23929   0.427   2.498   9.169  0.0238  0.1693  0.0762
 4099SOL    HW123930   0.445   2.592   9.164  2.5645 -0.3525 -0.6881
 4099SOL    HW223931   0.406   2.481   9.261 -1.1169  1.7498  0.1162
 4100SOL     OW23932   2.783   1.461   6.768 -0.4459 -0.5819 -0.6801
 4100SOL    HW123933   2.855   1.418   6.723  0.1178 -1.5828  1.2072
 4100SOL    HW223934   2.768   1.528   6.701 -2.0636 -0.7513 -0.4926
 4101SOL     OW23935   4.513   2.200   7.639  0.2868  0.2449 -0.4674
 4101SOL    HW123936   4.575   2.128   7.626  0.9917  0.7024  0.3479
 4101SOL    HW223937   4.572   2.275   7.641 -2.1823  2.1807  0.6232
 4102SOL     OW23938   0.211   1.891   1.718  0.0085 -0.3410 -0.5976
 4102SOL    HW123939   0.156   1.969   1.729  1.4585  0.4776  0.8378
 4102SOL    HW223940   0.285   1.901   1.777 -1.0125  3.3602  0.0548
 4103SOL     OW23941   3.875   3.284   3.947 -0.0194 -0.2511 -0.3813
 4103SOL    HW123942   3.879   3.292   4.042  0.5668  0.2756 -0.4568
 4103SOL    HW223943   3.802   3.224   3.929 -0.1056 -0.3185  0.1776
 4104SOL     OW23944   3.917   0.613  13.582 -0.4510  0.1837 -1.0475
 4104SOL    HW123945   3.945   0.636  13.493 -0.9920  1.2714 -0.9250
 4104SOL    HW223946   3.902   0.518  13.579  0.2723 -0.0020  1.0623
 4105SOL     OW23947   1.653   1.440  17.513 -0.4684 -0.3865  0.8281
 4105SOL    HW123948   1.660   1.429  17.418 -0.3101  1.1609  0.6598
 4105SOL    HW223949   1.560   1.420  17.517 -0.5589 -0.0700  0.2524
 4106SOL     OW23950   4.735   2.699   7.135 -0.2481  0.5159  0.3849
 4106SOL    HW123951   0.073   2.642   7.136 -1.1520 -0.6730  1.8894
 4106SOL    HW223952   4.731   2.713   7.040  1.9083  0.4671  0.2891
 4107SOL     OW23953   1.735   3.270   3.784 -0.1807  0.1471 -0.6931
 4107SOL    HW123954   1.668   3.216   3.742 -0.4933  1.5654 -2.0059
 4107SOL    HW223955   1.711   3.358   3.755  1.6452  0.1132 -2.2176
 4108SOL     OW23956   0.290   4.336  17.049 -0.4337 -0.2587 -0.0911
 4108SOL    HW123957   0.371   4.383  17.073  0.1662 -3.1026  3.5200
 4108SOL    HW223958   0.227   4.404  17.075 -2.7159 -1.3085 -2.9584
 4109SOL     OW23959   1.795   2.825  10.009 -1.0012 -0.0147  0.2644
 4109SOL    HW123960   1.842   2.879  10.072  0.0144 -1.3838  0.6863
 4109SOL    HW223961   1.707   2.841  10.044  0.2818 -1.4874  4.1219
 4110SOL     OW23962   3.442   1.970   7.304  0.3086  0.0978  0.1888
 4110SOL    HW123963   3.397   1.927   7.232  2.2150  0.2982 -1.1245
 4110SOL    HW223964   3.368   2.015   7.344 -1.3525 -1.0316 -1.6144
 4111SOL     OW23965   1.870   1.666   9.004 -0.9166  0.1088  0.2502
 4111SOL    HW123966   1.906   1.753   9.023  0.7349 -0.4930 -0.0488
 4111SOL    HW223967   1.876   1.635   9.094  0.1252  1.4127  0.6247
 4112SOL     OW23968   0.726   0.932   3.316  0.1793 -0.0218  0.4964
 4112SOL    HW123969   0.688   0.966   3.397 -0.9709 -0.3465  0.0935
 4112SOL    HW223970   0.652   0.882   3.281 -0.1969  1.8919 -1.4668
 4113SOL     OW23971   3.310   3.368  16.526 -0.4737 -0.1873  0.2126
 4113SOL    HW123972   3.246   3.356  16.596 -1.3423  0.5592 -0.4521
 4113SOL    HW223973   3.354   3.442  16.569 -2.1814  1.3094 -0.6274
 4114SOL     OW23974   3.424   0.665  16.589  0.3572  0.0661 -0.1137
 4114SOL    HW123975   3.474   0.696  16.514  0.3939  0.9966  0.2928
 4114SOL    HW223976   3.417   0.739  16.650  2.1034 -0.2004  0.4230
 4115SOL     OW23977   3.284   1.555  13.217 -0.0872  0.0860  0.1924
 4115SOL    HW123978   3.277   1.622  13.286  0.2518  1.7144 -1.3681
 4115SOL    HW223979   3.363   1.577  13.168  0.3083 -2.4982 -0.3068
 4116SOL     OW23980   0.281   2.615  13.924  0.5128 -0.2884 -0.6605
 4116SOL    HW123981   0.229   2.545  13.886 -2.5495 -0.8111  4.4899
 4116SOL    HW223982   0.363   2.570  13.942  0.4168 -1.4615 -3.1291
 4117SOL     OW23983   1.414   2.199   6.775 -0.0141  0.1118 -0.3362
 4117SOL    HW123984   1.486   2.250   6.739  0.6084 -1.0178 -0.6991
 4117SOL    HW223985   1.377   2.148   6.703 -2.5054  3.8011 -1.6831
 4118SOL     OW23986   2.427   2.356   4.066 -0.6908 -0.1021  0.0861
 4118SOL    HW123987   2.443   2.428   4.127  1.5059 -1.6156  1.3186
 4118SOL    HW223988   2.353   2.319   4.115 -2.1657 -0.2278 -2.2507
 4119SOL     OW23989   1.630   1.832   6.903  0.0075 -0.3385  0.1516
 4119SOL    HW123990   1.564   1.895   6.931  0.5333  0.4397 -0.3768
 4119SOL    HW223991   1.652   1.800   6.990  1.8847 -1.9697 -0.9157
 4120SOL     OW23992   2.453   1.156  14.270 -0.0629 -0.2418  0.2228
 4120SOL    HW123993   2.385   1.094  14.243 -0.0819 -0.1900  0.1509
 4120SOL    HW223994   2.460   1.113  14.355 -3.1318 -0.0474  0.5767
 4121SOL     OW23995   1.483   1.797   8.673 -0.2375  0.3931  0.2713
 4121SOL    HW123996   1.477   1.703   8.660 -0.5833  0.2754  1.3237
 4121SOL    HW223997   1.467   1.830   8.584  1.6206 -2.2899 -1.0541
 4122SOL     OW23998   1.058   2.112   2.294 -0.3368 -0.0862  0.6943
 4122SOL    HW123999   1.119   2.097   2.366  0.9742 -0.2903 -0.4648
 4122SOL    HW224000   1.096   2.197   2.270 -0.8094 -0.0171  0.1580
 4123SOL     OW24001   4.704   4.544   2.882  0.0228  0.6610  0.2561
 4123SOL    HW124002   0.020   4.622   2.881 -1.3333  1.6138 -0.3220
 4123SOL    HW224003   4.616   4.584   2.882  0.4869  1.6740 -0.5814
 4124SOL     OW24004   1.843   0.810  13.244 -0.5765 -0.7458  0.4528
 4124SOL    HW124005   1.897   0.743  13.287  1.2447  0.0846 -0.5448
 4124SOL    HW224006   1.851   0.893  13.290 -2.0347  0.1381 -0.8949
 4125SOL     OW24007   2.754   3.710   4.868 -0.0289  0.1481 -0.1803
 4125SOL    HW124008   2.734   3.618   4.885  0.0560 -0.3392 -2.6144
 4125SOL    HW224009   2.694   3.733   4.796  0.0932  2.0548  0.3247
 4126SOL     OW24010   3.413   1.216   5.867  0.3438  0.3207  0.1115
 4126SOL    HW124011   3.435   1.258   5.951 -0.6044  0.3299  0.3459
 4126SOL    HW224012   3.404   1.287   5.804  3.1604 -0.1965 -0.8712
 4127SOL     OW24013   2.436   4.394   5.043  0.1285  0.0863  0.0498
 4127SOL    HW124014   2.515   4.362   5.086 -0.1818  0.7248  1.0889
 4127SOL    HW224015   2.419   4.475   5.091 -1.9003 -0.7920  0.8104
 4128SOL     OW24016   1.399   0.888   3.584 -0.0036  0.2807 -0.5137
 4128SOL    HW124017   1.471   0.926   3.634 -0.1632 -0.4375  0.2598
 4128SOL    HW224018   1.363   0.960   3.532  0.9489  0.4695 -0.9011
 4129SOL     OW24019   3.654   4.692   3.381 -0.9116  0.4009 -0.2012
 4129SOL    HW124020   3.576   0.008   3.387 -2.3430 -1.8752  1.9879
 4129SOL    HW224021   3.708   0.031   3.382  1.8234 -1.5083  1.2882
 4130SOL     OW24022   0.189   3.236   6.672 -0.1517 -0.5363  0.0408
 4130SOL    HW124023   0.256   3.215   6.607  1.3520 -0.3012  1.5249
 4130SOL    HW224024   0.135   3.157   6.662 -2.2328  0.6686  1.7910
 4131SOL     OW24025   3.021   2.611   7.999 -0.4445 -0.3259  0.3021
 4131SOL    HW124026   3.083   2.664   7.950 -0.9791  0.9825  1.0104
 4131SOL    HW224027   2.948   2.613   7.937 -0.3258  1.2788  0.1996
 4132SOL     OW24028   4.122   3.502  15.356 -0.3556  0.2048  0.1906
 4132SOL    HW124029   4.075   3.496  15.272  1.3600 -1.1111 -0.6924
 4132SOL    HW224030   4.046   3.509  15.413 -1.3203  0.2315 -1.0996
 4133SOL     OW24031   3.469   3.460   1.055  0.6250  0.5747 -0.1346
 4133SOL    HW124032   3.461   3.427   0.965 -2.3101  0.5861  0.1323
 4133SOL    HW224033   3.548   3.514   1.048  1.3738 -0.2465  1.9729
 4134SOL     OW24034   4.530   0.009   8.353 -0.3051  0.3043  0.1765
 4134SOL    HW124035   4.606   4.696   8.379 -0.4940 -1.0799 -2.0213
 4134SOL    HW224036   4.565   0.095   8.331  0.2495 -0.2454 -1.0963
 4135SOL     OW24037   4.389   2.379   6.080 -0.0213 -0.3603 -0.0920
 4135SOL    HW124038   4.306   2.382   6.033 -0.5857  1.1137  0.9945
 4135SOL    HW224039   4.398   2.284   6.091  0.0745 -0.6657 -2.8529
 4136SOL     OW24040   0.194   1.287   4.261 -0.7673  0.4392  0.1597
 4136SOL    HW124041   0.224   1.280   4.352 -2.5180 -2.9567  0.4736
 4136SOL    HW224042   0.105   1.318   4.275 -1.6827 -3.4314  3.0042
 4137SOL     OW24043   4.250   3.807   4.153 -0.8192  0.4436 -0.0949
 4137SOL    HW124044   4.329   3.850   4.187  0.6936 -0.4565 -2.4562
 4137SOL    HW224045   4.271   3.714   4.146  1.4363  0.9570 -0.1152
 4138SOL     OW24046   3.888   3.479   1.824  0.1838  0.2213  0.4323
 4138SOL    HW124047   3.853   3.561   1.860 -2.2105 -0.5635 -0.1221
 4138SOL    HW224048   3.801   3.449   1.798  0.5828  0.7987 -1.5807
 4139SOL     OW24049   4.200   2.207  14.289 -0.3602  0.3198 -0.0298
 4139SOL    HW124050   4.176   2.298  14.273 -2.3625 -0.3974 -1.0640
 4139SOL    HW224051   4.295   2.217  14.300 -0.2998  1.0192 -1.2548
 4140SOL     OW24052   0.144   2.275  13.419  0.2938 -0.2891  0.2468
 4140SOL    HW124053   0.225   2.257  13.467  0.2841 -1.5715 -0.2202
 4140SOL    HW224054   0.154   2.209  13.350 -0.9554 -0.0874 -0.1271
 4141SOL     OW24055   4.481   3.284   7.307 -0.3575  0.0980  0.0320
 4141SOL    HW124056   4.478   3.189   7.300 -0.5527 -0.0588  2.2099
 4141SOL    HW224057   4.398   3.299   7.351  0.4134 -0.9039  1.8027
 4142SOL     OW24058   1.885   2.548   7.668 -0.0917  0.2078  0.5558
 4142SOL    HW124059   1.853   2.460   7.645  1.3028 -0.0112 -0.5655
 4142SOL    HW224060   1.922   2.577   7.584  0.9028 -1.4435  0.4333
 4143SOL     OW24061   4.371   2.614   4.370  0.5282 -0.3358 -0.0328
 4143SOL    HW124062   4.401   2.628   4.460  0.5355 -1.7066  0.1673
 4143SOL    HW224063   4.432   2.666   4.317  0.4119 -1.2555 -1.0642
 4144SOL     OW24064   3.422   2.386   6.977 -0.4563  0.1593 -0.5139
 4144SOL    HW124065   3.342   2.337   6.996  0.0944 -0.9313 -1.0275
 4144SOL    HW224066   3.382   2.471   6.999  2.2024  1.6250 -1.2910
 4145SOL     OW24067   2.132   1.058   7.674  0.0190  0.2337  0.1810
 4145SOL    HW124068   2.158   0.995   7.742 -3.3685  0.8417  2.0578
 4145SOL    HW224069   2.078   0.999   7.622  1.3569  0.6818 -1.7053
 4146SOL     OW24070   2.341   4.037   3.352 -0.1163 -0.7365  0.2740
 4146SOL    HW124071   2.285   3.964   3.379 -0.7644 -0.6361 -0.8395
 4146SOL    HW224072   2.427   4.000   3.334  0.5628  0.6363  0.6709
 4147SOL     OW24073   1.063   2.737  12.387 -0.0448 -0.1345  0.0458
 4147SOL    HW124074   1.135   2.741  12.450 -1.7573 -0.4986  2.0049
 4147SOL    HW224075   1.092   2.665  12.331  0.9396  0.2419  0.0697
 4148SOL     OW24076   2.348   4.244   5.777  0.2274  0.4347  0.0976
 4148SOL    HW124077   2.425   4.197   5.747  0.4161  1.4897 -1.0886
 4148SOL    HW224078   2.346   4.193   5.858 -0.5662  2.6556  1.4958
 4149SOL     OW24079   2.154   0.495   4.150  0.1906 -0.0094  0.3414
 4149SOL    HW124080   2.136   0.522   4.240  0.9015  2.0165 -0.1253
 4149SOL    HW224081   2.249   0.505   4.154  0.3922 -2.0696  0.6626
 4150SOL     OW24082   0.364   3.196   3.599  0.0657  0.1914  0.0582
 4150SOL    HW124083   0.337   3.105   3.618  1.5228 -0.0803  0.8302
 4150SOL    HW224084   0.307   3.252   3.652 -0.9886  0.6297 -1.5569
 4151SOL     OW24085   1.038   1.485   9.486 -0.6791 -0.2871 -0.3919
 4151SOL    HW124086   1.026   1.580   9.484 -1.2100 -0.3484 -0.0064
 4151SOL    HW224087   0.948   1.453   9.486 -1.2430  1.3184  0.3512
 4152SOL     OW24088   0.410   2.926   6.691 -0.2840 -0.1641 -0.2312
 4152SOL    HW124089   0.426   2.832   6.691 -0.2651 -0.1616  0.1687
 4152SOL    HW224090   0.371   2.940   6.778  1.4064  0.8069  0.3758
 4153SOL     OW24091   3.475   1.301   6.381  0.3783 -0.6100  0.3369
 4153SOL    HW124092   3.494   1.208   6.374 -0.5996 -1.0641  3.9222
 4153SOL    HW224093   3.534   1.327   6.452  0.5255 -1.1233  0.4003
 4154SOL     OW24094   1.438   1.699   4.652 -0.0314 -0.4493  0.1893
 4154SOL    HW124095   1.510   1.744   4.696 -1.7597  1.0154  1.5200
 4154SOL    HW224096   1.429   1.620   4.704 -0.1376 -1.0619 -0.7527
 4155SOL     OW24097   1.817   3.309  15.490  0.2054  1.0124 -0.0262
 4155SOL    HW124098   1.722   3.305  15.502  0.4639 -0.8596  1.5265
 4155SOL    HW224099   1.825   3.381  15.428 -0.1448  2.0496  1.1403
 4156SOL     OW24100   1.893   2.095  17.571  0.0654  0.2763 -0.7584
 4156SOL    HW124101   1.816   2.146  17.546 -0.9643 -1.8345 -1.9070
 4156SOL    HW224102   1.927   2.128  17.654 -0.5895 -0.2478 -0.2867
 4157SOL     OW24103   3.517   3.867  16.873 -0.5272  0.3740 -0.1479
 4157SOL    HW124104   3.607   3.856  16.843 -0.5970 -0.7794  0.0528
 4157SOL    HW224105   3.479   3.919  16.803  0.9683 -0.8599 -1.8845
 4158SOL     OW24106   0.611   0.814   9.114  0.3013  0.1583 -0.0970
 4158SOL    HW124107   0.585   0.811   9.207 -0.0124 -1.4048 -0.2322
 4158SOL    HW224108   0.581   0.903   9.095  0.6648  0.1829 -0.5413
 4159SOL     OW24109   0.369   3.467   6.040  0.7245 -0.6232 -0.0579
 4159SOL    HW124110   0.360   3.535   6.107 -1.4290  0.6127 -1.6149
 4159SOL    HW224111   0.457   3.434   6.060  0.5340 -1.5937 -0.8180
 4160SOL     OW24112   1.373   0.246   2.304 -0.3169 -0.0376  0.5563
 4160SOL    HW124113   1.292   0.286   2.335  0.2841  1.0988  0.6735
 4160SOL    HW224114   1.355   0.152   2.304  1.8552 -0.4465  0.2872
 4161SOL     OW24115   1.975   0.910  12.033  0.1430  0.8289  0.1158
 4161SOL    HW124116   2.041   0.924  12.101  1.1981 -2.6972 -0.1568
 4161SOL    HW224117   1.932   0.830  12.064 -2.8497  1.2979 -2.8020
 4162SOL     OW24118   1.403   4.119   5.446 -0.1496 -0.1121  0.8007
 4162SOL    HW124119   1.333   4.127   5.511  0.2127  0.9332  1.0444
 4162SOL    HW224120   1.419   4.208   5.415 -0.0737  0.2451  1.8549
 4163SOL     OW24121   1.759   4.408   6.846 -0.4077 -0.0771 -0.1635
 4163SOL    HW124122   1.818   4.476   6.814 -0.7490 -0.3501 -1.3585
 4163SOL    HW224123   1.723   4.370   6.766  0.5646  1.4414 -1.3000
 4164SOL     OW24124   0.420   2.560   3.152 -0.3744  0.1356  0.4659
 4164SOL    HW124125   0.367   2.481   3.154  0.2113 -0.2559  0.3075
 4164SOL    HW224126   0.449   2.572   3.242  0.3135  0.3192  0.2213
 4165SOL     OW24127   2.799   0.408  12.750 -0.2494  0.2671  0.1747
 4165SOL    HW124128   2.763   0.494  12.772 -4.1410 -1.5633  0.7425
 4165SOL    HW224129   2.732   0.394  12.683 -3.1524  1.4733  2.8744
 4166SOL     OW24130   3.434   4.374   9.126  0.1484 -0.1536 -0.2294
 4166SOL    HW124131   3.489   4.404   9.199 -1.2381  0.6509  0.5010
 4166SOL    HW224132   3.347   4.390   9.163 -0.2529 -3.3085  0.1616
 4167SOL     OW24133   4.066   1.549   8.215  0.1242  0.2527 -0.0133
 4167SOL    HW124134   4.077   1.644   8.208 -0.3533  0.2143 -1.3959
 4167SOL    HW224135   4.003   1.540   8.143 -0.3837  0.8532  0.3549
 4168SOL     OW24136   2.943   1.709   2.114 -0.9567 -0.2819 -0.2084
 4168SOL    HW124137   2.976   1.726   2.025  0.5512 -1.3744  0.1449
 4168SOL    HW224138   2.946   1.613   2.113  1.2254 -0.2184 -0.2927
 4169SOL     OW24139   1.557   1.099   2.042 -0.1543  0.0348  0.8581
 4169SOL    HW124140   1.644   1.092   2.081 -0.5557 -0.6871  1.6169
 4169SOL    HW224141   1.562   1.187   2.005  0.9646  0.5383  2.2208
 4170SOL     OW24142   1.847   0.930   7.531 -0.2469  0.4452  0.0193
 4170SOL    HW124143   1.786   0.947   7.460 -0.1831  1.7718  0.2727
 4170SOL    HW224144   1.930   0.949   7.487 -1.0196 -0.4183 -1.7778
 4171SOL     OW24145   3.252   3.066  16.095 -0.1963  0.2030 -0.3716
 4171SOL    HW124146   3.276   3.105  16.179  0.4402 -2.5314  0.6957
 4171SOL    HW224147   3.156   3.065  16.096 -0.1532 -3.4591  0.4515
 4172SOL     OW24148   4.641   1.747   3.254 -0.1423  0.2629  0.0352
 4172SOL    HW124149   4.731   1.728   3.226 -0.0291 -1.3784  1.5361
 4172SOL    HW224150   4.620   1.656   3.275 -1.8670  0.5848 -0.3706
 4173SOL     OW24151   2.927   1.742   8.953  0.4086  0.3568  0.5201
 4173SOL    HW124152   2.905   1.688   9.029 -1.6015  2.9147  1.7552
 4173SOL    HW224153   3.021   1.737   8.937 -0.0532  1.3992 -2.4431
 4174SOL     OW24154   3.705   0.137  12.237  0.0313 -0.0573  0.3404
 4174SOL    HW124155   3.702   0.186  12.155 -1.8168 -0.5760  0.0872
 4174SOL    HW224156   3.676   0.201  12.302 -1.7255 -0.8119  0.3130
 4175SOL     OW24157   0.055   4.161   4.645  0.1572  0.1586 -0.2029
 4175SOL    HW124158   4.719   4.110   4.615 -0.7500  0.3752  1.7392
 4175SOL    HW224159   0.022   4.199   4.726  1.7113 -0.3972  0.6881
 4176SOL     OW24160   3.787   1.161   2.934 -0.2880  0.1564  0.1472
 4176SOL    HW124161   3.821   1.250   2.940  0.0473  0.0043  0.5729
 4176SOL    HW224162   3.704   1.171   2.980  0.2367  0.5557  1.0264
 4177SOL     OW24163   1.347   0.916   2.574  0.2889 -0.1138 -0.0921
 4177SOL    HW124164   1.344   0.825   2.602 -1.1389 -0.1785 -0.4255
 4177SOL    HW224165   1.432   0.909   2.530 -0.2124  1.2647 -1.2703
 4178SOL     OW24166   4.266   1.721   6.741 -0.0520 -0.5788 -0.6403
 4178SOL    HW124167   4.252   1.775   6.818  3.9003 -1.4328  0.6678
 4178SOL    HW224168   4.255   1.778   6.664  0.1347 -1.9350 -1.6844
 4179SOL     OW24169   1.551   1.031   3.796  0.0116  0.5999 -0.1477
 4179SOL    HW124170   1.616   1.052   3.729  0.8654 -0.7281  0.2589
 4179SOL    HW224171   1.499   1.111   3.803 -1.0452  0.1296 -2.5079
 4180SOL     OW24172   1.151   0.256  16.287  0.6894  0.3151 -0.7328
 4180SOL    HW124173   1.185   0.189  16.346 -1.8112 -0.2800  0.0517
 4180SOL    HW224174   1.219   0.323  16.292  0.9625 -0.1173  1.4626
 4181SOL     OW24175   3.972   1.776   7.653  0.2062 -0.3196 -0.3489
 4181SOL    HW124176   3.993   1.863   7.619  1.0741  0.0473  1.0869
 4181SOL    HW224177   3.877   1.771   7.650 -0.0181  3.1839  0.2571
 4182SOL     OW24178   1.026   1.630   0.232  0.0906  0.5397 -0.6270
 4182SOL    HW124179   1.102   1.640   0.289 -1.2012  0.3299  1.1431
 4182SOL    HW224180   0.954   1.656   0.290 -0.7026  1.2953 -1.9649
 4183SOL     OW24181   1.568   4.638   9.457 -0.9121 -0.0188  0.1894
 4183SOL    HW124182   1.630   4.673   9.522  1.1354 -2.6532 -0.3215
 4183SOL    HW224183   1.487   4.642   9.507 -1.2228  1.7588 -0.4488
 4184SOL     OW24184   1.397   2.801   5.464 -0.3158  0.0958  0.4183
 4184SOL    HW124185   1.313   2.845   5.473 -0.7804 -0.7480  0.1536
 4184SOL    HW224186   1.462   2.861   5.503 -1.0512 -1.6516  4.3173
 4185SOL     OW24187   1.824   0.092  10.955  0.4297  0.2741  0.2367
 4185SOL    HW124188   1.795   0.131  10.872 -0.7030 -0.0872  0.4676
 4185SOL    HW224189   1.915   0.121  10.950  0.0184  1.8220  1.6121
 4186SOL     OW24190   1.208   2.404   9.491 -0.5851  0.2133  0.4243
 4186SOL    HW124191   1.280   2.461   9.463  0.1579 -0.7212  0.4497
 4186SOL    HW224192   1.147   2.473   9.516  0.2364  1.4842 -1.0425
 4187SOL     OW24193   4.644   0.676  10.287 -0.0854 -0.1930 -0.1150
 4187SOL    HW124194   4.574   0.722  10.241  1.6529  1.8978 -0.6962
 4187SOL    HW224195   4.662   0.751  10.344  0.0766 -0.7528  0.5569
 4188SOL     OW24196   0.805   0.905  14.280  0.0701  0.0527  0.1639
 4188SOL    HW124197   0.812   0.810  14.273  0.6862  0.0279  1.1421
 4188SOL    HW224198   0.752   0.918  14.359  0.2794  0.4475  0.2378
 4189SOL     OW24199   1.068   1.357   5.910  0.0922  0.5331 -0.3168
 4189SOL    HW124200   0.998   1.366   5.845 -0.8806 -0.3076  0.6117
 4189SOL    HW224201   1.032   1.294   5.972 -0.1849 -0.9741 -2.0027
 4190SOL     OW24202   1.439   4.535  10.816 -0.0400  0.4027 -0.2447
 4190SOL    HW124203   1.455   4.629  10.804 -1.6120  0.6598 -0.3847
 4190SOL    HW224204   1.433   4.503  10.726  2.9507  1.3976 -0.7883
 4191SOL     OW24205   3.589   4.645   4.396  0.0405  0.0588 -0.3674
 4191SOL    HW124206   3.546   4.597   4.466 -2.0163  2.0611 -0.2650
 4191SOL    HW224207   3.516   4.640   4.334 -0.2982  2.2060 -0.1369
 4192SOL     OW24208   1.124   2.948   7.775  0.4840 -0.0384  0.0474
 4192SOL    HW124209   1.051   2.932   7.835  1.7090  0.5075  1.6759
 4192SOL    HW224210   1.073   2.960   7.695  0.3509 -0.2318  0.1036
 4193SOL     OW24211   0.989   0.671   8.255  0.1948  0.4380  0.4353
 4193SOL    HW124212   0.974   0.723   8.334  3.5753  0.5293  0.9929
 4193SOL    HW224213   1.084   0.661   8.262  0.1619  0.0771  0.3969
 4194SOL     OW24214   3.833   0.617   1.687 -0.1392 -0.2139  0.1332
 4194SOL    HW124215   3.928   0.614   1.690 -0.0935 -0.7533 -1.4983
 4194SOL    HW224216   3.795   0.541   1.732  0.7135  0.1961  1.5118
 4195SOL     OW24217   4.306   4.358   9.253 -0.0989 -0.4281 -0.2611
 4195SOL    HW124218   4.258   4.372   9.335 -0.2077 -1.8478 -0.0866
 4195SOL    HW224219   4.233   4.360   9.191 -2.5489  0.8785  2.6454
 4196SOL     OW24220   1.978   0.646   2.373  1.1165  0.6249  0.3071
 4196SOL    HW124221   1.897   0.596   2.358 -0.6549  4.3690 -2.6806
 4196SOL    HW224222   2.033   0.611   2.302 -1.2254 -2.0028 -0.2064
 4197SOL     OW24223   0.260   2.455   3.450 -0.6741 -0.0845  0.1497
 4197SOL    HW124224   0.205   2.517   3.402 -0.8752 -0.5837 -0.2596
 4197SOL    HW224225   0.224   2.373   3.417  1.0260 -1.3844  1.5190
 4198SOL     OW24226   2.772   2.695   4.068  0.0357 -0.1676  0.1048
 4198SOL    HW124227   2.734   2.627   4.013  1.2013 -0.5014 -0.2914
 4198SOL    HW224228   2.724   2.771   4.037 -0.1200 -0.0399  0.6541
 4199SOL     OW24229   1.767   1.793   7.322 -0.3620 -0.3501 -0.1234
 4199SOL    HW124230   1.849   1.744   7.315 -0.2953 -0.0438 -1.4397
 4199SOL    HW224231   1.786   1.880   7.289 -0.9860 -0.2319 -0.1593
 4200SOL     OW24232   1.274   3.851   7.652  0.4363 -0.5328  0.3171
 4200SOL    HW124233   1.297   3.855   7.745 -2.7139  0.4624  1.0178
 4200SOL    HW224234   1.268   3.756   7.641  3.8566 -0.7464  0.2424
 4201SOL     OW24235   1.592   4.339   2.890 -0.2603  0.0839  0.3391
 4201SOL    HW124236   1.631   4.353   2.976 -0.7787  0.7967  0.4538
 4201SOL    HW224237   1.676   4.333   2.843 -0.2317  1.3485  0.2162
 4202SOL     OW24238   4.638   1.870   6.373 -0.3131 -0.2449  0.2048
 4202SOL    HW124239   4.688   1.827   6.442 -0.3344  2.0444  1.6616
 4202SOL    HW224240   4.580   1.926   6.424  0.0590  0.9918 -0.7305
 4203SOL     OW24241   2.544   3.966   2.650 -0.9555 -0.2054  0.1273
 4203SOL    HW124242   2.489   4.025   2.701 -0.2256  0.8293 -0.2772
 4203SOL    HW224243   2.482   3.901   2.618 -0.3457 -2.1899  2.9816
 4204SOL     OW24244   1.130   2.674   2.928  0.2985 -0.3032  0.0188
 4204SOL    HW124245   1.084   2.689   2.845  0.4115 -0.4902 -0.0765
 4204SOL    HW224246   1.173   2.759   2.941 -1.3926  0.3377  1.4980
 4205SOL     OW24247   0.810   4.230   6.845 -0.2284  0.4494 -0.4760
 4205SOL    HW124248   0.778   4.317   6.819 -1.2562  0.5290  1.0575
 4205SOL    HW224249   0.725   4.187   6.836 -0.6282  0.8575  1.2126
 4206SOL     OW24250   3.910   1.265   6.811 -0.3175  0.7287  0.1284
 4206SOL    HW124251   3.934   1.174   6.831  3.7014  1.2737 -2.1787
 4206SOL    HW224252   3.994   1.305   6.790  1.1552 -2.3926  0.0454
 4207SOL     OW24253   2.830   4.388   3.119  0.1621 -0.2668 -0.4455
 4207SOL    HW124254   2.862   4.312   3.071  0.9008  0.6098 -1.3423
 4207SOL    HW224255   2.894   4.458   3.104  0.8440 -0.5390  1.1514
 4208SOL     OW24256   2.025   1.838   3.990  0.2815 -0.5051 -0.4328
 4208SOL    HW124257   2.070   1.757   3.969 -2.0957 -1.9028 -0.1705
 4208SOL    HW224258   1.987   1.808   4.073 -1.3150  3.6380  0.3634
 4209SOL     OW24259   1.703   4.421   3.724 -0.8549 -0.2859 -0.2451
 4209SOL    HW124260   1.709   4.416   3.629  1.9363  1.7740 -0.1897
 4209SOL    HW224261   1.609   4.404   3.736 -0.4633 -1.4257  1.2046
 4210SOL     OW24262   2.410   2.510   2.214 -0.2665 -0.0619  0.0602
 4210SOL    HW124263   2.437   2.589   2.262  1.1767  0.2619 -1.2703
 4210SOL    HW224264   2.320   2.514   2.245 -0.2371 -2.2833  0.4497
 4211SOL     OW24265   1.238   0.444   6.189 -0.0581  0.9309  0.4194
 4211SOL    HW124266   1.290   0.513   6.231 -0.4715  0.4367  1.7353
 4211SOL    HW224267   1.202   0.402   6.267  1.8149 -2.1717 -0.4215
 4212SOL     OW24268   0.737   4.135   8.896 -0.2813 -0.2445 -0.3047
 4212SOL    HW124269   0.679   4.067   8.931  1.1863 -0.3799  1.8507
 4212SOL    HW224270   0.784   4.152   8.977 -1.7109  2.2649  0.0055
 4213SOL     OW24271   2.103   3.818   4.072  0.2633 -0.0158 -0.2561
 4213SOL    HW124272   2.042   3.767   4.019 -0.4177  1.6075 -1.0642
 4213SOL    HW224273   2.134   3.758   4.139 -2.1578 -0.2153  0.7133
 4214SOL     OW24274   1.018   4.095  17.480 -0.2782 -0.2789 -0.0780
 4214SOL    HW124275   1.105   4.056  17.493  0.6081  2.0418  0.9396
 4214SOL    HW224276   0.964   4.042  17.538  1.7829 -0.8752  1.2969
 4215SOL     OW24277   3.071   1.839   7.440 -0.1743 -0.1165  0.2551
 4215SOL    HW124278   3.101   1.768   7.384 -0.9456 -0.8565  0.7668
 4215SOL    HW224279   3.100   1.914   7.388  0.5734 -1.2817 -1.0037
 4216SOL     OW24280   3.831   2.394   4.518 -0.1682 -0.0165 -0.3147
 4216SOL    HW124281   3.889   2.345   4.460 -0.3465 -0.0731 -0.4443
 4216SOL    HW224282   3.860   2.363   4.604 -2.2951 -1.1605 -0.0092
 4217SOL     OW24283   3.599   0.709   8.337 -0.2284 -0.0145 -0.1499
 4217SOL    HW124284   3.577   0.745   8.251  4.9880  0.0825 -1.4282
 4217SOL    HW224285   3.608   0.784   8.397  1.1747  0.0702 -0.4685
 4218SOL     OW24286   2.791   4.009   6.943  0.4823 -0.4816 -0.4487
 4218SOL    HW124287   2.866   3.964   6.903  1.3612  2.7613 -2.4020
 4218SOL    HW224288   2.745   3.935   6.983  1.1951 -0.3777  0.5586
 4219SOL     OW24289   4.236   2.857   8.135 -0.2422  0.0606 -0.1067
 4219SOL    HW124290   4.265   2.921   8.200  0.0629 -0.8573  0.6530
 4219SOL    HW224291   4.218   2.904   8.053  2.8545  2.0678  0.3523
 4220SOL     OW24292   0.928   4.438   5.155 -0.8123 -0.3123 -0.8259
 4220SOL    HW124293   0.889   4.508   5.208 -0.2816  0.4957 -1.5140
 4220SOL    HW224294   0.951   4.375   5.223 -3.2066  1.5402  1.7031
 4221SOL     OW24295   3.221   2.858  10.445 -0.0181  0.5620  0.2797
 4221SOL    HW124296   3.262   2.882  10.528 -1.4881 -2.6821  1.9123
 4221SOL    HW224297   3.134   2.893  10.460 -0.3288  0.0105 -0.2365
 4222SOL     OW24298   1.908   4.386   4.099 -0.4026 -0.0146  0.5931
 4222SOL    HW124299   1.823   4.429   4.095  0.0048  0.6136 -1.3785
 4222SOL    HW224300   1.941   4.399   4.010 -3.1692  0.3376 -0.3598
 4223SOL     OW24301   4.726   3.942   7.788 -0.4572  0.1899 -0.0579
 4223SOL    HW124302   4.632   3.927   7.796 -0.4435  0.5306  0.7628
 4223SOL    HW224303   0.015   3.911   7.875  1.5100  2.3088  0.0666
 4224SOL     OW24304   0.819   0.859   7.324  0.2184 -0.0016  0.0972
 4224SOL    HW124305   0.792   0.854   7.416  1.5871  0.9887  0.5533
 4224SOL    HW224306   0.912   0.876   7.340  0.8053 -0.3195 -2.9967
 4225SOL     OW24307   1.531   4.387   1.056  0.2229 -0.4554  0.7170
 4225SOL    HW124308   1.591   4.385   1.131  0.1827 -2.0119  0.7013
 4225SOL    HW224309   1.461   4.447   1.084  0.9891 -0.9746  3.6955
 4226SOL     OW24310   2.443   3.813   1.753  0.4742  0.6885  0.3161
 4226SOL    HW124311   2.444   3.720   1.776 -1.0081  0.4551 -0.6119
 4226SOL    HW224312   2.531   3.818   1.715  2.2240 -1.5926  4.0838
 4227SOL     OW24313   4.103   4.313   5.841  0.2605  0.4279  0.4891
 4227SOL    HW124314   4.107   4.377   5.770  1.5473 -2.5426 -2.1243
 4227SOL    HW224315   4.083   4.380   5.906 -0.1894 -2.1402  2.9833
 4228SOL     OW24316   4.361   2.420   2.851 -0.0994  0.0356  0.5465
 4228SOL    HW124317   4.273   2.442   2.822 -0.1540 -1.0043 -0.0794
 4228SOL    HW224318   4.367   2.466   2.935 -2.2192  0.6591  0.3575
 4229SOL     OW24319   4.494   0.926   6.241 -0.2847 -0.1861 -0.0854
 4229SOL    HW124320   4.421   0.898   6.186 -0.4605 -0.5753  0.3486
 4229SOL    HW224321   4.567   0.882   6.196 -0.6949 -1.8171  0.8488
 4230SOL     OW24322   2.141   3.694  12.101 -0.5427  0.4535  0.1443
 4230SOL    HW124323   2.068   3.671  12.158 -2.0551  1.2412 -1.4945
 4230SOL    HW224324   2.130   3.788  12.089  1.4183  0.6878  0.0786
 4231SOL     OW24325   2.339   1.936   3.780 -0.4179 -0.8894 -0.6580
 4231SOL    HW124326   2.255   1.921   3.735 -0.9159  0.1591 -0.0809
 4231SOL    HW224327   2.364   2.019   3.740  2.0714 -1.4044 -0.1518
 4232SOL     OW24328   4.535   3.764   8.871 -0.1922  0.0862 -0.5162
 4232SOL    HW124329   4.472   3.692   8.871 -1.4483  1.1872 -0.5841
 4232SOL    HW224330   4.474   3.836   8.853 -0.9325 -0.0605  1.3859
 4233SOL     OW24331   1.016   4.724   3.348  0.1675 -0.1970  0.3341
 4233SOL    HW124332   0.971   4.681   3.275  0.8657  1.1012 -0.8714
 4233SOL    HW224333   1.102   4.728   3.307  0.1632  2.0478  0.5203
 4234SOL     OW24334   2.754   1.513   7.052 -0.1165 -0.5072 -0.2534
 4234SOL    HW124335   2.788   1.488   6.967  1.0222  2.6004 -0.7014
 4234SOL    HW224336   2.739   1.607   7.040  0.4144 -0.5460 -1.1459
 4235SOL     OW24337   3.055   2.484   2.113 -0.0615 -0.8710 -0.2227
 4235SOL    HW124338   3.096   2.454   2.032 -2.5571 -0.0868 -1.7685
 4235SOL    HW224339   3.133   2.474   2.168  0.7722 -2.3146 -1.6573
 4236SOL     OW24340   4.678   2.920  13.822  0.2110 -0.3853  0.0570
 4236SOL    HW124341   0.028   2.957  13.824 -0.2008  0.6381 -0.6174
 4236SOL    HW224342   4.688   2.861  13.897 -0.3616  0.6697  0.9543
 4237SOL     OW24343   1.734   0.595   8.702 -0.4379 -0.1096 -0.7211
 4237SOL    HW124344   1.741   0.502   8.724  1.0603  0.0800 -0.3779
 4237SOL    HW224345   1.824   0.605   8.672  0.2203  1.9305  1.9231
 4238SOL     OW24346   2.646   1.338   9.428  0.3838  0.1443  0.7935
 4238SOL    HW124347   2.640   1.386   9.510 -1.4645  2.4946 -0.7075
 4238SOL    HW224348   2.683   1.409   9.375  2.4421 -1.7370 -0.2714
 4239SOL     OW24349   1.100   1.598   3.353  0.0341 -0.1065 -0.6098
 4239SOL    HW124350   1.092   1.666   3.286  0.2750  0.0137 -0.5114
 4239SOL    HW224351   1.013   1.559   3.344 -0.0600  0.0944 -0.5680
 4240SOL     OW24352   3.239   4.604   9.926 -0.5970  0.1548  0.2548
 4240SOL    HW124353   3.259   4.576  10.015  0.5083 -0.5004 -0.1980
 4240SOL    HW224354   3.210   4.519   9.892  0.7060  0.2809 -1.1998
 4241SOL     OW24355   0.369   1.277  10.305 -0.3431 -0.4272  0.1331
 4241SOL    HW124356   0.320   1.314  10.379 -0.5230  0.9189 -0.6740
 4241SOL    HW224357   0.457   1.299  10.336 -1.3923  1.2329  1.9994
 4242SOL     OW24358   4.692   0.371   5.681 -0.2848 -0.4316  0.6089
 4242SOL    HW124359   4.645   0.293   5.709 -0.4650 -0.2874  0.7102
 4242SOL    HW224360   4.676   0.428   5.756 -0.8132  1.4331 -0.9258
 4243SOL     OW24361   1.200   2.619  10.298 -0.2770 -0.3664  0.4765
 4243SOL    HW124362   1.256   2.607  10.375 -2.2213 -0.3949  1.8569
 4243SOL    HW224363   1.152   2.536  10.305 -0.2316 -0.4858 -0.6338
 4244SOL     OW24364   1.072   2.997  15.290 -0.1941  0.4411 -0.1542
 4244SOL    HW124365   1.000   2.969  15.234  0.3213 -2.6792  0.7453
 4244SOL    HW224366   1.121   2.915  15.285 -0.7481 -0.0290  2.0759
 4245SOL     OW24367   3.915   1.681   3.702 -0.7591  0.1039  0.5074
 4245SOL    HW124368   3.850   1.712   3.764  1.6214 -0.2138  3.1889
 4245SOL    HW224369   3.874   1.606   3.660  0.3960  0.2034 -0.8088
 4246SOL     OW24370   1.005   1.357   7.147  0.3995  0.2279 -0.3982
 4246SOL    HW124371   0.942   1.296   7.186  1.1602  0.4309  1.1503
 4246SOL    HW224372   1.088   1.309   7.152  0.9099  1.3355  1.5756
 4247SOL     OW24373   0.232   2.261   4.560  0.6361  0.2395 -0.0892
 4247SOL    HW124374   0.209   2.316   4.634 -0.1042 -1.4100  0.9125
 4247SOL    HW224375   0.226   2.325   4.489  1.8833 -0.4900 -0.8650
 4248SOL     OW24376   0.168   0.414   9.319  0.5541 -0.4914  0.4340
 4248SOL    HW124377   0.225   0.459   9.257  0.2662 -2.3746 -1.1873
 4248SOL    HW224378   0.205   0.441   9.403 -1.2458 -0.1238  1.1249
 4249SOL     OW24379   2.316   1.196   4.132  0.0035  0.1312 -0.3422
 4249SOL    HW124380   2.227   1.226   4.154 -0.1062 -0.2069 -0.3265
 4249SOL    HW224381   2.368   1.275   4.145 -0.2624  0.7291 -2.9165
 4250SOL     OW24382   2.144   3.958   5.121 -0.0630 -0.3341  0.4977
 4250SOL    HW124383   2.104   4.032   5.166 -1.1513 -0.1029 -0.8631
 4250SOL    HW224384   2.230   3.993   5.097 -0.0735 -0.5299  0.1810
 4251SOL     OW24385   3.265   2.970   1.364 -0.6814 -0.1704  0.0636
 4251SOL    HW124386   3.248   2.995   1.455  1.0281 -1.0752  0.6248
 4251SOL    HW224387   3.239   3.048   1.316  0.3375  1.0138  1.4508
 4252SOL     OW24388   4.729   1.696   6.579  0.1855  0.3403 -0.2159
 4252SOL    HW124389   4.667   1.632   6.544  0.3794  1.3833 -2.4830
 4252SOL    HW224390   0.074   1.662   6.550  1.9954  3.3843  1.4970
 4253SOL     OW24391   2.592   2.644   6.359 -0.5525 -0.3627  0.0910
 4253SOL    HW124392   2.521   2.709   6.364 -0.2450  0.0088 -0.4568
 4253SOL    HW224393   2.659   2.693   6.406 -2.8624  1.2703  1.7396
 4254SOL     OW24394   3.078   4.130   7.577 -0.5720  0.5621  0.2162
 4254SOL    HW124395   3.070   4.210   7.629 -1.9622  1.0452 -0.7336
 4254SOL    HW224396   3.161   4.140   7.530 -1.7911  3.3565 -1.3224
 4255SOL     OW24397   0.665   0.558   1.178 -0.0465 -0.6005  0.1262
 4255SOL    HW124398   0.590   0.598   1.133 -0.0399 -1.3368 -0.5295
 4255SOL    HW224399   0.708   0.504   1.112  0.9207 -1.7665  1.7186
 4256SOL     OW24400   3.633   0.252   8.117  0.0360  0.2986 -0.0304
 4256SOL    HW124401   3.658   0.325   8.061  3.0899  0.6486  1.7793
 4256SOL    HW224402   3.713   0.199   8.122 -0.0110 -0.0546 -3.2780
 4257SOL     OW24403   4.100   2.666   8.305  0.2289  0.1068 -0.3603
 4257SOL    HW124404   4.150   2.723   8.247  0.7800 -0.3199 -0.2999
 4257SOL    HW224405   4.095   2.577   8.270 -0.4986  0.0113 -0.0211
 4258SOL     OW24406   0.258   3.229   5.926 -0.3159 -0.2636 -0.2106
 4258SOL    HW124407   0.304   3.154   5.962 -1.3243  0.0792  1.7893
 4258SOL    HW224408   0.305   3.305   5.958 -1.0238  0.3115 -0.5208
 4259SOL     OW24409   4.610   1.490   3.324 -0.1920  0.2102 -0.5160
 4259SOL    HW124410   4.583   1.466   3.413 -1.2656 -1.7118 -1.3576
 4259SOL    HW224411   4.599   1.403   3.286  4.4572 -0.5530 -0.1706
 4260SOL     OW24412   0.584   3.664   8.851 -0.3518  0.2902  0.0734
 4260SOL    HW124413   0.674   3.686   8.827  0.6801 -2.2710  1.5808
 4260SOL    HW224414   0.587   3.570   8.870  0.3271  0.2516 -0.2457
 4261SOL     OW24415   3.534   4.491   3.263  0.5883 -0.0993 -0.5748
 4261SOL    HW124416   3.504   4.518   3.176  0.1091 -1.0169 -0.6884
 4261SOL    HW224417   3.576   4.566   3.307 -0.8356 -0.0358  0.6735
 4262SOL     OW24418   1.072   4.290   2.687  0.1862  0.3498 -0.8866
 4262SOL    HW124419   1.048   4.199   2.671  0.6126  0.2557 -0.9865
 4262SOL    HW224420   1.116   4.312   2.605  0.8365  0.4522 -0.5111
 4263SOL     OW24421   3.958   1.013   2.183 -0.0549 -0.6140  0.2884
 4263SOL    HW124422   4.015   0.961   2.239  0.0032 -1.0934 -0.2171
 4263SOL    HW224423   3.878   0.963   2.199 -1.0144  0.3497 -1.4035
 4264SOL     OW24424   1.901   2.451   6.147 -0.4855 -0.0106  0.4696
 4264SOL    HW124425   1.987   2.493   6.150 -0.6318  0.4750 -1.8145
 4264SOL    HW224426   1.911   2.367   6.102  0.3119  0.9707 -1.1929
 4265SOL     OW24427   0.924   1.764   7.891 -0.0144  0.0920  0.4850
 4265SOL    HW124428   1.003   1.817   7.906 -0.7277  0.8850  1.4462
 4265SOL    HW224429   0.969   1.680   7.889  0.4601  0.3398  0.5996
 4266SOL     OW24430   2.768   1.745   6.700 -1.0128  0.1617  0.1235
 4266SOL    HW124431   2.861   1.722   6.703 -1.0617 -0.1757 -0.8501
 4266SOL    HW224432   2.763   1.800   6.622  0.3568  1.9299  1.2788
 4267SOL     OW24433   0.748   1.068   8.294 -0.5612 -0.0882  0.2306
 4267SOL    HW124434   0.841   1.049   8.301 -0.5663 -0.6625 -1.2248
 4267SOL    HW224435   0.741   1.156   8.332  1.5633 -0.0457  0.4857
 4268SOL     OW24436   2.767   2.160   3.104  0.1803 -0.6266 -0.6071
 4268SOL    HW124437   2.792   2.232   3.162 -2.2173 -0.0816 -0.2470
 4268SOL    HW224438   2.842   2.136   3.051  2.3479 -0.1038  2.2275
 4269SOL     OW24439   2.679   2.933   3.901  0.3523 -0.2793  0.6814
 4269SOL    HW124440   2.756   2.922   3.846  0.0257  0.0726  0.1525
 4269SOL    HW224441   2.609   2.959   3.841 -0.1621  2.6900  2.5963
 4270SOL     OW24442   1.709   0.348   8.801  0.1207 -0.5561 -0.4064
 4270SOL    HW124443   1.766   0.303   8.863 -1.7905  0.2331  1.9151
 4270SOL    HW224444   1.712   0.298   8.719  0.3073 -3.3032  1.2687
 4271SOL     OW24445   0.148   0.931   3.355  0.9037 -0.6836  0.7146
 4271SOL    HW124446   0.135   1.014   3.309  1.0240 -1.3272 -0.4820
 4271SOL    HW224447   0.063   0.918   3.398 -0.3035 -0.0244 -1.4581
 4272SOL     OW24448   2.941   2.028   2.944 -0.0687  0.3818  0.3494
 4272SOL    HW124449   2.947   1.954   3.003 -0.9922  0.0460  0.0230
 4272SOL    HW224450   2.923   1.987   2.860 -0.7438  0.7281  0.3187
 4273SOL     OW24451   2.194   0.175   5.675  0.3775 -0.1111  0.3328
 4273SOL    HW124452   2.266   0.128   5.634 -0.6720  0.0905 -1.7573
 4273SOL    HW224453   2.209   0.266   5.651  1.5050 -0.0894  1.1338
 4274SOL     OW24454   3.052   0.471   0.483  0.0271  0.1028 -0.1307
 4274SOL    HW124455   3.035   0.512   0.568 -1.3166 -0.7536  0.0158
 4274SOL    HW224456   2.965   0.477   0.443 -0.7173 -0.9684  1.3425
 4275SOL     OW24457   4.624   1.759   0.773 -0.5253 -0.3966  0.2935
 4275SOL    HW124458   4.621   1.845   0.813  0.3332  0.3362 -1.2088
 4275SOL    HW224459   4.666   1.773   0.688 -0.0285 -2.2868  0.2122
 4276SOL     OW24460   1.498   4.091   1.645  0.1668 -0.0696 -0.1869
 4276SOL    HW124461   1.504   4.178   1.606 -2.6234  0.2854  0.1722
 4276SOL    HW224462   1.581   4.051   1.622  0.0172 -0.0867 -0.7069
 4277SOL     OW24463   2.583   3.053   4.169 -0.1244 -0.1885  0.1674
 4277SOL    HW124464   2.663   3.031   4.217  1.6984 -0.8855 -3.2183
 4277SOL    HW224465   2.596   2.996   4.093  1.1607  0.7065 -0.2889
 4278SOL     OW24466   2.637   0.130   0.246  0.0666 -0.1227 -0.6566
 4278SOL    HW124467   2.606   0.070   0.178 -0.3096  2.9604 -3.1840
 4278SOL    HW224468   2.694   0.191   0.199  2.2618 -2.0201 -0.4691
 4279SOL     OW24469   3.276   2.251   3.667  0.1273 -0.3641  0.3409
 4279SOL    HW124470   3.246   2.170   3.625 -0.6856  0.0153  0.2019
 4279SOL    HW224471   3.221   2.260   3.745 -0.2729 -0.4343  0.0666
 4280SOL     OW24472   1.579   3.921   5.385  0.4980 -0.1580 -0.0704
 4280SOL    HW124473   1.590   3.964   5.300  1.2535  0.3398  0.2805
 4280SOL    HW224474   1.507   3.968   5.427  1.7251  1.4439  0.2847
 4281SOL     OW24475   3.384   0.268   2.696 -0.0257  0.3708 -1.0335
 4281SOL    HW124476   3.362   0.359   2.717 -1.5680 -0.5318  1.2153
 4281SOL    HW224477   3.464   0.254   2.746  0.1387  0.3552 -1.3001
 4282SOL     OW24478   4.000   3.492  17.453  0.2062 -0.1957  0.0087
 4282SOL    HW124479   4.082   3.465  17.413  2.1191  2.2138  2.2928
 4282SOL    HW224480   3.944   3.511  17.377 -0.6458 -0.3804  0.5910
 4283SOL     OW24481   4.251   3.031   8.732  0.0790  0.2124 -0.4160
 4283SOL    HW124482   4.312   2.958   8.728 -1.0640 -0.8137  1.1628
 4283SOL    HW224483   4.225   3.017   8.823 -1.4323 -0.7471 -1.0089
 4284SOL     OW24484   2.201   3.720   9.966 -0.0239 -0.6555  0.2638
 4284SOL    HW124485   2.212   3.653   9.898 -0.4909  0.3396 -0.7885
 4284SOL    HW224486   2.293   3.735   9.990 -0.3104 -1.9090  2.1767
 4285SOL     OW24487   1.978   3.698   1.742 -0.0235 -0.1670  0.3551
 4285SOL    HW124488   2.056   3.693   1.798 -0.0244 -0.0810  0.3646
 4285SOL    HW224489   1.917   3.733   1.807 -0.3725 -2.4804  1.2730
 4286SOL     OW24490   3.203   1.478   9.069 -0.3881  0.3493 -0.8281
 4286SOL    HW124491   3.209   1.485   8.974 -0.1772  0.1733 -0.8280
 4286SOL    HW224492   3.128   1.531   9.095 -0.8457 -0.6189 -0.1784
 4287SOL     OW24493   0.754   0.452   7.575  0.2189 -0.3418 -0.0408
 4287SOL    HW124494   0.790   0.454   7.663  1.6607  4.1536 -0.7017
 4287SOL    HW224495   0.751   0.358   7.560 -2.5195 -0.7296  3.0085
 4288SOL     OW24496   1.833   2.242  12.153 -0.2800  0.6107 -0.3509
 4288SOL    HW124497   1.776   2.211  12.084 -1.5751  0.9235  0.5776
 4288SOL    HW224498   1.888   2.167  12.176  0.5499  0.9036 -1.3829
 4289SOL     OW24499   1.732   3.158   4.066  0.0841 -0.2016 -0.1295
 4289SOL    HW124500   1.676   3.225   4.028  1.4416  0.5530 -0.7952
 4289SOL    HW224501   1.691   3.083   4.023 -0.1284  0.3024 -0.8037
 4290SOL     OW24502   0.552   1.714   6.849 -0.0564 -0.3717  0.1979
 4290SOL    HW124503   0.595   1.769   6.784  1.3665 -0.1451  1.3337
 4290SOL    HW224504   0.467   1.700   6.807 -0.4539 -1.3812  1.3430
 4291SOL     OW24505   1.780   1.946   7.831  0.4716  0.1156  0.2978
 4291SOL    HW124506   1.717   1.880   7.803 -0.0681  0.0499  1.6599
 4291SOL    HW224507   1.814   1.971   7.745 -0.2135  0.0695  0.0098
 4292SOL     OW24508   0.320   1.536  10.692 -0.0836 -0.2733 -0.0721
 4292SOL    HW124509   0.293   1.517  10.782 -0.8622 -3.6811 -1.0290
 4292SOL    HW224510   0.414   1.521  10.702 -0.5624 -1.2398  2.8713
 4293SOL     OW24511   1.588   2.148   9.114 -0.1283 -0.1565  0.0134
 4293SOL    HW124512   1.507   2.110   9.145 -1.0649 -0.2250 -2.4641
 4293SOL    HW224513   1.597   2.096   9.034  0.5607 -0.2541  0.1471
 4294SOL     OW24514   0.670   2.530   3.325 -0.2224  0.0745  0.4341
 4294SOL    HW124515   0.690   2.447   3.369 -0.9739  0.0726  0.7635
 4294SOL    HW224516   0.710   2.506   3.241 -0.0969  0.4098  0.3971
 4295SOL     OW24517   1.793   0.017   9.615  0.1356 -0.5577  0.4779
 4295SOL    HW124518   1.875   4.708   9.608 -0.8626 -2.2220  0.1662
 4295SOL    HW224519   1.800   0.097   9.564 -2.6892  0.1420  1.1977
 4296SOL     OW24520   3.188   1.563   6.110 -0.7023 -0.1977 -0.0247
 4296SOL    HW124521   3.130   1.520   6.048 -0.0578 -1.4417  0.2288
 4296SOL    HW224522   3.272   1.552   6.065 -0.1461  0.6086  0.8139
 4297SOL     OW24523   3.346   4.570   9.425  0.1959 -0.0113  0.2847
 4297SOL    HW124524   3.321   4.643   9.481  0.6066  0.8678 -0.6798
 4297SOL    HW224525   3.396   4.510   9.481  1.9397  1.1360 -0.0566
 4298SOL     OW24526   3.789   1.564   5.191  0.2855 -0.3346  0.2752
 4298SOL    HW124527   3.728   1.629   5.155  0.9863  0.6011  0.7942
 4298SOL    HW224528   3.728   1.499   5.225 -1.7233  1.3423 -0.0849
 4299SOL     OW24529   4.588   1.856   6.098  0.5631 -0.5490  0.7616
 4299SOL    HW124530   4.568   1.919   6.168  0.3356 -0.3471  0.5143
 4299SOL    HW224531   4.684   1.858   6.103  0.6106  0.3855 -0.8169
 4300SOL     OW24532   0.429   1.245   2.558  0.0604  0.4180  0.0000
 4300SOL    HW124533   0.492   1.237   2.487 -0.1706  1.7554 -0.3726
 4300SOL    HW224534   0.471   1.291   2.630  0.2050  0.0494  0.1456
 4301SOL     OW24535   2.523   0.392   7.013  0.4202 -0.0691  0.0973
 4301SOL    HW124536   2.576   0.367   6.937 -0.3566 -1.2173 -0.0785
 4301SOL    HW224537   2.518   0.305   7.053 -0.9273  0.1296  0.3466
 4302SOL     OW24538   0.574   3.404   8.911  0.4477 -0.1322  0.2155
 4302SOL    HW124539   0.505   3.340   8.895  0.4402  0.4588 -2.0258
 4302SOL    HW224540   0.633   3.342   8.954 -0.5361 -0.2666  1.3879
 4303SOL     OW24541   3.768   1.286   3.792 -0.1308  0.5487 -0.1913
 4303SOL    HW124542   3.716   1.355   3.833 -2.4580 -0.9501 -0.6219
 4303SOL    HW224543   3.729   1.204   3.821  0.1339 -0.3722 -2.4263
 4304SOL     OW24544   3.302   0.384   4.057 -0.2881  0.3422  0.2946
 4304SOL    HW124545   3.315   0.460   4.001 -1.8133  0.9936  0.8029
 4304SOL    HW224546   3.228   0.338   4.018 -0.4844  1.2944 -0.4706
 4305SOL     OW24547   0.060   4.665   5.794  0.3658 -0.5353  0.0205
 4305SOL    HW124548   4.731   4.614   5.836  0.5529 -1.1659 -0.4494
 4305SOL    HW224549   0.072   4.624   5.708 -0.8417 -2.4810  0.7937
 4306SOL     OW24550   1.341   3.155  12.703 -0.0787  0.2093  0.0670
 4306SOL    HW124551   1.281   3.229  12.705  0.3626  0.5600  0.2531
 4306SOL    HW224552   1.338   3.135  12.797 -2.4188 -0.0742 -0.0630
 4307SOL     OW24553   2.019   3.137   9.540 -0.1986  0.7795  0.2342
 4307SOL    HW124554   1.948   3.187   9.581 -0.5134  0.2681  0.3158
 4307SOL    HW224555   2.013   3.166   9.449 -1.0497  1.4323  0.5017
 4308SOL     OW24556   4.701   0.997   4.488  0.2230 -0.2903  0.3510
 4308SOL    HW124557   4.715   1.002   4.582 -0.1249  0.5525  0.3580
 4308SOL    HW224558   4.724   0.907   4.464  0.5349 -0.5099  1.4894
 4309SOL     OW24559   2.428   0.123  17.324  0.3082 -0.2344  0.0581
 4309SOL    HW124560   2.399   0.190  17.261 -1.6707 -1.2377 -0.1255
 4309SOL    HW224561   2.477   0.076  17.257  1.0589  1.2393 -0.4108
 4310SOL     OW24562   4.512   3.112   7.047  0.0474  0.0356 -0.3267
 4310SOL    HW124563   4.565   3.167   6.989 -0.3447 -0.7298 -1.4206
 4310SOL    HW224564   4.575   3.098   7.118  0.2356 -0.9836 -0.6938
 4311SOL     OW24565   0.270   0.426   9.617 -0.2938  0.8732 -0.0894
 4311SOL    HW124566   0.303   0.470   9.695 -0.5121  1.9206 -0.5871
 4311SOL    HW224567   0.181   0.399   9.642  0.4241  0.4242  1.9423
 4312SOL     OW24568   4.602   0.554   5.224 -0.1696  0.1382  0.2753
 4312SOL    HW124569   4.668   0.616   5.253  1.1247 -0.5630 -1.1703
 4312SOL    HW224570   4.519   0.602   5.230 -0.9048 -1.5179  3.1216
 4313SOL     OW24571   0.114   4.161   4.371  0.2618  0.3958 -0.2121
 4313SOL    HW124572   0.113   4.160   4.467 -0.4577  3.2265 -0.1849
 4313SOL    HW224573   0.023   4.140   4.352  0.5249  1.1259 -2.2448
 4314SOL     OW24574   0.279   4.561  13.859  0.1032  0.2123  0.2056
 4314SOL    HW124575   0.334   4.484  13.876  0.0305 -0.6405 -3.3418
 4314SOL    HW224576   0.299   4.605  13.941 -1.5675  1.1674  0.1025
 4315SOL     OW24577   1.158   0.494  12.976 -0.1964 -0.3039 -0.1647
 4315SOL    HW124578   1.147   0.524  12.886 -1.3997  1.4412  0.5612
 4315SOL    HW224579   1.228   0.557  12.993  0.1324 -0.6010 -0.4286
 4316SOL     OW24580   2.341   0.330   1.148  0.6139  0.1764 -0.3609
 4316SOL    HW124581   2.418   0.342   1.205  0.1516  0.9573  0.1137
 4316SOL    HW224582   2.339   0.414   1.101  1.5502  2.0703  2.9501
 4317SOL     OW24583   3.029   2.144  11.784  0.0864  0.2142 -0.2777
 4317SOL    HW124584   3.074   2.086  11.845 -2.2255  1.3830  2.5384
 4317SOL    HW224585   3.065   2.226  11.817  0.2495  0.0936 -0.1542
 4318SOL     OW24586   3.092   4.037   5.013  0.3558  0.0857 -0.6327
 4318SOL    HW124587   3.003   4.067   4.993 -0.1217 -0.6661  0.3590
 4318SOL    HW224588   3.128   4.106   5.067 -0.1233 -0.7032  0.6894
 4319SOL     OW24589   2.784   3.843  11.147  0.1754 -0.8254  0.0948
 4319SOL    HW124590   2.857   3.830  11.086  0.1962  1.1439 -0.2775
 4319SOL    HW224591   2.834   3.879  11.221 -1.4542  1.9478 -0.1590
 4320SOL     OW24592   0.685   1.934   7.452  0.0906 -0.7612 -0.2173
 4320SOL    HW124593   0.666   1.936   7.546 -1.3978  3.5285 -0.6003
 4320SOL    HW224594   0.630   1.862   7.421  0.2146 -0.1356 -1.8850
 4321SOL     OW24595   2.204   0.278   8.269 -0.2270  0.7579  0.1882
 4321SOL    HW124596   2.125   0.331   8.259  0.4670  2.0734  1.6980
 4321SOL    HW224597   2.242   0.310   8.188  0.1892  1.8307  0.8124
 4322SOL     OW24598   1.776   2.602  13.245  1.1962  0.1467 -0.2384
 4322SOL    HW124599   1.705   2.638  13.299 -1.3999 -0.1684 -3.4591
 4322SOL    HW224600   1.803   2.667  13.180  1.6260 -1.5518 -1.7405
 4323SOL     OW24601   2.617   4.274   6.261 -0.2101 -0.0655 -0.0312
 4323SOL    HW124602   2.591   4.186   6.289 -1.1741  0.7419  1.5998
 4323SOL    HW224603   2.540   4.331   6.262  0.1618  0.3871  2.0761
 4324SOL     OW24604   0.299   1.945  11.012  0.5772  0.3824  0.1281
 4324SOL    HW124605   0.223   1.889  10.996 -1.4006  2.9467  0.5663
 4324SOL    HW224606   0.277   2.023  10.962 -1.1206  0.7099  1.3961
 4325SOL     OW24607   1.807   2.033   7.580  0.1139  0.0892  0.2151
 4325SOL    HW124608   1.837   2.121   7.558 -0.4774  0.4707  0.9558
 4325SOL    HW224609   1.853   1.982   7.514 -0.4559 -0.1393  0.0005
 4326SOL     OW24610   0.600   0.811   5.353  0.1170 -0.3169 -0.1046
 4326SOL    HW124611   0.672   0.872   5.369  2.3739 -2.6315 -1.3758
 4326SOL    HW224612   0.604   0.809   5.257  0.9524 -1.8551 -0.0327
 4327SOL     OW24613   0.194   1.512   8.227 -0.1716  0.0736 -0.7719
 4327SOL    HW124614   0.283   1.544   8.242 -1.0690  1.2039  2.2191
 4327SOL    HW224615   0.183   1.511   8.132 -2.9483  1.9074 -0.4844
 4328SOL     OW24616   4.134   0.693   6.265 -0.0267  0.3838 -0.1029
 4328SOL    HW124617   4.200   0.638   6.307  0.6718  0.1782 -1.4901
 4328SOL    HW224618   4.062   0.633   6.247  1.6792 -0.9901 -2.3022
 4329SOL     OW24619   0.180   1.045  16.466 -0.1821 -0.1231 -0.1644
 4329SOL    HW124620   0.237   0.985  16.514 -2.3796 -0.3203  2.2372
 4329SOL    HW224621   0.151   1.096  16.541 -1.2821 -1.6241  0.4368
 4330SOL     OW24622   0.900   1.177   8.596  0.0092  0.2681  0.4230
 4330SOL    HW124623   0.937   1.263   8.576  0.0437 -0.1094 -1.1526
 4330SOL    HW224624   0.840   1.196   8.667 -2.6605 -0.3239 -1.6714
 4331SOL     OW24625   2.585   3.449   2.311  0.4234 -0.6763 -0.2824
 4331SOL    HW124626   2.493   3.437   2.287  0.4558 -2.0388  0.2836
 4331SOL    HW224627   2.595   3.538   2.276 -0.5445  0.2170  1.6532
 4332SOL     OW24628   2.677   1.697  16.631 -0.4679  0.4344  0.2436
 4332SOL    HW124629   2.767   1.712  16.601 -0.2177  1.3730  1.4713
 4332SOL    HW224630   2.693   1.638  16.705 -1.0079  0.9677  0.7883
 4333SOL     OW24631   2.570   2.866  13.031 -0.7131  0.4114  0.7496
 4333SOL    HW124632   2.584   2.812  12.953 -2.5189  0.8097  0.1431
 4333SOL    HW224633   2.634   2.825  13.090  0.3892 -3.8687 -3.4062
 4334SOL     OW24634   3.947   2.883   2.199  0.0231  0.6062 -0.6140
 4334SOL    HW124635   4.025   2.915   2.245  0.4167  1.3048 -1.7439
 4334SOL    HW224636   3.911   2.963   2.161 -0.7768  1.1201  1.2433
 4335SOL     OW24637   2.478   1.202  10.705  0.1573  0.2196  0.1169
 4335SOL    HW124638   2.401   1.163  10.663 -0.0239  0.0498  0.6065
 4335SOL    HW224639   2.485   1.144  10.782 -2.0555  2.3464  1.9256
 4336SOL     OW24640   0.100   1.457  16.971 -0.1032 -0.0042 -0.0749
 4336SOL    HW124641   0.145   1.540  16.980  3.5903 -2.0073 -0.2403
 4336SOL    HW224642   0.040   1.484  16.901  0.3848 -2.2437 -1.3762
 4337SOL     OW24643   4.141   3.283  13.147  0.2010 -0.0905 -0.1176
 4337SOL    HW124644   4.054   3.312  13.117 -0.2374 -2.1137 -0.7680
 4337SOL    HW224645   4.116   3.302  13.237 -0.0780  0.3495 -0.2853
 4338SOL     OW24646   4.616   4.413   7.402  0.3276 -0.0600 -0.1210
 4338SOL    HW124647   4.551   4.425   7.333 -0.2893 -0.2886  0.4165
 4338SOL    HW224648   4.633   4.320   7.418 -0.9218 -0.3026 -0.1946
 4339SOL     OW24649   0.128   0.568   2.378 -0.0209 -0.0339 -0.4380
 4339SOL    HW124650   0.163   0.533   2.460  0.6283 -0.2931 -0.8309
 4339SOL    HW224651   0.202   0.618   2.344  0.2258 -1.5832 -2.2171
 4340SOL     OW24652   3.271   0.761   5.663 -0.8462  0.0369  0.1268
 4340SOL    HW124653   3.210   0.828   5.695  0.9124  1.9255 -0.5158
 4340SOL    HW224654   3.320   0.819   5.605  1.8571 -2.8762 -0.4822
 4341SOL     OW24655   2.857   0.079   2.616 -0.6411 -0.0292 -0.2482
 4341SOL    HW124656   2.818   0.017   2.554  1.1106 -0.8029 -0.5808
 4341SOL    HW224657   2.951   0.060   2.609 -0.4858  1.0302 -1.2210
 4342SOL     OW24658   2.561   2.706   5.232  0.2339 -0.3974 -0.2178
 4342SOL    HW124659   2.603   2.625   5.203  0.5884 -0.5245  0.6507
 4342SOL    HW224660   2.625   2.776   5.217  0.5579 -0.5027  0.7015
 4343SOL     OW24661   2.468   2.839   7.967  0.4258 -0.3979  0.2332
 4343SOL    HW124662   2.405   2.883   7.910  0.2553 -1.3055 -0.2800
 4343SOL    HW224663   2.519   2.915   7.997 -2.4819  1.2948  0.8047
 4344SOL     OW24664   1.617   1.079  13.795  0.2746  0.8430  0.4405
 4344SOL    HW124665   1.678   1.151  13.806 -0.4841  1.4933  0.3622
 4344SOL    HW224666   1.624   1.057  13.702 -0.6659 -0.7426  0.7271
 4345SOL     OW24667   2.790   0.524  13.983 -0.1150 -0.5125 -0.1115
 4345SOL    HW124668   2.798   0.540  13.889 -0.1379 -0.7794 -0.1585
 4345SOL    HW224669   2.881   0.539  14.007  0.2635 -1.6528 -0.8371
 4346SOL     OW24670   0.653   1.578   5.155 -0.1848  0.0570  0.3896
 4346SOL    HW124671   0.666   1.483   5.161 -0.5789 -0.0251 -0.1320
 4346SOL    HW224672   0.743   1.602   5.138  0.5642 -0.7109  3.1494
 4347SOL     OW24673   2.381   2.885  13.644 -0.6375  0.1077 -0.1791
 4347SOL    HW124674   2.442   2.812  13.635  1.0164  1.4392  0.3998
 4347SOL    HW224675   2.359   2.893  13.551  1.8615 -1.9630 -0.9489
 4348SOL     OW24676   1.103   1.572  11.405 -0.0950  0.0728 -0.6007
 4348SOL    HW124677   1.120   1.481  11.378  0.6666  0.1946 -0.5104
 4348SOL    HW224678   1.016   1.578  11.364  0.9813 -2.4907 -3.2880
 4349SOL     OW24679   2.553   1.695   2.544  0.4878  0.3381  0.5066
 4349SOL    HW124680   2.628   1.751   2.566  0.3803  1.0933 -1.0816
 4349SOL    HW224681   2.559   1.670   2.452 -2.5575 -0.2186  0.4657
 4350SOL     OW24682   4.021   1.266   3.656 -0.3265  0.3669 -0.3191
 4350SOL    HW124683   3.971   1.207   3.713  0.4110  0.7484  0.7230
 4350SOL    HW224684   3.952   1.309   3.606 -0.6192  1.2553  0.8434
 4351SOL     OW24685   1.299   1.887   0.150  0.0529 -0.4144  0.2106
 4351SOL    HW124686   1.341   1.804   0.129 -1.4859 -1.3089  0.6191
 4351SOL    HW224687   1.257   1.916   0.069  1.9222  1.3209 -0.1409
 4352SOL     OW24688   1.417   4.570   2.815 -0.5818  0.3899  0.1811
 4352SOL    HW124689   1.511   4.583   2.803 -0.6223  1.0333  0.5713
 4352SOL    HW224690   1.414   4.481   2.849 -0.8141  0.4391  0.2914
 4353SOL     OW24691   0.406   3.457   3.327 -0.5268 -0.2253  0.1253
 4353SOL    HW124692   0.362   3.518   3.387 -0.5906 -0.3050  0.1599
 4353SOL    HW224693   0.345   3.383   3.333  1.4221 -1.7830  0.8015
 4354SOL     OW24694   1.015   4.003   2.682  0.3916  0.1172 -0.7510
 4354SOL    HW124695   1.055   3.946   2.616  1.1454 -1.8243  1.4033
 4354SOL    HW224696   1.002   3.933   2.746 -0.1417  2.2540  1.4817
 4355SOL     OW24697   0.226   3.358   3.010  0.8492  0.0816 -0.0926
 4355SOL    HW124698   0.251   3.367   3.102  2.8352  0.2145 -0.6506
 4355SOL    HW224699   0.133   3.334   3.005  1.0221 -0.1367 -2.1928
 4356SOL     OW24700   4.460   4.413   4.717  0.8987  0.0763  0.0559
 4356SOL    HW124701   4.487   4.417   4.809  2.1232  1.4918 -0.3606
 4356SOL    HW224702   4.482   4.503   4.694  0.4595  0.3112  0.5578
 4357SOL     OW24703   4.348   0.080   9.003  0.1331 -0.0815  0.4620
 4357SOL    HW124704   4.403   0.097   8.927  0.6310 -0.5334  0.7195
 4357SOL    HW224705   4.339   0.166   9.044  0.7055 -0.2617  0.9629
 4358SOL     OW24706   0.768   4.039   0.709  0.1027 -0.2678  0.0250
 4358SOL    HW124707   0.828   4.112   0.726  2.0381 -1.9282  0.3047
 4358SOL    HW224708   0.714   4.074   0.638  1.2580 -0.3407 -0.8949
 4359SOL     OW24709   2.283   3.634   3.907 -0.1302  0.0206 -0.5589
 4359SOL    HW124710   2.274   3.719   3.950 -0.0783 -0.5571  0.5798
 4359SOL    HW224711   2.277   3.569   3.977  0.0386 -1.1779 -1.6547
 4360SOL     OW24712   2.898   3.748   2.701 -0.1218  0.2794 -0.0728
 4360SOL    HW124713   2.985   3.709   2.698 -0.4749 -0.5876  0.9636
 4360SOL    HW224714   2.844   3.707   2.634  1.8371  1.6947 -2.5383
 4361SOL     OW24715   3.297   2.524  14.927  0.0757 -0.3421  0.1810
 4361SOL    HW124716   3.314   2.608  14.883  0.9879 -0.1519  0.9076
 4361SOL    HW224717   3.227   2.491  14.870 -0.2876  1.3274 -0.3620
 4362SOL     OW24718   3.394   2.140   5.014  0.5899 -0.1940  0.0897
 4362SOL    HW124719   3.315   2.098   4.979 -0.5763  0.5773  1.7590
 4362SOL    HW224720   3.444   2.169   4.938 -2.4467  1.7032 -1.2091
 4363SOL     OW24721   3.383   1.682   8.398  0.5496 -0.0802  0.2584
 4363SOL    HW124722   3.311   1.715   8.451  1.3951  1.0116  0.7544
 4363SOL    HW224723   3.449   1.658   8.463  0.0312 -1.1304  0.3883
 4364SOL     OW24724   0.916   0.067   8.943 -0.3764 -0.2216  0.2081
 4364SOL    HW124725   0.830   0.032   8.918 -1.0315  1.2242  0.4398
 4364SOL    HW224726   0.904   0.149   8.893  0.6935 -1.4967 -2.1512
 4365SOL     OW24727   4.252   2.329   5.503  0.8055 -0.3940  0.2595
 4365SOL    HW124728   4.315   2.270   5.464  1.6464  0.0663  0.9089
 4365SOL    HW224729   4.310   2.403   5.522 -0.6306  0.8325 -0.0332
 4366SOL     OW24730   1.680   0.145   8.604 -0.1472  0.0719  0.0264
 4366SOL    HW124731   1.766   0.106   8.588  0.0281 -0.0114  1.1396
 4366SOL    HW224732   1.655   0.102   8.686 -2.1289  1.5615  0.2154
 4367SOL     OW24733   0.722   1.539   5.591  0.3977  0.1669 -0.4686
 4367SOL    HW124734   0.636   1.539   5.549 -0.4473 -1.6836  1.2603
 4367SOL    HW224735   0.775   1.618   5.584 -0.9296  0.8085 -3.6651
 4368SOL     OW24736   1.987   2.254   5.920  0.3396 -0.8106  0.2903
 4368SOL    HW124737   2.023   2.182   5.868  2.1655 -0.1647  0.6595
 4368SOL    HW224738   2.044   2.325   5.891 -1.3977  0.9788  1.2598
 4369SOL     OW24739   3.480   3.039   9.164 -0.3436 -0.0108 -0.2049
 4369SOL    HW124740   3.522   2.990   9.094  1.0361 -0.3777  0.8772
 4369SOL    HW224741   3.504   2.991   9.244 -0.6089  2.4078  1.3168
 4370SOL     OW24742   2.957   2.949   7.887  0.3185 -0.1262  0.9342
 4370SOL    HW124743   2.911   2.999   7.820 -0.0857 -1.4410  0.2229
 4370SOL    HW224744   2.892   2.949   7.957 -0.6208 -1.4217  0.0710
 4371SOL     OW24745   1.718   4.710   0.143 -0.0855 -0.3314  0.0769
 4371SOL    HW124746   1.803   4.700   0.102 -0.8657  0.3783 -1.7208
 4371SOL    HW224747   1.702   4.619   0.168 -1.0501 -0.0288  0.5452
 4372SOL     OW24748   0.043   2.463   4.640 -0.0237  0.1216 -0.1392
 4372SOL    HW124749   0.029   2.548   4.680 -1.0116 -1.1518  2.2086
 4372SOL    HW224750   0.092   2.478   4.559 -2.5789 -0.1901 -1.7408
 4373SOL     OW24751   1.212   0.519   5.832 -0.0980  0.3718 -0.2067
 4373SOL    HW124752   1.163   0.443   5.803  0.8697  0.3797 -1.8442
 4373SOL    HW224753   1.302   0.486   5.840  0.6026  1.8370 -2.1246
 4374SOL     OW24754   2.266   3.588   7.637 -0.4069  0.2592 -0.2790
 4374SOL    HW124755   2.354   3.599   7.602 -0.9432  1.2812 -1.3096
 4374SOL    HW224756   2.289   3.588   7.730  2.2069  0.7009 -0.9487
 4375SOL     OW24757   0.698   4.450   6.696 -0.2158 -0.2769  0.3236
 4375SOL    HW124758   0.726   4.538   6.669 -1.0273  0.1871  0.9731
 4375SOL    HW224759   0.608   4.469   6.721 -0.6607 -1.1494 -0.6195
 4376SOL     OW24760   3.942   0.530   7.985 -0.1343 -0.2300 -0.3127
 4376SOL    HW124761   4.023   0.503   7.942 -0.6730 -1.4215 -0.5572
 4376SOL    HW224762   3.924   0.459   8.046  0.7508 -1.7291 -1.8015
 4377SOL     OW24763   2.677   4.406   4.078  0.4154  0.2650  0.2547
 4377SOL    HW124764   2.622   4.341   4.034 -1.4681  1.3213  1.0601
 4377SOL    HW224765   2.650   4.487   4.034 -2.3279  0.6557  2.7180
 4378SOL     OW24766   3.064   0.703   3.813  0.2659 -0.0281 -0.0051
 4378SOL    HW124767   3.026   0.696   3.725 -3.0032 -0.1583  1.4272
 4378SOL    HW224768   3.022   0.637   3.867  0.9350  0.0998  0.6742
 4379SOL     OW24769   0.685   1.441   1.505 -0.0338 -0.0331  0.5105
 4379SOL    HW124770   0.690   1.456   1.411  0.2461  0.9665  0.6860
 4379SOL    HW224771   0.689   1.345   1.509  0.8646 -0.0000  0.2821
 4380SOL     OW24772   0.221   0.816  17.262  0.3632 -0.0178 -0.1381
 4380SOL    HW124773   0.215   0.897  17.314 -1.4243 -1.6382  2.1907
 4380SOL    HW224774   0.229   0.746  17.327  0.0657  0.5436  0.5114
 4381SOL     OW24775   4.468   0.431  12.781  0.0993  0.2476  0.3352
 4381SOL    HW124776   4.462   0.520  12.816  0.6164  0.4665 -0.1292
 4381SOL    HW224777   4.392   0.422  12.723  0.7146  2.5016 -0.8163
 4382SOL     OW24778   1.762   2.121   6.211  0.0747 -0.2750  0.0214
 4382SOL    HW124779   1.699   2.057   6.245  0.8505 -0.7490  0.5481
 4382SOL    HW224780   1.737   2.120   6.118  0.1718 -2.8938  0.0362
 4383SOL     OW24781   2.272   0.953  14.174  0.1689 -0.0654 -0.3107
 4383SOL    HW124782   2.199   0.920  14.121 -1.3237 -0.0694  1.7550
 4383SOL    HW224783   2.321   0.958  14.092 -1.1141  0.1194 -1.0699
 4384SOL     OW24784   1.754   1.602   2.464 -0.3590 -0.1712  0.0428
 4384SOL    HW124785   1.841   1.620   2.501 -0.0184 -1.7105  0.0049
 4384SOL    HW224786   1.778   1.548   2.388  0.2569  0.4882 -0.2345
 4385SOL     OW24787   0.124   0.092   7.586  0.5024  0.3973 -0.4222
 4385SOL    HW124788   0.134   0.010   7.634  1.9245  0.1748 -1.1060
 4385SOL    HW224789   0.088   0.153   7.651 -1.0114 -0.3585 -0.5429
 4386SOL     OW24790   3.429   3.532  12.683  0.8049  0.2826 -0.4839
 4386SOL    HW124791   3.522   3.534  12.660  0.9663 -0.7557  0.0919
 4386SOL    HW224792   3.440   3.526  12.777  0.6956  1.0819 -0.4220
 4387SOL     OW24793   3.198   0.036  12.464 -0.0665  0.1126 -0.7727
 4387SOL    HW124794   3.150   0.015  12.544  0.1542  0.1293 -0.6335
 4387SOL    HW224795   3.133   4.734  12.408 -0.3065  0.3704 -0.6795
 4388SOL     OW24796   1.169   2.708  16.980  0.4771 -0.6454 -0.1086
 4388SOL    HW124797   1.089   2.724  17.031  0.1429 -2.1556 -0.1446
 4388SOL    HW224798   1.222   2.774  17.025 -2.5976  0.6526  1.6436
 4389SOL     OW24799   3.444   1.429   7.075  0.1640  0.3274  0.8864
 4389SOL    HW124800   3.532   1.448   7.043 -0.1511  1.4191  0.6747
 4389SOL    HW224801   3.451   1.335   7.091  1.1259  0.1276 -0.7013
 4390SOL     OW24802   3.801   2.043  16.806  0.0117 -0.0562 -0.0992
 4390SOL    HW124803   3.862   1.979  16.769  0.7520 -0.5257  1.9566
 4390SOL    HW224804   3.812   2.019  16.898  1.5950 -1.3137 -0.6082
 4391SOL     OW24805   2.051   1.455   8.887 -0.2160  0.0755 -0.4563
 4391SOL    HW124806   2.037   1.446   8.793  0.7023 -3.6944 -0.2326
 4391SOL    HW224807   1.984   1.518   8.913  0.8624  1.0129  0.0585
 4392SOL     OW24808   3.874   0.196  16.377  0.6866  0.1692 -0.2972
 4392SOL    HW124809   3.853   0.110  16.413  1.5342  0.2475  0.3897
 4392SOL    HW224810   3.883   0.249  16.457  1.3770  0.5479 -0.6256
 4393SOL     OW24811   1.743   1.278   5.593  0.6435 -0.7468  0.0385
 4393SOL    HW124812   1.648   1.267   5.588  0.3892  0.6704  1.5312
 4393SOL    HW224813   1.748   1.367   5.628  1.4005 -0.7135 -0.1585
 4394SOL     OW24814   4.691   4.243   5.482 -0.3529  0.2032 -0.2903
 4394SOL    HW124815   0.025   4.287   5.526 -0.3752 -0.9187  0.8739
 4394SOL    HW224816   4.710   4.150   5.487  1.3374  0.6058  0.6509
 4395SOL     OW24817   1.987   3.051   4.993  1.0640  0.1183  0.5802
 4395SOL    HW124818   1.911   3.054   4.935 -0.1212  0.9401  2.2117
 4395SOL    HW224819   1.974   2.965   5.033  0.2448 -0.8320 -1.7412
 4396SOL     OW24820   4.228   3.050   3.807  0.2821  0.4228 -0.1693
 4396SOL    HW124821   4.206   3.057   3.715 -1.4117  1.7551  0.3570
 4396SOL    HW224822   4.319   3.078   3.817  0.3933  0.3318 -0.9580
 4397SOL     OW24823   2.015   4.134   2.824 -0.1418  0.4536 -0.9232
 4397SOL    HW124824   1.961   4.211   2.805 -0.2521  0.1010 -2.0507
 4397SOL    HW224825   2.029   4.144   2.918  3.1313 -2.1946 -1.1489
 4398SOL     OW24826   0.456   4.648   0.063 -0.3311 -0.6177 -0.1827
 4398SOL    HW124827   0.473   4.575   0.003  2.6722  0.0177 -0.1177
 4398SOL    HW224828   0.517   4.714   0.031 -1.0156  0.6206  1.0605
 4399SOL     OW24829   2.711   2.262   1.523 -0.3279 -0.5712 -0.2541
 4399SOL    HW124830   2.753   2.184   1.559 -2.4808 -1.8041 -0.4313
 4399SOL    HW224831   2.621   2.244   1.550 -0.8662 -1.2856 -2.5634
 4400SOL     OW24832   0.831   4.239   2.317  0.0053  0.3098  0.0767
 4400SOL    HW124833   0.855   4.305   2.382 -1.6088  0.6933  0.2909
 4400SOL    HW224834   0.861   4.287   2.240  3.6457 -0.7609  0.8421
 4401SOL     OW24835   1.134   2.542  17.373  0.3564  0.1903 -0.5951
 4401SOL    HW124836   1.147   2.545  17.467  0.7769 -0.5758 -0.6262
 4401SOL    HW224837   1.122   2.633  17.346  0.0103  0.3088 -0.0328
 4402SOL     OW24838   4.183   2.428   7.441 -0.1408 -0.1635  0.5692
 4402SOL    HW124839   4.220   2.516   7.430 -0.2943 -0.2605 -0.7680
 4402SOL    HW224840   4.157   2.444   7.531  0.7592  0.4697  0.7127
 4403SOL     OW24841   0.618   4.663   8.519 -0.2131  0.1048 -0.1786
 4403SOL    HW124842   0.662   4.645   8.603 -2.4873  2.0341  1.4363
 4403SOL    HW224843   0.652   0.008   8.489 -0.3560  0.0248 -0.5582
 4404SOL     OW24844   0.565   1.400  10.716 -0.2013 -0.2150  0.5561
 4404SOL    HW124845   0.641   1.454  10.736  0.2296 -0.1998 -1.1045
 4404SOL    HW224846   0.565   1.337  10.789  0.2948 -0.7979  0.0591
 4405SOL     OW24847   3.842   3.116   5.535  0.0792 -0.1497 -0.3860
 4405SOL    HW124848   3.769   3.106   5.474  1.0496  0.7012 -1.6819
 4405SOL    HW224849   3.834   3.210   5.550 -5.0007 -0.7277  0.6008
 4406SOL     OW24850   3.911   0.980   6.894  0.5672 -0.3534  0.1817
 4406SOL    HW124851   3.867   0.895   6.894 -1.9284  0.9464 -1.9099
 4406SOL    HW224852   4.004   0.957   6.901  0.7915  0.6113  0.3447
 4407SOL     OW24853   2.127   2.561   2.233 -0.2509  0.0190  0.2411
 4407SOL    HW124854   2.036   2.536   2.219 -0.6877  1.0633  1.1671
 4407SOL    HW224855   2.111   2.653   2.257  1.0418 -0.2287  2.1008
 4408SOL     OW24856   0.620   0.079  15.783 -0.5408  0.4269  0.6442
 4408SOL    HW124857   0.683   0.007  15.775 -2.6412 -1.5643  2.4231
 4408SOL    HW224858   0.670   0.145  15.832 -1.3228  1.6819 -0.2546
 4409SOL     OW24859   2.709   0.276   8.392 -0.2219  0.4254  0.1052
 4409SOL    HW124860   2.656   0.259   8.314 -0.7685 -0.5923  0.6979
 4409SOL    HW224861   2.740   0.366   8.383 -0.5203  0.4076 -1.1155
 4410SOL     OW24862   0.281   2.205   6.570 -0.0096 -0.2839 -0.6291
 4410SOL    HW124863   0.259   2.115   6.595  0.2232 -0.6151 -1.6000
 4410SOL    HW224864   0.231   2.261   6.629  0.2169 -0.6782 -0.0648
 4411SOL     OW24865   2.003   1.677   2.539  0.0120 -0.0813  0.4726
 4411SOL    HW124866   2.024   1.697   2.447 -1.2410  0.5970  0.3280
 4411SOL    HW224867   2.077   1.621   2.562 -0.7982 -1.3079  0.0741
 4412SOL     OW24868   4.216   2.963   6.332  0.2478 -0.8956  0.1417
 4412SOL    HW124869   4.299   2.934   6.295  2.7880  2.4401  3.2298
 4412SOL    HW224870   4.197   3.036   6.273  0.5565 -2.8101 -2.3301
 4413SOL     OW24871   1.984   0.405   7.150 -0.0480 -0.5287 -0.3040
 4413SOL    HW124872   2.003   0.313   7.129  2.7195 -0.4075  1.6125
 4413SOL    HW224873   1.897   0.391   7.188 -0.1353 -0.7474 -0.5869
 4414SOL     OW24874   3.674   0.297   2.097  0.1736  0.3327  0.2283
 4414SOL    HW124875   3.739   0.269   2.161  1.1554  0.6663 -0.6279
 4414SOL    HW224876   3.633   0.380   2.122 -3.6112 -1.5010  0.0832
 4415SOL     OW24877   1.768   4.082   1.647  0.0410 -0.1275 -0.1418
 4415SOL    HW124878   1.848   4.029   1.652  0.9178  1.1380 -0.6883
 4415SOL    HW224879   1.801   4.168   1.623  0.7419 -0.2939  0.2222
 4416SOL     OW24880   1.022   0.000  14.251  0.3454 -0.1015 -0.0564
 4416SOL    HW124881   1.071   0.075  14.218 -1.6936  0.8087 -1.0475
 4416SOL    HW224882   0.958   0.035  14.313 -0.2427 -1.4253  0.0798
 4417SOL     OW24883   2.399   4.123   6.016  0.6108  0.0686 -0.5883
 4417SOL    HW124884   2.365   4.037   6.044  1.1611  0.0660  0.0917
 4417SOL    HW224885   2.492   4.102   6.021  1.1161  2.1629 -1.2148
 4418SOL     OW24886   4.161   3.312   2.802  0.5442  0.1428  0.0602
 4418SOL    HW124887   4.093   3.320   2.734  1.5740  0.0068 -0.9756
 4418SOL    HW224888   4.141   3.220   2.819  0.1925  0.2853  0.4357
 4419SOL     OW24889   3.661   2.950   7.758 -0.2580 -0.2178 -0.3804
 4419SOL    HW124890   3.614   3.027   7.790  0.1951  0.9399 -2.5102
 4419SOL    HW224891   3.635   2.889   7.828  0.7778  1.1598  1.2022
 4420SOL     OW24892   0.593   0.167   1.974 -0.4092 -0.0905 -0.0568
 4420SOL    HW124893   0.534   0.092   1.963  0.0580 -0.8496  2.5696
 4420SOL    HW224894   0.598   0.217   1.893  0.3117  2.5080  1.5574
 4421SOL     OW24895   1.664   4.446   9.638  0.7300  0.0547  0.1312
 4421SOL    HW124896   1.643   4.469   9.547 -0.6344 -3.2857 -0.4103
 4421SOL    HW224897   1.759   4.432   9.629  0.6733 -0.4148  0.2583
 4422SOL     OW24898   1.219   1.477   2.513  0.0043  0.4791  0.2587
 4422SOL    HW124899   1.297   1.439   2.472  0.9432  1.8985  0.7177
 4422SOL    HW224900   1.188   1.533   2.442  0.9718 -0.5435 -0.9663
 4423SOL     OW24901   0.479   2.750  15.561 -0.1539  0.3055 -0.0400
 4423SOL    HW124902   0.465   2.824  15.502  0.8443  1.5546  1.2801
 4423SOL    HW224903   0.470   2.671  15.507  2.8114  0.2981 -0.5414
 4424SOL     OW24904   3.320   1.432   3.378  0.2360 -0.3518  0.1773
 4424SOL    HW124905   3.289   1.355   3.426 -0.0610 -0.7692 -0.6852
 4424SOL    HW224906   3.315   1.503   3.442 -0.8394 -0.8622  0.6494
 4425SOL     OW24907   4.486   0.422   4.568 -0.4726 -0.0903 -0.2083
 4425SOL    HW124908   4.415   0.451   4.511 -1.6750  3.1715  2.9883
 4425SOL    HW224909   4.533   0.363   4.509 -0.5513  0.5792 -0.9288
 4426SOL     OW24910   1.938   1.488   8.382 -0.2272  0.2275  0.9440
 4426SOL    HW124911   1.878   1.562   8.400 -1.7497 -0.8621  0.3653
 4426SOL    HW224912   1.922   1.449   8.468 -0.0100  0.3878  1.0569
 4427SOL     OW24913   4.185   1.685   2.121  0.3160 -0.1279 -0.3053
 4427SOL    HW124914   4.221   1.599   2.143 -2.5097 -0.6117  2.4779
 4427SOL    HW224915   4.202   1.676   2.027  1.0213 -1.1580 -0.0749
 4428SOL     OW24916   3.198   0.720   3.243 -0.1759 -0.3600 -0.3096
 4428SOL    HW124917   3.131   0.787   3.258  0.3159 -0.2784  1.6009
 4428SOL    HW224918   3.176   0.647   3.301 -1.2755 -0.6575 -1.1040
 4429SOL     OW24919   3.609   0.567   5.825  0.1116  0.0523  0.3008
 4429SOL    HW124920   3.650   0.622   5.758 -3.8105  1.0706 -1.2905
 4429SOL    HW224921   3.543   0.518   5.776 -0.7216  0.7487  0.7327
 4430SOL     OW24922   4.609   2.809   3.310 -0.0264  0.3467  0.1840
 4430SOL    HW124923   4.598   2.772   3.222  1.1967  1.9401 -0.6269
 4430SOL    HW224924   4.577   2.733   3.360  1.3487 -0.6168 -0.4031
 4431SOL     OW24925   4.243   4.415  16.991  0.1064  0.3018 -0.4689
 4431SOL    HW124926   4.189   4.488  16.962  0.7407  0.4458 -1.2746
 4431SOL    HW224927   4.330   4.453  16.984  0.9694 -1.9786 -2.2251
 4432SOL     OW24928   1.542   2.639   6.898 -0.7041 -0.0188 -0.2709
 4432SOL    HW124929   1.567   2.731   6.894 -1.0020  0.1348  1.3839
 4432SOL    HW224930   1.489   2.622   6.820  0.5074 -0.6570 -0.9568
 4433SOL     OW24931   0.424   4.462   1.782  0.1928  0.8944  0.3129
 4433SOL    HW124932   0.333   4.454   1.812  0.0832 -0.0389 -0.2742
 4433SOL    HW224933   0.424   4.422   1.695  1.3680 -0.3745  0.8990
 4434SOL     OW24934   1.787   2.081   9.291  0.4036  0.0713 -0.2000
 4434SOL    HW124935   1.712   2.098   9.235 -0.8932 -2.0949  0.8698
 4434SOL    HW224936   1.842   2.151   9.256  0.6666 -0.4138 -0.7553
 4435SOL     OW24937   4.028   3.030  10.730 -0.3408  0.1027 -0.8727
 4435SOL    HW124938   4.095   3.053  10.795 -0.6002 -1.1743 -0.1694
 4435SOL    HW224939   4.004   2.941  10.753  1.5855 -0.2620 -0.2409
 4436SOL     OW24940   1.590   0.499   1.454  0.1535 -0.5370  0.3532
 4436SOL    HW124941   1.571   0.405   1.450 -1.5052 -0.2061  0.6106
 4436SOL    HW224942   1.558   0.519   1.542 -0.6020 -0.8169  0.1435
 4437SOL     OW24943   1.213   4.193  11.517  0.1412  0.1429 -0.0437
 4437SOL    HW124944   1.232   4.102  11.539  2.8865  0.3362 -1.6296
 4437SOL    HW224945   1.284   4.240  11.560  0.1474 -0.8116  0.9978
 4438SOL     OW24946   4.501   0.971   8.327  0.2102 -0.7214  0.2065
 4438SOL    HW124947   4.564   0.901   8.347 -0.7656 -1.9794 -1.1649
 4438SOL    HW224948   4.557   1.049   8.330  1.3487 -1.5773  1.3455
 4439SOL     OW24949   3.622   1.199  12.530 -0.0920  0.1438 -0.7873
 4439SOL    HW124950   3.710   1.193  12.567 -1.6699 -0.2330  2.9351
 4439SOL    HW224951   3.587   1.274  12.579  0.8865 -0.5731  1.0182
 4440SOL     OW24952   2.470   4.252   1.496 -0.2424 -0.1718 -0.3355
 4440SOL    HW124953   2.468   4.343   1.525  0.9648 -0.6991  1.4074
 4440SOL    HW224954   2.565   4.248   1.506 -0.2633 -0.4123 -0.2455
 4441SOL     OW24955   2.995   2.524   5.118 -0.4401  0.6356 -0.0035
 4441SOL    HW124956   3.072   2.506   5.173 -1.6116  0.9707  1.7503
 4441SOL    HW224957   3.032   2.533   5.030  1.6961  0.6611  0.9001
 4442SOL     OW24958   1.561   2.606   3.388 -0.3244 -0.0264 -0.3216
 4442SOL    HW124959   1.518   2.523   3.366  1.3239 -0.9992  0.1473
 4442SOL    HW224960   1.536   2.603   3.480 -2.1435  2.7910 -0.7374
 4443SOL     OW24961   4.078   1.365   4.172  0.1468 -0.2164 -0.3644
 4443SOL    HW124962   4.054   1.350   4.264 -0.1983 -2.2639 -0.7837
 4443SOL    HW224963   4.166   1.330   4.160  0.2589 -0.1704  0.3169
 4444SOL     OW24964   4.017   0.653   2.668 -0.0700  0.4319 -0.3276
 4444SOL    HW124965   4.017   0.627   2.576  1.4943  0.5888 -0.3578
 4444SOL    HW224966   4.100   0.698   2.681 -0.5362  1.0732  0.4684
 4445SOL     OW24967   2.379   1.785  12.726  0.5421  0.0304 -0.0767
 4445SOL    HW124968   2.412   1.695  12.734 -2.2681 -1.0103 -0.2783
 4445SOL    HW224969   2.419   1.814  12.644  0.2489  0.8097  0.0617
 4446SOL     OW24970   0.419   4.144   6.420 -0.2475 -0.0549 -0.5556
 4446SOL    HW124971   0.412   4.102   6.506  1.0269 -2.5181 -1.6608
 4446SOL    HW224972   0.493   4.098   6.381 -1.8335 -2.3092 -0.8890
 4447SOL     OW24973   3.378   2.643  11.672 -0.6141  0.0930 -0.0290
 4447SOL    HW124974   3.436   2.619  11.744  0.0353 -2.3450 -1.3739
 4447SOL    HW224975   3.298   2.593  11.687 -1.3043  1.3295  0.3884
 4448SOL     OW24976   1.977   1.434  14.436  0.1820  0.0681 -0.3086
 4448SOL    HW124977   1.982   1.342  14.463  1.5256 -0.2834 -1.7734
 4448SOL    HW224978   2.057   1.442  14.385  2.0283 -0.9674  2.4216
 4449SOL     OW24979   1.922   3.120  17.339 -0.0571 -0.6629  0.7726
 4449SOL    HW124980   2.001   3.174  17.346 -1.2557  1.5220 -2.4525
 4449SOL    HW224981   1.869   3.148  17.414 -1.2434 -0.6223 -0.0701
 4450SOL     OW24982   1.108   1.319   8.196  0.1491 -0.1870  0.0477
 4450SOL    HW124983   1.024   1.360   8.173  0.3446 -0.8490 -1.9003
 4450SOL    HW224984   1.130   1.356   8.281  1.5260 -1.7505  0.3778
 4451SOL     OW24985   4.612   1.777   2.924  0.2588  0.1696  0.8018
 4451SOL    HW124986   4.708   1.783   2.924  0.2912 -0.1737 -0.9502
 4451SOL    HW224987   4.606   1.682   2.919 -3.2440  0.4824 -1.1573
 4452SOL     OW24988   1.394   4.400   0.426  0.4448 -0.1581  0.3281
 4452SOL    HW124989   1.375   4.406   0.520  0.0020 -1.4283  0.3173
 4452SOL    HW224990   1.408   4.493   0.408 -0.0175 -0.5236 -1.8853
 4453SOL     OW24991   4.405   3.585  12.921 -0.1752 -0.1081 -0.1095
 4453SOL    HW124992   4.316   3.618  12.936 -0.1872  0.1631 -0.7902
 4453SOL    HW224993   4.438   3.556  13.006  0.3327 -2.1018 -0.9893
 4454SOL     OW24994   2.473   2.741   9.892  0.3752  0.5016 -0.1670
 4454SOL    HW124995   2.424   2.805   9.840 -0.3983 -0.1355 -0.2296
 4454SOL    HW224996   2.536   2.699   9.833 -0.4340 -1.9467  0.6856
 4455SOL     OW24997   1.911   2.021  12.324  0.0475 -0.0732 -0.2245
 4455SOL    HW124998   1.918   1.985  12.412  1.0492 -0.8142 -0.6038
 4455SOL    HW224999   1.915   1.941  12.271  0.5813  0.5319 -1.1061
 4456SOL     OW25000   2.373   1.288   7.309  0.0784 -0.4410  0.1718
 4456SOL    HW125001   2.331   1.244   7.236  1.1470  0.2158 -0.8415
 4456SOL    HW225002   2.467   1.284   7.290  0.2425 -2.2497  1.3965
 4457SOL     OW25003   3.842   4.511   1.935  0.2075  0.7558  0.4101
 4457SOL    HW125004   3.807   4.598   1.920  0.9466  1.2947  1.7664
 4457SOL    HW225005   3.882   4.487   1.851 -1.2789 -2.1755  0.5473
 4458SOL     OW25006   1.229   1.289   9.929 -1.1012 -0.7392 -0.7935
 4458SOL    HW125007   1.280   1.335   9.996 -0.5121 -0.2127 -1.6006
 4458SOL    HW225008   1.293   1.236   9.882  2.9560  2.5553  0.9727
 4459SOL     OW25009   1.334   3.061  11.603  0.3517  0.1660  0.4917
 4459SOL    HW125010   1.286   2.983  11.630 -2.4348  2.3033  1.7202
 4459SOL    HW225011   1.417   3.027  11.568 -0.5743 -0.1578 -1.3788
 4460SOL     OW25012   1.976   1.903   9.015 -0.0724  0.0262 -0.1951
 4460SOL    HW125013   2.065   1.912   8.979  0.2688 -0.6736  0.4764
 4460SOL    HW225014   1.959   1.997   9.021 -1.7165 -0.1019 -3.0076
 4461SOL     OW25015   2.628   4.090   8.266  0.6568  0.1498  0.1126
 4461SOL    HW125016   2.537   4.104   8.293  1.5674  2.3123  2.1005
 4461SOL    HW225017   2.613   4.068   8.174  2.4572  1.5615 -0.4989
 4462SOL     OW25018   1.924   1.229   9.019  0.4820 -0.2210  0.0924
 4462SOL    HW125019   1.981   1.301   8.991  0.7232 -0.3574  0.2277
 4462SOL    HW225020   1.908   1.178   8.939  0.6641  0.3359 -0.3012
 4463SOL     OW25021   3.751   0.046   1.983  0.1111 -0.3008  0.6042
 4463SOL    HW125022   3.687   0.110   2.013 -1.3589 -0.7225 -1.5813
 4463SOL    HW225023   3.837   0.086   1.969 -0.7126  1.4448  0.5933
 4464SOL     OW25024   3.393   4.080   5.862 -0.0661 -0.0952  0.4639
 4464SOL    HW125025   3.449   4.154   5.839  0.8354 -1.2658 -1.1416
 4464SOL    HW225026   3.446   4.006   5.832 -1.0323 -1.0061  1.0078
 4465SOL     OW25027   3.012   0.127   7.319  0.3002  0.4635  0.1660
 4465SOL    HW125028   2.919   0.142   7.335 -0.2587 -0.5454 -2.1908
 4465SOL    HW225029   3.038   0.148   7.409  2.1718 -0.9886 -0.0507
 4466SOL     OW25030   4.221   3.203   3.273  0.0923 -0.6063  0.5953
 4466SOL    HW125031   4.291   3.231   3.214 -0.0189  1.4707  1.4431
 4466SOL    HW225032   4.154   3.270   3.260 -1.0016 -1.9612 -0.7117
 4467SOL     OW25033   2.088   4.600   4.589 -0.3058  0.4126 -0.1624
 4467SOL    HW125034   2.161   4.650   4.627  0.4185 -0.6774 -0.0969
 4467SOL    HW225035   2.080   4.631   4.499 -1.9120 -0.4478 -0.3149
 4468SOL     OW25036   1.990   3.573  17.481 -0.0717 -0.1880 -0.4534
 4468SOL    HW125037   1.961   3.517  17.409 -1.9936  1.8775 -1.2761
 4468SOL    HW225038   2.029   3.516  17.547  0.7623 -0.0231 -0.8036
 4469SOL     OW25039   0.779   3.696   5.938 -0.1854 -0.1236 -0.9955
 4469SOL    HW125040   0.834   3.655   6.004 -0.9471  1.1946  0.4664
 4469SOL    HW225041   0.763   3.775   5.990 -0.1465 -1.0703  0.4484
 4470SOL     OW25042   3.417   2.329   2.286  0.5866 -0.3702  0.9376
 4470SOL    HW125043   3.439   2.253   2.339  1.9649 -2.8568 -3.1872
 4470SOL    HW225044   3.325   2.337   2.309  0.4550  1.1090 -0.1292
 4471SOL     OW25045   1.358   4.670   4.628 -0.2443  0.1368  0.6771
 4471SOL    HW125046   1.439   4.630   4.596  0.0157  1.2530 -0.0487
 4471SOL    HW225047   1.378   4.665   4.721 -0.9326 -0.0930  0.8123
 4472SOL     OW25048   2.155   4.074  15.651  0.1173 -0.7855 -0.4731
 4472SOL    HW125049   2.087   4.106  15.591  1.0628 -1.3632 -1.8589
 4472SOL    HW225050   2.229   4.125  15.619 -1.5007  1.3556 -0.8118
 4473SOL     OW25051   2.620   3.012  10.056  0.3868 -0.5272 -0.3936
 4473SOL    HW125052   2.669   3.094  10.048  0.8306 -0.6422  1.1581
 4473SOL    HW225053   2.679   2.948  10.095  0.2424 -0.2471  0.2901
 4474SOL     OW25054   1.718   3.003   7.513  0.4082  0.3404  0.0014
 4474SOL    HW125055   1.716   3.039   7.602  0.8213 -0.7425  0.4460
 4474SOL    HW225056   1.634   2.958   7.505  1.1779 -0.9275 -0.8299
 4475SOL     OW25057   3.290   1.089  10.768 -0.3206  0.1754  0.1388
 4475SOL    HW125058   3.196   1.084  10.789 -0.5835 -0.0752 -1.0889
 4475SOL    HW225059   3.297   1.004  10.725  0.1224 -1.1904  2.9394
 4476SOL     OW25060   3.169   1.092   3.973  1.0937 -0.1385 -0.3559
 4476SOL    HW125061   3.235   1.102   3.904  0.5133  1.6365 -0.6639
 4476SOL    HW225062   3.106   1.159   3.945  1.2398 -0.3773 -1.2689
 4477SOL     OW25063   3.392   3.539   1.594  0.4734 -0.3287  0.1810
 4477SOL    HW125064   3.300   3.530   1.619 -0.2619 -0.8231 -2.6600
 4477SOL    HW225065   3.376   3.538   1.499 -0.4653 -0.1451  0.3356
 4478SOL     OW25066   0.073   0.290   8.703 -0.0924  0.2907  0.1557
 4478SOL    HW125067   0.106   0.224   8.764 -0.7041  0.3577  0.5519
 4478SOL    HW225068   0.124   0.361   8.741 -1.8647  1.7290 -0.1801
 4479SOL     OW25069   2.096   3.759   2.914 -0.2116 -0.7618 -0.2521
 4479SOL    HW125070   2.059   3.674   2.890  1.3325 -0.5850 -3.1954
 4479SOL    HW225071   2.097   3.803   2.830 -0.3208 -0.3115 -0.0166
 4480SOL     OW25072   0.416   2.666   6.636  0.8550 -0.0550  0.6411
 4480SOL    HW125073   0.326   2.634   6.630  0.8960 -0.2865  1.2685
 4480SOL    HW225074   0.449   2.624   6.556 -0.6757  0.1195 -0.0737
 4481SOL     OW25075   3.135   1.676   2.592  0.4860 -0.2421 -0.0254
 4481SOL    HW125076   3.076   1.609   2.557  3.2758 -2.1597 -0.9923
 4481SOL    HW225077   3.069   1.744   2.607 -1.5315 -2.4181  1.0286
 4482SOL     OW25078   0.164   0.304   8.102 -0.3313 -0.3343  0.1171
 4482SOL    HW125079   0.208   0.247   8.039 -1.5907  0.2635 -1.3017
 4482SOL    HW225080   0.219   0.382   8.108 -1.4281  0.5118 -0.8068
 4483SOL     OW25081   3.754   0.751   2.693 -0.0088 -0.2437  1.0003
 4483SOL    HW125082   3.845   0.730   2.713  0.9119  0.0078 -2.8391
 4483SOL    HW225083   3.713   0.664   2.694 -0.1059 -0.2376 -1.6669
 4484SOL     OW25084   0.607   1.815   2.900 -0.4938  0.2920  0.2154
 4484SOL    HW125085   0.575   1.862   2.977 -1.9799  0.8742 -0.7335
 4484SOL    HW225086   0.685   1.868   2.882 -1.4809  1.0015 -2.0511
 4485SOL     OW25087   1.668   2.338   9.802 -0.2350  0.5487  0.6577
 4485SOL    HW125088   1.734   2.275   9.829 -0.5379 -0.5553 -1.2228
 4485SOL    HW225089   1.621   2.354   9.884  0.2965  0.8876  0.9000
 4486SOL     OW25090   2.795   2.917   4.254 -0.2242 -0.5268 -0.0676
 4486SOL    HW125091   2.808   2.839   4.308 -1.5577 -0.6865  0.0233
 4486SOL    HW225092   2.862   2.893   4.190  0.8715 -2.1795  1.6982
 4487SOL     OW25093   4.347   2.566   3.083  0.2267 -0.6130 -0.0417
 4487SOL    HW125094   4.363   2.524   3.167  0.8537  2.8653  1.5812
 4487SOL    HW225095   4.252   2.573   3.075  0.4092  1.8754  0.0367
 4488SOL     OW25096   2.442   2.207   9.058  0.0973 -0.2979 -0.1637
 4488SOL    HW125097   2.372   2.268   9.036  2.6760  2.4325 -0.8625
 4488SOL    HW225098   2.406   2.184   9.143 -0.8926 -0.4516 -0.6314
 4489SOL     OW25099   3.360   4.140  11.338 -0.0920  0.4697  0.0198
 4489SOL    HW125100   3.345   4.086  11.260 -2.8837  1.5437 -0.2178
 4489SOL    HW225101   3.369   4.227  11.300 -2.8585  0.1594 -1.3730
 4490SOL     OW25102   3.809   1.638   7.328  0.4038 -0.1229 -0.5159
 4490SOL    HW125103   3.736   1.657   7.269 -0.0507 -1.4706 -0.3800
 4490SOL    HW225104   3.753   1.655   7.403  0.3011  0.6678 -0.7702
 4491SOL     OW25105   4.341   1.486   6.624 -0.0319 -0.1935 -0.1631
 4491SOL    HW125106   4.400   1.508   6.552  1.2226 -1.4215  0.4880
 4491SOL    HW225107   4.313   1.571   6.659  2.1237  0.5932 -0.3705
 4492SOL     OW25108   0.350   1.980  10.081  0.4165  0.6001 -0.9948
 4492SOL    HW125109   0.258   1.968  10.059  0.1985  1.1021 -0.3534
 4492SOL    HW225110   0.376   1.895  10.118 -1.4724  0.5951  0.3222
 4493SOL     OW25111   1.290   1.869   1.489 -0.2504 -0.3063  0.4431
 4493SOL    HW125112   1.359   1.843   1.549 -0.2363 -0.5549  0.3198
 4493SOL    HW225113   1.294   1.791   1.433  1.1207 -0.8531  1.3258
 4494SOL     OW25114   1.226   1.759   7.357 -0.2133 -0.4800 -0.3794
 4494SOL    HW125115   1.276   1.827   7.312  0.9987 -0.0389  1.6519
 4494SOL    HW225116   1.154   1.736   7.297 -0.4179  2.5347 -1.3011
 4495SOL     OW25117   2.776   0.073  16.158 -0.0762  0.0092  0.3186
 4495SOL    HW125118   2.808   0.131  16.227 -0.3686 -0.3377  0.7435
 4495SOL    HW225119   2.761   0.138  16.090  0.8042 -0.1535 -0.0244
 4496SOL     OW25120   0.854   2.822   7.346 -0.3501  0.2405 -0.4866
 4496SOL    HW125121   0.814   2.860   7.268  1.9291  1.2563 -1.1550
 4496SOL    HW225122   0.896   2.743   7.313  1.3448  0.4155  1.2875
 4497SOL     OW25123   4.356   0.658   5.213 -0.1522 -0.5452 -0.3156
 4497SOL    HW125124   4.340   0.731   5.153 -1.3628 -2.0027 -1.7499
 4497SOL    HW225125   4.280   0.657   5.272  1.2266 -1.9926  1.3984
 4498SOL     OW25126   1.098   4.001   8.731  0.0943  0.9436  0.4729
 4498SOL    HW125127   1.178   4.054   8.726 -0.2746  1.4073 -0.3835
 4498SOL    HW225128   1.136   3.935   8.788 -1.6391 -0.6492 -0.2306
 4499SOL     OW25129   4.160   1.969   8.929  0.1772 -0.2967  1.0133
 4499SOL    HW125130   4.127   1.954   8.840 -0.0890  2.7202  0.6004
 4499SOL    HW225131   4.078   2.012   8.951 -1.4381 -2.3167 -1.0162
 4500SOL     OW25132   0.548   0.109   7.255  0.6399 -0.1646 -0.3638
 4500SOL    HW125133   0.504   0.031   7.288 -1.1023  1.4350  1.1335
 4500SOL    HW225134   0.481   0.177   7.260  0.7720  0.0415 -1.3379
 4501SOL     OW25135   0.737   1.919   3.125  0.6645  0.0144 -0.0284
 4501SOL    HW125136   0.722   2.014   3.125 -0.4150 -0.1466 -0.6018
 4501SOL    HW225137   0.751   1.899   3.217  1.8381  0.5623 -0.0808
 4502SOL     OW25138   0.165   3.754   4.215  0.0634  0.2145 -0.4873
 4502SOL    HW125139   0.096   3.817   4.198 -0.3473 -0.0473  0.2445
 4502SOL    HW225140   0.181   3.775   4.307 -2.8743  0.0940  0.0406
 4503SOL     OW25141   4.559   2.024   7.984  0.1931 -0.8348  0.6693
 4503SOL    HW125142   4.619   2.081   7.937 -1.7702 -0.5969 -1.5245
 4503SOL    HW225143   4.514   1.976   7.914  0.3135 -0.6462  0.4630
 4504SOL     OW25144   4.703   3.519  12.048  0.2147 -0.3152  0.0380
 4504SOL    HW125145   4.722   3.500  11.956  0.4125 -0.0169  0.0182
 4504SOL    HW225146   4.625   3.575  12.044  0.7299  0.3280 -0.9103
 4505SOL     OW25147   1.438   4.337   9.442 -0.5943 -0.3624  0.0856
 4505SOL    HW125148   1.488   4.301   9.516  0.4158  1.1351  0.1173
 4505SOL    HW225149   1.349   4.329   9.476 -0.8732 -0.5885 -0.6849
 4506SOL     OW25150   2.416   1.202   5.351 -0.6979  0.2865  0.2168
 4506SOL    HW125151   2.438   1.295   5.342  0.9948 -0.2991 -1.6639
 4506SOL    HW225152   2.328   1.192   5.315 -0.1595 -2.0639 -0.4948
 4507SOL     OW25153   1.207   1.392   8.443 -0.6383  0.4265 -0.1099
 4507SOL    HW125154   1.204   1.400   8.538  3.1385  1.6985 -0.1232
 4507SOL    HW225155   1.276   1.453   8.421 -0.3714  0.4189  0.7102
 4508SOL     OW25156   1.185   0.275   3.372  0.1925  0.0673 -0.0175
 4508SOL    HW125157   1.254   0.217   3.403 -0.0105 -0.7074 -0.9949
 4508SOL    HW225158   1.153   0.313   3.453  2.0030  2.0235 -0.2333
 4509SOL     OW25159   2.365   2.580   0.547  0.6506 -0.3316  0.2523
 4509SOL    HW125160   2.345   2.608   0.637  1.9949 -0.3423  0.5502
 4509SOL    HW225161   2.459   2.592   0.538  0.4394 -0.1714 -1.6821
 4510SOL     OW25162   2.261   2.111   1.174 -0.4884 -0.3087 -1.0215
 4510SOL    HW125163   2.338   2.168   1.176  0.8167 -2.0575 -1.4394
 4510SOL    HW225164   2.231   2.112   1.265 -0.0244  0.2773 -0.8754
 4511SOL     OW25165   1.915   4.545   8.376  0.3455  0.3286  0.4370
 4511SOL    HW125166   1.912   4.468   8.319 -0.1910 -0.4951  1.5739
 4511SOL    HW225167   1.825   4.556   8.406  0.7635  0.5409  1.6159
 4512SOL     OW25168   3.626   3.403   6.435  0.1320  0.2653  0.7160
 4512SOL    HW125169   3.623   3.381   6.341 -1.0551  1.5067  0.4700
 4512SOL    HW225170   3.558   3.470   6.445  1.4022  1.6623 -0.0410
 4513SOL     OW25171   2.590   4.583   7.854 -0.2703 -0.2532 -0.7114
 4513SOL    HW125172   2.597   4.676   7.877 -1.2073  0.0457 -1.6375
 4513SOL    HW225173   2.502   4.563   7.885 -0.1175 -0.6847 -0.5647
 4514SOL     OW25174   2.413   1.440   6.934 -0.3997  0.5821 -0.0143
 4514SOL    HW125175   2.478   1.501   6.898 -0.1342 -1.0966 -2.4098
 4514SOL    HW225176   2.396   1.481   7.019 -0.6410 -0.8925  0.6464
 4515SOL     OW25177   3.191   3.713  17.196  0.3166 -0.4358 -0.3171
 4515SOL    HW125178   3.258   3.747  17.255 -1.0480  2.0186 -0.1898
 4515SOL    HW225179   3.110   3.723  17.246  1.1637 -0.1836  0.9900
 4516SOL     OW25180   1.635   2.331  12.330 -0.1559  0.7643 -0.0857
 4516SOL    HW125181   1.711   2.307  12.277  1.3911  1.1482  1.9913
 4516SOL    HW225182   1.600   2.403  12.277 -1.0521 -0.8345 -1.6495
 4517SOL     OW25183   3.435   1.334   1.219 -0.3719  0.3540 -0.7115
 4517SOL    HW125184   3.417   1.339   1.313  1.0226 -0.2346 -0.4241
 4517SOL    HW225185   3.353   1.324   1.170 -0.4800  0.0884 -0.4791
 4518SOL     OW25186   3.160   4.034  17.326 -0.5156 -0.5456  0.6115
 4518SOL    HW125187   3.184   4.045  17.234 -1.3825 -0.0065  0.4472
 4518SOL    HW225188   3.092   3.968  17.315  1.8745 -3.0406  0.8127
 4519SOL     OW25189   1.474   0.919   9.326 -0.4856 -0.2067 -0.1300
 4519SOL    HW125190   1.397   0.974   9.311 -0.9267 -0.0991  2.6494
 4519SOL    HW225191   1.536   0.965   9.269 -1.0234  0.1726 -0.4075
 4520SOL     OW25192   0.242   3.575   3.510  0.1670 -0.1553  0.0448
 4520SOL    HW125193   0.177   3.619   3.456  0.6064 -1.1997 -1.3402
 4520SOL    HW225194   0.226   3.598   3.601 -2.5978 -1.2233 -0.1480
 4521SOL     OW25195   2.939   0.663   3.586  0.4184 -0.0163 -0.5303
 4521SOL    HW125196   2.997   0.670   3.510 -1.0353  2.7410 -1.3974
 4521SOL    HW225197   2.873   0.729   3.564  1.9256  1.6728  0.0392
 4522SOL     OW25198   1.088   2.209  15.072  0.3594 -0.3915 -0.0386
 4522SOL    HW125199   1.037   2.135  15.103 -0.7862  0.3093 -0.2468
 4522SOL    HW225200   1.167   2.200  15.125  0.1786 -2.0553 -0.0526
 4523SOL     OW25201   0.915   1.109  16.190 -0.0711 -0.0744  0.2317
 4523SOL    HW125202   0.841   1.127  16.248 -2.1298 -0.6114 -2.2490
 4523SOL    HW225203   0.908   1.177  16.123 -0.4576 -1.0256 -0.6968
 4524SOL     OW25204   1.699   3.140   1.316 -0.2125 -0.0608  0.4313
 4524SOL    HW125205   1.673   3.205   1.250  0.2047  0.6937  1.0123
 4524SOL    HW225206   1.720   3.062   1.264 -0.0818 -0.4600  1.0804
 4525SOL     OW25207   3.438   2.797  15.870 -0.0240  0.0969 -0.3164
 4525SOL    HW125208   3.476   2.885  15.875 -1.4029  0.6664  0.3126
 4525SOL    HW225209   3.499   2.747  15.816  0.1137 -0.1230  0.0436
 4526SOL     OW25210   0.470   0.207   3.605 -0.4027  0.1055  0.5194
 4526SOL    HW125211   0.397   0.256   3.643 -1.0640 -0.4207 -0.0976
 4526SOL    HW225212   0.481   0.126   3.653 -2.7040  0.8481  2.2736
 4527SOL     OW25213   3.838   3.527  17.208 -0.0480  0.3075 -0.1478
 4527SOL    HW125214   3.755   3.524  17.159  0.0573  0.5671 -0.3384
 4527SOL    HW225215   3.900   3.551  17.140 -0.7844 -1.0019 -1.2646
 4528SOL     OW25216   1.930   1.922   2.309  0.2899 -0.4248  0.1259
 4528SOL    HW125217   1.852   1.919   2.365  0.9100 -1.3474  0.9423
 4528SOL    HW225218   1.880   1.895   2.232 -0.6808 -2.1808  1.3535
 4529SOL     OW25219   2.738   0.760   4.487  0.0305  0.4895  0.2268
 4529SOL    HW125220   2.715   0.675   4.525 -1.3799  0.1285 -1.4767
 4529SOL    HW225221   2.680   0.818   4.536 -0.8357  0.1580 -0.4229
 4530SOL     OW25222   1.684   1.768   5.002 -0.3456  0.6294  0.4688
 4530SOL    HW125223   1.737   1.799   5.076 -2.7541  1.4344  1.8499
 4530SOL    HW225224   1.737   1.792   4.927 -0.1502  2.3649  1.1580
 4531SOL     OW25225   3.418   1.954   3.182 -0.3332 -0.9318  0.0223
 4531SOL    HW125226   3.362   1.882   3.213 -0.7854 -0.6879 -0.2338
 4531SOL    HW225227   3.371   1.984   3.105  0.1577  0.5404  0.3103
 4532SOL     OW25228   3.822   4.007   9.390  0.4337 -0.4939  0.4802
 4532SOL    HW125229   3.751   4.061   9.356  1.9975  2.5660  2.0962
 4532SOL    HW225230   3.846   3.961   9.310 -0.4210 -0.2973  0.1142
 4533SOL     OW25231   2.116   0.962  10.491 -0.2956 -0.5926  0.1610
 4533SOL    HW125232   2.086   1.025  10.426 -1.3544 -0.3302  0.9041
 4533SOL    HW225233   2.035   0.942  10.539  0.1574 -4.0379 -0.5081
 4534SOL     OW25234   1.420   0.905   6.230  0.5265 -0.2355 -0.0963
 4534SOL    HW125235   1.426   0.892   6.136 -0.5190  0.9817 -0.3432
 4534SOL    HW225236   1.461   0.990   6.243  0.5136 -0.5400  2.0549
 4535SOL     OW25237   0.596   4.320   8.731  0.3496  0.0088 -0.2764
 4535SOL    HW125238   0.669   4.373   8.698 -0.0976  0.6129 -0.2829
 4535SOL    HW225239   0.644   4.270   8.797  2.4075  1.8315 -0.3961
 4536SOL     OW25240   2.831   2.388   3.704  0.0101  0.1050  0.1725
 4536SOL    HW125241   2.831   2.420   3.794  1.8031  1.8591 -0.4383
 4536SOL    HW225242   2.884   2.457   3.663  1.6417  0.6096  3.1380
 4537SOL     OW25243   3.017   0.973   2.755  0.1044 -0.2604 -0.4038
 4537SOL    HW125244   3.005   0.885   2.719 -2.1685 -0.3316  0.5272
 4537SOL    HW225245   3.100   0.990   2.710  0.0939  1.1739  0.1273
 4538SOL     OW25246   2.255   0.023  13.061 -0.3878 -0.2685  0.5139
 4538SOL    HW125247   2.206   0.073  13.126 -0.9198  0.4732 -0.4507
 4538SOL    HW225248   2.268   0.081  12.986  0.0562  0.0350  0.8261
 4539SOL     OW25249   3.362   0.975   9.680 -0.0091  0.2031  0.1267
 4539SOL    HW125250   3.407   1.011   9.757 -0.7815  0.1656  0.5883
 4539SOL    HW225251   3.352   1.056   9.630 -3.3390  0.8153  1.8395
 4540SOL     OW25252   2.914   3.085   9.627 -0.0953  0.2069 -0.1929
 4540SOL    HW125253   2.897   3.173   9.661  2.2675  0.7418 -0.3778
 4540SOL    HW225254   2.860   3.085   9.548  1.3867  1.7592 -1.2203
 4541SOL     OW25255   4.468   0.070   4.920 -0.0373  0.3838 -0.2368
 4541SOL    HW125256   4.562   0.078   4.903 -0.0137  0.6501  0.0303
 4541SOL    HW225257   4.457   4.716   4.937 -0.9198  0.1411 -2.0608
 4542SOL     OW25258   2.757   4.474   7.360  0.5774  0.0913 -0.0775
 4542SOL    HW125259   2.773   4.382   7.336 -1.3471 -0.2865  0.0443
 4542SOL    HW225260   2.706   4.461   7.440  0.0619 -1.5840 -0.6744
 4543SOL     OW25261   4.404   0.377  14.965  0.0640  0.2942  0.2741
 4543SOL    HW125262   4.312   0.357  14.945  0.4466 -1.2391  0.0595
 4543SOL    HW225263   4.422   0.317  15.038 -0.4159  0.0122  0.1659
 4544SOL     OW25264   4.321   0.564   6.405  0.0571 -0.5464 -0.2370
 4544SOL    HW125265   4.300   0.491   6.464 -1.0133 -0.6325 -0.7298
 4544SOL    HW225266   4.380   0.616   6.459 -1.4968  1.1052 -0.1453
 4545SOL     OW25267   3.726   1.674  10.513  0.2726 -0.0283  0.6474
 4545SOL    HW125268   3.681   1.714  10.439 -0.7673  0.0411  1.3298
 4545SOL    HW225269   3.655   1.619  10.545  2.2921 -2.3671  1.1074
 4546SOL     OW25270   2.963   1.913   1.864  0.0400 -0.3247 -0.2159
 4546SOL    HW125271   3.030   1.879   1.923  1.7189  1.8937 -0.8475
 4546SOL    HW225272   2.968   2.004   1.892  1.6787 -0.6739  0.6349
 4547SOL     OW25273   1.206   2.981   2.843 -0.3382 -0.5465 -0.4227
 4547SOL    HW125274   1.216   3.069   2.807  1.6346 -0.5470  0.1404
 4547SOL    HW225275   1.253   3.002   2.923 -3.2883 -0.9126  1.4247
 4548SOL     OW25276   4.094   3.438   6.345  0.2257 -0.4065 -0.3784
 4548SOL    HW125277   4.047   3.496   6.285  1.7175 -0.6497 -1.7801
 4548SOL    HW225278   4.141   3.506   6.393 -1.4900  0.4681  0.0597
 4549SOL     OW25279   0.982   3.245   5.248 -0.1795  0.2503  0.0063
 4549SOL    HW125280   1.040   3.319   5.264 -0.1874  0.2423  0.0743
 4549SOL    HW225281   0.906   3.282   5.204  0.7303 -0.4662 -2.1322
 4550SOL     OW25282   2.257   0.745   2.231 -0.1587 -0.2113  0.4025
 4550SOL    HW125283   2.331   0.729   2.171  0.0975 -0.8222  0.8783
 4550SOL    HW225284   2.273   0.678   2.298  2.2173  2.2971  2.3592
 4551SOL     OW25285   3.768   1.848   1.209 -0.2462 -0.0497  0.3495
 4551SOL    HW125286   3.806   1.893   1.133 -1.1002 -1.6172 -1.0014
 4551SOL    HW225287   3.852   1.835   1.252 -0.2309  1.9024  0.9150
 4552SOL     OW25288   1.266   1.977  12.767  0.4237 -0.2812 -0.1843
 4552SOL    HW125289   1.352   1.958  12.806 -0.9228 -2.1382  1.8543
 4552SOL    HW225290   1.264   2.072  12.772 -2.0254 -0.3605  0.3072
 4553SOL     OW25291   0.999   1.705   3.931 -0.4601  0.4408  0.3532
 4553SOL    HW125292   1.072   1.740   3.982  0.7091 -0.6248 -0.6006
 4553SOL    HW225293   1.023   1.709   3.839 -1.2861 -0.2012  0.1189
 4554SOL     OW25294   3.007   0.856   1.628 -0.4026 -0.2311 -0.2498
 4554SOL    HW125295   2.918   0.821   1.632 -0.1290 -0.9413 -0.4561
 4554SOL    HW225296   2.990   0.944   1.593  0.8251  0.0968 -0.0343
 4555SOL     OW25297   3.693   3.292  17.272  0.6247  0.0275 -0.2874
 4555SOL    HW125298   3.781   3.254  17.269  0.4328 -0.3538 -0.9831
 4555SOL    HW225299   3.713   3.376  17.230  0.5762  1.0811  1.8012
 4556SOL     OW25300   1.824   1.557   8.093 -0.4229 -0.9231 -0.6719
 4556SOL    HW125301   1.822   1.646   8.128  1.4933 -0.3305 -2.1108
 4556SOL    HW225302   1.755   1.516   8.146  0.6519  0.3393  1.6998
 4557SOL     OW25303   2.911   1.769  16.544  0.2771  0.1866  0.0403
 4557SOL    HW125304   2.994   1.733  16.515 -0.3302 -0.0474 -1.4068
 4557SOL    HW225305   2.945   1.845  16.592  1.1068 -0.0661 -0.1550
 4558SOL     OW25306   0.990   4.719   8.571 -0.3424 -0.0574  0.0896
 4558SOL    HW125307   0.912   0.019   8.531  1.7467  1.8309 -2.1298
 4558SOL    HW225308   1.022   0.061   8.609  0.1788 -1.0504  1.7717
 4559SOL     OW25309   0.431   4.386  13.589 -0.4582 -0.2253  0.1782
 4559SOL    HW125310   0.413   4.351  13.677 -1.2968  0.5031  0.2958
 4559SOL    HW225311   0.506   4.440  13.613 -0.8318 -0.7468  2.5400
 4560SOL     OW25312   1.204   1.702   0.946  0.6349 -0.0424  0.6275
 4560SOL    HW125313   1.226   1.729   1.035 -0.7163 -0.3257  1.0492
 4560SOL    HW225314   1.232   1.611   0.943  0.4084 -0.0683 -1.0529
 4561SOL     OW25315   3.210   3.239   0.429  0.2975 -0.0679 -0.2089
 4561SOL    HW125316   3.208   3.192   0.512 -0.3902 -1.3312 -0.9337
 4561SOL    HW225317   3.300   3.266   0.414  1.0474 -2.4320  0.0281
 4562SOL     OW25318   3.462   0.227   5.854  0.1470  0.4079  0.0936
 4562SOL    HW125319   3.440   0.186   5.937 -1.3204  0.8959 -0.0545
 4562SOL    HW225320   3.385   0.281   5.837 -0.6917 -0.8640 -0.0615
 4563SOL     OW25321   1.605   1.847   3.461 -0.2778  0.3021 -0.0704
 4563SOL    HW125322   1.528   1.836   3.405 -0.6877 -0.4084  0.6364
 4563SOL    HW225323   1.609   1.943   3.459  0.3557  0.2391 -1.8982
 4564SOL     OW25324   3.489   3.446  16.321  0.1021 -0.3533 -0.5491
 4564SOL    HW125325   3.551   3.387  16.363 -0.6144 -1.3492 -0.8814
 4564SOL    HW225326   3.427   3.450  16.394 -0.1071  0.4960 -0.7674
 4565SOL     OW25327   3.293   0.546   7.753  0.5105  0.5728  0.2363
 4565SOL    HW125328   3.348   0.609   7.800  2.0117 -3.0984  3.4549
 4565SOL    HW225329   3.243   0.610   7.703  0.5077  1.2787  1.1363
 4566SOL     OW25330   0.331   0.438   1.726 -0.0708  0.2421 -0.5040
 4566SOL    HW125331   0.386   0.460   1.801  1.4629 -1.7069 -1.0452
 4566SOL    HW225332   0.378   0.480   1.655 -0.2197  0.8877 -0.2142
 4567SOL     OW25333   1.424   3.951   2.951 -0.2310 -0.2840  0.7197
 4567SOL    HW125334   1.401   4.044   2.942  1.0329  0.1927  2.5738
 4567SOL    HW225335   1.370   3.927   3.027 -0.3776 -0.5203  0.5427
 4568SOL     OW25336   2.307   1.218  12.309 -0.0743 -0.0667 -0.2444
 4568SOL    HW125337   2.281   1.191  12.221  0.5408  1.2558 -0.8294
 4568SOL    HW225338   2.299   1.313  12.303 -1.0025 -0.1213  0.1370
 4569SOL     OW25339   1.146   0.508   0.176 -0.0173 -0.0129 -0.1306
 4569SOL    HW125340   1.115   0.597   0.196 -0.7012  0.4351 -3.1556
 4569SOL    HW225341   1.212   0.526   0.109 -0.0114  2.3875  0.5256
 4570SOL     OW25342   4.242   3.156  10.231 -0.1170  0.3675 -0.5400
 4570SOL    HW125343   4.325   3.137  10.275 -0.9285  0.0056  0.8104
 4570SOL    HW225344   4.176   3.117  10.287  0.9293 -1.7071 -0.7588
 4571SOL     OW25345   2.975   0.809   7.745 -0.3673  0.0008 -0.4732
 4571SOL    HW125346   2.912   0.737   7.744  2.3508 -2.4396  1.1268
 4571SOL    HW225347   2.976   0.812   7.840  0.2778 -0.8791 -0.4531
 4572SOL     OW25348   1.546   3.406   0.419 -0.8874  0.0540  0.1568
 4572SOL    HW125349   1.531   3.352   0.341 -0.8149 -1.7508  1.4007
 4572SOL    HW225350   1.635   3.441   0.420 -0.2996 -1.3848 -0.5955
 4573SOL     OW25351   0.519   0.668   7.514  0.5884 -0.6129 -0.0215
 4573SOL    HW125352   0.600   0.709   7.544 -0.1581  0.8123  0.0051
 4573SOL    HW225353   0.543   0.575   7.523  2.9639 -0.1279 -1.3712
 4574SOL     OW25354   3.481   3.621   6.480 -0.2965  0.5896  0.1144
 4574SOL    HW125355   3.462   3.602   6.572  0.9974 -2.9798 -0.3834
 4574SOL    HW225356   3.426   3.699   6.471 -0.7509  0.5271  2.3246
 4575SOL     OW25357   1.273   2.722   1.942 -0.1023  0.2828  0.1848
 4575SOL    HW125358   1.181   2.743   1.923 -0.1153 -2.0032 -2.3395
 4575SOL    HW225359   1.285   2.739   2.036  0.4019 -0.5743  0.2762
 4576SOL     OW25360   1.971   2.181   8.965  0.1576 -0.1962  0.1291
 4576SOL    HW125361   1.913   2.129   8.909  2.3173 -1.8492 -0.5992
 4576SOL    HW225362   1.962   2.265   8.919  2.4495 -0.1311 -0.2419
 4577SOL     OW25363   1.511   3.350   5.674  0.0114  0.5459  0.1752
 4577SOL    HW125364   1.533   3.310   5.758  1.5184 -1.5929 -1.2416
 4577SOL    HW225365   1.417   3.358   5.691 -0.0794  0.6584 -0.3916
 4578SOL     OW25366   2.339   0.179   8.492 -0.1522  0.3105 -0.4659
 4578SOL    HW125367   2.309   0.238   8.562 -0.7989 -0.9517  0.3253
 4578SOL    HW225368   2.275   0.209   8.428 -1.0568 -0.1892  0.2112
 4579SOL     OW25369   1.069   1.727  11.613  0.2699 -0.4733  0.4110
 4579SOL    HW125370   1.130   1.700  11.683  0.6148 -0.6010  0.0629
 4579SOL    HW225371   1.084   1.663  11.543 -0.4163  0.0387 -0.1996
 4580SOL     OW25372   1.355   1.569   4.898 -0.3401 -0.2155  0.3831
 4580SOL    HW125373   1.430   1.583   4.956 -0.9366  1.0008  0.8701
 4580SOL    HW225374   1.339   1.475   4.908 -0.6063 -0.2159 -0.0785
 4581SOL     OW25375   1.709   2.891   6.194 -0.1732 -0.1688  0.1408
 4581SOL    HW125376   1.757   2.875   6.113  0.6401  2.2033  0.1572
 4581SOL    HW225377   1.752   2.828   6.252  0.9642  0.3260 -0.1802
 4582SOL     OW25378   4.386   2.213   7.367 -0.2722 -0.4583 -0.2404
 4582SOL    HW125379   4.314   2.268   7.401 -0.0515 -0.2141 -0.1695
 4582SOL    HW225380   4.432   2.205   7.451 -1.6125  0.9925  0.6504
 4583SOL     OW25381   0.546   0.588   5.990 -0.5807 -0.0926  0.4878
 4583SOL    HW125382   0.607   0.563   5.920 -1.3666 -0.1091 -0.1907
 4583SOL    HW225383   0.534   0.501   6.027 -1.9624  0.6999  1.8436
 4584SOL     OW25384   2.506   1.892  12.467  0.0042 -0.1246 -0.2359
 4584SOL    HW125385   2.532   1.966  12.522  1.5447 -2.3447  2.0248
 4584SOL    HW225386   2.422   1.917  12.429 -0.4579  1.7937  2.0251
 4585SOL     OW25387   1.418   3.760   8.248  0.5042 -0.1657 -0.1328
 4585SOL    HW125388   1.327   3.769   8.218 -0.0836 -1.7655  1.1947
 4585SOL    HW225389   1.413   3.686   8.308 -0.2039 -0.4782 -0.5722
 4586SOL     OW25390   1.897   3.673   7.941  0.4677  0.7528  0.0905
 4586SOL    HW125391   1.820   3.617   7.930  0.9454  0.3692 -1.3737
 4586SOL    HW225392   1.934   3.679   7.853  1.6275  0.7759  0.5866
 4587SOL     OW25393   1.657   4.469   2.512 -0.6133 -0.1862 -0.1131
 4587SOL    HW125394   1.684   4.469   2.604 -1.2371  0.0558  0.0733
 4587SOL    HW225395   1.698   4.552   2.489  1.8667 -1.4204 -0.1141
 4588SOL     OW25396   3.918   3.407  13.060 -0.0652  0.0744 -0.0076
 4588SOL    HW125397   3.860   3.388  12.987  0.9913 -0.5758 -0.6836
 4588SOL    HW225398   3.875   3.485  13.095  0.4326  1.0655 -1.5483
 4589SOL     OW25399   0.704   3.227   8.583 -0.5146  0.1454  0.7970
 4589SOL    HW125400   0.697   3.133   8.598 -2.3297 -0.3563 -3.1772
 4589SOL    HW225401   0.720   3.261   8.671 -2.4453  2.1509  0.3559
 4590SOL     OW25402   3.600   1.826   5.331 -0.1485 -0.1385  0.3011
 4590SOL    HW125403   3.536   1.898   5.330 -0.4123 -0.3848 -0.7149
 4590SOL    HW225404   3.646   1.848   5.412 -0.8277  1.7649  0.1826
 4591SOL     OW25405   2.849   3.501  10.052 -0.2841  0.1527 -0.2395
 4591SOL    HW125406   2.820   3.565  10.117  3.6982  1.7443 -0.0411
 4591SOL    HW225407   2.768   3.499  10.001  0.7322  0.5892 -1.8597
 4592SOL     OW25408   1.551   2.013   2.997  0.4890  0.3636 -0.2037
 4592SOL    HW125409   1.591   1.961   3.067  2.4950  1.0249 -0.8547
 4592SOL    HW225410   1.554   1.957   2.919  0.6542 -0.0990  0.1351
 4593SOL     OW25411   1.576   4.733  15.712 -0.3148 -0.2085 -0.2368
 4593SOL    HW125412   1.488   4.696  15.717 -1.3318  1.9669 -2.0427
 4593SOL    HW225413   1.554   0.087  15.710  0.1910 -0.0722  0.5752
 4594SOL     OW25414   3.656   4.096   4.510  0.1613 -0.0621  0.4156
 4594SOL    HW125415   3.723   4.030   4.494  0.7802  1.1056 -1.9509
 4594SOL    HW225416   3.668   4.124   4.601 -1.9686 -1.2116  1.0362
 4595SOL     OW25417   0.375   3.608   8.360 -0.2903 -0.3361  0.1757
 4595SOL    HW125418   0.333   3.635   8.442 -0.0624 -0.2159  0.2533
 4595SOL    HW225419   0.427   3.538   8.399 -0.3994 -1.3508 -1.5237
 4596SOL     OW25420   2.191   4.437   2.237  0.4193  1.2343  0.5740
 4596SOL    HW125421   2.273   4.478   2.263  0.6308  0.0813  1.6875
 4596SOL    HW225422   2.186   4.446   2.142 -0.0640  0.9401  0.5662
 4597SOL     OW25423   1.366   0.802   7.987  0.7699  0.2186 -0.3153
 4597SOL    HW125424   1.412   0.866   7.932  0.1992  1.5616  0.7802
 4597SOL    HW225425   1.296   0.851   8.030  0.5760  0.9040 -1.3937
 4598SOL     OW25426   3.263   3.192   2.291 -0.6164 -0.3371 -0.0710
 4598SOL    HW125427   3.278   3.127   2.223  1.3697  1.3560 -1.2769
 4598SOL    HW225428   3.177   3.224   2.265 -0.6201  1.6859  2.4028
 4599SOL     OW25429   0.919   2.987   8.843  0.2240  0.3792  0.2660
 4599SOL    HW125430   0.915   2.929   8.919  0.5832  0.8721  0.6560
 4599SOL    HW225431   0.850   2.952   8.786  0.4903  1.7037 -0.8565
 4600SOL     OW25432   3.099   2.467  14.773 -0.0165  0.6976  0.3279
 4600SOL    HW125433   3.058   2.541  14.728  0.4028  1.1967  0.7719
 4600SOL    HW225434   3.024   2.410  14.793 -0.0227  0.0334 -1.5780
 4601SOL     OW25435   1.542   1.026   1.719  0.2572 -0.5564 -0.1198
 4601SOL    HW125436   1.608   1.009   1.652 -0.9131  0.7296 -1.5954
 4601SOL    HW225437   1.561   0.949   1.773 -1.1933  0.0254  1.2267
 4602SOL     OW25438   1.928   1.994   3.378 -0.4748 -0.1412 -0.7910
 4602SOL    HW125439   1.993   2.024   3.315 -0.5719 -0.9218 -1.2746
 4602SOL    HW225440   1.869   2.069   3.374  0.6288  0.6275 -2.9659
 4603SOL     OW25441   4.324   1.153   7.769 -0.8536  0.1983  0.2977
 4603SOL    HW125442   4.354   1.093   7.837  1.1029 -0.1204 -0.8495
 4603SOL    HW225443   4.345   1.100   7.691 -0.5488  0.3778  0.2586
 4604SOL     OW25444   3.098   1.066   0.655 -0.0331  0.0561  0.0752
 4604SOL    HW125445   3.178   1.015   0.665  0.1611  0.5477  0.9824
 4604SOL    HW225446   3.050   1.012   0.591 -0.1603 -0.4167  0.5630
 4605SOL     OW25447   3.382   3.253   3.375 -0.0600 -0.4200  0.1742
 4605SOL    HW125448   3.302   3.206   3.353  0.9125 -2.2964  0.6692
 4605SOL    HW225449   3.352   3.316   3.440  0.3680  0.5494 -0.5613
 4606SOL     OW25450   0.796   3.347   4.119 -0.4532  0.1802 -0.5585
 4606SOL    HW125451   0.807   3.311   4.207  1.2424 -1.7936 -1.5898
 4606SOL    HW225452   0.705   3.375   4.126 -0.2001  1.3419 -1.9525
 4607SOL     OW25453   3.107   4.349   2.235  0.1557 -0.5808 -0.3738
 4607SOL    HW125454   3.120   4.436   2.275 -1.4813 -1.1189  1.3330
 4607SOL    HW225455   3.198   4.320   2.226  0.7209  1.4425 -1.4253
 4608SOL     OW25456   3.126   3.867   8.179  0.2024 -0.1701  0.5964
 4608SOL    HW125457   3.072   3.907   8.247 -0.8158 -0.5872  0.0391
 4608SOL    HW225458   3.079   3.889   8.099  1.5215  0.4721  0.0051
 4609SOL     OW25459   1.505   4.457   5.466 -0.0514  0.3057  0.2231
 4609SOL    HW125460   1.440   4.445   5.396  0.7653  0.9425 -0.6429
 4609SOL    HW225461   1.523   4.549   5.449  1.9643 -0.6403 -2.7733
 4610SOL     OW25462   3.399   3.071   2.482 -0.0754 -0.2433 -0.2508
 4610SOL    HW125463   3.485   3.109   2.468  0.2021 -0.9512 -0.4734
 4610SOL    HW225464   3.352   3.114   2.411 -0.5905 -1.1278 -0.4451
 4611SOL     OW25465   2.259   4.124   0.906  0.4671  0.2126  0.0118
 4611SOL    HW125466   2.265   4.062   0.833  2.7717 -0.3257  0.6830
 4611SOL    HW225467   2.303   4.201   0.871  1.6662 -0.4223  0.1419
 4612SOL     OW25468   0.132   1.825  10.682 -0.5359 -0.4406  0.7355
 4612SOL    HW125469   0.057   1.851  10.736 -1.3193  1.5645 -1.3242
 4612SOL    HW225470   0.149   1.736  10.712 -1.5882 -1.6885 -2.3891
 4613SOL     OW25471   2.323   3.647   7.071  0.3269  0.3325 -0.1447
 4613SOL    HW125472   2.297   3.737   7.090  0.9103  0.7511 -1.3159
 4613SOL    HW225473   2.240   3.618   7.035 -0.3909  3.4741 -1.0979
 4614SOL     OW25474   4.371   2.648   8.074  0.2501  0.2764 -0.4700
 4614SOL    HW125475   4.329   2.732   8.090 -1.4741 -0.7624  0.4263
 4614SOL    HW225476   4.443   2.661   8.012  0.7129  2.3307  0.4988
 4615SOL     OW25477   1.915   3.864   8.152  0.4949  0.4460 -0.2589
 4615SOL    HW125478   1.823   3.884   8.136 -0.7647 -1.6819  4.3584
 4615SOL    HW225479   1.933   3.795   8.089  0.7816 -0.8919  1.2865
 4616SOL     OW25480   0.494   0.846   3.215 -0.0092  0.2444  0.1266
 4616SOL    HW125481   0.434   0.807   3.278  1.3448  0.6650  1.6717
 4616SOL    HW225482   0.436   0.855   3.140  1.7069 -2.1922 -1.5104
 4617SOL     OW25483   4.075   0.018  12.501  0.3516  0.2872  0.4528
 4617SOL    HW125484   4.023   0.011  12.581 -0.9504  0.3096 -0.3911
 4617SOL    HW225485   4.028   4.703  12.437 -0.8146  2.6324 -0.6755
 4618SOL     OW25486   0.565   4.047   2.983  0.3945 -0.4834 -0.5618
 4618SOL    HW125487   0.609   4.017   3.063  3.0947 -0.5740 -2.0816
 4618SOL    HW225488   0.633   4.047   2.915  2.2028  1.3520  1.2544
 4619SOL     OW25489   2.142   1.337   6.706 -0.4281 -0.3488 -0.4466
 4619SOL    HW125490   2.115   1.250   6.737  0.7760  0.1646  2.0663
 4619SOL    HW225491   2.231   1.315   6.677  0.8173  2.8040  1.0474
 4620SOL     OW25492   3.047   3.204   2.931  0.6826 -0.0589 -0.1550
 4620SOL    HW125493   3.127   3.248   2.961  1.0413 -1.6180  1.1684
 4620SOL    HW225494   2.997   3.226   3.009  1.1349  2.1244 -0.4740
 4621SOL     OW25495   3.546   0.003   6.636  0.3957 -0.0343 -0.4092
 4621SOL    HW125496   3.641   4.735   6.636  0.4623  0.7992 -0.8365
 4621SOL    HW225497   3.545   0.094   6.668 -4.1450 -0.0743 -0.4181
 4622SOL     OW25498   0.938   4.381   1.703 -0.6267 -0.2588  0.2944
 4622SOL    HW125499   0.848   4.410   1.717  0.1537  3.2576 -1.9016
 4622SOL    HW225500   0.954   4.360   1.611  0.9801  1.6754  0.1196
 4623SOL     OW25501   2.977   0.711   2.695  0.4237  0.3422  0.2058
 4623SOL    HW125502   2.987   0.686   2.603 -0.3050 -2.8380  0.9791
 4623SOL    HW225503   2.896   0.670   2.726  1.1826 -2.0112 -0.8763
 4624SOL     OW25504   4.036   3.038  12.061  0.3821 -0.3425 -0.1277
 4624SOL    HW125505   3.982   2.969  12.099 -1.0162 -0.0661 -1.5766
 4624SOL    HW225506   4.123   2.998  12.062  1.0875  1.1940  0.9823
 4625SOL     OW25507   2.124   1.604   3.382 -0.3413  0.5512  0.9927
 4625SOL    HW125508   2.051   1.636   3.435 -2.4343 -0.6009 -1.2511
 4625SOL    HW225509   2.198   1.650   3.422 -0.1424 -0.4650  1.7904
 4626SOL     OW25510   2.400   3.338   7.741 -0.3754 -0.6015  0.5948
 4626SOL    HW125511   2.325   3.286   7.711  0.0028 -1.0689  0.4753
 4626SOL    HW225512   2.353   3.404   7.794 -2.4783 -1.3801 -0.2835
 4627SOL     OW25513   1.075   2.527   3.885 -0.3092  0.2243  0.2904
 4627SOL    HW125514   1.021   2.598   3.850  0.1892  0.9306  0.9386
 4627SOL    HW225515   1.092   2.474   3.808 -1.7304  0.9041 -0.4892
 4628SOL     OW25516   2.711   1.608  16.921 -0.3702 -0.0378  0.1806
 4628SOL    HW125517   2.670   1.692  16.898  0.6023  1.0836  2.5697
 4628SOL    HW225518   2.797   1.631  16.957 -0.0799 -1.3754  0.3188
 4629SOL     OW25519   1.190   0.424   2.012 -0.5038  0.9481  0.0409
 4629SOL    HW125520   1.168   0.506   2.055  1.0757  1.4663 -0.1511
 4629SOL    HW225521   1.149   0.358   2.068 -0.4862  1.2518  0.4063
 4630SOL     OW25522   3.535   2.397  13.339 -0.4054 -0.5781  0.2110
 4630SOL    HW125523   3.542   2.487  13.307 -0.8414 -0.7191 -0.2830
 4630SOL    HW225524   3.492   2.403  13.424  0.0815 -1.7192  0.5344
 4631SOL     OW25525   2.329   1.897   0.070 -0.1323  0.2284  0.0792
 4631SOL    HW125526   2.339   1.964   0.138  1.5337  1.2214 -1.1529
 4631SOL    HW225527   2.418   1.864   0.079 -0.2893 -1.1683 -3.8411
 4632SOL     OW25528   1.410   3.514   2.960 -0.6638  0.0199 -0.0089
 4632SOL    HW125529   1.468   3.482   2.890 -0.3029 -0.4668  0.5177
 4632SOL    HW225530   1.377   3.430   2.992  0.1162  0.0716  0.9185
 4633SOL     OW25531   1.690   3.824   9.662 -0.0753  0.3174 -0.0800
 4633SOL    HW125532   1.770   3.780   9.691  0.6427  1.1900 -0.7486
 4633SOL    HW225533   1.732   3.897   9.617 -0.7851  0.5019 -0.4363
 4634SOL     OW25534   1.249   0.035   5.797  0.4574  0.2501 -0.3600
 4634SOL    HW125535   1.280   4.693   5.759 -0.3871 -0.3737  0.2598
 4634SOL    HW225536   1.168   0.056   5.751  0.9959  0.8226 -1.0370
 4635SOL     OW25537   4.239   4.462   8.495  0.0974 -0.3826  0.3096
 4635SOL    HW125538   4.265   4.535   8.552 -1.2107  1.0447 -0.9148
 4635SOL    HW225539   4.211   4.401   8.563 -2.3551  0.8070  0.4025
 4636SOL     OW25540   4.230   3.645  14.061  0.3274  0.0756 -0.0247
 4636SOL    HW125541   4.278   3.578  14.109 -1.1722 -0.2443  1.0221
 4636SOL    HW225542   4.247   3.722  14.115 -1.4301  1.2259 -1.1148
 4637SOL     OW25543   2.536   3.900   1.452  0.1170 -0.7053 -0.1970
 4637SOL    HW125544   2.539   3.995   1.468  0.5357 -0.4835 -1.6085
 4637SOL    HW225545   2.614   3.877   1.401  0.4622 -2.8400  1.3139
 4638SOL     OW25546   1.279   2.115   8.596 -0.3759  0.8753 -0.1388
 4638SOL    HW125547   1.276   2.174   8.521 -0.5711  0.9200 -0.0958
 4638SOL    HW225548   1.349   2.141   8.655 -0.9442  1.5934  0.2199
 4639SOL     OW25549   0.249   0.818   8.840  0.1710 -0.0376 -0.3683
 4639SOL    HW125550   0.255   0.839   8.934  0.5946  1.0041 -0.6274
 4639SOL    HW225551   0.331   0.774   8.818  0.3872 -0.3552  1.0454
 4640SOL     OW25552   4.705   4.382   6.379 -0.4701  0.0474 -0.5464
 4640SOL    HW125553   4.680   4.290   6.380  0.2356 -0.1277  1.1520
 4640SOL    HW225554   0.057   4.372   6.404 -0.3004 -0.2294 -1.2975
 4641SOL     OW25555   2.826   1.956   5.060 -0.0837 -0.5688 -0.1942
 4641SOL    HW125556   2.766   1.882   5.050 -0.5548 -0.5292  2.3181
 4641SOL    HW225557   2.766   2.029   5.047  1.2155  0.9026  2.1402
 4642SOL     OW25558   3.665   3.689   2.856  0.3891  0.0065 -0.1855
 4642SOL    HW125559   3.751   3.724   2.833  1.2984 -1.0280  1.6825
 4642SOL    HW225560   3.616   3.693   2.773  1.7140  0.9269 -0.9209
 4643SOL     OW25561   0.360   4.404   7.955 -0.0298 -0.2123  0.6669
 4643SOL    HW125562   0.388   4.322   7.914  0.0828  0.4146 -0.5015
 4643SOL    HW225563   0.404   4.398   8.040 -0.1669 -1.0411  0.6785
 4644SOL     OW25564   1.755   1.845   5.921 -0.3228 -0.0809 -0.3657
 4644SOL    HW125565   1.669   1.830   5.961  1.5468 -3.0927  2.4437
 4644SOL    HW225566   1.803   1.814   5.997 -1.4858  0.2813  0.5203
 4645SOL     OW25567   1.020   3.659  15.773 -0.2170  0.0171 -0.5035
 4645SOL    HW125568   1.038   3.565  15.775  1.2132  0.2987 -0.2754
 4645SOL    HW225569   1.102   3.692  15.808 -1.5873  1.2832  1.5099
 4646SOL     OW25570   2.816   4.083   5.239  0.1441 -0.1752 -0.2717
 4646SOL    HW125571   2.745   4.124   5.288 -0.8550  0.1449 -1.9795
 4646SOL    HW225572   2.782   3.995   5.223  0.0040 -0.3244  0.8535
 4647SOL     OW25573   3.317   3.490   3.605 -0.8360 -0.2450 -0.6990
 4647SOL    HW125574   3.273   3.560   3.654  2.8618  0.3767  1.7532
 4647SOL    HW225575   3.404   3.529   3.596 -0.6562 -1.1267 -2.5564
 4648SOL     OW25576   0.256   0.455   5.339 -0.0346 -0.0948  0.2292
 4648SOL    HW125577   0.241   0.380   5.396  1.3480  0.2586  1.0558
 4648SOL    HW225578   0.191   0.445   5.269  0.0323  2.0063 -0.1557
 4649SOL     OW25579   0.222   1.883   4.636 -0.1863 -0.0140 -0.1908
 4649SOL    HW125580   0.159   1.849   4.573  1.0517 -1.0199 -0.8797
 4649SOL    HW225581   0.238   1.805   4.689 -1.1736  0.6513  1.0704
 4650SOL     OW25582   0.086   4.551  14.229  0.0578 -1.0145  0.9166
 4650SOL    HW125583   0.056   4.596  14.150  2.7103 -1.3160 -0.2618
 4650SOL    HW225584   0.084   4.629  14.285 -0.0510  0.7723 -1.5876
 4651SOL     OW25585   0.454   0.844   9.332  0.2466 -0.1767 -0.1508
 4651SOL    HW125586   0.481   0.773   9.391 -1.0269 -0.5301  0.0007
 4651SOL    HW225587   0.414   0.886   9.408 -0.1693  0.1194 -0.5362
 4652SOL     OW25588   1.813   0.093  12.811  0.1008  0.0055 -0.5173
 4652SOL    HW125589   1.877   0.029  12.845  0.8853  1.7963  1.3484
 4652SOL    HW225590   1.742   0.036  12.782 -0.5254 -0.4953  2.0726
 4653SOL     OW25591   1.237   1.805  10.799  0.1365  0.1468  0.0908
 4653SOL    HW125592   1.188   1.739  10.750 -0.0976  0.0023  0.5231
 4653SOL    HW225593   1.236   1.760  10.883  0.4772 -0.6245 -0.3123
 4654SOL     OW25594   3.075   2.700   4.022 -0.7183 -0.2100 -0.4257
 4654SOL    HW125595   3.081   2.783   4.070  0.4057 -0.1117 -0.7317
 4654SOL    HW225596   2.984   2.673   4.033 -0.1375 -0.7848  2.9270
 4655SOL     OW25597   4.389   2.788   4.926 -0.6338 -0.5027  0.3090
 4655SOL    HW125598   4.393   2.705   4.880 -1.7455 -0.5479  0.3045
 4655SOL    HW225599   4.300   2.815   4.906  0.1909  1.5213 -0.5764
 4656SOL     OW25600   0.408   2.586   6.373  0.1946  0.4185  0.3206
 4656SOL    HW125601   0.430   2.493   6.383 -0.4623  0.3192  0.8108
 4656SOL    HW225602   0.339   2.582   6.306  0.7455  1.9832 -0.3231
 4657SOL     OW25603   2.731   2.416   1.316  0.8601 -0.4591  0.4595
 4657SOL    HW125604   2.726   2.348   1.383 -1.8448 -0.5599  0.1860
 4657SOL    HW225605   2.656   2.402   1.258  2.1094  1.3279 -1.5800
 4658SOL     OW25606   0.573   2.689   6.856  0.3858  0.3871  0.2105
 4658SOL    HW125607   0.563   2.596   6.877  0.9948  0.2310 -0.2085
 4658SOL    HW225608   0.562   2.691   6.761  0.1898 -0.2282  0.2214
 4659SOL     OW25609   2.718   4.563   0.934 -0.0149  0.5496 -0.0387
 4659SOL    HW125610   2.700   4.523   1.019 -2.4561  0.6073 -0.5560
 4659SOL    HW225611   2.756   4.484   0.895  1.2474  1.4173 -0.5794
 4660SOL     OW25612   3.882   2.370  11.058  0.3020 -0.0796 -0.3991
 4660SOL    HW125613   3.953   2.341  11.001 -0.1579 -0.7925 -0.6189
 4660SOL    HW225614   3.917   2.345  11.144 -1.1247  2.1925  0.8582
 4661SOL     OW25615   2.135   2.392   8.020  0.1382 -0.4674 -0.0800
 4661SOL    HW125616   2.146   2.352   7.934 -0.2472 -1.5647  0.3862
 4661SOL    HW225617   2.174   2.319   8.068 -1.7233 -1.8403 -0.6579
 4662SOL     OW25618   0.037   0.297   5.403  0.0282  0.1674 -0.4814
 4662SOL    HW125619   4.680   0.295   5.404  0.0028  1.5219 -3.0315
 4662SOL    HW225620   0.052   0.349   5.482  2.3860 -2.3311  0.7036
 4663SOL     OW25621   2.891   4.464   7.993 -0.3393 -0.1103  0.1952
 4663SOL    HW125622   2.852   4.531   8.050  0.9620 -1.0764  2.2044
 4663SOL    HW225623   2.972   4.460   8.043  0.8644 -0.3417 -1.7877
 4664SOL     OW25624   2.982   3.221   1.368 -0.2349  0.1642 -0.5833
 4664SOL    HW125625   2.954   3.140   1.325  1.3564 -2.0885  2.5966
 4664SOL    HW225626   2.949   3.211   1.458  1.4059 -1.4687 -0.1455
 4665SOL     OW25627   4.274   2.966   0.632 -0.1148 -1.0308 -0.1289
 4665SOL    HW125628   4.361   2.969   0.591  0.3174 -0.4998  0.8410
 4665SOL    HW225629   4.280   2.881   0.674  1.4802 -1.0135 -0.3370
 4666SOL     OW25630   3.957   1.430   1.351  0.4150  0.0314  0.0931
 4666SOL    HW125631   4.010   1.350   1.360  0.3424  0.0979  1.1496
 4666SOL    HW225632   3.911   1.425   1.434 -1.1434  1.0587 -0.7284
 4667SOL     OW25633   3.678   2.203   6.254  0.0109  0.5383 -0.2981
 4667SOL    HW125634   3.593   2.201   6.298 -0.9791  1.9274 -2.1925
 4667SOL    HW225635   3.676   2.295   6.228  1.3688  1.4377  2.7909
 4668SOL     OW25636   4.565   2.320   5.526 -0.4734  0.4834  0.0110
 4668SOL    HW125637   4.525   2.324   5.613 -0.4586  0.7587  0.0075
 4668SOL    HW225638   4.651   2.282   5.544 -0.2324  0.8363 -0.4048
 4669SOL     OW25639   3.787   2.046   7.944 -0.4245 -0.1875  0.5480
 4669SOL    HW125640   3.717   1.984   7.924 -0.4152 -0.1528  0.4103
 4669SOL    HW225641   3.870   2.002   7.925 -0.9003 -0.2556 -1.3261
 4670SOL     OW25642   1.791   4.215   4.938  0.1584 -0.5726 -0.1200
 4670SOL    HW125643   1.815   4.274   4.866 -5.1490 -0.1676 -1.6020
 4670SOL    HW225644   1.861   4.151   4.931 -0.6545 -1.3741 -0.9547
 4671SOL     OW25645   0.060   4.364  16.860 -0.3488  0.4383  0.4894
 4671SOL    HW125646   0.148   4.325  16.862 -0.6408 -0.2418  0.1339
 4671SOL    HW225647   0.093   4.451  16.879 -1.1211  1.1393 -1.4126
 4672SOL     OW25648   4.338   0.314  15.701 -0.1226  0.0317 -0.2061
 4672SOL    HW125649   4.302   0.397  15.733 -2.5630 -1.3625  0.6907
 4672SOL    HW225650   4.402   0.350  15.640 -0.0770  0.2043 -0.0579
 4673SOL     OW25651   3.386   1.067  16.255  0.2642 -0.1918  0.3594
 4673SOL    HW125652   3.391   1.126  16.180 -0.6036  2.9281  2.7673
 4673SOL    HW225653   3.311   1.012  16.232  0.6230 -0.8474  0.7566
 4674SOL     OW25654   1.761   0.453   6.598  0.0016 -1.2391  0.0862
 4674SOL    HW125655   1.736   0.535   6.554  1.5777 -1.3555 -1.0431
 4674SOL    HW225656   1.845   0.464   6.642 -0.6274  3.5507  0.1664
 4675SOL     OW25657   1.576   0.790   8.784  0.4047  0.6716  0.3650
 4675SOL    HW125658   1.488   0.761   8.808 -0.5299  3.5674  0.4498
 4675SOL    HW225659   1.615   0.709   8.751  0.3631  1.5420 -1.8264
 4676SOL     OW25660   3.119   4.229  15.408  0.0291 -0.1291  0.6959
 4676SOL    HW125661   3.212   4.239  15.390  0.3286 -2.4179  1.0611
 4676SOL    HW225662   3.103   4.273  15.492  0.1990  3.4393 -1.1248
 4677SOL     OW25663   4.138   1.674   7.019  0.7080  0.4065  0.9697
 4677SOL    HW125664   4.131   1.718   7.104 -2.9125  1.7786 -0.0295
 4677SOL    HW225665   4.113   1.585   7.044  2.3938 -0.5482 -0.7745
 4678SOL     OW25666   2.147   4.673   8.720 -0.0086 -0.0457 -0.6742
 4678SOL    HW125667   2.121   0.015   8.764 -2.0315 -0.7528 -0.5212
 4678SOL    HW225668   2.117   4.615   8.791  2.6483 -1.4249 -0.6973
 4679SOL     OW25669   2.998   1.461   1.649  0.2508 -0.2815  0.1823
 4679SOL    HW125670   3.069   1.397   1.661  1.1157  0.2919 -1.9276
 4679SOL    HW225671   3.037   1.487   1.566  0.6259 -0.5451  0.2751
 4680SOL     OW25672   3.580   0.848   5.674  0.4561  0.0190  0.5404
 4680SOL    HW125673   3.534   0.782   5.622  2.9950 -0.0516 -1.5806
 4680SOL    HW225674   3.539   0.833   5.759  0.6897 -0.3188  0.5959
 4681SOL     OW25675   3.012   0.203  15.177  0.2563  0.0679  0.2813
 4681SOL    HW125676   3.065   0.253  15.115  2.7908 -0.0053  2.3810
 4681SOL    HW225677   2.923   0.225  15.151 -0.1724 -1.5033  0.3822
 4682SOL     OW25678   1.745   3.855   4.682  0.6730  0.1954 -0.2996
 4682SOL    HW125679   1.790   3.896   4.756 -0.9916 -0.6245  1.1622
 4682SOL    HW225680   1.799   3.777   4.670 -1.7185 -1.7796  1.6796
 4683SOL     OW25681   1.551   3.811   4.437  0.0655 -0.1693  0.1656
 4683SOL    HW125682   1.632   3.814   4.488  0.8118  0.9429 -1.0861
 4683SOL    HW225683   1.546   3.715   4.431 -1.3518  0.0503 -2.3775
 4684SOL     OW25684   0.989   4.479   4.686 -0.8097  0.2063  0.1445
 4684SOL    HW125685   0.979   4.485   4.781  1.7907  0.4233  0.3970
 4684SOL    HW225686   1.067   4.423   4.682 -0.3762  0.8680 -0.5022
 4685SOL     OW25687   3.439   0.524  16.291  0.4038  0.5849 -0.2761
 4685SOL    HW125688   3.355   0.567  16.306  0.9241  1.5620 -0.1999
 4685SOL    HW225689   3.418   0.490  16.204 -1.1380 -2.9885  1.4699
 4686SOL     OW25690   4.075   1.445   0.942 -0.3053 -0.6636  0.0734
 4686SOL    HW125691   3.997   1.447   0.998 -0.8759 -1.9050 -0.6919
 4686SOL    HW225692   4.124   1.381   0.993 -0.0236 -0.8933 -0.4921
 4687SOL     OW25693   1.474   0.720   1.014 -0.6057  0.5969 -0.2221
 4687SOL    HW125694   1.562   0.746   1.040 -0.3885 -1.2105  0.9053
 4687SOL    HW225695   1.487   0.668   0.935 -0.0690  1.3405 -0.6174
 4688SOL     OW25696   1.778   1.121   6.029  0.1683  0.3991 -0.0613
 4688SOL    HW125697   1.762   1.096   5.938 -0.3156 -0.7833  0.3526
 4688SOL    HW225698   1.845   1.187   6.011 -0.4265  1.3701  1.2600
 4689SOL     OW25699   1.506   2.055   2.650 -0.6577 -0.5246  0.2676
 4689SOL    HW125700   1.556   1.987   2.603 -0.1988  0.2440 -0.3559
 4689SOL    HW225701   1.552   2.134   2.623 -0.8010 -0.4575  0.2216
 4690SOL     OW25702   3.514   1.022   8.862 -0.2981 -0.1405 -0.5970
 4690SOL    HW125703   3.475   1.089   8.807 -0.4266 -0.0144 -0.3544
 4690SOL    HW225704   3.552   1.084   8.924 -4.3121 -0.0620  1.8207
 4691SOL     OW25705   1.938   1.136   8.745  0.1127  0.0673  0.4894
 4691SOL    HW125706   1.875   1.068   8.719  1.5015 -1.9906  2.5161
 4691SOL    HW225707   2.004   1.142   8.676  1.9043 -0.7671  2.1361
 4692SOL     OW25708   0.477   3.499  17.746  0.5608  0.0319  0.2105
 4692SOL    HW125709   0.559   3.502   0.041  1.0990  2.6001 -0.8606
 4692SOL    HW225710   0.502   3.482  17.655 -2.0555  0.2045 -0.5492
 4693SOL     OW25711   3.283   3.391   6.089 -0.0615  0.6564  0.3437
 4693SOL    HW125712   3.240   3.377   6.174  1.4756  2.5825  1.4271
 4693SOL    HW225713   3.324   3.472   6.121  0.8823  0.3169 -0.0114
 4694SOL     OW25714   1.831   1.397   3.316 -0.2935  0.3816  0.0795
 4694SOL    HW125715   1.832   1.419   3.223  0.5213 -2.8991 -0.6764
 4694SOL    HW225716   1.861   1.477   3.361 -0.1853  0.7738 -0.6823
 4695SOL     OW25717   1.838   1.027   5.175  0.4065 -0.3841  0.2065
 4695SOL    HW125718   1.912   0.966   5.179  2.0498  1.6419  0.4238
 4695SOL    HW225719   1.836   1.045   5.081  1.1108  1.1241  0.4857
 4696SOL     OW25720   1.205   3.250   1.347 -0.7748 -0.5009 -0.1512
 4696SOL    HW125721   1.129   3.192   1.352 -1.2324  0.1870  0.8718
 4696SOL    HW225722   1.173   3.314   1.283  1.4667  1.2744  0.4994
 4697SOL     OW25723   0.034   1.884   7.400  0.2186  0.0467  0.5951
 4697SOL    HW125724   0.007   1.792   7.402  1.1012 -0.2051  1.1049
 4697SOL    HW225725   0.002   1.915   7.316  0.8009  0.4014  0.5083
 4698SOL     OW25726   0.447   4.557  12.875 -0.0262  0.5599 -0.3185
 4698SOL    HW125727   0.355   4.561  12.849  0.0549 -1.3765 -0.8960
 4698SOL    HW225728   0.479   4.490  12.815  1.1624  0.7840  0.0631
 4699SOL     OW25729   3.848   1.538   9.243  0.4682  0.3498  0.1897
 4699SOL    HW125730   3.772   1.576   9.288 -0.8353  0.2101 -1.8964
 4699SOL    HW225731   3.906   1.614   9.236  1.8080 -0.6809 -0.0279
 4700SOL     OW25732   2.894   3.519   1.975 -0.6748  0.2593 -0.2422
 4700SOL    HW125733   2.883   3.531   1.881 -1.9251  0.7203 -0.0464
 4700SOL    HW225734   2.875   3.425   1.974 -4.6997  1.0507  1.1927
 4701SOL     OW25735   1.163   2.298   4.018  0.1568  0.5207 -0.2745
 4701SOL    HW125736   1.129   2.366   3.959 -0.6275 -0.0875 -0.5197
 4701SOL    HW225737   1.145   2.338   4.103  0.3304 -0.0862  0.0435
 4702SOL     OW25738   3.770   2.982  14.235 -0.0243 -0.5016 -0.1661
 4702SOL    HW125739   3.861   3.010  14.224 -0.2840 -0.4232 -2.1336
 4702SOL    HW225740   3.730   3.005  14.151 -0.5483 -1.4244 -0.1722
 4703SOL     OW25741   2.177   1.422   5.948  0.5661 -0.4292 -0.2236
 4703SOL    HW125742   2.189   1.502   6.000 -1.5034 -0.5958  0.5280
 4703SOL    HW225743   2.267   1.392   5.935  0.1352 -1.4741 -0.7897
 4704SOL     OW25744   1.516   2.099   4.684  0.0381  0.0922 -0.1073
 4704SOL    HW125745   1.434   2.127   4.725  0.0191 -1.3332  0.8502
 4704SOL    HW225746   1.525   2.171   4.622  0.4323 -0.6016 -0.8494
 4705SOL     OW25747   0.221   3.307   2.101 -0.0105 -0.1348 -0.2575
 4705SOL    HW125748   0.226   3.316   2.196  1.7853 -0.2712 -0.3445
 4705SOL    HW225749   0.201   3.398   2.076  0.7675 -0.0710 -0.6646
 4706SOL     OW25750   4.702   4.238   4.883 -0.4213 -0.3863  0.5731
 4706SOL    HW125751   4.733   4.168   4.940  0.1951  0.4973  1.3157
 4706SOL    HW225752   4.616   4.250   4.924 -0.8856 -1.1378 -0.1863
 4707SOL     OW25753   4.382   4.403   6.002  0.2712  0.6839 -0.1452
 4707SOL    HW125754   4.445   4.355   6.056 -0.9886  1.6072  2.1697
 4707SOL    HW225755   4.394   4.353   5.922  1.2384 -2.4669  1.9665
 4708SOL     OW25756   1.548   3.217   6.693 -0.3186 -0.1638  0.1250
 4708SOL    HW125757   1.597   3.264   6.627  0.3622 -3.1445 -1.4918
 4708SOL    HW225758   1.479   3.182   6.636 -2.0029  1.7705  0.9691
 4709SOL     OW25759   0.797   3.727   4.802 -0.1419  0.1346 -0.1687
 4709SOL    HW125760   0.866   3.683   4.851 -0.5166 -0.5542 -0.2626
 4709SOL    HW225761   0.851   3.781   4.745 -0.5160 -0.4625 -1.0935
 4710SOL     OW25762   2.507   4.035   6.326 -0.1814  0.3188  0.0089
 4710SOL    HW125763   2.446   4.017   6.255  0.4912  2.7565 -1.2019
 4710SOL    HW225764   2.515   3.948   6.365 -0.1216  0.2434 -0.1718
 4711SOL     OW25765   3.500   1.359  11.145 -0.0087  0.0418  0.0652
 4711SOL    HW125766   3.561   1.383  11.074 -0.3086  2.2247  0.5576
 4711SOL    HW225767   3.447   1.439  11.150 -1.0642 -0.7693  1.5974
 4712SOL     OW25768   4.578   4.044   6.958  0.2449 -0.5001 -0.2158
 4712SOL    HW125769   4.632   3.979   6.913  0.4844  1.4370 -2.7139
 4712SOL    HW225770   4.530   3.993   7.024 -1.6104  0.4561 -0.8474
 4713SOL     OW25771   1.393   1.563  15.220  0.1220  0.2059 -0.2585
 4713SOL    HW125772   1.465   1.552  15.282 -0.8748 -2.1430  0.4678
 4713SOL    HW225773   1.401   1.656  15.199 -0.7653  0.5557  0.9619
 4714SOL     OW25774   0.868   0.076   0.650  0.1603 -0.0870 -0.4086
 4714SOL    HW125775   0.834   0.135   0.717 -0.8153 -1.1193  0.0175
 4714SOL    HW225776   0.929   0.131   0.601 -2.4887  1.3914 -2.0502
 4715SOL     OW25777   1.409   2.786   9.622  0.1908 -0.9134  0.3139
 4715SOL    HW125778   1.434   2.726   9.552  0.4981 -2.2129  1.5303
 4715SOL    HW225779   1.396   2.729   9.698  1.7554 -0.0234  1.2453
 4716SOL     OW25780   2.400   3.513   3.550 -0.0316  0.9446 -0.0309
 4716SOL    HW125781   2.350   3.435   3.574  1.0409 -0.4130 -2.2342
 4716SOL    HW225782   2.354   3.587   3.590  1.2719  0.4179  2.4184
 4717SOL     OW25783   4.437   3.402  10.372 -0.1882  0.2891 -0.6177
 4717SOL    HW125784   4.435   3.413  10.277  1.8028 -1.6248 -0.8838
 4717SOL    HW225785   4.473   3.314  10.382  1.1659  0.7740 -1.2445
 4718SOL     OW25786   0.516   3.577   3.743 -0.1301  0.1700 -0.0198
 4718SOL    HW125787   0.471   3.534   3.816 -0.2227  0.7059  0.2382
 4718SOL    HW225788   0.507   3.513   3.673 -1.5794  1.2717 -0.8484
 4719SOL     OW25789   2.523   3.758   0.315  0.0052 -0.0363  0.1222
 4719SOL    HW125790   2.457   3.818   0.280 -0.4362  0.5208  1.9328
 4719SOL    HW225791   2.590   3.815   0.352  0.8502 -0.4259 -0.8141
 4720SOL     OW25792   1.398   0.650   6.310  0.2641 -0.1624  0.1156
 4720SOL    HW125793   1.463   0.617   6.372 -1.6487 -4.2413 -0.0680
 4720SOL    HW225794   1.425   0.741   6.297 -1.4832 -0.0266 -2.4527
 4721SOL     OW25795   1.351   4.199   2.827  0.6790 -0.6431 -0.1510
 4721SOL    HW125796   1.438   4.234   2.850 -0.2565  1.1855  0.5973
 4721SOL    HW225797   1.359   4.167   2.737  0.3884 -1.3000  0.0556
 4722SOL     OW25798   3.661   0.479   7.954 -0.3114  0.4093  0.0359
 4722SOL    HW125799   3.651   0.515   7.866  1.0450 -0.2070 -0.3731
 4722SOL    HW225800   3.746   0.522   7.964  2.1933 -4.5749  0.0258
 4723SOL     OW25801   3.905   2.050   3.999  0.5799  0.1377  0.5954
 4723SOL    HW125802   3.938   2.038   4.088  1.3867  1.2177  0.4465
 4723SOL    HW225803   3.968   2.109   3.957  0.8555 -1.0233 -0.6202
 4724SOL     OW25804   3.215   1.016   5.845 -0.1907  0.0216 -0.1722
 4724SOL    HW125805   3.301   1.059   5.843  0.2608 -0.8680  0.1513
 4724SOL    HW225806   3.192   1.041   5.935 -0.4549 -0.8799  0.0093
 4725SOL     OW25807   3.859   1.046   5.681 -0.4878 -0.1636  0.8441
 4725SOL    HW125808   3.824   1.101   5.751 -0.1178 -0.6454  1.4090
 4725SOL    HW225809   3.947   1.015   5.704 -0.1904  0.5243  0.6175
 4726SOL     OW25810   0.443   1.411   6.999 -0.9046 -0.0857 -0.6185
 4726SOL    HW125811   0.515   1.473   7.003 -0.3302 -0.8400  1.0533
 4726SOL    HW225812   0.486   1.328   7.022 -1.2742  0.1603  0.9621
 4727SOL     OW25813   3.012   1.476   4.690  0.1793 -0.9346 -0.6418
 4727SOL    HW125814   3.085   1.458   4.631  1.1170 -0.8896  0.5063
 4727SOL    HW225815   2.971   1.389   4.693 -1.8372  0.0272 -0.5014
 4728SOL     OW25816   4.487   3.523   5.418  0.4011  0.0524  0.4785
 4728SOL    HW125817   4.518   3.496   5.504 -2.0303 -1.2102  0.9691
 4728SOL    HW225818   4.462   3.437   5.383 -0.4761 -0.0436  1.3527
 4729SOL     OW25819   0.598   3.382   2.743  0.3163 -0.2907  0.2121
 4729SOL    HW125820   0.564   3.324   2.812 -2.0423  0.0320 -0.6819
 4729SOL    HW225821   0.691   3.363   2.752  0.1025 -0.6461  1.7526
 4730SOL     OW25822   2.048   1.363   7.355 -0.8047 -0.0318  0.3410
 4730SOL    HW125823   2.021   1.447   7.391 -1.9807  0.6261 -2.0383
 4730SOL    HW225824   2.039   1.308   7.433  3.2495 -1.0876  0.0582
 4731SOL     OW25825   1.782   0.186  14.027 -0.3281  0.2695  0.1777
 4731SOL    HW125826   1.739   0.211  13.945  0.1371  0.2475 -0.0685
 4731SOL    HW225827   1.753   0.095  14.024 -1.6043  0.6042  2.0185
 4732SOL     OW25828   3.649   4.016   8.295  0.8063 -0.3480 -0.6090
 4732SOL    HW125829   3.671   4.107   8.275  1.8382  0.3071  3.3257
 4732SOL    HW225830   3.572   4.024   8.351  0.3925 -0.9094 -1.0940
 4733SOL     OW25831   1.219   1.046   9.285 -0.6627  0.2527  0.0951
 4733SOL    HW125832   1.240   1.134   9.255 -2.2607  0.1500 -1.3342
 4733SOL    HW225833   1.147   1.024   9.226  1.8396 -0.6985 -2.5714
 4734SOL     OW25834   2.261   3.141   5.932 -0.7060 -0.3758  0.1482
 4734SOL    HW125835   2.198   3.186   5.876 -1.8626 -2.2993 -0.0729
 4734SOL    HW225836   2.245   3.051   5.903  1.1791 -0.1299 -1.5840
 4735SOL     OW25837   0.593   2.591   7.280  0.2371  0.3307  0.2729
 4735SOL    HW125838   0.617   2.667   7.228 -0.1827  0.5239  0.3654
 4735SOL    HW225839   0.585   2.521   7.215 -2.2123 -1.9869  3.0649
 4736SOL     OW25840   2.424   3.751   8.505  0.4509 -0.4327  0.1749
 4736SOL    HW125841   2.379   3.834   8.494 -0.0069 -0.5123  1.4646
 4736SOL    HW225842   2.512   3.763   8.469  0.1406 -1.1866 -0.8235
 4737SOL     OW25843   2.884   4.443  16.468  0.0382 -0.1944 -0.5169
 4737SOL    HW125844   2.854   4.509  16.531  1.4637 -1.1587  1.1837
 4737SOL    HW225845   2.822   4.371  16.482  0.1992 -0.1234  0.5950
 4738SOL     OW25846   4.391   0.128   6.700  0.1756 -0.0846  0.5832
 4738SOL    HW125847   4.368   0.040   6.730  1.0046 -0.4109  0.2543
 4738SOL    HW225848   4.398   0.108   6.607 -1.9404  0.5102  0.2915
 4739SOL     OW25849   0.271   1.467   2.550 -0.4237  0.1333 -0.5065
 4739SOL    HW125850   0.348   1.523   2.558 -0.6788  0.4050  0.0997
 4739SOL    HW225851   0.311   1.380   2.545  1.9470  1.1130  1.3761
 4740SOL     OW25852   2.985   1.354   8.156  0.2114  0.0523 -0.1117
 4740SOL    HW125853   2.955   1.344   8.066 -2.7120  2.0949  0.6212
 4740SOL    HW225854   2.932   1.429   8.184  0.2704 -0.0242  0.2138
 4741SOL     OW25855   1.381   1.088   9.728 -0.0056  0.0193  0.2821
 4741SOL    HW125856   1.300   1.056   9.688 -0.7507  1.3069  0.7573
 4741SOL    HW225857   1.380   1.174   9.685 -1.7049  0.5473  1.3974
 4742SOL     OW25858   4.161   0.288   5.461 -0.0160 -0.5284  0.2932
 4742SOL    HW125859   4.167   0.249   5.373 -0.2631 -1.2359  0.5947
 4742SOL    HW225860   4.246   0.262   5.496 -0.6340  0.5757  2.5920
 4743SOL     OW25861   1.664   3.669   5.718  0.6623 -0.1633  0.8684
 4743SOL    HW125862   1.742   3.703   5.674  0.5705  0.3212  1.0753
 4743SOL    HW225863   1.598   3.665   5.649  0.0054 -1.0512  1.5581
 4744SOL     OW25864   1.625   1.639   1.854 -0.7939  0.2833 -0.6073
 4744SOL    HW125865   1.616   1.643   1.949 -1.2795 -1.0281 -0.5978
 4744SOL    HW225866   1.604   1.548   1.833  0.7441 -0.1929 -0.0825
 4745SOL     OW25867   4.642   2.681   1.890 -0.1776 -0.0928  0.3439
 4745SOL    HW125868   4.653   2.701   1.797  0.2403  0.2544  0.4692
 4745SOL    HW225869   4.644   2.586   1.894 -1.2686 -0.0533  2.0797
 4746SOL     OW25870   0.958   3.483  17.021  0.3921  0.6822  0.3903
 4746SOL    HW125871   1.010   3.540  16.965 -0.0168 -0.0011 -0.6743
 4746SOL    HW225872   0.978   3.405  16.969  1.9106  1.7633 -0.6600
 4747SOL     OW25873   4.018   2.159  15.709 -0.1378  0.3884  0.2392
 4747SOL    HW125874   3.971   2.186  15.788  0.7400 -1.0216  1.2347
 4747SOL    HW225875   4.040   2.239  15.661  3.2947 -0.7631 -0.0640
 4748SOL     OW25876   4.484   3.344   2.540 -0.5111 -0.1014 -0.7259
 4748SOL    HW125877   4.464   3.354   2.447  0.5190  0.9273 -0.8396
 4748SOL    HW225878   4.580   3.349   2.543 -0.6113  0.9755  0.5566
 4749SOL     OW25879   1.210   3.552   8.545 -0.0929  0.0479  0.4358
 4749SOL    HW125880   1.191   3.481   8.608  0.3444 -1.3491 -1.0102
 4749SOL    HW225881   1.298   3.526   8.520 -0.1615  1.7405 -1.5133
 4750SOL     OW25882   2.751   4.059   1.720 -0.0884  0.3681  0.2662
 4750SOL    HW125883   2.686   4.070   1.789 -1.4808 -1.8208 -0.7017
 4750SOL    HW225884   2.728   3.968   1.700  0.1961  0.3097  0.2023
 4751SOL     OW25885   3.935   3.011   8.209  0.5601 -0.4828  0.3126
 4751SOL    HW125886   3.955   2.919   8.227  1.0543  0.2313  3.3836
 4751SOL    HW225887   3.899   3.009   8.120  0.4623  1.6697  0.3186
 4752SOL     OW25888   1.423   1.410   2.348 -0.3913 -0.0695  0.1855
 4752SOL    HW125889   1.509   1.442   2.320  0.3647  0.2926  2.8758
 4752SOL    HW225890   1.448   1.343   2.412 -0.5005  0.0776  0.3843
 4753SOL     OW25891   4.179   3.645   5.658  0.1028  0.0468  0.0325
 4753SOL    HW125892   4.261   3.684   5.688 -0.2393 -0.2176  1.2821
 4753SOL    HW225893   4.192   3.556   5.691 -1.6411 -1.0467 -2.2241
 4754SOL     OW25894   2.415   1.397   1.395 -0.0332 -0.0654  0.5514
 4754SOL    HW125895   2.439   1.432   1.309 -0.3660 -1.5807 -0.1571
 4754SOL    HW225896   2.475   1.322   1.406  0.4277 -0.0456 -1.8889
 4755SOL     OW25897   4.402   0.008   5.450 -0.2601 -0.0814  0.0546
 4755SOL    HW125898   4.402   4.704   5.365  0.4525 -0.6527  0.3518
 4755SOL    HW225899   4.475   0.070   5.444 -0.1018 -0.3536 -0.8738
 4756SOL     OW25900   2.812   1.596   4.485  0.3485 -0.0686 -0.5811
 4756SOL    HW125901   2.836   1.685   4.459 -0.3492  0.3581  0.2213
 4756SOL    HW225902   2.845   1.538   4.416  0.9657  1.0948 -1.2652
 4757SOL     OW25903   1.083   0.063  14.639  0.0037 -0.0123 -0.4923
 4757SOL    HW125904   1.030   0.031  14.566  0.4856 -1.4097 -0.2301
 4757SOL    HW225905   1.118   0.142  14.597 -2.3231  0.2311 -1.9285
 4758SOL     OW25906   4.036   3.108   4.384 -0.0922  0.5081  0.2562
 4758SOL    HW125907   4.036   3.145   4.296 -2.0604  0.2304  0.1198
 4758SOL    HW225908   3.968   3.158   4.429  2.2094  2.8262  1.1185
 4759SOL     OW25909   4.718   0.919   8.867  0.8007 -0.0225 -0.3033
 4759SOL    HW125910   4.630   0.884   8.861  0.0342  1.6930  0.7575
 4759SOL    HW225911   0.033   0.863   8.812  0.8434 -1.8076  1.5740
 4760SOL     OW25912   0.049   0.378   5.950 -1.0924  0.0830 -0.0344
 4760SOL    HW125913   0.135   0.336   5.953 -0.3719  1.3656 -2.4383
 4760SOL    HW225914   0.024   0.354   6.039 -1.2427  0.3573 -0.0020
 4761SOL     OW25915   1.886   4.076  15.764  0.0828 -0.4982  0.2708
 4761SOL    HW125916   1.964   4.024  15.782  1.3920  1.3717 -0.0353
 4761SOL    HW225917   1.905   4.109  15.676 -0.5877  1.2982  0.7918
 4762SOL     OW25918   3.157   4.002   6.760 -0.3028  0.4236 -0.2559
 4762SOL    HW125919   3.101   3.967   6.690 -1.4254 -0.5407  1.1237
 4762SOL    HW225920   3.114   4.087   6.766  0.7106  1.0436 -1.8440
 4763SOL     OW25921   3.805   2.270   3.702 -0.5504 -0.2246 -0.2614
 4763SOL    HW125922   3.840   2.332   3.766 -0.0408  0.0690 -0.8276
 4763SOL    HW225923   3.792   2.315   3.619  0.4594  0.7370  0.1048
 4764SOL     OW25924   3.220   4.446   7.857  0.1808 -0.2088  0.3692
 4764SOL    HW125925   3.286   4.492   7.805 -0.7113 -1.3308 -1.7561
 4764SOL    HW225926   3.144   4.503   7.843 -1.2975 -2.5944 -1.3627
 4765SOL     OW25927   2.643   1.691  12.311  0.4613 -0.0513 -0.0466
 4765SOL    HW125928   2.586   1.751  12.360  1.8422  0.5510  0.8168
 4765SOL    HW225929   2.578   1.623  12.293 -0.2963  1.7155 -4.0093
 4766SOL     OW25930   1.870   1.331   4.425  0.3463  0.7727  0.2695
 4766SOL    HW125931   1.844   1.239   4.431  0.3036  0.7126 -0.9026
 4766SOL    HW225932   1.805   1.369   4.365  0.7777 -0.1327 -0.7677
 4767SOL     OW25933   0.693   0.541   4.982 -0.1746  0.2655  0.6824
 4767SOL    HW125934   0.626   0.493   5.030 -1.1650  0.6038 -0.3659
 4767SOL    HW225935   0.691   0.503   4.893 -0.0118 -1.9199  1.6092
 4768SOL     OW25936   3.599   3.721  16.441  0.2389  0.3581 -0.1363
 4768SOL    HW125937   3.664   3.774  16.395  0.4281 -0.5668 -0.9141
 4768SOL    HW225938   3.659   3.671  16.496 -0.5082  1.5059  1.7383
 4769SOL     OW25939   0.180   0.687   9.579 -0.0796  0.7246  0.4650
 4769SOL    HW125940   0.235   0.759   9.548  0.5331  0.3399  0.6483
 4769SOL    HW225941   0.253   0.636   9.615 -0.3768  0.4268  0.6477
 4770SOL     OW25942   2.562   4.633   5.726 -0.0242 -0.2077  0.3417
 4770SOL    HW125943   2.628   4.639   5.657  1.5104  0.1287  1.8545
 4770SOL    HW225944   2.618   4.650   5.801 -1.4267  0.4428  1.2488
 4771SOL     OW25945   0.182   2.642   8.545 -0.0592 -0.1970  0.1034
 4771SOL    HW125946   0.202   2.562   8.497 -3.5646 -1.7799  1.3076
 4771SOL    HW225947   0.091   2.660   8.519 -0.7020 -4.8104 -0.8446
 4772SOL     OW25948   3.322   1.507   3.683 -0.0345 -0.1386 -0.0778
 4772SOL    HW125949   3.286   1.557   3.756 -1.6799 -0.5691 -0.6000
 4772SOL    HW225950   3.395   1.562   3.653 -0.2692 -0.2586 -0.8754
 4773SOL     OW25951   0.948   3.200   7.717  0.2921 -0.1398  0.2635
 4773SOL    HW125952   0.933   3.128   7.778  1.1004 -0.8425 -0.3670
 4773SOL    HW225953   0.994   3.264   7.770  0.3149  0.8160 -0.9060
 4774SOL     OW25954   0.946   1.128   4.710 -0.2315  0.4734 -0.5215
 4774SOL    HW125955   0.902   1.076   4.642  3.1932 -2.2491 -0.6709
 4774SOL    HW225956   1.001   1.061   4.752 -1.0216 -0.2936 -0.6998
 4775SOL     OW25957   1.820   3.422   5.610 -0.6491 -0.1694 -0.2022
 4775SOL    HW125958   1.732   3.385   5.618 -2.2417  3.7643  0.2594
 4775SOL    HW225959   1.844   3.413   5.518  0.9752  1.4366  0.0694
 4776SOL     OW25960   0.530   1.749   8.534  0.7368 -0.3578  0.1976
 4776SOL    HW125961   0.478   1.829   8.540  0.0217 -0.7142 -1.3900
 4776SOL    HW225962   0.468   1.690   8.576 -1.0067  1.8105  0.6773
 4777SOL     OW25963   4.449   3.515   0.797 -0.1276  0.4118 -0.4920
 4777SOL    HW125964   4.361   3.521   0.761  1.1928 -0.9364 -3.8873
 4777SOL    HW225965   4.490   3.457   0.733  0.3193  1.6300 -1.3153
 4778SOL     OW25966   1.944   2.723  13.059 -0.0315  0.0920  0.0684
 4778SOL    HW125967   1.916   2.715  12.968  0.1943 -2.4628  0.2267
 4778SOL    HW225968   2.038   2.721  13.043 -0.1218  0.6161 -0.5563
 4779SOL     OW25969   2.464   0.145   0.461 -0.0233  0.0105  0.1456
 4779SOL    HW125970   2.439   0.224   0.412  0.3920 -0.6005 -1.0299
 4779SOL    HW225971   2.507   0.101   0.388 -1.5642  3.1104 -2.6623
 4780SOL     OW25972   3.085   0.067   5.226 -0.4807 -0.2051  0.1692
 4780SOL    HW125973   2.992   0.069   5.202 -0.4705 -0.0137  0.1384
 4780SOL    HW225974   3.080   0.023   5.311  2.4870 -0.8818 -0.0174
 4781SOL     OW25975   4.527   2.938   6.846  0.1928 -0.1620  0.4501
 4781SOL    HW125976   4.436   2.928   6.818 -0.0003 -2.3527  1.8468
 4781SOL    HW225977   4.505   2.984   6.928 -0.3788  0.9913 -0.3428
 4782SOL     OW25978   0.051   2.172   6.913 -0.4002 -0.0659  0.1005
 4782SOL    HW125979   0.014   2.246   6.864 -3.4588  0.2497  2.8599
 4782SOL    HW225980   0.000   2.095   6.886 -0.5159  0.4294 -1.1119
 4783SOL     OW25981   3.998   3.497   5.125  0.7321  0.4029  0.3328
 4783SOL    HW125982   3.953   3.460   5.201  0.5394 -1.0149 -0.4785
 4783SOL    HW225983   3.958   3.442   5.058  1.1782 -0.7464  0.9975
 4784SOL     OW25984   4.711   1.019   4.093 -0.5127  0.2224 -0.2710
 4784SOL    HW125985   4.686   1.082   4.160 -1.1971 -0.7525  0.4027
 4784SOL    HW225986   4.627   0.980   4.067 -0.3074 -0.6893  0.4374
 4785SOL     OW25987   2.957   3.330   3.171 -0.5948  0.0176  0.2679
 4785SOL    HW125988   2.881   3.387   3.181 -1.5006 -0.8780 -1.6863
 4785SOL    HW225989   3.025   3.396   3.186 -0.2710 -0.3506  0.4099
 4786SOL     OW25990   1.638   4.295   0.697  1.1398 -0.5159 -0.4369
 4786SOL    HW125991   1.698   4.317   0.768  0.2571 -0.6945  0.3635
 4786SOL    HW225992   1.638   4.384   0.661  0.1952 -0.4714 -0.3158
 4787SOL     OW25993   3.161   2.334   6.120  0.2189 -0.3419  0.1077
 4787SOL    HW125994   3.139   2.380   6.201 -0.5374  0.3827 -0.5142
 4787SOL    HW225995   3.211   2.407   6.083  1.2006 -2.0707 -1.9806
 4788SOL     OW25996   2.262   2.000  14.954 -0.3741  0.5033  0.5172
 4788SOL    HW125997   2.338   2.007  14.897 -0.9285 -4.5666 -0.8711
 4788SOL    HW225998   2.279   1.929  15.017  0.2026  1.2203  1.1700
 4789SOL     OW25999   1.320   1.016   4.491 -0.0650 -0.2370  0.3463
 4789SOL    HW126000   1.349   0.925   4.494  0.6827  0.0380  2.2088
 4789SOL    HW226001   1.298   1.011   4.398  1.5042 -1.1594  0.0209
 4790SOL     OW26002   3.325   2.581   6.663  0.0162  0.3671 -0.1066
 4790SOL    HW126003   3.264   2.508   6.652 -2.1187  2.3492 -1.2757
 4790SOL    HW226004   3.283   2.620   6.740 -1.4274  0.5170 -0.9742
 4791SOL     OW26005   0.369   0.764   1.752  0.5497  0.5548 -0.2663
 4791SOL    HW126006   0.401   0.810   1.675  0.0047 -0.6822 -1.2241
 4791SOL    HW226007   0.292   0.817   1.774 -0.5381 -1.0463 -0.2139
 4792SOL     OW26008   0.767   1.957   4.354  0.3397  0.2310 -0.1943
 4792SOL    HW126009   0.761   1.946   4.259  0.2787  0.0499 -0.1703
 4792SOL    HW226010   0.690   1.908   4.383 -0.0714  1.2728  0.4788
 4793SOL     OW26011   2.627   0.114   3.619  0.2580 -0.0365  0.9696
 4793SOL    HW126012   2.694   0.147   3.558  1.8310 -1.5088  1.8702
 4793SOL    HW226013   2.592   0.044   3.563  2.8132 -0.4738 -0.1019
 4794SOL     OW26014   0.011   3.052   5.085 -0.2074 -0.0971  0.7314
 4794SOL    HW126015   0.101   3.028   5.061  0.1962 -0.8139  2.9935
 4794SOL    HW226016   4.719   2.969   5.121 -2.0990  0.1753 -0.2904
 4795SOL     OW26017   0.287   0.154   6.596 -0.1578 -0.0994  0.0825
 4795SOL    HW126018   0.219   0.120   6.655  1.5187 -0.0348  2.0414
 4795SOL    HW226019   0.228   0.194   6.533 -0.0461 -2.4314 -1.5217
 4796SOL     OW26020   3.604   1.167   5.523 -0.0631 -0.1729 -0.2470
 4796SOL    HW126021   3.638   1.247   5.561  2.4145 -1.0875 -0.4881
 4796SOL    HW226022   3.517   1.198   5.498 -1.6441 -1.1867  4.0168
 4797SOL     OW26023   2.266   1.878   7.607  0.3300 -0.1893  0.3827
 4797SOL    HW126024   2.242   1.900   7.698  1.8401  1.7905  0.3080
 4797SOL    HW226025   2.331   1.812   7.633 -0.6919 -2.1078 -2.0036
 4798SOL     OW26026   3.316   1.857   7.915 -0.3355 -0.7763  0.2684
 4798SOL    HW126027   3.338   1.841   8.007 -2.0879 -0.6721  0.6993
 4798SOL    HW226028   3.223   1.834   7.915 -1.3063  3.1503  2.8540
 4799SOL     OW26029   0.143   2.407   6.707  0.2783 -0.2839 -0.1025
 4799SOL    HW126030   0.050   2.401   6.728 -0.6732  4.0943 -3.2149
 4799SOL    HW226031   0.135   2.498   6.678 -0.4866 -0.5020 -0.5676
 4800SOL     OW26032   4.658   0.297   8.482  0.5542 -0.0592 -0.5277
 4800SOL    HW126033   4.685   0.279   8.573  1.8674 -1.4725 -1.1987
 4800SOL    HW226034   4.693   0.385   8.467  1.5042 -0.2818  0.3462
 4801SOL     OW26035   2.489   2.221   8.182  0.5685  0.4252  0.3293
 4801SOL    HW126036   2.533   2.251   8.262 -0.3758  1.0209  0.6174
 4801SOL    HW226037   2.418   2.170   8.220  0.7990 -0.4481 -0.4071
 4802SOL     OW26038   4.085   0.019   7.570 -0.6867 -0.0488 -0.3006
 4802SOL    HW126039   4.058   0.013   7.478  0.1272 -0.3802 -0.5189
 4802SOL    HW226040   4.010   4.715   7.609  0.4065 -0.3640  1.4687
 4803SOL     OW26041   1.905   0.304   8.518  0.1019  0.1445  0.1663
 4803SOL    HW126042   1.891   0.209   8.518  2.5950 -0.2287 -0.1284
 4803SOL    HW226043   1.845   0.325   8.447  1.7025 -0.1415 -1.2766
 4804SOL     OW26044   1.022   0.572   8.839 -0.1949  0.2671 -0.5198
 4804SOL    HW126045   1.058   0.592   8.925  0.1845  1.2370 -0.9119
 4804SOL    HW226046   1.010   0.478   8.851 -0.1067  0.3653  0.3159
 4805SOL     OW26047   3.412   1.768   4.869 -0.0097  0.2649 -0.8720
 4805SOL    HW126048   3.367   1.696   4.824  0.5627  0.1967 -1.3351
 4805SOL    HW226049   3.487   1.761   4.810  0.1400  0.1089 -0.6622
 4806SOL     OW26050   2.381   3.800   2.548 -0.2841 -0.7183 -0.0678
 4806SOL    HW126051   2.357   3.842   2.465  1.7425 -0.7263 -0.6567
 4806SOL    HW226052   2.292   3.789   2.583 -0.7343 -1.4281 -1.4200
 4807SOL     OW26053   2.115   2.250   7.808 -0.5296 -0.0348  0.4372
 4807SOL    HW126054   2.130   2.228   7.716  0.9902 -1.7765  1.1026
 4807SOL    HW226055   2.020   2.243   7.808 -0.4392 -1.1308  1.4926
 4808SOL     OW26056   0.018   4.104   6.673 -0.3261  0.1840 -0.3211
 4808SOL    HW126057   0.015   4.148   6.758  1.8843  0.9223 -0.6245
 4808SOL    HW226058   0.059   4.019   6.689  0.3451  0.7209  0.7801
 4809SOL     OW26059   0.690   0.403   1.826 -0.1982 -0.2895  0.5357
 4809SOL    HW126060   0.615   0.435   1.875 -0.9810  1.3217 -1.6962
 4809SOL    HW226061   0.763   0.424   1.884  1.1329 -2.1071 -0.4680
 4810SOL     OW26062   0.620   2.102   2.650  0.1246 -0.3247 -0.3123
 4810SOL    HW126063   0.564   2.130   2.723 -0.2832 -2.1773  0.0824
 4810SOL    HW226064   0.559   2.066   2.585  2.2442  0.1343 -2.5873
 4811SOL     OW26065   2.925   0.339   7.576  0.1420 -0.1405 -0.2376
 4811SOL    HW126066   2.841   0.292   7.582  0.2298 -0.1609  0.9285
 4811SOL    HW226067   2.937   0.367   7.667 -1.1027  3.3096 -1.1404
 4812SOL     OW26068   1.181   1.162  17.327 -0.1638 -0.4425 -0.3109
 4812SOL    HW126069   1.160   1.214  17.404  1.2239 -0.2199 -0.0853
 4812SOL    HW226070   1.092   1.137  17.301  0.6382 -2.1638 -1.4302
 4813SOL     OW26071   0.569   3.469   4.181 -0.2289  0.5552  0.3290
 4813SOL    HW126072   0.501   3.403   4.191  0.4236  0.2406  2.6710
 4813SOL    HW226073   0.519   3.550   4.189 -0.3728  0.7043 -2.0027
 4814SOL     OW26074   1.526   1.431   0.738 -0.1457 -0.1881 -0.5884
 4814SOL    HW126075   1.521   1.455   0.646 -0.2401  1.2887 -0.1855
 4814SOL    HW226076   1.533   1.335   0.737  0.0961 -0.1786  0.0388
 4815SOL     OW26077   1.641   3.455   7.064  0.6268 -0.4067 -0.0864
 4815SOL    HW126078   1.598   3.373   7.039 -1.5995  1.3709 -2.1388
 4815SOL    HW226079   1.579   3.502   7.007 -1.8580 -0.4572  2.5697
 4816SOL     OW26080   3.571   2.088   9.939 -0.0913 -0.1169  0.0635
 4816SOL    HW126081   3.552   2.034  10.016  0.6541  0.2034  0.4733
 4816SOL    HW226082   3.601   2.167   9.984 -0.0969  0.4266 -0.8807
 4817SOL     OW26083   3.619   3.584   4.399 -0.4610 -0.3742 -0.0579
 4817SOL    HW126084   3.660   3.587   4.486  1.3667  2.2728 -1.0206
 4817SOL    HW226085   3.606   3.490   4.385 -1.5803 -0.2511  0.1377
 4818SOL     OW26086   4.344   2.510   9.337 -0.0348 -0.1247  0.1032
 4818SOL    HW126087   4.284   2.539   9.268 -0.1893 -2.5073 -0.7552
 4818SOL    HW226088   4.333   2.570   9.410  1.1023  1.2236 -0.8208
 4819SOL     OW26089   4.151   2.109   3.185  0.0343  0.5870 -0.1418
 4819SOL    HW126090   4.205   2.073   3.255  0.9834  1.1822 -0.5618
 4819SOL    HW226091   4.085   2.144   3.244 -0.5575  2.4168 -1.9092
 4820SOL     OW26092   3.088   2.058   8.575 -0.9979  0.2883  0.4038
 4820SOL    HW126093   3.067   2.129   8.635 -0.1006 -0.0670  1.1272
 4820SOL    HW226094   3.036   2.078   8.497 -0.6372  0.3010  0.1699
 4821SOL     OW26095   0.515   0.434   5.155  0.0881 -0.0649 -0.3378
 4821SOL    HW126096   0.489   0.488   5.229 -1.8446  1.3777 -2.0629
 4821SOL    HW226097   0.444   0.370   5.153 -1.4928  1.6898  0.8736
 4822SOL     OW26098   4.089   2.045   7.164 -0.5565 -0.1430 -0.2572
 4822SOL    HW126099   4.014   1.989   7.187  1.3311 -2.6085 -0.0552
 4822SOL    HW226100   4.060   2.123   7.211  1.9857  2.2051 -2.6593
 4823SOL     OW26101   0.656   2.664   6.283 -0.3634  0.7198  0.3071
 4823SOL    HW126102   0.606   2.582   6.275  1.8761 -0.6119  0.0841
 4823SOL    HW226103   0.733   2.618   6.316 -0.0177  1.3053  0.2996
 4824SOL     OW26104   2.954   4.073   5.588 -0.1345  0.1618  0.3753
 4824SOL    HW126105   2.911   4.159   5.587 -0.0448  0.2071  0.3659
 4824SOL    HW226106   3.027   4.091   5.647 -0.7633 -0.5739  1.3809
 4825SOL     OW26107   4.499   4.080  10.225  0.1049 -0.2802 -0.9330
 4825SOL    HW126108   4.426   4.064  10.165 -0.0066  1.0388 -1.1511
 4825SOL    HW226109   4.503   4.009  10.288 -0.4363  1.3577  0.9325
 4826SOL     OW26110   3.979   4.380  15.200 -0.8784  0.0931 -0.0520
 4826SOL    HW126111   4.011   4.422  15.280  3.3473 -0.9275 -1.1787
 4826SOL    HW226112   4.029   4.298  15.195  1.7973  1.7540 -0.6031
 4827SOL     OW26113   2.952   2.004   1.334  0.4274  0.3913  0.2793
 4827SOL    HW126114   2.987   2.077   1.385  0.1208  0.6743  0.0861
 4827SOL    HW226115   2.945   1.933   1.398  2.0579 -0.7745 -0.8338
 4828SOL     OW26116   2.857   3.584  15.894  0.0699  0.1761 -0.3509
 4828SOL    HW126117   2.879   3.650  15.959 -0.6153  1.9145 -1.8801
 4828SOL    HW226118   2.850   3.641  15.817  1.0575  1.1756  0.3078
 4829SOL     OW26119   3.401   4.604  16.662  0.6874  0.6648 -0.5657
 4829SOL    HW126120   3.431   4.549  16.735  0.3257 -0.3629 -1.1856
 4829SOL    HW226121   3.314   4.628  16.692  2.1068  0.7168  3.5148
 4830SOL     OW26122   4.224   4.420  11.550  0.5211 -0.1072  0.5288
 4830SOL    HW126123   4.272   4.498  11.521 -0.9015  1.2216  1.7747
 4830SOL    HW226124   4.236   4.363  11.474 -2.4905 -1.1315  0.8391
 4831SOL     OW26125   2.622   4.735   1.707  0.0552 -0.1183 -0.1006
 4831SOL    HW126126   2.704   0.045   1.703 -0.6797  1.1841  0.7831
 4831SOL    HW226127   2.583   0.024   1.790  1.6059 -0.0133  0.5790
 4832SOL     OW26128   2.770   1.046   7.858  0.0389 -0.2266 -1.0028
 4832SOL    HW126129   2.833   1.028   7.789  1.4713  0.8672  0.0248
 4832SOL    HW226130   2.689   1.008   7.823  0.4309 -1.4918 -0.5329
 4833SOL     OW26131   4.223   1.945   4.601  0.0381  0.0657 -0.0857
 4833SOL    HW126132   4.241   2.035   4.574  1.9501 -0.8002 -1.7079
 4833SOL    HW226133   4.257   1.949   4.690 -1.3709 -1.0209  0.5110
 4834SOL     OW26134   1.380   0.763  11.418  0.4889  0.6970  0.3042
 4834SOL    HW126135   1.470   0.741  11.396  0.7203  0.4067  1.5239
 4834SOL    HW226136   1.346   0.700  11.354  1.3630 -0.2049  0.7291
 4835SOL     OW26137   2.883   1.708   8.673  0.2785 -0.1869  0.5031
 4835SOL    HW126138   2.895   1.718   8.767  0.3393  0.0437  0.4702
 4835SOL    HW226139   2.899   1.799   8.649  0.3442 -0.5347 -0.7846
 4836SOL     OW26140   3.142   3.968  17.066 -0.0180 -0.0082  0.3185
 4836SOL    HW126141   3.050   3.976  17.041  0.6721  1.1002 -1.9136
 4836SOL    HW226142   3.155   3.875  17.050  3.2486  0.9060 -2.3653
 4837SOL     OW26143   2.125   0.428   3.014 -0.2343  0.7558 -0.0333
 4837SOL    HW126144   2.204   0.409   2.963 -0.4010  0.0570 -0.0391
 4837SOL    HW226145   2.053   0.383   2.969  1.4889 -0.1489 -1.8562
 4838SOL     OW26146   2.839   0.154  12.401  0.5158  0.3014  0.0782
 4838SOL    HW126147   2.810   0.174  12.312  1.8801  3.1271  0.2990
 4838SOL    HW226148   2.893   0.075  12.394 -1.1567 -0.6399 -2.2022
 4839SOL     OW26149   1.330   1.327   9.596 -0.3291  0.3520  0.3084
 4839SOL    HW126150   1.301   1.312   9.506 -3.0960 -0.5920  1.3427
 4839SOL    HW226151   1.322   1.421   9.613  0.5666  0.1314  1.9222
 4840SOL     OW26152   2.449   0.312   5.795 -0.2182 -0.5577 -0.2598
 4840SOL    HW126153   2.381   0.379   5.786  2.1369  1.6814 -1.1543
 4840SOL    HW226154   2.481   0.342   5.880 -1.2267 -1.7932  0.5404
 4841SOL     OW26155   0.712   4.401   4.065 -0.1440  0.3739  0.1713
 4841SOL    HW126156   0.661   4.362   4.136 -0.8210  0.4582 -0.2710
 4841SOL    HW226157   0.796   4.354   4.056  0.6185  2.1713 -2.0820
 4842SOL     OW26158   1.806   0.491   5.145  0.0125  0.2686  0.1775
 4842SOL    HW126159   1.712   0.476   5.160  0.3787 -1.4381  0.7415
 4842SOL    HW226160   1.836   0.409   5.184 -1.8900 -0.3403  0.3836
 4843SOL     OW26161   2.053   4.145   8.957 -0.0748 -0.4407  0.8505
 4843SOL    HW126162   1.968   4.170   8.994  0.1418 -0.4117  1.3336
 4843SOL    HW226163   2.033   4.165   8.865  2.5891 -0.6953  0.2366
 4844SOL     OW26164   0.347   2.053   2.924 -0.0775  0.0197  0.4858
 4844SOL    HW126165   0.351   1.979   2.984  0.4270  1.1346  1.8177
 4844SOL    HW226166   0.255   2.073   2.938 -0.2727 -0.0819 -0.6111
 4845SOL     OW26167   1.705   1.786  13.164 -0.0958  0.4169 -0.8488
 4845SOL    HW126168   1.764   1.789  13.088  1.1034 -3.2738 -0.0701
 4845SOL    HW226169   1.664   1.701  13.150  0.2290  0.0644  0.3433
 4846SOL     OW26170   3.268   2.584   7.117  0.3708  0.0226  0.0396
 4846SOL    HW126171   3.198   2.530   7.153 -1.7903  1.5691 -1.8132
 4846SOL    HW226172   3.214   2.631   7.054 -1.3305  2.8144  3.5680
 4847SOL     OW26173   2.417   3.392  11.146  0.6843  0.0489 -0.4276
 4847SOL    HW126174   2.365   3.319  11.181  1.2509  0.8454  2.0291
 4847SOL    HW226175   2.411   3.455  11.218  0.7894  0.0880 -0.4530
 4848SOL     OW26176   1.837   0.522   6.878  0.0989  0.5679 -0.1902
 4848SOL    HW126177   1.859   0.592   6.940  1.2927  0.7534 -0.8169
 4848SOL    HW226178   1.898   0.535   6.805  0.8470  0.1072  0.3509
 4849SOL     OW26179   4.625   4.256  12.205  0.5457 -0.6059 -0.3171
 4849SOL    HW126180   4.549   4.247  12.146 -0.1831 -2.0396  0.8129
 4849SOL    HW226181   4.699   4.266  12.145 -0.4858 -0.1891 -1.5319
 4850SOL     OW26182   3.823   3.153  11.181  1.2624 -0.0511  0.0157
 4850SOL    HW126183   3.736   3.116  11.162  0.4126  1.8812  0.0736
 4850SOL    HW226184   3.859   3.086  11.238  0.3198 -1.7318 -1.3655
 4851SOL     OW26185   2.187   1.061   8.286 -0.6392  0.0532 -0.1397
 4851SOL    HW126186   2.206   1.063   8.380 -0.0543  3.5424 -0.3508
 4851SOL    HW226187   2.139   1.144   8.284 -0.3818  0.2090  0.2390
 4852SOL     OW26188   0.038   0.731  15.611 -0.2387  0.0608 -0.1158
 4852SOL    HW126189   0.003   0.682  15.685 -1.5018  1.4571  0.2080
 4852SOL    HW226190   4.736   0.690  15.535 -0.6831 -1.4201  0.9062
 4853SOL     OW26191   4.307   1.755   4.254 -0.0879 -0.2333 -0.1638
 4853SOL    HW126192   4.299   1.702   4.174 -1.3456  0.5846 -0.5946
 4853SOL    HW226193   4.232   1.731   4.309 -1.7212  1.5801 -1.5895
 4854SOL     OW26194   4.235   0.874  15.953  0.1232  0.1514 -0.4393
 4854SOL    HW126195   4.186   0.799  15.917 -0.1243  0.5594 -0.9489
 4854SOL    HW226196   4.235   0.849  16.045  3.2219 -0.2572 -0.5340
 4855SOL     OW26197   2.849   3.160   5.202  0.1896  0.6588 -0.0550
 4855SOL    HW126198   2.883   3.177   5.289 -1.9942 -0.2861  0.9864
 4855SOL    HW226199   2.931   3.180   5.157 -0.0559  0.8293 -0.4360
 4856SOL     OW26200   4.193   2.924  15.398 -0.0801 -0.3007  0.3672
 4856SOL    HW126201   4.166   2.974  15.320  1.4924 -1.2479 -0.7895
 4856SOL    HW226202   4.181   2.838  15.357  1.1950  0.8095 -2.3588
 4857SOL     OW26203   1.105   0.444   6.983 -0.2872 -0.0917 -0.0875
 4857SOL    HW126204   1.091   0.358   6.944 -0.0446 -0.6338  1.0410
 4857SOL    HW226205   1.012   0.461   6.997 -0.8080 -2.9594 -0.1198
 4858SOL     OW26206   0.297   1.180   5.244  0.2133  0.4295 -0.3215
 4858SOL    HW126207   0.362   1.139   5.300 -0.3093 -0.2792 -0.2319
 4858SOL    HW226208   0.312   1.115   5.175 -1.1203  0.4470 -0.6255
 4859SOL     OW26209   2.211   1.115   1.689 -0.1319  0.4917 -0.1172
 4859SOL    HW126210   2.174   1.192   1.732  0.1596  0.5539  0.0201
 4859SOL    HW226211   2.304   1.136   1.703  0.0203 -0.0045 -0.3646
 4860SOL     OW26212   3.010   3.071   6.391 -0.1249  0.0078 -0.4979
 4860SOL    HW126213   3.044   3.009   6.327  0.7681  0.6663 -0.6531
 4860SOL    HW226214   2.920   3.088   6.362 -0.8087 -1.3770  0.7760
 4861SOL     OW26215   0.511   3.647   7.519  0.0439 -0.0113  0.0229
 4861SOL    HW126216   0.558   3.729   7.507 -0.5062  0.4310  0.8925
 4861SOL    HW226217   0.565   3.605   7.586 -1.4077 -1.8053  0.0633
 4862SOL     OW26218   3.532   0.308  16.464 -0.1175  0.0174 -0.2549
 4862SOL    HW126219   3.613   0.355  16.485 -1.8922  1.8017  2.5401
 4862SOL    HW226220   3.481   0.375  16.417  2.2792 -0.2230 -3.1928
 4863SOL     OW26221   4.298   2.814   4.572  0.1604 -0.6634 -0.0219
 4863SOL    HW126222   4.372   2.761   4.601  0.2884 -0.7927 -0.5970
 4863SOL    HW226223   4.317   2.848   4.485  0.1937  0.0428  0.2663
 4864SOL     OW26224   4.095   4.315  12.046  0.0238  0.0437  0.3110
 4864SOL    HW126225   4.072   4.276  12.131  2.2942 -1.9669  0.0019
 4864SOL    HW226226   4.129   4.245  11.991 -1.8378  2.1058 -3.4752
 4865SOL     OW26227   0.282   2.793   8.214 -0.2480  0.0320  0.3043
 4865SOL    HW126228   0.212   2.827   8.269 -0.7438 -0.6359  0.0734
 4865SOL    HW226229   0.240   2.737   8.149 -2.9701  2.1512  0.2327
 4866SOL     OW26230   4.158   0.275   2.896 -0.1179 -0.6258  0.5593
 4866SOL    HW126231   4.215   0.351   2.909  1.1695 -1.8445  1.8963
 4866SOL    HW226232   4.141   0.263   2.989  0.0213  0.7012  0.7652
 4867SOL     OW26233   0.419   3.052   1.768 -0.9061  0.3058 -0.5230
 4867SOL    HW126234   0.380   3.117   1.827 -1.0675  1.1822 -1.5858
 4867SOL    HW226235   0.469   3.112   1.712 -0.6582 -0.5121 -1.1888
 4868SOL     OW26236   4.196   3.765   2.762 -0.2562  0.3530  0.2077
 4868SOL    HW126237   4.277   3.816   2.760  0.2517 -0.4404  0.5286
 4868SOL    HW226238   4.222   3.687   2.712 -1.8815 -0.1271  0.1120
 4869SOL     OW26239   1.245   2.326   6.423  0.2278  1.1051 -0.6724
 4869SOL    HW126240   1.175   2.322   6.358 -0.4329 -2.6254  0.2450
 4869SOL    HW226241   1.187   2.364   6.489 -0.1382 -1.3269  0.4084
 4870SOL     OW26242   3.133   1.188  17.157  0.1317  0.4743  0.1480
 4870SOL    HW126243   3.186   1.184  17.077  2.4719 -0.8911  1.8050
 4870SOL    HW226244   3.199   1.227  17.214  0.5898 -1.0557  0.6727
 4871SOL     OW26245   2.325   4.014  17.603  0.3044  0.2684 -0.3391
 4871SOL    HW126246   2.253   3.953  17.595 -2.1628  3.3911 -2.0015
 4871SOL    HW226247   2.369   3.989  17.684 -2.4836  0.4736  1.2251
 4872SOL     OW26248   3.595   3.008  11.148  0.3640  0.0807 -0.1437
 4872SOL    HW126249   3.569   2.916  11.144  2.2864 -0.4875  0.3966
 4872SOL    HW226250   3.505   3.040  11.159  0.0302 -0.5714 -0.9344
 4873SOL     OW26251   3.206   1.768   8.910 -0.2734  0.8012 -0.0020
 4873SOL    HW126252   3.268   1.737   8.845  0.0883  3.2012 -0.8246
 4873SOL    HW226253   3.261   1.795   8.984  1.0061 -1.3679 -0.1819
 4874SOL     OW26254   1.650   4.235   8.730 -0.1201 -0.2061  0.1178
 4874SOL    HW126255   1.738   4.210   8.758 -0.0203 -0.1460 -0.1441
 4874SOL    HW226256   1.596   4.156   8.741  1.1909 -1.2208 -0.6904
 4875SOL     OW26257   2.275   2.527   6.073  0.3659  0.3569  0.2448
 4875SOL    HW126258   2.368   2.506   6.076  0.2536 -0.3803 -1.1482
 4875SOL    HW226259   2.284   2.619   6.046  1.2809 -0.0574 -0.8780
 4876SOL     OW26260   4.308   0.259  12.342  0.3488 -0.1855 -0.4582
 4876SOL    HW126261   4.280   0.339  12.297  1.0917 -0.0792 -0.7449
 4876SOL    HW226262   4.269   0.198  12.279  0.7575 -2.0165  1.0631
 4877SOL     OW26263   4.043   4.128   4.777 -0.4525  0.8059  0.1932
 4877SOL    HW126264   3.982   4.148   4.848 -1.0797 -0.7555  0.1089
 4877SOL    HW226265   4.061   4.214   4.740  1.1523  0.9336  1.2743
 4878SOL     OW26266   0.628   4.568   5.059  0.1339 -0.0489  0.2767
 4878SOL    HW126267   0.657   4.624   5.130  1.2060 -0.1496 -0.0845
 4878SOL    HW226268   0.647   4.629   4.987  1.0560 -0.4242  0.2062
 4879SOL     OW26269   2.348   0.881  10.628  0.3357 -0.3414 -0.5131
 4879SOL    HW126270   2.280   0.879  10.696  1.1461  0.2233  0.3111
 4879SOL    HW226271   2.302   0.895  10.545  2.6214  1.5728 -1.4619
 4880SOL     OW26272   4.642   0.408  10.194  0.1006  0.4627 -0.3248
 4880SOL    HW126273   4.659   0.490  10.240 -3.0167  1.5513 -1.1105
 4880SOL    HW226274   4.557   0.430  10.155 -0.3431 -0.3076  0.2165
 4881SOL     OW26275   3.174   4.275   8.707 -0.1474  0.0429 -0.5241
 4881SOL    HW126276   3.264   4.303   8.693 -0.5392  0.8330 -1.4588
 4881SOL    HW226277   3.152   4.289   8.799 -1.8896  2.3776 -1.3016
 4882SOL     OW26278   4.068   3.980  17.641  0.1595  0.4290 -0.0632
 4882SOL    HW126279   4.100   3.900  17.599 -0.2707  0.5759 -0.6754
 4882SOL    HW226280   4.001   4.023  17.588 -2.4164 -0.4804  2.4928
 4883SOL     OW26281   1.835   1.054   4.905 -0.1299 -0.4197 -0.6588
 4883SOL    HW126282   1.890   1.106   4.845  0.3150 -0.6601 -0.4608
 4883SOL    HW226283   1.750   1.082   4.871 -0.5987 -2.4547 -1.1718
 4884SOL     OW26284   0.382   1.338   8.645  0.1899  0.0376  0.6988
 4884SOL    HW126285   0.315   1.372   8.587  0.6151  0.8144  0.6710
 4884SOL    HW226286   0.337   1.355   8.728 -0.4672  3.0850 -0.3030
 4885SOL     OW26287   3.957   4.680  14.574  0.2841  0.1270 -0.2768
 4885SOL    HW126288   3.865   4.703  14.563  0.5091  2.0904  1.7893
 4885SOL    HW226289   4.008   0.022  14.571 -1.7070  1.2791 -2.8965
 4886SOL     OW26290   4.309   0.821  12.267 -0.4292  0.5525  0.7512
 4886SOL    HW126291   4.245   0.891  12.254  0.1107  0.6644 -1.4120
 4886SOL    HW226292   4.311   0.766  12.189 -0.6708 -0.3885  1.4084
 4887SOL     OW26293   2.844   2.859  10.862  0.1915 -0.0012 -0.6126
 4887SOL    HW126294   2.926   2.908  10.857 -0.0759  0.5826  0.7147
 4887SOL    HW226295   2.785   2.930  10.837  0.6439  0.7025  0.3182
 4888SOL     OW26296   0.560   4.438  16.124  0.0002 -0.0497 -0.6163
 4888SOL    HW126297   0.588   4.350  16.147  1.5052 -0.1101 -2.7191
 4888SOL    HW226298   0.571   4.492  16.203 -0.3785 -2.9863  1.4377
 4889SOL     OW26299   1.277   2.743   6.866  0.1765  0.4370 -0.0896
 4889SOL    HW126300   1.307   2.664   6.822 -1.9059 -0.4429  0.0798
 4889SOL    HW226301   1.280   2.816   6.804 -2.9711  0.8400  0.2496
 4890SOL     OW26302   4.159   4.665   3.700  0.3104 -0.6734  0.1153
 4890SOL    HW126303   4.116   4.657   3.785 -0.9487 -2.0936 -0.6459
 4890SOL    HW226304   4.158   0.020   3.684  1.0695 -0.6093  0.4726
 4891SOL     OW26305   1.145   3.221   8.332  0.8828 -0.4074 -0.3614
 4891SOL    HW126306   1.060   3.252   8.365  0.2191 -3.0949  0.4729
 4891SOL    HW226307   1.139   3.126   8.345  0.7746 -0.2258  0.9165
 4892SOL     OW26308   4.111   2.524   2.010  0.0656  0.2676  1.1264
 4892SOL    HW126309   4.196   2.568   2.000  0.4083 -1.4184 -3.4639
 4892SOL    HW226310   4.092   2.548   2.100 -1.3705 -0.5302  1.0282
 4893SOL     OW26311   1.397   2.136   0.952 -0.2838 -0.3292 -0.0360
 4893SOL    HW126312   1.460   2.157   0.883 -0.2690 -2.5874 -0.7164
 4893SOL    HW226313   1.319   2.177   0.914  0.0113  0.5224  0.2812
 4894SOL     OW26314   1.509   3.854   5.054 -0.0251  0.1209  0.1533
 4894SOL    HW126315   1.573   3.916   5.089  0.1414 -1.0224  1.8704
 4894SOL    HW226316   1.508   3.862   4.959  1.2647  1.8910  0.2907
 4895SOL     OW26317   4.555   3.435   8.473 -0.3019 -0.2480 -0.4584
 4895SOL    HW126318   4.647   3.448   8.495  1.3419 -4.4146 -4.9029
 4895SOL    HW226319   4.569   3.417   8.380 -0.5039  0.2771 -0.5937
 4896SOL     OW26320   0.180   0.884   6.497 -0.1504 -0.0988 -0.9881
 4896SOL    HW126321   0.161   0.816   6.561 -1.5881  0.6277 -0.6355
 4896SOL    HW226322   0.191   0.838   6.413  0.9669 -1.1817 -0.2503
 4897SOL     OW26323   2.794   1.515   2.706 -0.1586 -0.0261 -0.5528
 4897SOL    HW126324   2.809   1.502   2.612  0.2656  1.4956 -0.7076
 4897SOL    HW226325   2.734   1.443   2.724 -2.3390  2.3831  1.8193
 4898SOL     OW26326   0.874   4.093  10.454 -0.0280  0.2733 -0.5483
 4898SOL    HW126327   0.924   4.047  10.388  1.0977 -2.0126  1.9091
 4898SOL    HW226328   0.912   4.180  10.466  0.0471  0.1727 -0.0537
 4899SOL     OW26329   1.851   3.492   2.135 -0.2224 -0.3615 -0.0610
 4899SOL    HW126330   1.755   3.489   2.139 -0.1042 -3.5022  0.0882
 4899SOL    HW226331   1.877   3.402   2.116  0.0015 -0.0174 -1.3371
 4900SOL     OW26332   2.152   2.624   5.335  0.2649  0.1329  0.1425
 4900SOL    HW126333   2.100   2.652   5.260  0.2794  1.3468  0.5979
 4900SOL    HW226334   2.087   2.566   5.375  0.3647 -0.5914 -0.7484
 4901SOL     OW26335   3.079   2.077   7.918 -0.8401 -0.0274 -0.4680
 4901SOL    HW126336   3.093   2.033   7.834 -0.8438  0.3130 -0.6476
 4901SOL    HW226337   3.107   2.163   7.888  0.6995 -0.0211  0.9875
 4902SOL     OW26338   3.314   2.325   3.333  0.2782  0.0813  0.8802
 4902SOL    HW126339   3.386   2.265   3.353  0.4661  0.1705  0.4746
 4902SOL    HW226340   3.318   2.381   3.411 -2.2180  1.0960  0.2556
 4903SOL     OW26341   4.209   2.622   9.122  0.3205  0.4007  0.1612
 4903SOL    HW126342   4.145   2.690   9.102  0.1232  0.8127  2.2022
 4903SOL    HW226343   4.260   2.614   9.041 -2.6266 -0.7018 -1.5911
 4904SOL     OW26344   4.174   1.772   3.376 -0.1221 -0.1592 -0.0817
 4904SOL    HW126345   4.239   1.746   3.311 -0.0908 -0.5947  0.1307
 4904SOL    HW226346   4.094   1.725   3.350 -0.2530  1.0950 -2.0123
 4905SOL     OW26347   2.982   0.852   3.352  0.3899  0.2311  0.3732
 4905SOL    HW126348   2.983   0.938   3.395  1.6817  0.6285 -0.4721
 4905SOL    HW226349   2.919   0.874   3.283 -0.5783 -0.9302  0.8739
 4906SOL     OW26350   1.703   0.331   3.159  0.0594 -0.2843 -0.1791
 4906SOL    HW126351   1.787   0.349   3.200  1.3156 -2.0328 -2.0111
 4906SOL    HW226352   1.643   0.395   3.196  1.4143  1.1495 -0.4794
 4907SOL     OW26353   1.806   0.060   4.478 -0.5210  0.1844 -0.2491
 4907SOL    HW126354   1.795   0.153   4.501 -0.9777 -0.0724  0.5574
 4907SOL    HW226355   1.860   0.075   4.400 -1.5020  0.4137 -0.8875
 4908SOL     OW26356   1.789   2.610   6.529  0.0005  0.2945  0.0191
 4908SOL    HW126357   1.733   2.533   6.535  1.6741 -0.8236  1.0708
 4908SOL    HW226358   1.721   2.677   6.539 -2.0878 -1.4815 -2.2624
 4909SOL     OW26359   1.369   2.503   5.082 -0.3074  0.3250  1.2050
 4909SOL    HW126360   1.399   2.523   5.170  0.2194 -2.1190  1.5757
 4909SOL    HW226361   1.347   2.587   5.043 -0.0160 -0.0686  0.1698
 4910SOL     OW26362   0.988   0.931   3.313  0.8835 -0.4077  0.1421
 4910SOL    HW126363   1.016   0.902   3.400  0.2007 -1.0575  0.1444
 4910SOL    HW226364   0.894   0.914   3.313  1.0714 -1.3419 -2.8069
 4911SOL     OW26365   2.077   0.308   1.190  0.1603  0.4869 -0.5398
 4911SOL    HW126366   2.172   0.300   1.184 -0.1547 -0.5592 -3.7787
 4911SOL    HW226367   2.077   0.369   1.264  2.4595  0.8362 -0.8318
 4912SOL     OW26368   3.010   2.226   1.474 -0.1806 -0.1469 -0.5467
 4912SOL    HW126369   2.927   2.271   1.489 -1.1954 -2.2658  0.1795
 4912SOL    HW226370   3.056   2.291   1.420 -0.6357  0.9769  0.4305
 4913SOL     OW26371   3.671   3.973   1.286  0.2663  0.4270 -0.3291
 4913SOL    HW126372   3.709   4.031   1.219 -0.0584 -0.7083 -1.4907
 4913SOL    HW226373   3.709   4.004   1.368 -1.2360 -0.8091  0.8162
 4914SOL     OW26374   2.082   2.817  14.569  0.0771  0.0562  0.4416
 4914SOL    HW126375   2.167   2.795  14.530 -0.0379 -0.5674  0.5433
 4914SOL    HW226376   2.046   2.730  14.588  1.4219 -0.4385  0.6852
 4915SOL     OW26377   4.531   0.876   3.718 -0.3588  0.2061 -0.5441
 4915SOL    HW126378   4.487   0.840   3.795  0.2541 -0.1718 -0.3686
 4915SOL    HW226379   4.461   0.876   3.653 -1.0884 -1.6695  0.2368
 4916SOL     OW26380   1.410   2.180   7.400 -0.0724  0.0152  0.0439
 4916SOL    HW126381   1.458   2.106   7.438 -0.0124  0.2791  0.4724
 4916SOL    HW226382   1.391   2.159   7.308  2.1815  1.7708 -0.8150
 4917SOL     OW26383   1.379   4.443   1.748 -0.0762 -0.4012 -0.0843
 4917SOL    HW126384   1.327   4.452   1.668  1.1805  1.7742 -0.6640
 4917SOL    HW226385   1.405   4.534   1.763 -0.8069 -0.4297  1.3677
 4918SOL     OW26386   3.826   2.502  15.729 -0.0907  0.3142  0.0620
 4918SOL    HW126387   3.853   2.429  15.785  0.7384  1.7788  1.5645
 4918SOL    HW226388   3.881   2.489  15.652 -2.8959 -1.1969 -1.7043
 4919SOL     OW26389   1.912   1.848  12.100  0.2184 -0.1240  0.2347
 4919SOL    HW126390   1.923   1.933  12.057  1.9469  0.0502  1.0184
 4919SOL    HW226391   1.976   1.791  12.059  1.6608  0.4645  1.6738
 4920SOL     OW26392   1.468   0.042  16.095  0.1500 -0.0088  0.4558
 4920SOL    HW126393   1.555   0.037  16.133  0.0964  2.9026  0.9688
 4920SOL    HW226394   1.449   0.135  16.107  2.6526  0.7166 -1.1589
 4921SOL     OW26395   2.806   2.965   1.728  0.1226  0.4220  0.2382
 4921SOL    HW126396   2.860   2.890   1.701 -0.0126  0.1468  0.7391
 4921SOL    HW226397   2.729   2.942   1.677  0.3932 -1.9549  0.9202
 4922SOL     OW26398   4.552   1.072  16.062  0.5667 -0.3815  0.2465
 4922SOL    HW126399   4.478   1.114  16.105 -2.0065 -3.6815 -0.9906
 4922SOL    HW226400   4.614   1.054  16.134 -0.0688 -2.3248  0.3136
 4923SOL     OW26401   1.296   4.035   2.351 -0.1883  0.0754  0.5617
 4923SOL    HW126402   1.266   3.998   2.268 -1.7278 -1.1960  1.6932
 4923SOL    HW226403   1.391   4.025   2.336 -0.4178 -0.6076 -0.4367
 4924SOL     OW26404   1.056   1.505   7.927  0.6151 -0.5198 -0.0628
 4924SOL    HW126405   0.979   1.490   7.981 -0.4782 -1.4841 -1.8985
 4924SOL    HW226406   1.080   1.423   7.884 -0.0620 -1.2473  0.9630
 4925SOL     OW26407   3.348   2.849   3.661 -0.0740 -0.5209  0.3757
 4925SOL    HW126408   3.295   2.777   3.696 -0.4257 -0.9571 -1.0821
 4925SOL    HW226409   3.432   2.810   3.636  0.2949 -1.1587  2.5591
 4926SOL     OW26410   1.152   4.190   9.479 -0.2891  0.3729  0.2512
 4926SOL    HW126411   1.164   4.249   9.552  0.6478 -0.8508  1.0927
 4926SOL    HW226412   1.155   4.254   9.408  0.6082  0.2480  0.1728
 4927SOL     OW26413   2.144   3.507   9.370  0.3168  0.2123 -0.2840
 4927SOL    HW126414   2.156   3.577   9.306  0.5815 -0.8200 -1.3451
 4927SOL    HW226415   2.211   3.442   9.349 -0.1967  0.3760 -2.4384
 4928SOL     OW26416   1.620   3.993  15.701 -0.0412 -0.4334  0.0797
 4928SOL    HW126417   1.707   4.003  15.738 -0.6502  0.7409  1.2089
 4928SOL    HW226418   1.594   4.086  15.704  1.6105 -0.0135  1.0533
 4929SOL     OW26419   3.147   2.645   3.377  0.3980 -0.4427  0.5084
 4929SOL    HW126420   3.092   2.664   3.301 -0.3852  4.3837  2.2685
 4929SOL    HW226421   3.224   2.698   3.357  0.7459 -0.5505  1.5760
 4930SOL     OW26422   1.675   2.570   0.711 -0.4524 -0.1184  0.0702
 4930SOL    HW126423   1.670   2.552   0.805 -0.6533  2.4940  0.5536
 4930SOL    HW226424   1.770   2.573   0.699 -0.5587 -0.4514 -0.9099
 4931SOL     OW26425   0.424   1.534   1.183 -0.5132  0.6717 -0.2696
 4931SOL    HW126426   0.423   1.608   1.243 -0.1290 -0.7471  1.4844
 4931SOL    HW226427   0.356   1.471   1.207  0.8093 -0.7638 -0.3289
 4932SOL     OW26428   0.360   3.837   1.588  0.1264  0.0382  0.0742
 4932SOL    HW126429   0.397   3.749   1.586  1.5289  0.6307 -0.5054
 4932SOL    HW226430   0.267   3.819   1.602  0.3899 -1.0463  0.3865
 4933SOL     OW26431   3.128   1.031   6.561 -0.1718 -0.3416  0.0417
 4933SOL    HW126432   3.190   1.003   6.629  0.7404  1.6554  0.0481
 4933SOL    HW226433   3.127   0.954   6.504  2.5004 -0.7036  0.5103
 4934SOL     OW26434   4.715   2.238   4.336  0.2178  0.1527 -0.7806
 4934SOL    HW126435   4.716   2.329   4.308  1.1650  1.5460  3.7574
 4934SOL    HW226436   4.690   2.241   4.428 -0.6846 -0.8282 -0.9961
 4935SOL     OW26437   3.251   1.534  11.231 -0.6430  0.1878  0.0167
 4935SOL    HW126438   3.322   1.597  11.219 -0.9244  0.3399 -0.8414
 4935SOL    HW226439   3.260   1.525  11.326 -0.1923  0.5774  0.0120
 4936SOL     OW26440   3.603   3.669   0.153 -0.2160 -0.1607  0.1820
 4936SOL    HW126441   3.564   3.707   0.075 -1.0055  1.5891  1.4155
 4936SOL    HW226442   3.643   3.600   0.100 -0.4346  0.1981 -0.4485
 4937SOL     OW26443   0.528   1.124   7.019  0.0439  0.3802  0.6112
 4937SOL    HW126444   0.594   1.098   6.955 -0.8268 -0.8532  0.2024
 4937SOL    HW226445   0.574   1.095   7.098 -0.2106  0.7035  0.8796
 4938SOL     OW26446   4.346   0.467   1.753 -0.1643 -0.5943 -0.0079
 4938SOL    HW126447   4.422   0.473   1.812  0.5254  1.8988 -1.1490
 4938SOL    HW226448   4.378   0.519   1.679 -3.9176 -0.0623 -1.2350
 4939SOL     OW26449   3.518   4.160   1.487  0.1128 -0.6985  0.4314
 4939SOL    HW126450   3.593   4.132   1.540  1.1047 -1.9745 -1.6730
 4939SOL    HW226451   3.563   4.224   1.432  1.2901 -0.3503  1.7898
 4940SOL     OW26452   3.209   2.704  15.703 -0.4164 -0.1865  0.4171
 4940SOL    HW126453   3.128   2.752  15.720  1.4173  2.9891  0.3393
 4940SOL    HW226454   3.271   2.740  15.766  0.0878 -1.7130  0.7744
 4941SOL     OW26455   2.596   1.330   8.402 -0.1625 -0.6280 -0.1034
 4941SOL    HW126456   2.605   1.425   8.403  1.7066 -0.8057 -0.0832
 4941SOL    HW226457   2.507   1.319   8.369  0.4805  0.0423 -2.0393
 4942SOL     OW26458   4.082   0.370  17.306  0.1007 -0.0696  0.3767
 4942SOL    HW126459   4.119   0.324  17.381  0.3498  2.0635  1.5659
 4942SOL    HW226460   4.021   0.426  17.355  0.7475  0.3234  0.7196
 4943SOL     OW26461   0.655   2.592   8.129  0.7989  0.4126 -0.1486
 4943SOL    HW126462   0.661   2.576   8.034  1.2097  1.2919 -0.2643
 4943SOL    HW226463   0.747   2.576   8.146  0.6667  0.8832  0.9775
 4944SOL     OW26464   0.633   2.468   2.722  0.2392 -0.6482 -0.4086
 4944SOL    HW126465   0.561   2.441   2.779 -0.6181  1.1755 -0.6311
 4944SOL    HW226466   0.637   2.560   2.747  1.7463 -0.4127 -1.5033
 4945SOL     OW26467   0.626   3.588   7.260 -0.1467  0.3353 -0.6936
 4945SOL    HW126468   0.695   3.524   7.278 -1.4493 -1.4302 -1.9405
 4945SOL    HW226469   0.580   3.597   7.344  0.3037 -1.5042 -0.2372
 4946SOL     OW26470   0.034   1.255   4.520 -0.6787  0.2216  0.7002
 4946SOL    HW126471   4.737   1.247   4.609 -0.6578 -1.5229  0.5526
 4946SOL    HW226472   0.031   1.165   4.488 -0.4033  0.1285  0.9311
 4947SOL     OW26473   2.667   1.621   3.076 -1.3603 -0.3797 -0.1779
 4947SOL    HW126474   2.740   1.681   3.058 -0.1964 -1.6835  0.2009
 4947SOL    HW226475   2.679   1.619   3.171 -1.8793  0.3024 -0.0977
 4948SOL     OW26476   1.073   1.867   5.075 -0.0931  0.2322 -0.2398
 4948SOL    HW126477   1.132   1.942   5.080  0.4091 -0.1106 -1.1254
 4948SOL    HW226478   1.097   1.838   4.987  2.6312  1.5003  0.0940
 4949SOL     OW26479   0.666   1.764   6.091  0.1617 -0.1373 -0.2112
 4949SOL    HW126480   0.607   1.838   6.071  0.4951  0.7236  1.9532
 4949SOL    HW226481   0.687   1.731   6.004 -2.1389 -0.0811 -0.8065
 4950SOL     OW26482   1.665   1.532   4.817  0.6828 -0.2361  0.3784
 4950SOL    HW126483   1.687   1.604   4.877  0.9473 -0.3170  0.3775
 4950SOL    HW226484   1.735   1.530   4.752  1.2556 -1.7577  1.0405
 4951SOL     OW26485   2.583   3.318  10.471 -0.6502  0.1422  0.3907
 4951SOL    HW126486   2.537   3.315  10.386  1.2921  1.9797 -0.7267
 4951SOL    HW226487   2.663   3.367  10.451 -1.0133 -0.0569 -1.5816
 4952SOL     OW26488   3.500   4.638   7.537 -0.3907  0.3220 -0.0503
 4952SOL    HW126489   3.548   4.577   7.481  0.3041  1.3189 -0.5436
 4952SOL    HW226490   3.409   4.611   7.526 -0.1672 -0.5363  0.2151
 4953SOL     OW26491   4.367   0.103   6.432  0.3738 -0.1933 -0.8574
 4953SOL    HW126492   4.274   0.100   6.455  0.8274 -1.8414  0.7802
 4953SOL    HW226493   4.380   0.036   6.365  1.3966 -0.5838 -0.2637
 4954SOL     OW26494   3.971   4.360  14.525  0.0768  0.0821 -0.0189
 4954SOL    HW126495   3.914   4.433  14.501  0.2222  0.7466  1.5855
 4954SOL    HW226496   4.041   4.403  14.575  1.1915 -3.2271  1.2418
 4955SOL     OW26497   0.990   0.798   7.666 -0.1499 -0.4545  0.1173
 4955SOL    HW126498   1.062   0.745   7.700  0.1982  0.0175  0.1111
 4955SOL    HW226499   1.033   0.844   7.594  0.3491  1.4115  1.6370
 4956SOL     OW26500   3.441   1.147  15.276  0.1524 -0.3085 -0.2154
 4956SOL    HW126501   3.466   1.118  15.189 -0.0475  0.5564 -0.5598
 4956SOL    HW226502   3.397   1.231  15.274 -1.5402 -1.1461  1.2432
 4957SOL     OW26503   3.852   3.852  17.047 -0.1830 -0.1542 -0.0163
 4957SOL    HW126504   3.860   3.948  17.045 -1.1030 -0.1107 -1.5339
 4957SOL    HW226505   3.779   3.850  17.110 -1.2316  0.4689 -1.2034
 4958SOL     OW26506   1.078   4.600   3.965  0.2149 -0.2424 -0.0883
 4958SOL    HW126507   1.088   4.592   3.870 -0.0071  0.3883 -0.1643
 4958SOL    HW226508   1.163   4.637   3.989  0.3904 -0.6153 -0.1312
 4959SOL     OW26509   1.593   1.634   4.407  0.5740 -0.0454  0.1560
 4959SOL    HW126510   1.545   1.628   4.489  0.1152 -0.6654 -0.1623
 4959SOL    HW226511   1.658   1.704   4.410 -0.3702  0.8299  0.1627
 4960SOL     OW26512   3.209   2.282   7.446 -0.4451 -0.7049  0.3188
 4960SOL    HW126513   3.145   2.290   7.517 -1.1578  1.1804 -0.5246
 4960SOL    HW226514   3.284   2.328   7.484 -0.9961  0.4548  0.0139
 4961SOL     OW26515   0.510   4.154   9.396  0.2669  0.1199  0.1313
 4961SOL    HW126516   0.472   4.075   9.434 -0.3629 -0.5129 -1.8139
 4961SOL    HW226517   0.590   4.122   9.355  0.6102  0.3567  0.6167
 4962SOL     OW26518   2.680   3.362   3.268  0.3309  0.3082  0.0126
 4962SOL    HW126519   2.585   3.348   3.267  0.7337 -2.2936 -2.4615
 4962SOL    HW226520   2.695   3.456   3.259 -1.6696  0.5435 -1.0577
 4963SOL     OW26521   2.732   3.489   6.869  0.2042  0.1541 -0.7083
 4963SOL    HW126522   2.741   3.514   6.777  1.8465  0.6547 -0.4250
 4963SOL    HW226523   2.639   3.498   6.885  0.2049 -1.8987  0.4203
 4964SOL     OW26524   1.475   2.357   2.170  0.5389 -0.0793 -0.4957
 4964SOL    HW126525   1.521   2.384   2.090  4.2979  0.4263  1.8671
 4964SOL    HW226526   1.498   2.264   2.165 -1.1888 -0.4392 -1.9076
 4965SOL     OW26527   2.045   0.842   5.185 -0.6643  0.3104 -0.4096
 4965SOL    HW126528   2.091   0.922   5.208 -0.9144 -0.1728  1.7447
 4965SOL    HW226529   2.121   0.791   5.158 -1.1103 -0.8994  0.6184
 4966SOL     OW26530   2.670   2.389  16.288  0.1476 -0.5761 -0.4785
 4966SOL    HW126531   2.621   2.472  16.281 -1.6160 -1.5380  0.3314
 4966SOL    HW226532   2.761   2.411  16.268  0.3348  0.6620  1.7971
 4967SOL     OW26533   4.415   0.611   2.424  0.5025 -0.2051  0.0496
 4967SOL    HW126534   4.483   0.551   2.456 -0.6009 -1.1860  0.5526
 4967SOL    HW226535   4.347   0.556   2.384  1.1701 -2.5536  2.1483
 4968SOL     OW26536   2.363   1.733  17.552  0.4031 -0.0259  0.2607
 4968SOL    HW126537   2.329   1.793  17.618  2.1557  0.9424  0.2702
 4968SOL    HW226538   2.457   1.751  17.544  0.0402  2.2242  1.1101
 4969SOL     OW26539   2.840   4.541   0.380  0.3201  0.1125  0.0192
 4969SOL    HW126540   2.886   4.611   0.334  0.4728  0.1905  0.2905
 4969SOL    HW226541   2.809   4.587   0.458 -1.0294  0.8621 -0.9586
 4970SOL     OW26542   4.231   2.044   2.468  0.2953 -0.4453  0.2275
 4970SOL    HW126543   4.248   1.958   2.430 -1.0430 -1.9607  3.0510
 4970SOL    HW226544   4.199   2.020   2.555  0.5616 -0.5049  0.3114
 4971SOL     OW26545   1.870   1.414   6.012  0.2825  0.1894 -0.1366
 4971SOL    HW126546   1.905   1.452   6.092 -0.4279 -0.2436  0.3742
 4971SOL    HW226547   1.922   1.470   5.955 -0.5410  1.2725  0.1867
 4972SOL     OW26548   2.930   3.168   5.462 -0.0459  0.6686  0.2847
 4972SOL    HW126549   2.910   3.259   5.484 -1.6697  1.0212 -2.6285
 4972SOL    HW226550   2.981   3.139   5.537 -2.4208 -2.0722  0.8344
 4973SOL     OW26551   4.378   3.788  16.996  0.2240  0.3043  0.2216
 4973SOL    HW126552   4.303   3.797  17.055 -1.7791 -2.8427 -1.8879
 4973SOL    HW226553   4.351   3.836  16.918 -1.7161 -1.3685 -0.1462
 4974SOL     OW26554   1.540   3.131   1.536  0.1637  0.0221 -0.4437
 4974SOL    HW126555   1.598   3.113   1.462  0.5564  0.5027 -0.2569
 4974SOL    HW226556   1.456   3.108   1.496 -0.5580 -0.2532  1.2274
 4975SOL     OW26557   0.356   2.881   6.303  0.0951  0.0819  0.1300
 4975SOL    HW126558   0.382   2.802   6.352 -1.7126  1.1412  2.7641
 4975SOL    HW226559   0.273   2.858   6.262 -0.0814 -0.5816  0.8470
 4976SOL     OW26560   4.575   1.109   2.359  0.1551 -0.1435 -0.3316
 4976SOL    HW126561   4.522   1.053   2.417  1.3258 -0.1836  0.6908
 4976SOL    HW226562   4.513   1.123   2.288  0.5395  1.4086 -0.3445
 4977SOL     OW26563   0.503   3.307  10.179 -0.0480  0.3177  0.4755
 4977SOL    HW126564   0.561   3.329  10.106 -0.7605 -0.1011 -0.2139
 4977SOL    HW226565   0.414   3.319  10.146  0.2082 -0.2145 -0.4034
 4978SOL     OW26566   0.592   2.722  14.179 -0.3921  0.0233  0.3609
 4978SOL    HW126567   0.610   2.767  14.261 -0.1556  0.2095  0.2058
 4978SOL    HW226568   0.530   2.782  14.137  1.0214  0.2751 -1.3815
 4979SOL     OW26569   4.557   0.343   0.111  0.1813 -0.6144 -0.4134
 4979SOL    HW126570   4.590   0.422   0.155 -1.7467 -0.1183  0.1591
 4979SOL    HW226571   4.464   0.365   0.101 -0.2211 -1.6207  1.0145
 4980SOL     OW26572   1.224   1.757   6.286 -0.3787  0.5580  0.1870
 4980SOL    HW126573   1.139   1.799   6.285 -0.8698 -0.4345  0.9317
 4980SOL    HW226574   1.206   1.700   6.211 -0.1755  1.2717 -0.4107
 4981SOL     OW26575   1.071   2.709   6.321  0.0771 -0.2052  0.3930
 4981SOL    HW126576   1.053   2.729   6.413  0.2941  0.9003  0.1854
 4981SOL    HW226577   0.983   2.673   6.308 -0.0451  0.9771 -2.0220
 4982SOL     OW26578   2.059   4.291  16.054 -0.1943 -0.2285 -0.1890
 4982SOL    HW126579   1.992   4.322  16.115 -0.3871 -0.1490 -0.4403
 4982SOL    HW226580   2.043   4.340  15.974  1.1517  0.3015 -0.1299
 4983SOL     OW26581   3.432   2.273  10.135 -0.1598 -0.2974  0.2268
 4983SOL    HW126582   3.384   2.192  10.115  2.0040 -1.8004  1.1438
 4983SOL    HW226583   3.366   2.317  10.189 -0.8889  0.1202 -1.0007
 4984SOL     OW26584   1.562   1.502   7.037 -0.6633 -0.4546  0.0522
 4984SOL    HW126585   1.610   1.516   7.118  0.5090  2.1676 -1.1137
 4984SOL    HW226586   1.493   1.568   7.041 -0.4593 -0.1748 -1.0798
 4985SOL     OW26587   3.686   3.208  17.564  0.0282 -0.3178  0.0293
 4985SOL    HW126588   3.679   3.239  17.473  0.8214  0.5789  0.2723
 4985SOL    HW226589   3.666   3.115  17.564  1.2314 -0.6008 -2.3735
 4986SOL     OW26590   4.078   1.377   1.831  0.2299 -0.2969 -0.0134
 4986SOL    HW126591   4.030   1.302   1.865  1.1675 -1.8592 -2.1475
 4986SOL    HW226592   4.028   1.448   1.872 -1.1163 -1.3527  0.1719
 4987SOL     OW26593   4.010   0.224  11.862  0.4916 -0.4135 -0.1479
 4987SOL    HW126594   3.952   0.232  11.786  0.1985 -1.0417  0.0102
 4987SOL    HW226595   3.996   0.134  11.891 -0.9141  0.0323  0.5701
 4988SOL     OW26596   0.674   0.814   5.973 -0.0355 -0.0231  0.6806
 4988SOL    HW126597   0.744   0.785   6.032  0.3808  2.2939  1.3113
 4988SOL    HW226598   0.613   0.745   6.000 -1.5950  1.0194 -0.1569
 4989SOL     OW26599   4.278   1.457   8.901 -0.5294  0.6266 -0.1537
 4989SOL    HW126600   4.326   1.528   8.943  2.2230 -1.3957  0.1217
 4989SOL    HW226601   4.194   1.461   8.946 -0.7860  1.2585 -0.6869
 4990SOL     OW26602   0.835   3.776   1.475  0.2827 -0.2028 -0.2413
 4990SOL    HW126603   0.895   3.703   1.490 -0.3973 -1.0511 -1.6509
 4990SOL    HW226604   0.821   3.798   1.567  2.6740  1.5257 -0.2700
 4991SOL     OW26605   4.096   0.275   4.967  0.2133 -0.5483  0.4548
 4991SOL    HW126606   4.023   0.222   4.935 -1.2111  0.2833  2.3203
 4991SOL    HW226607   4.057   0.359   4.989 -0.7115 -1.0314  0.6342
 4992SOL     OW26608   4.367   0.541   4.373  0.0471 -0.4864  0.0625
 4992SOL    HW126609   4.434   0.528   4.306  0.8022  1.8033  0.3937
 4992SOL    HW226610   4.300   0.577   4.316 -0.1555  2.2254  2.0130
 4993SOL     OW26611   3.680   3.410  12.917 -0.2231 -0.2478  0.3927
 4993SOL    HW126612   3.589   3.415  12.946 -0.3372 -3.4018  0.5857
 4993SOL    HW226613   3.694   3.504  12.906 -1.1159 -0.1297  0.3022
 4994SOL     OW26614   0.600   3.913   9.007 -0.3571  0.2628  0.7503
 4994SOL    HW126615   0.664   3.890   9.074 -0.2145  0.2981  0.6292
 4994SOL    HW226616   0.576   3.825   8.979  2.2556 -0.5193  0.9133
 4995SOL     OW26617   1.640   0.016   8.827  0.2812  0.1627  0.3117
 4995SOL    HW126618   1.579   0.065   8.881  2.7587  2.5312  0.9615
 4995SOL    HW226619   1.694   4.704   8.887 -0.3323  0.3700  1.0324
 4996SOL     OW26620   4.046   3.106   3.551  0.0265 -0.2864 -0.5862
 4996SOL    HW126621   4.038   3.170   3.480 -0.6379 -0.2947 -0.5206
 4996SOL    HW226622   3.957   3.093   3.584 -0.3949 -0.7838 -1.8885
 4997SOL     OW26623   4.394   4.074   6.446  0.1871 -0.2905  0.1476
 4997SOL    HW126624   4.490   4.076   6.448  0.1738  1.3898 -0.8252
 4997SOL    HW226625   4.372   4.139   6.512  1.1760 -0.5243  0.6974
 4998SOL     OW26626   2.571   3.271   4.636  0.0490  0.1923  0.4000
 4998SOL    HW126627   2.569   3.222   4.718 -0.6839 -1.5083 -0.6150
 4998SOL    HW226628   2.629   3.221   4.578  0.4335 -0.2101  1.1318
 4999SOL     OW26629   0.691   1.576   7.061 -0.0373  0.4202 -0.0999
 4999SOL    HW126630   0.643   1.622   6.992 -0.1560  0.4808  0.0228
 4999SOL    HW226631   0.776   1.621   7.058 -0.1652  0.6263 -0.7696
 5000SOL     OW26632   0.989   3.924   9.465 -0.3269  0.3007  0.1576
 5000SOL    HW126633   0.999   3.942   9.559  2.2130  3.0264 -0.6279
 5000SOL    HW226634   1.030   3.998   9.420 -0.8821  0.7698  0.4234
 5001SOL     OW26635   4.263   4.300   7.249  0.0558 -0.1639  0.1164
 5001SOL    HW126636   4.256   4.217   7.202 -2.6196  0.6443 -0.9665
 5001SOL    HW226637   4.227   4.275   7.334 -0.2797 -1.8086 -0.5128
 5002SOL     OW26638   2.637   4.301   5.477 -0.0829  0.0573 -0.7549
 5002SOL    HW126639   2.562   4.360   5.483 -0.7616 -0.6966 -1.8400
 5002SOL    HW226640   2.605   4.225   5.430 -0.5851  0.2419 -0.7063
 5003SOL     OW26641   4.234   2.926   3.358  0.2820  0.2770  0.2953
 5003SOL    HW126642   4.165   2.978   3.399 -0.8483  0.0967 -1.4176
 5003SOL    HW226643   4.257   2.974   3.279  0.5463  0.3450  0.4116
 5004SOL     OW26644   2.548   0.966   7.327  0.2978  0.1214 -0.3644
 5004SOL    HW126645   2.616   1.026   7.359 -0.9133  1.5281 -0.4836
 5004SOL    HW226646   2.554   0.907   7.403  1.5849  0.7370  0.0293
 5005SOL     OW26647   1.348   0.211   2.948  0.0375  0.5905  0.3539
 5005SOL    HW126648   1.293   0.208   2.869  1.4120 -1.5605 -0.5125
 5005SOL    HW226649   1.311   0.275   3.009  0.5632  1.3242 -0.1065
 5006SOL     OW26650   1.165   2.934   5.475 -0.1715  0.4309  0.1253
 5006SOL    HW126651   1.079   2.964   5.446  1.1228  0.8119 -3.3279
 5006SOL    HW226652   1.199   3.020   5.499  2.2867 -1.2271  2.6300
 5007SOL     OW26653   3.446   0.968  16.508 -0.5713 -0.1069  0.2873
 5007SOL    HW126654   3.431   1.014  16.425  0.4800 -0.8680 -0.3259
 5007SOL    HW226655   3.513   0.908  16.476 -2.8953 -1.3283 -2.3339
 5008SOL     OW26656   4.708   0.094   2.037  0.3290 -0.9409  0.4137
 5008SOL    HW126657   4.684   0.128   2.123 -1.0035 -0.6543 -0.0846
 5008SOL    HW226658   0.042   0.146   2.004 -2.3612  2.6937  0.2465
 5009SOL     OW26659   0.983   3.803   5.261 -0.2478 -0.0410 -0.3736
 5009SOL    HW126660   1.003   3.755   5.181 -2.4415  0.5287 -1.2693
 5009SOL    HW226661   1.072   3.838   5.270 -1.3907  2.4160  1.1750
 5010SOL     OW26662   3.349   0.800   7.008 -0.6408 -0.0645  0.1505
 5010SOL    HW126663   3.265   0.766   6.980 -0.8798  1.5100 -1.0155
 5010SOL    HW226664   3.314   0.865   7.069  1.6530  0.7908  0.5674
 5011SOL     OW26665   0.731   0.838   0.756  0.2840 -0.0842 -0.0234
 5011SOL    HW126666   0.659   0.880   0.802 -0.3844 -0.1131 -1.0536
 5011SOL    HW226667   0.750   0.759   0.808  3.6433 -0.5796 -1.9641
 5012SOL     OW26668   3.567   2.129   6.833  0.5991  0.2430 -0.3243
 5012SOL    HW126669   3.578   2.126   6.928  1.3920  2.0848 -0.3551
 5012SOL    HW226670   3.533   2.042   6.814  0.4899  0.1223  0.4257
 5013SOL     OW26671   0.079   0.319   9.041  0.1893  0.0354 -0.4972
 5013SOL    HW126672   0.117   0.239   9.077 -1.5426 -0.2501  0.7016
 5013SOL    HW226673   0.132   0.386   9.085  2.5647 -1.7738 -0.6025
 5014SOL     OW26674   3.674   4.384  12.465  0.4395  0.6988 -0.1175
 5014SOL    HW126675   3.676   4.480  12.465 -0.0654  0.7091  1.8490
 5014SOL    HW226676   3.678   4.366  12.559 -1.0649  0.2320 -0.1558
 5015SOL     OW26677   1.281   3.114   5.779 -0.2616  0.5257  0.0430
 5015SOL    HW126678   1.197   3.152   5.805  0.0620  0.6485  0.8943
 5015SOL    HW226679   1.236   3.031   5.763  0.7812 -0.1768  0.7664
 5016SOL     OW26680   2.927   1.991  16.788  0.2066  1.0292 -0.0233
 5016SOL    HW126681   3.021   1.977  16.801  0.4753  0.1271 -2.7795
 5016SOL    HW226682   2.893   1.927  16.851  0.8621 -1.8845 -2.5691
 5017SOL     OW26683   2.986   1.296   3.880 -0.2006  0.0320 -0.3327
 5017SOL    HW126684   2.898   1.257   3.873 -0.3850  0.1328  1.4770
 5017SOL    HW226685   2.978   1.341   3.964 -1.1823  1.0724 -0.9780
 5018SOL     OW26686   0.322   3.785   7.801 -0.3076  0.4943  0.5024
 5018SOL    HW126687   0.328   3.690   7.815 -0.1087  0.1105 -2.0724
 5018SOL    HW226688   0.362   3.815   7.882  1.3292 -0.3633  0.0169
 5019SOL     OW26689   3.749   0.043   8.356 -1.0587 -0.0217 -0.0328
 5019SOL    HW126690   3.800   0.061   8.277 -1.7485 -0.1396 -0.5034
 5019SOL    HW226691   3.771   0.117   8.413  0.2594  0.3560 -1.0308
 5020SOL     OW26692   1.289   1.946  15.035 -0.1004  0.0212  0.0493
 5020SOL    HW126693   1.223   1.978  14.973 -1.3977 -0.5940  1.1111
 5020SOL    HW226694   1.235   1.928  15.112 -1.4329 -0.4379 -0.9827
 5021SOL     OW26695   4.387   3.910   9.972  0.1760 -0.1318 -0.2137
 5021SOL    HW126696   4.312   3.888   9.916 -2.0778  1.5538  2.2044
 5021SOL    HW226697   4.454   3.912   9.903  0.1455  0.7370 -0.2082
 5022SOL     OW26698   2.071   4.211   7.207  0.1266  0.5789 -0.4382
 5022SOL    HW126699   2.125   4.200   7.128 -4.1032  1.2176 -3.4300
 5022SOL    HW226700   1.981   4.204   7.174  0.6873  1.4976 -2.1786
 5023SOL     OW26701   2.062   1.865   7.445 -0.3880  0.6646 -0.1951
 5023SOL    HW126702   2.126   1.869   7.516  1.9223  1.6312 -2.3473
 5023SOL    HW226703   2.085   1.941   7.392  1.1179  0.2200 -0.1874
 5024SOL     OW26704   2.443   4.428  11.295  0.2765 -0.1750  0.1096
 5024SOL    HW126705   2.405   4.391  11.375  1.5494 -0.3107  0.6576
 5024SOL    HW226706   2.520   4.469  11.336  0.6251 -0.7143 -0.0113
 5025SOL     OW26707   0.915   4.402   2.152  0.3239  0.1136  0.7188
 5025SOL    HW126708   1.003   4.411   2.114  0.5460 -0.4456  1.0974
 5025SOL    HW226709   0.866   4.469   2.104  2.1383 -0.3261 -1.7398
 5026SOL     OW26710   1.550   0.115   4.393 -0.1884 -0.3319  0.1140
 5026SOL    HW126711   1.573   0.041   4.336  3.3961 -2.2885  4.0588
 5026SOL    HW226712   1.631   0.119   4.443 -0.0560 -0.2328 -0.1078
 5027SOL     OW26713   1.855   2.342   6.759  0.5972 -0.1257 -0.0236
 5027SOL    HW126714   1.898   2.280   6.817  0.5328  1.1405  1.3631
 5027SOL    HW226715   1.814   2.396   6.826  0.9885 -1.0966  0.9927
 5028SOL     OW26716   3.314   3.886   3.470 -0.6629 -0.6038  0.1166
 5028SOL    HW126717   3.283   3.924   3.553 -2.1273  0.1650 -0.7660
 5028SOL    HW226718   3.392   3.838   3.496  2.0637  3.9281  0.2748
 5029SOL     OW26719   2.828   1.543   6.411 -0.7913  0.2322  0.0248
 5029SOL    HW126720   2.850   1.453   6.387 -2.4484 -0.8635  2.6155
 5029SOL    HW226721   2.907   1.589   6.384  0.6812 -1.9741  0.6553
 5030SOL     OW26722   1.039   2.574   5.233 -0.2981 -0.2648 -0.1053
 5030SOL    HW126723   0.998   2.551   5.151  5.0399 -1.5659 -2.4423
 5030SOL    HW226724   0.986   2.528   5.298  1.0714  0.2722  1.3972
 5031SOL     OW26725   3.439   0.655   3.462 -0.5104 -0.0570  0.2700
 5031SOL    HW126726   3.491   0.699   3.530 -0.9205  0.9442 -0.0588
 5031SOL    HW226727   3.385   0.728   3.432 -2.9995 -2.1861 -0.3664
 5032SOL     OW26728   3.033   0.401   5.517 -0.1086 -0.0012 -0.1211
 5032SOL    HW126729   3.023   0.313   5.553 -0.9925 -0.7051 -2.0746
 5032SOL    HW226730   3.003   0.390   5.427 -2.1425  1.5229  0.3704
 5033SOL     OW26731   3.969   3.373   8.009 -0.3100 -0.1064  0.0273
 5033SOL    HW126732   3.897   3.323   7.970  1.9355 -0.9476 -3.0142
 5033SOL    HW226733   3.937   3.381   8.099  0.0588 -1.8961  0.3213
 5034SOL     OW26734   2.830   1.687   4.098 -0.1112 -0.9167 -0.2216
 5034SOL    HW126735   2.802   1.657   4.011  0.0426 -0.9499 -0.2594
 5034SOL    HW226736   2.758   1.746   4.116 -0.1278 -0.4909 -1.6858
 5035SOL     OW26737   1.587   4.215  14.435  0.4248  0.2262  0.2460
 5035SOL    HW126738   1.602   4.143  14.496 -0.7277 -0.5668 -0.3930
 5035SOL    HW226739   1.573   4.168  14.353 -1.9045  1.0923  0.1292
 5036SOL     OW26740   2.371   0.555   7.179 -0.0628 -0.1195  0.7876
 5036SOL    HW126741   2.442   0.613   7.206  0.2804 -0.5262  0.7533
 5036SOL    HW226742   2.414   0.491   7.121  0.2480  0.1720  0.6953
 5037SOL     OW26743   2.027   3.292   3.382 -0.6381  0.1476  0.3823
 5037SOL    HW126744   2.056   3.316   3.470 -2.1807 -1.8802  1.4641
 5037SOL    HW226745   2.104   3.297   3.326 -1.1196  0.4547 -0.2544
 5038SOL     OW26746   2.367   2.744   5.442 -0.0477  0.2476 -0.4111
 5038SOL    HW126747   2.438   2.701   5.395 -1.3648 -1.7548 -0.5825
 5038SOL    HW226748   2.293   2.703   5.398 -0.2431  0.6597 -0.4635
 5039SOL     OW26749   1.711   3.008   4.787 -0.5152 -0.3492 -0.1867
 5039SOL    HW126750   1.625   2.998   4.828 -0.3415 -0.3150  0.1881
 5039SOL    HW226751   1.686   3.044   4.703 -1.8445 -0.9338 -0.0569
 5040SOL     OW26752   1.537   2.513   2.395 -0.0844  0.4625  0.7221
 5040SOL    HW126753   1.511   2.444   2.333 -0.3289  0.3552  0.9445
 5040SOL    HW226754   1.488   2.594   2.379 -0.8218 -0.5029 -2.0540
 5041SOL     OW26755   0.239   2.518   9.395 -0.2876  0.6760 -0.4023
 5041SOL    HW126756   0.153   2.539   9.358  0.1345 -0.0021 -1.7773
 5041SOL    HW226757   0.211   2.456   9.463  0.2245 -0.8455 -1.5631
 5042SOL     OW26758   1.661   0.606  13.592 -0.4630  0.1241  0.3816
 5042SOL    HW126759   1.749   0.640  13.576  0.2605 -3.1403 -2.5772
 5042SOL    HW226760   1.620   0.658  13.522 -0.9585  0.2351  0.7500
 5043SOL     OW26761   4.692   1.627   8.253  0.3247 -0.0574  0.5434
 5043SOL    HW126762   4.715   1.713   8.218  3.2147  0.0346  2.7229
 5043SOL    HW226763   0.022   1.570   8.220  0.4406 -1.2931  2.9327
 5044SOL     OW26764   0.563   1.196   5.410  0.3668  0.5319  0.6355
 5044SOL    HW126765   0.632   1.140   5.447 -0.1310 -0.3748  0.1935
 5044SOL    HW226766   0.510   1.227   5.484  0.4378  0.3813  0.7497
 5045SOL     OW26767   3.546   1.254   7.796  0.4563 -0.2260 -0.0917
 5045SOL    HW126768   3.539   1.246   7.891  0.6870 -0.8715 -0.1242
 5045SOL    HW226769   3.459   1.279   7.764  0.9326  1.0364 -0.3900
 5046SOL     OW26770   4.279   2.938   4.337 -0.1873  0.7568  0.2450
 5046SOL    HW126771   4.194   2.981   4.337  0.2996  1.7013  0.4138
 5046SOL    HW226772   4.340   3.009   4.317  1.3259 -0.0919  1.8643
 5047SOL     OW26773   0.295   0.540   8.099  0.2788  0.5785  0.1728
 5047SOL    HW126774   0.243   0.540   8.018 -0.3013 -0.9694  0.5354
 5047SOL    HW226775   0.340   0.624   8.107 -0.9629  1.1415  1.2365
 5048SOL     OW26776   1.124   3.361   1.923  0.2017 -0.1064  0.0977
 5048SOL    HW126777   1.085   3.448   1.929 -0.7270 -0.6045  1.1500
 5048SOL    HW226778   1.061   3.312   1.870  0.1056 -1.5863  1.5655
 5049SOL     OW26779   1.033   0.339   8.064  0.0456  0.5866 -0.1117
 5049SOL    HW126780   0.988   0.423   8.063 -0.8373  0.0921 -1.0287
 5049SOL    HW226781   0.977   0.305   7.995  0.3370 -2.6572  1.2618
 5050SOL     OW26782   0.636   0.825  14.809  0.2368 -0.3820  0.1783
 5050SOL    HW126783   0.601   0.816  14.720  1.6359 -0.2202 -0.4024
 5050SOL    HW226784   0.718   0.776  14.796  0.3096 -0.7023  1.9084
 5051SOL     OW26785   2.387   0.268   5.207  0.2944  0.3257 -0.2241
 5051SOL    HW126786   2.419   0.275   5.117  0.0981 -3.3906 -0.5637
 5051SOL    HW226787   2.292   0.264   5.197  0.4852 -1.0673 -1.5628
 5052SOL     OW26788   2.702   2.476  13.734  0.1774  0.0935 -0.1068
 5052SOL    HW126789   2.779   2.455  13.787 -0.1998  0.0436  0.4224
 5052SOL    HW226790   2.639   2.419  13.779  1.8426  0.5103  2.7505
 5053SOL     OW26791   2.139   3.228   6.687 -0.5745 -0.3244  0.6657
 5053SOL    HW126792   2.161   3.321   6.700  1.3983 -0.4991 -1.4123
 5053SOL    HW226793   2.059   3.240   6.636  1.6450  1.7262 -2.3481
 5054SOL     OW26794   2.672   4.593  14.340 -0.2616  0.3132  0.4649
 5054SOL    HW126795   2.763   4.623  14.345 -0.3313  1.2916 -4.2847
 5054SOL    HW226796   2.686   4.499  14.329  1.2644  0.5402  0.5277
 5055SOL     OW26797   3.643   3.324   6.168  0.4158  0.4479 -0.3583
 5055SOL    HW126798   3.702   3.255   6.136  0.2166  1.0666 -2.0682
 5055SOL    HW226799   3.601   3.323   6.082 -3.8849  0.3202  1.7457
 5056SOL     OW26800   2.003   1.249   3.564  0.5884 -0.2595 -0.5028
 5056SOL    HW126801   2.058   1.277   3.492  1.4264 -0.7795 -0.0706
 5056SOL    HW226802   1.949   1.327   3.577 -0.7840 -1.1451 -0.8518
 5057SOL     OW26803   2.774   1.533   1.780  0.1718 -0.2106  0.7010
 5057SOL    HW126804   2.848   1.488   1.739  0.0269 -0.0363  0.2445
 5057SOL    HW226805   2.731   1.552   1.696  0.3238 -0.3770  0.5863
 5058SOL     OW26806   2.127   1.431   7.695 -0.4813  0.0900 -0.5385
 5058SOL    HW126807   2.220   1.412   7.709 -0.6228 -0.1223  0.1014
 5058SOL    HW226808   2.102   1.470   7.779  0.9755  0.0381 -0.0730
 5059SOL     OW26809   0.887   3.628   6.208 -0.1007 -0.4475  0.7038
 5059SOL    HW126810   0.975   3.589   6.204 -0.4194 -1.0569 -0.4951
 5059SOL    HW226811   0.900   3.706   6.261  1.3324 -0.1062 -0.1393
 5060SOL     OW26812   3.449   4.499   1.107  0.5580 -0.1958  0.0746
 5060SOL    HW126813   3.431   4.406   1.094  2.9060 -0.5656 -0.6034
 5060SOL    HW226814   3.361   4.533   1.123 -1.0351 -2.3603 -4.0426
 5061SOL     OW26815   2.483   0.480   0.542  0.5644 -0.4839  0.4806
 5061SOL    HW126816   2.456   0.428   0.467 -0.9724  0.8734  0.0796
 5061SOL    HW226817   2.469   0.567   0.505  0.1921 -1.4554 -1.6398
 5062SOL     OW26818   2.030   2.626  15.807 -0.1042 -0.2588  0.6278
 5062SOL    HW126819   2.059   2.561  15.872  0.7015  1.3043  1.8549
 5062SOL    HW226820   1.997   2.566  15.741  0.0443 -1.0738  1.2870
 5063SOL     OW26821   3.083   3.008   7.493  0.3473  0.0132 -0.0033
 5063SOL    HW126822   3.165   2.962   7.509  0.3881  0.4347  0.9591
 5063SOL    HW226823   3.107   3.073   7.426 -1.3190  0.4167 -0.2040
 5064SOL     OW26824   1.056   3.384  15.892 -0.0323  0.0756  0.0853
 5064SOL    HW126825   1.004   3.315  15.852 -1.4206  0.9405  0.3943
 5064SOL    HW226826   1.132   3.349  15.940 -0.4472 -2.7648 -1.3694
 5065SOL     OW26827   3.530   4.046  14.251 -0.4886  0.0426 -0.2965
 5065SOL    HW126828   3.512   4.064  14.159 -0.0165 -2.9252 -0.9725
 5065SOL    HW226829   3.475   4.117  14.285 -0.1652 -0.9363  2.3035
 5066SOL     OW26830   1.418   2.611   6.662  0.8110 -0.4316  0.4236
 5066SOL    HW126831   1.356   2.666   6.613 -0.9690 -0.3440  2.7891
 5066SOL    HW226832   1.446   2.547   6.597  1.6900 -0.1905  0.5715
 5067SOL     OW26833   0.707   3.717   2.414  0.4970 -0.2443  0.0566
 5067SOL    HW126834   0.712   3.674   2.500 -0.0669  0.2387  0.3320
 5067SOL    HW226835   0.612   3.709   2.403  0.5981  2.4782 -2.6595
 5068SOL     OW26836   2.549   0.315   2.427 -0.1232  0.4591  0.3046
 5068SOL    HW126837   2.625   0.334   2.482 -0.2626  0.7620  0.3909
 5068SOL    HW226838   2.576   0.364   2.349 -2.5925  0.6291 -0.4260
 5069SOL     OW26839   4.306   2.424  13.219 -0.1191 -0.2313 -0.0351
 5069SOL    HW126840   4.262   2.498  13.177 -1.2821 -0.8486  0.0864
 5069SOL    HW226841   4.273   2.428  13.309 -4.4842  2.0337 -1.7090
 5070SOL     OW26842   3.807   1.232  14.817 -0.0875  0.0540  0.0798
 5070SOL    HW126843   3.782   1.192  14.734  0.9064  0.9831 -0.6692
 5070SOL    HW226844   3.824   1.150  14.863 -0.6228 -2.2308 -3.8577
 5071SOL     OW26845   1.415   0.950   2.213  0.1637 -0.5186  0.1964
 5071SOL    HW126846   1.362   0.905   2.146  0.5366  0.2615 -0.6321
 5071SOL    HW226847   1.448   1.013   2.148  0.1481 -0.7092  0.0037
 5072SOL     OW26848   0.313   4.384   6.718 -0.5549  0.2908 -0.0810
 5072SOL    HW126849   0.320   4.325   6.793 -2.2398  1.4258  0.9628
 5072SOL    HW226850   0.251   4.453   6.740 -0.8858  0.1664 -0.6406
 5073SOL     OW26851   1.092   0.962   4.899 -0.2431  0.1800  0.9196
 5073SOL    HW126852   1.057   0.934   4.984 -1.7392  1.1557  0.6234
 5073SOL    HW226853   1.157   1.032   4.906 -0.3889  0.2693  1.4079
 5074SOL     OW26854   2.210   2.488   1.952 -0.2132 -0.4090  0.6637
 5074SOL    HW126855   2.234   2.499   2.045 -2.2262  0.5478  1.0697
 5074SOL    HW226856   2.150   2.417   1.974  4.0011 -3.7099  1.6696
 5075SOL     OW26857   3.806   3.289  10.514  0.0868 -0.0357 -0.2986
 5075SOL    HW126858   3.732   3.308  10.572  0.3046 -0.7533  0.2145
 5075SOL    HW226859   3.876   3.287  10.580  0.8927 -3.8624 -1.2700
 5076SOL     OW26860   1.559   0.483   3.320 -0.0626 -0.0474 -0.2639
 5076SOL    HW126861   1.510   0.494   3.401  1.2026  1.2661  0.3340
 5076SOL    HW226862   1.635   0.537   3.343 -0.5923  0.9735 -0.8789
 5077SOL     OW26863   0.520   3.696   2.927 -0.4937 -0.2822 -0.2705
 5077SOL    HW126864   0.459   3.631   2.963 -1.0956  0.5806  0.2504
 5077SOL    HW226865   0.510   3.681   2.833 -1.7889 -0.0690 -0.1740
 5078SOL     OW26866   1.727   2.614   5.222  0.5276  0.0053 -0.0783
 5078SOL    HW126867   1.797   2.591   5.283 -0.4695 -3.0621 -0.1016
 5078SOL    HW226868   1.743   2.549   5.153 -1.4901  0.9737 -1.4452
 5079SOL     OW26869   0.568   3.030  15.799  0.0478  0.0028  0.1739
 5079SOL    HW126870   0.511   2.961  15.834  0.2006 -0.1002  0.2155
 5079SOL    HW226871   0.628   2.965  15.765 -0.6998 -0.2090 -0.7470
 5080SOL     OW26872   1.136   4.536   6.170  0.4782 -0.6545  0.2812
 5080SOL    HW126873   1.140   4.483   6.090  2.6105  1.6984 -1.1793
 5080SOL    HW226874   1.204   4.598   6.144 -0.2224 -0.0622 -0.1450
 5081SOL     OW26875   4.698   2.719   6.876 -0.0767  0.7783 -0.9291
 5081SOL    HW126876   4.647   2.639   6.867  1.8084 -0.8791  2.6904
 5081SOL    HW226877   4.625   2.779   6.862 -0.2695  0.6837 -0.3375
 5082SOL     OW26878   0.957   0.685   5.349  0.0821 -0.1693 -0.0620
 5082SOL    HW126879   1.015   0.614   5.378  3.3555  1.8079 -1.8020
 5082SOL    HW226880   0.912   0.628   5.287 -0.0211 -0.3304  0.1597
 5083SOL     OW26881   3.068   4.319   7.192 -0.2867 -0.6004  0.1376
 5083SOL    HW126882   2.989   4.265   7.199 -0.7914  0.1750  0.4104
 5083SOL    HW226883   3.039   4.400   7.234 -0.4722 -0.8287  0.4551
 5084SOL     OW26884   4.130   1.128   8.692 -0.2612 -0.3515  0.3256
 5084SOL    HW126885   4.085   1.045   8.676 -1.3263  0.3128 -0.1678
 5084SOL    HW226886   4.179   1.137   8.610 -1.4895 -0.3235 -0.4076
 5085SOL     OW26887   2.361   4.520   2.826  0.1499  0.1215 -0.4126
 5085SOL    HW126888   2.373   4.614   2.811 -0.7655  0.7697  2.8460
 5085SOL    HW226889   2.358   4.516   2.922 -1.7960 -1.7583 -0.5377
 5086SOL     OW26890   1.086   3.245   4.899  1.1616  0.3770  0.3070
 5086SOL    HW126891   1.178   3.273   4.901  0.8306  1.5549 -0.9167
 5086SOL    HW226892   1.076   3.157   4.936  0.1387 -0.1110 -1.1098
 5087SOL     OW26893   2.739   3.100   8.287 -0.1982  0.3444 -0.3972
 5087SOL    HW126894   2.830   3.128   8.301 -0.0997 -0.1575 -0.0239
 5087SOL    HW226895   2.715   3.168   8.224 -2.6719 -0.0935  0.0820
 5088SOL     OW26896   2.696   3.728   7.297 -0.2143  0.2992 -0.5450
 5088SOL    HW126897   2.718   3.730   7.390  1.3729  1.7079 -0.9559
 5088SOL    HW226898   2.759   3.660   7.272  2.2371  1.9141  1.2094
 5089SOL     OW26899   3.489   2.422   1.151 -0.3083 -0.1421 -0.6339
 5089SOL    HW126900   3.453   2.444   1.237 -0.7485 -0.6698 -0.6834
 5089SOL    HW226901   3.420   2.451   1.091  1.0882  2.8769 -0.7625
 5090SOL     OW26902   1.055   2.500   7.493  0.2040 -0.2327  0.5159
 5090SOL    HW126903   1.065   2.556   7.416 -0.4031 -2.0464 -0.8737
 5090SOL    HW226904   0.974   2.462   7.460  0.8045 -0.4592 -0.7073
 5091SOL     OW26905   4.055   3.915  12.254 -0.6197  0.2763  0.5225
 5091SOL    HW126906   3.969   3.893  12.219 -1.2531  2.3004  0.7941
 5091SOL    HW226907   4.088   3.827  12.269 -0.0057  0.5312  0.6828
 5092SOL     OW26908   1.226   4.098  15.327 -0.3870  0.0232  0.0454
 5092SOL    HW126909   1.194   4.182  15.360  0.5739  0.0053  1.0225
 5092SOL    HW226910   1.221   4.106  15.232  1.2373 -2.6936 -0.2613
 5093SOL     OW26911   1.402   0.206   4.617 -0.2515  0.8071  0.1330
 5093SOL    HW126912   1.418   0.200   4.522  0.7225  0.5652  0.3093
 5093SOL    HW226913   1.388   0.111   4.625  0.2206  0.5629 -1.7962
 5094SOL     OW26914   2.655   3.257  12.196  0.4490 -0.1889 -0.2670
 5094SOL    HW126915   2.677   3.325  12.133  1.4706  0.8243  1.1887
 5094SOL    HW226916   2.633   3.312  12.271 -1.6473  0.9796 -1.7250
 5095SOL     OW26917   4.631   1.582   5.263 -0.3166  0.1713 -0.1352
 5095SOL    HW126918   4.698   1.589   5.330 -1.3921 -0.3613  1.0005
 5095SOL    HW226919   4.553   1.564   5.316 -0.1930  1.0311  0.3210
 5096SOL     OW26920   1.798   1.538   3.074  0.5833  0.2188 -0.2609
 5096SOL    HW126921   1.769   1.629   3.068 -1.4599 -0.5092 -1.7133
 5096SOL    HW226922   1.779   1.509   2.984 -1.5561  0.5814  0.0893
 5097SOL     OW26923   2.865   1.250   6.308 -0.2543  0.1895  0.1761
 5097SOL    HW126924   2.950   1.230   6.270  0.1091 -0.3218  1.2519
 5097SOL    HW226925   2.865   1.187   6.380  1.3187  0.5974  0.5363
 5098SOL     OW26926   3.820   1.762  17.248 -0.4994  0.6744  0.5737
 5098SOL    HW126927   3.811   1.835  17.310 -0.5192  1.6483 -0.5781
 5098SOL    HW226928   3.824   1.690  17.312 -2.9838 -1.0484 -1.2135
 5099SOL     OW26929   1.057   2.985   4.993 -0.0640 -0.2663  0.3749
 5099SOL    HW126930   1.057   2.917   4.926 -2.7550 -1.6804  1.7815
 5099SOL    HW226931   1.081   2.930   5.068  0.2760  0.8669  1.1073
 5100SOL     OW26932   4.680   4.353   8.737 -0.2649  0.0304 -0.4217
 5100SOL    HW126933   4.625   4.339   8.661 -0.2602 -0.5357 -0.3254
 5100SOL    HW226934   4.616   4.334   8.806 -0.6828 -2.3203 -1.4465
 5101SOL     OW26935   3.232   4.562   5.605  0.1265 -0.7246 -0.4512
 5101SOL    HW126936   3.156   4.562   5.664  0.6661 -0.0867  0.2410
 5101SOL    HW226937   3.230   4.470   5.580  2.5873 -1.2818  1.4401
 5102SOL     OW26938   0.298   0.293  12.106  0.5558 -0.2649 -0.8070
 5102SOL    HW126939   0.270   0.264  12.192 -0.4045  0.7746 -0.7608
 5102SOL    HW226940   0.220   0.322  12.057  1.4384  1.2428 -1.3088
 5103SOL     OW26941   0.540   0.159   8.699 -0.5619  0.0820  0.3326
 5103SOL    HW126942   0.569   0.199   8.618  3.3875  0.3584  1.9137
 5103SOL    HW226943   0.479   0.093   8.665 -0.1563 -1.1133  1.9386
 5104SOL     OW26944   1.328   3.191   1.829  0.2841 -0.3979  0.4195
 5104SOL    HW126945   1.270   3.252   1.875 -0.3359 -0.3722 -0.4063
 5104SOL    HW226946   1.346   3.243   1.751 -0.5086  1.9936  1.8099
 5105SOL     OW26947   1.696   2.401   9.100 -0.0057  0.0206  0.3750
 5105SOL    HW126948   1.644   2.321   9.097 -0.3161  0.2982 -1.5981
 5105SOL    HW226949   1.628   2.463   9.075 -0.1786 -0.7185 -0.9677
 5106SOL     OW26950   3.110   4.121   8.513  0.0094  0.5204 -0.0270
 5106SOL    HW126951   3.023   4.156   8.493 -0.1111  0.8979  1.1778
 5106SOL    HW226952   3.125   4.150   8.603 -1.9924 -1.4999  0.9643
 5107SOL     OW26953   3.595   0.904   5.338 -0.2256  0.4514  0.0590
 5107SOL    HW126954   3.507   0.921   5.371  0.2341  1.2684  0.8654
 5107SOL    HW226955   3.584   0.823   5.288  0.0941  0.6161 -0.2834
 5108SOL     OW26956   0.710   2.304   3.437 -0.0971 -0.8959 -0.1378
 5108SOL    HW126957   0.703   2.244   3.512 -1.5093 -2.6013 -1.6299
 5108SOL    HW226958   0.698   2.243   3.364  1.1769  2.2165 -2.9751
 5109SOL     OW26959   3.352   2.354   8.628  0.4773 -0.6167 -0.0206
 5109SOL    HW126960   3.301   2.336   8.548 -1.8103  1.8230  0.8696
 5109SOL    HW226961   3.301   2.415   8.682  0.2355 -0.9230  0.1013
 5110SOL     OW26962   0.274   3.657   8.606  0.3301  0.2875 -1.4101
 5110SOL    HW126963   0.216   3.666   8.681  0.8377  1.0105 -1.1078
 5110SOL    HW226964   0.328   3.732   8.631 -0.1340  0.6501 -1.5085
 5111SOL     OW26965   4.024   2.318   4.980  0.4363  0.0507  0.0739
 5111SOL    HW126966   4.029   2.408   4.948  1.3234 -0.3219 -0.8439
 5111SOL    HW226967   3.954   2.282   4.926  0.8903  0.6796 -0.9412
 5112SOL     OW26968   3.738   1.029   4.484  0.1199 -0.3540  0.2984
 5112SOL    HW126969   3.828   1.028   4.514  0.2594 -0.1858 -0.1192
 5112SOL    HW226970   3.707   0.942   4.510  2.8658 -1.8251 -1.4563
 5113SOL     OW26971   1.615   3.784   7.709  0.2304 -0.8495  0.0412
 5113SOL    HW126972   1.584   3.747   7.626 -0.1328  2.6389 -1.3611
 5113SOL    HW226973   1.686   3.841   7.680 -0.3743  0.9548  2.1283
 5114SOL     OW26974   1.243   1.041   2.802 -0.6463  0.0957  0.0895
 5114SOL    HW126975   1.273   0.998   2.722  0.7131  0.7696  0.2342
 5114SOL    HW226976   1.255   0.974   2.869 -1.2437 -0.6097 -0.5171
 5115SOL     OW26977   2.930   1.477  14.678  0.0366 -0.0612  0.3344
 5115SOL    HW126978   2.919   1.570  14.696 -0.8276 -0.1509  0.2903
 5115SOL    HW226979   2.878   1.436  14.748  1.0371 -0.8385  0.6132
 5116SOL     OW26980   1.141   3.954   7.937 -0.2035 -0.1478  0.3840
 5116SOL    HW126981   1.213   4.000   7.894 -2.3625  2.3579 -0.5477
 5116SOL    HW226982   1.076   3.955   7.866 -2.2577  1.7764  2.3081
 5117SOL     OW26983   0.056   0.364   2.216  0.2608 -0.1973 -0.1366
 5117SOL    HW126984   0.140   0.327   2.190 -0.9379 -2.1265 -1.3558
 5117SOL    HW226985   0.075   0.446   2.260  0.1195  0.5643 -1.4885
 5118SOL     OW26986   3.561   3.868   3.243  0.0249 -0.1402  0.4779
 5118SOL    HW126987   3.555   3.953   3.286 -1.7167  0.1368 -0.3243
 5118SOL    HW226988   3.472   3.853   3.211  0.6241 -0.5815 -0.9629
 5119SOL     OW26989   0.161   3.976   3.686  0.6678  0.0009  0.1896
 5119SOL    HW126990   0.115   3.950   3.606 -0.3498 -2.7540  1.6948
 5119SOL    HW226991   0.183   4.068   3.672  1.2282  0.0667  1.5030
 5120SOL     OW26992   4.172   0.806   8.889  0.0129  0.1884 -0.7092
 5120SOL    HW126993   4.123   0.827   8.809  1.9768 -1.0115 -2.2309
 5120SOL    HW226994   4.179   0.713   8.870 -0.6384 -0.5311  2.5418
 5121SOL     OW26995   0.148   2.884   3.399  0.1204 -0.0782 -0.6023
 5121SOL    HW126996   0.059   2.914   3.421  1.2446  2.5061  0.4131
 5121SOL    HW226997   0.150   2.816   3.466  0.0922  0.9781  0.4734
 5122SOL     OW26998   2.299   3.388   2.262 -0.1824 -0.4302  0.0319
 5122SOL    HW126999   2.262   3.311   2.217 -0.4330  0.1180 -0.7017
 5122SOL    HW227000   2.256   3.465   2.224  1.3380  0.6968  0.5993
 5123SOL     OW27001   4.201   3.102   5.232 -0.3817 -0.6564 -0.0947
 5123SOL    HW127002   4.182   3.023   5.284 -1.5310 -1.0073 -1.0384
 5123SOL    HW227003   4.172   3.082   5.143 -1.1211  0.0573 -0.0109
 5124SOL     OW27004   1.191   3.054   9.229  0.7024 -0.2760  0.2024
 5124SOL    HW127005   1.241   3.127   9.193 -0.7047  0.1005 -0.9960
 5124SOL    HW227006   1.244   3.035   9.306  2.1741  0.1450 -0.7255
 5125SOL     OW27007   1.574   4.525   1.323  0.1870 -0.4510  0.1043
 5125SOL    HW127008   1.613   4.608   1.296  2.8041 -1.4675  0.6763
 5125SOL    HW227009   1.647   4.477   1.283  0.5727  0.8340 -0.7316
 5126SOL     OW27010   4.588   2.411   5.074  0.3738  0.0556 -0.0040
 5126SOL    HW127011   4.567   2.321   5.052 -1.7416  0.8634 -1.3239
 5126SOL    HW227012   4.678   2.402   5.106  0.5669 -0.6444 -0.7447
 5127SOL     OW27013   0.078   3.465   8.505 -0.5171  0.1658 -0.1736
 5127SOL    HW127014   0.146   3.515   8.551  0.6533 -1.0223 -0.5966
 5127SOL    HW227015   0.084   3.507   8.419 -1.0844  2.8686  1.1209
 5128SOL     OW27016   4.590   2.536  14.802 -0.2759 -0.2146 -0.1553
 5128SOL    HW127017   4.508   2.512  14.844 -0.0899  0.3362  0.5124
 5128SOL    HW227018   4.559   2.600  14.738 -0.8022  0.6348  0.9531
 5129SOL     OW27019   3.198   0.482   8.320 -0.0256  0.4907 -0.1121
 5129SOL    HW127020   3.152   0.555   8.362 -2.1262 -1.0918  0.3634
 5129SOL    HW227021   3.281   0.483   8.367 -0.6062 -0.0972  0.9304
 5130SOL     OW27022   0.596   2.418   6.142  0.1167 -0.4587  0.5698
 5130SOL    HW127023   0.510   2.377   6.149  0.6531 -1.4913  1.1133
 5130SOL    HW227024   0.644   2.336   6.131 -1.9320 -1.7203  1.1584
 5131SOL     OW27025   0.839   1.258  12.861  0.6261  0.2090  0.3908
 5131SOL    HW127026   0.861   1.191  12.796  1.4469  2.3001 -1.5230
 5131SOL    HW227027   0.751   1.235  12.888  0.5185 -1.2936 -1.2285
 5132SOL     OW27028   4.356   4.421  16.156  0.1658 -0.9038 -0.3062
 5132SOL    HW127029   4.355   4.335  16.199 -0.6065  0.1178  1.7713
 5132SOL    HW227030   4.264   4.416  16.129  0.4822  2.0858 -1.9016
 5133SOL     OW27031   0.685   1.731  15.376  0.2019 -0.3474 -0.1041
 5133SOL    HW127032   0.630   1.658  15.349 -0.1027 -0.2218  0.1712
 5133SOL    HW227033   0.712   1.766  15.291 -0.2165 -0.1638 -0.1612
 5134SOL     OW27034   2.033   0.953   5.997 -0.7479 -0.2284 -0.3400
 5134SOL    HW127035   2.060   1.043   6.019 -1.3284  0.2695 -1.6810
 5134SOL    HW227036   1.950   0.961   5.950 -0.6551 -1.3516 -0.6782
 5135SOL     OW27037   4.565   0.212   2.918  0.5070 -0.1062 -0.2339
 5135SOL    HW127038   4.639   0.232   2.976 -0.0440 -1.1302  0.8006
 5135SOL    HW227039   4.612   0.164   2.849  1.2780  1.0233 -0.4984
 5136SOL     OW27040   2.929   2.604   2.591  0.7054 -0.3859  0.1110
 5136SOL    HW127041   2.916   2.618   2.685  0.4837 -2.1827  0.3469
 5136SOL    HW227042   2.901   2.514   2.580  1.4908 -0.4455 -1.4266
 5137SOL     OW27043   1.682   3.727   2.594 -0.3329 -0.1606  0.1884
 5137SOL    HW127044   1.733   3.780   2.655  0.1747 -0.0009 -0.3716
 5137SOL    HW227045   1.596   3.767   2.612 -0.2556  0.5984 -1.1600
 5138SOL     OW27046   3.460   1.452   9.167  0.2921 -0.5373  0.7602
 5138SOL    HW127047   3.485   1.544   9.170  0.7802 -0.6203 -0.9250
 5138SOL    HW227048   3.376   1.459   9.120 -1.0990 -0.0874  3.2937
 5139SOL     OW27049   4.352   0.138   4.695  0.2473  0.9698  0.1690
 5139SOL    HW127050   4.338   0.231   4.714 -2.0938  0.4835  0.9031
 5139SOL    HW227051   4.390   0.107   4.777  2.2052 -0.0117 -1.1202
 5140SOL     OW27052   4.330   2.554  15.233  0.2568 -0.4109 -0.0116
 5140SOL    HW127053   4.356   2.523  15.146 -1.0457 -3.2943  0.6110
 5140SOL    HW227054   4.411   2.603  15.248 -0.4280 -0.0184  2.3193
 5141SOL     OW27055   1.701   2.325   0.560 -0.3968  1.1245  0.0391
 5141SOL    HW127056   1.676   2.280   0.479 -2.7907  1.0806  0.7920
 5141SOL    HW227057   1.797   2.324   0.559 -0.4254 -1.4155 -0.6423
 5142SOL     OW27058   4.692   0.901  10.434  0.1022  0.7214 -0.4556
 5142SOL    HW127059   4.621   0.895  10.498 -0.4648  0.4924 -1.1072
 5142SOL    HW227060   4.707   0.995  10.443  2.0924  0.2267  1.5532
 5143SOL     OW27061   2.654   4.141   3.554  0.5953 -0.3035 -0.4643
 5143SOL    HW127062   2.731   4.192   3.531  2.3280 -1.6792  2.1474
 5143SOL    HW227063   2.641   4.096   3.471 -1.4346  1.4130 -1.0597
 5144SOL     OW27064   2.492   1.683   4.546  0.5738 -0.1777 -0.2974
 5144SOL    HW127065   2.471   1.691   4.453 -0.3913  1.7332  0.0914
 5144SOL    HW227066   2.587   1.676   4.540  0.6668 -1.6448  2.5961
 5145SOL     OW27067   0.002   3.449  13.793  0.4061  0.1466 -0.4697
 5145SOL    HW127068   0.054   3.434  13.715  0.3433  1.4135 -0.7507
 5145SOL    HW227069   0.056   3.511  13.842 -0.5482  1.5226 -1.1406
 5146SOL     OW27070   3.213   0.083  15.322 -0.2714 -0.2964 -0.0018
 5146SOL    HW127071   3.258   0.166  15.336 -1.6145  0.5210 -0.5060
 5146SOL    HW227072   3.133   0.119  15.283  0.0137  1.1985  0.7800
 5147SOL     OW27073   3.670   0.931  13.541 -0.1056 -0.4506  0.3299
 5147SOL    HW127074   3.580   0.961  13.551  0.0922  0.4165 -0.4926
 5147SOL    HW227075   3.709   0.989  13.607 -1.4293 -1.3202  1.8773
 5148SOL     OW27076   1.815   2.831   1.420  0.3106  0.2501  0.0804
 5148SOL    HW127077   1.747   2.868   1.364  2.4573 -0.3006 -2.8551
 5148SOL    HW227078   1.832   2.748   1.376  0.5420  0.7881 -0.8397
 5149SOL     OW27079   0.865   1.921   8.172 -0.6487  0.1685 -0.2579
 5149SOL    HW127080   0.895   1.849   8.227  0.3941  0.1023 -0.9190
 5149SOL    HW227081   0.791   1.886   8.124 -0.3212 -0.2529 -0.4499
 5150SOL     OW27082   3.548   1.026   6.383  0.0067  0.0755 -0.3408
 5150SOL    HW127083   3.643   1.029   6.374  0.3642 -0.4970  2.9275
 5150SOL    HW227084   3.527   0.980   6.302 -1.0587  0.8639 -0.5118
 5151SOL     OW27085   2.143   1.555   6.550 -0.4107 -0.1680  0.0236
 5151SOL    HW127086   2.234   1.583   6.548  0.0797 -1.5167  2.6888
 5151SOL    HW227087   2.149   1.472   6.598  2.3528 -0.2170 -0.3907
 5152SOL     OW27088   1.259   2.251  17.404  0.1118 -0.1439 -0.0459
 5152SOL    HW127089   1.197   2.321  17.383 -0.6223 -1.5383 -2.4898
 5152SOL    HW227090   1.342   2.281  17.367 -0.5199 -0.5961 -1.8153
 5153SOL     OW27091   2.155   0.423   9.349 -0.2322  0.0026 -0.5525
 5153SOL    HW127092   2.173   0.408   9.256 -0.3668 -2.5197 -0.1635
 5153SOL    HW227093   2.123   0.336   9.374 -2.7957  0.9075 -0.6665
 5154SOL     OW27094   1.498   3.994   9.414 -0.2193  0.1378  0.0780
 5154SOL    HW127095   1.517   4.035   9.330 -0.7785  2.9260  1.3318
 5154SOL    HW227096   1.580   4.001   9.463 -0.2053  1.0014 -0.0790
 5155SOL     OW27097   0.704   4.421   5.962 -0.0542 -0.5341  0.1413
 5155SOL    HW127098   0.725   4.512   5.941 -1.7935 -0.5558 -1.6929
 5155SOL    HW227099   0.761   4.409   6.039  0.6750 -1.7164 -0.5804
 5156SOL     OW27100   3.112   1.219   8.789  0.2100  0.1795 -0.6181
 5156SOL    HW127101   3.027   1.259   8.810  0.3806  1.1280 -1.7324
 5156SOL    HW227102   3.124   1.149   8.853  0.1694  0.9493  0.2394
 5157SOL     OW27103   2.001   4.380   3.842 -0.7011  0.5885 -0.0188
 5157SOL    HW127104   2.054   4.324   3.786  1.5231  0.7939  1.9132
 5157SOL    HW227105   1.918   4.392   3.795 -0.9627 -0.8460  0.0703
 5158SOL     OW27106   2.792   2.522   9.062  0.2412  0.4464 -0.1477
 5158SOL    HW127107   2.716   2.537   9.005  1.1683  0.0597 -1.4753
 5158SOL    HW227108   2.835   2.608   9.058  0.3518  0.4724  1.2602
 5159SOL     OW27109   3.457   2.749  11.088 -0.0381 -0.0698 -0.2712
 5159SOL    HW127110   3.411   2.704  11.159  0.2404  0.6168  0.3530
 5159SOL    HW227111   3.523   2.682  11.070 -0.7567 -0.5484 -1.0751
 5160SOL     OW27112   0.149   3.419   8.970 -0.4099  0.6995 -0.1897
 5160SOL    HW127113   0.147   3.498   9.024  1.6543 -0.3596  1.4055
 5160SOL    HW227114   0.055   3.407   8.957 -0.4220  1.6749 -0.9539
 5161SOL     OW27115   1.499   1.921  12.880 -0.2930  0.4512  0.5211
 5161SOL    HW127116   1.515   1.834  12.917 -0.7057  0.2441  0.2034
 5161SOL    HW227117   1.585   1.931  12.838 -0.8014  2.6948  0.0584
 5162SOL     OW27118   1.389   3.248   5.433 -0.9427  0.5715  0.5320
 5162SOL    HW127119   1.428   3.172   5.475 -1.9256  0.2335  0.8226
 5162SOL    HW227120   1.416   3.319   5.492 -1.7370  0.7043  0.7389
 5163SOL     OW27121   4.730   3.230   2.990  0.4897  0.2868 -0.1569
 5163SOL    HW127122   0.003   3.181   3.071 -1.6672  1.0978  0.6472
 5163SOL    HW227123   4.665   3.181   2.940  0.0199  1.1499 -0.3943
 5164SOL     OW27124   2.621   2.392   3.288  0.0812  0.3006  0.1539
 5164SOL    HW127125   2.613   2.411   3.381  2.7613 -1.0190  0.6606
 5164SOL    HW227126   2.713   2.368   3.276  0.7172  2.1851  1.2400
 5165SOL     OW27127   3.731   4.677   2.270 -0.0686  0.5011  0.1662
 5165SOL    HW127128   3.740   4.694   2.177  1.1462  0.4599  0.2803
 5165SOL    HW227129   3.649   4.726   2.283 -0.1511  0.5920 -0.7092
 5166SOL     OW27130   0.663   4.652   5.576 -0.1403 -0.1551 -0.1044
 5166SOL    HW127131   0.738   4.637   5.634 -1.4654  0.0565  1.6524
 5166SOL    HW227132   0.588   4.684   5.626  1.2213 -0.7053  2.2672
 5167SOL     OW27133   1.355   1.693   6.958 -0.0795  0.2128 -0.2659
 5167SOL    HW127134   1.295   1.669   6.888  0.0776 -2.0929  0.3951
 5167SOL    HW227135   1.382   1.779   6.924  1.8625 -1.4550 -2.8770
 5168SOL     OW27136   2.943   2.142   2.003 -0.2479  0.1074  0.2788
 5168SOL    HW127137   3.008   2.213   2.011 -1.2441  1.0404  0.1594
 5168SOL    HW227138   2.890   2.183   1.934 -0.7965  2.0724  1.8550
 5169SOL     OW27139   2.254   0.530   3.880  0.2445  0.3532 -0.1071
 5169SOL    HW127140   2.217   0.492   3.960  0.6765 -0.9966 -0.5381
 5169SOL    HW227141   2.304   0.459   3.839  0.4539  0.3082  0.2255
 5170SOL     OW27142   1.175   4.176   8.114  0.1489 -0.0912  0.0367
 5170SOL    HW127143   1.254   4.200   8.067 -0.9782 -0.5196 -2.0912
 5170SOL    HW227144   1.147   4.096   8.069  1.8597  0.0059 -1.1833
 5171SOL     OW27145   1.503   4.478   8.787  0.3070 -0.3897 -0.1326
 5171SOL    HW127146   1.550   4.407   8.742  2.3472  0.2282  1.0163
 5171SOL    HW227147   1.563   4.519   8.849 -0.7763  1.5852 -0.3886
 5172SOL     OW27148   1.318   3.878   3.655 -0.2434 -0.8320 -0.4683
 5172SOL    HW127149   1.287   3.829   3.578  0.5114 -2.0429 -0.0052
 5172SOL    HW227150   1.294   3.818   3.726 -0.2617  0.4556  0.6162
 5173SOL     OW27151   1.864   3.720   6.039 -0.6204 -0.4540 -0.0560
 5173SOL    HW127152   1.947   3.673   6.037  0.3329  1.0443  3.7494
 5173SOL    HW227153   1.898   3.809   6.049 -0.6920 -0.3637 -0.6462
 5174SOL     OW27154   3.519   0.621   6.470  0.0226 -0.2468  0.0758
 5174SOL    HW127155   3.569   0.683   6.418 -2.6195  2.0042  0.2145
 5174SOL    HW227156   3.500   0.679   6.543 -1.3676 -2.5350  1.5618
 5175SOL     OW27157   2.006   2.700   7.042  0.4806  0.1558 -0.2202
 5175SOL    HW127158   1.963   2.703   7.128 -0.4577  1.4574 -0.7294
 5175SOL    HW227159   2.064   2.625   7.058  1.3639  0.7598 -0.6590
 5176SOL     OW27160   2.891   3.670   5.808  0.3545  0.3114  0.2447
 5176SOL    HW127161   2.896   3.614   5.730  2.9611 -0.2869  0.8413
 5176SOL    HW227162   2.808   3.717   5.799 -0.1983 -0.7088  0.0350
 5177SOL     OW27163   2.570   0.458   1.585  0.2380  0.1171 -0.1406
 5177SOL    HW127164   2.553   0.433   1.676 -0.5061  1.3520  0.0648
 5177SOL    HW227165   2.634   0.391   1.563  1.2895 -0.0471  3.4725
 5178SOL     OW27166   2.449   1.836  16.575 -0.1711 -0.0303 -0.3442
 5178SOL    HW127167   2.534   1.805  16.607 -0.7564 -0.0072  1.2555
 5178SOL    HW227168   2.454   1.811  16.483 -2.4628  0.4245 -0.5837
 5179SOL     OW27169   0.017   3.482  14.326 -0.7533 -0.0688  0.8701
 5179SOL    HW127170   0.014   3.388  14.309 -1.0497  0.1131 -0.0636
 5179SOL    HW227171   0.001   3.517  14.238  1.3611  0.1441  0.5824
 5180SOL     OW27172   4.613   0.428   2.477  0.8261 -0.2439  0.2902
 5180SOL    HW127173   4.698   0.469   2.490  0.5764  0.2034  0.4861
 5180SOL    HW227174   4.636   0.336   2.464  0.2028 -0.1634 -1.4346
 5181SOL     OW27175   4.414   3.287   5.320  0.1732 -0.1023  0.3750
 5181SOL    HW127176   4.465   3.242   5.387  0.8646  0.7832  0.4364
 5181SOL    HW227177   4.350   3.217   5.310  2.9415 -2.4089 -1.1656
 5182SOL     OW27178   1.763   2.385   1.533 -0.4716  0.4691  0.0613
 5182SOL    HW127179   1.759   2.359   1.441 -2.6280 -1.6660  0.7815
 5182SOL    HW227180   1.672   2.373   1.561 -0.1642 -0.0582  0.8460
 5183SOL     OW27181   4.369   2.055  13.817  0.9168 -0.2352  0.7011
 5183SOL    HW127182   4.295   2.025  13.764  1.5882 -0.1995 -0.2573
 5183SOL    HW227183   4.334   2.134  13.860  2.1201 -1.0370  3.1724
 5184SOL     OW27184   2.450   3.159   9.118 -0.2607 -0.1004 -0.2626
 5184SOL    HW127185   2.363   3.125   9.138 -0.8021  1.3546 -0.1218
 5184SOL    HW227186   2.451   3.161   9.023 -0.3973 -1.2125 -0.2887
 5185SOL     OW27187   4.604   0.121   5.747 -0.2358 -0.6088  0.2685
 5185SOL    HW127188   4.658   0.046   5.774 -2.5350 -2.3678 -0.0117
 5185SOL    HW227189   4.520   0.075   5.743  0.2350 -1.3358 -1.1442
 5186SOL     OW27190   4.190   4.722   8.185 -0.0490  0.5485 -0.4600
 5186SOL    HW127191   4.262   4.660   8.199 -1.1608 -0.1122  2.1337
 5186SOL    HW227192   4.135   4.684   8.117  0.7833 -0.2440 -0.6883
 5187SOL     OW27193   0.615   3.925   5.175 -0.5455  0.1146 -0.1871
 5187SOL    HW127194   0.634   3.995   5.237  1.0849 -0.1880 -0.3577
 5187SOL    HW227195   0.559   3.972   5.113  0.1012  1.8265  0.5314
 5188SOL     OW27196   1.834   3.942   7.455  0.3504  0.2879 -0.0040
 5188SOL    HW127197   1.811   3.961   7.364  0.4245 -0.3924 -0.1646
 5188SOL    HW227198   1.887   3.862   7.452  1.4269  1.0041 -0.2326
 5189SOL     OW27199   1.279   2.514   3.082  0.0601  0.3899 -0.0832
 5189SOL    HW127200   1.214   2.569   3.038 -0.0406 -0.0981 -0.5424
 5189SOL    HW227201   1.355   2.572   3.080 -0.8744  1.6558  1.0307
 5190SOL     OW27202   2.356   1.466   1.721 -0.4919 -0.2735  0.4712
 5190SOL    HW127203   2.378   1.530   1.788  1.9352  0.9894 -1.5168
 5190SOL    HW227204   2.292   1.505   1.661 -0.2111 -1.3677 -0.5368
 5191SOL     OW27205   2.945   2.017   9.743 -0.2926 -0.1797 -0.4048
 5191SOL    HW127206   2.896   2.035   9.824  0.3678  2.1682 -0.5446
 5191SOL    HW227207   3.039   2.016   9.761  0.0924  0.9195 -2.3269
 5192SOL     OW27208   1.659   1.842   5.648  0.2870  0.4322  0.5051
 5192SOL    HW127209   1.706   1.914   5.605 -0.2206  1.1360  1.1423
 5192SOL    HW227210   1.690   1.845   5.738 -0.0859 -0.2358  0.6563
 5193SOL     OW27211   0.824   1.397  16.317  0.8789 -0.0826 -0.2407
 5193SOL    HW127212   0.783   1.449  16.387  0.7330  2.9234 -2.5382
 5193SOL    HW227213   0.772   1.418  16.239 -1.2244 -1.4052  0.8146
 5194SOL     OW27214   0.191   1.417   9.446 -0.2715  0.8500  0.2891
 5194SOL    HW127215   0.204   1.478   9.373  0.3455 -0.4140 -0.6476
 5194SOL    HW227216   0.198   1.335   9.398 -1.6614  1.2995 -0.6644
 5195SOL     OW27217   0.948   3.478   0.081 -0.1762 -0.3807 -0.0979
 5195SOL    HW127218   0.996   3.551   0.119 -0.1322 -1.2161  1.4498
 5195SOL    HW227219   0.858   3.509   0.069 -0.3109  0.2796  2.6184
 5196SOL     OW27220   4.534   1.997  15.815  0.2935 -0.5247  0.4546
 5196SOL    HW127221   4.444   2.022  15.793 -0.1242  0.7190  3.5203
 5196SOL    HW227222   4.552   2.091  15.827 -0.3975 -0.3154 -0.1482
 5197SOL     OW27223   4.224   2.246  13.911 -0.2959  0.2404  0.6232
 5197SOL    HW127224   4.257   2.328  13.947  3.0450 -1.0997  0.5856
 5197SOL    HW227225   4.167   2.280  13.842  2.8557  1.6123 -1.2913
 5198SOL     OW27226   0.358   2.535   3.991 -0.0358 -0.2230  0.4084
 5198SOL    HW127227   0.453   2.529   3.983  0.0441  0.9289  0.6273
 5198SOL    HW227228   0.336   2.505   3.903  1.4758  0.1509 -0.0953
 5199SOL     OW27229   3.469   0.153   0.392 -0.6630 -0.4264 -0.4556
 5199SOL    HW127230   3.425   0.233   0.365  1.4395  0.3143 -1.6398
 5199SOL    HW227231   3.496   0.170   0.482 -0.1684  0.7908 -0.8389
 5200SOL     OW27232   3.060   2.050   3.533 -0.2858 -0.0967 -0.0933
 5200SOL    HW127233   2.979   2.054   3.482 -0.1843 -0.5715 -0.3010
 5200SOL    HW227234   3.024   2.062   3.621  0.6117 -1.9213  0.5458
 5201SOL     OW27235   3.052   0.677   8.826 -0.4001  0.4725 -0.3281
 5201SOL    HW127236   2.993   0.601   8.828  0.7660 -0.4906 -2.4222
 5201SOL    HW227237   3.003   0.731   8.887  2.0319  2.6611 -0.2949
 5202SOL     OW27238   2.863   4.588   8.789 -0.0048  0.1590 -0.4384
 5202SOL    HW127239   2.840   4.680   8.777 -0.8655  0.0929  0.6940
 5202SOL    HW227240   2.958   4.596   8.791  0.0759 -0.9303 -0.1891
 5203SOL     OW27241   3.919   2.221   3.311 -0.2156 -0.0275 -0.2063
 5203SOL    HW127242   3.873   2.272   3.378  2.5000  1.0261  0.8563
 5203SOL    HW227243   3.859   2.147   3.303  0.5456 -0.7577  1.0478
 5204SOL     OW27244   2.246   2.845   3.010 -0.2765  0.2559  0.4409
 5204SOL    HW127245   2.275   2.881   2.926  3.2404 -0.4743  1.3286
 5204SOL    HW227246   2.233   2.752   2.990  1.8442  0.3728 -1.5582
 5205SOL     OW27247   4.181   0.936   2.353 -0.3604 -0.8017 -0.9771
 5205SOL    HW127248   4.267   0.948   2.393 -1.1885  0.1384  0.5605
 5205SOL    HW227249   4.144   1.021   2.378  2.8148  0.0088  0.9702
 5206SOL     OW27250   1.258   1.495   6.113 -0.6999 -0.2784  0.6328
 5206SOL    HW127251   1.305   1.414   6.136 -0.1133  0.0703  0.6673
 5206SOL    HW227252   1.170   1.464   6.134 -0.3755 -0.6092  1.5220
 5207SOL     OW27253   0.616   4.061   2.269  0.3161  0.2249  0.0938
 5207SOL    HW127254   0.693   4.113   2.292  0.2289  0.4979 -0.2286
 5207SOL    HW227255   0.623   4.082   2.176 -2.1220  0.0480 -0.1202
 5208SOL     OW27256   2.973   1.974   4.672 -0.5574 -0.0423  0.3789
 5208SOL    HW127257   3.021   1.907   4.624  0.6091  0.0609  1.3789
 5208SOL    HW227258   3.024   2.053   4.654  0.2028 -0.4040  0.9028
 5209SOL     OW27259   2.354   1.752   3.425  0.2835  0.2142 -0.0282
 5209SOL    HW127260   2.396   1.690   3.366 -1.1922  0.2764 -1.1487
 5209SOL    HW227261   2.346   1.821   3.360 -2.9245  0.2014  0.3260
 5210SOL     OW27262   0.676   0.859   1.359  0.0508  0.0651  0.3525
 5210SOL    HW127263   0.693   0.795   1.289  0.6901 -0.1494  0.7074
 5210SOL    HW227264   0.748   0.921   1.352  1.5509 -1.5158  1.9251
 5211SOL     OW27265   0.273   2.980   5.049 -0.6144 -0.0002 -0.2582
 5211SOL    HW127266   0.344   2.965   5.112 -0.1553 -0.0443 -0.7849
 5211SOL    HW227267   0.318   2.968   4.965  0.6389  0.2307  0.3847
 5212SOL     OW27268   3.985   1.819  11.458  0.1366  0.3155 -0.4640
 5212SOL    HW127269   4.022   1.741  11.500  2.0384  2.0064  0.9652
 5212SOL    HW227270   3.891   1.798  11.466  0.0264  0.3325 -1.6376
 5213SOL     OW27271   4.630   4.697  15.999 -0.4869 -0.2076  0.6468
 5213SOL    HW127272   4.588   0.037  15.966  1.1493  0.0754 -0.7558
 5213SOL    HW227273   4.721   4.718  15.980 -0.4196 -0.6951  0.4340
 5214SOL     OW27274   3.749   2.885   6.613 -0.0617 -0.4414  0.2750
 5214SOL    HW127275   3.672   2.854   6.566 -0.8172  2.0785 -0.1402
 5214SOL    HW227276   3.756   2.978   6.591  0.5578 -0.6551 -0.4412
 5215SOL     OW27277   1.955   1.638   5.800 -0.2128 -0.6198 -0.0259
 5215SOL    HW127278   1.881   1.680   5.756  0.2893 -1.1927 -1.4121
 5215SOL    HW227279   2.008   1.712   5.828 -0.8603 -0.4822  0.8275
 5216SOL     OW27280   1.520   3.604   8.513 -0.3538  0.0213 -0.1024
 5216SOL    HW127281   1.538   3.513   8.538  1.7804  0.0081 -1.6678
 5216SOL    HW227282   1.601   3.651   8.536  0.0831 -1.9569  2.5285
 5217SOL     OW27283   4.143   3.028   2.315 -0.3024 -0.2347 -0.1608
 5217SOL    HW127284   4.182   3.050   2.400 -0.3580  1.3024 -0.5423
 5217SOL    HW227285   4.147   3.113   2.271 -1.0490 -0.6227 -0.9825
 5218SOL     OW27286   3.572   4.408  11.692  0.3395  0.1123 -0.1617
 5218SOL    HW127287   3.651   4.462  11.691 -0.4905  1.3395  1.6720
 5218SOL    HW227288   3.522   4.444  11.619  0.4857 -0.9372 -0.7844
 5219SOL     OW27289   3.424   2.746   1.883  0.1262  0.1888  0.7887
 5219SOL    HW127290   3.437   2.694   1.804 -1.8339 -3.2646  2.7646
 5219SOL    HW227291   3.496   2.710   1.935  1.6012  0.9978 -0.7111
 5220SOL     OW27292   3.643   1.009   2.712 -0.1219  0.0356  0.2273
 5220SOL    HW127293   3.708   0.941   2.693 -0.7717 -0.8803  1.2541
 5220SOL    HW227294   3.690   1.048   2.785 -0.8540 -1.9752  1.7881
 5221SOL     OW27295   3.531   3.407   2.237  0.2795  0.0807  0.2942
 5221SOL    HW127296   3.582   3.367   2.168 -0.6835 -1.7223  0.6227
 5221SOL    HW227297   3.547   3.346   2.309 -1.9861 -0.1834  0.5877
 5222SOL     OW27298   3.560   1.694   7.210 -0.3676 -0.3518  0.4351
 5222SOL    HW127299   3.541   1.784   7.238  2.4448  0.5745 -0.6329
 5222SOL    HW227300   3.493   1.684   7.142 -0.3462 -0.8851  0.4900
 5223SOL     OW27301   3.987   1.697   4.722 -0.0573  0.2934 -0.1391
 5223SOL    HW127302   4.057   1.662   4.667  1.5753  2.6829  0.4044
 5223SOL    HW227303   4.040   1.749   4.782  0.4345  0.8919 -1.0804
 5224SOL     OW27304   2.008   1.719   5.045 -0.3152 -0.1392 -0.3800
 5224SOL    HW127305   1.973   1.753   4.963  0.2027 -0.0268 -0.5567
 5224SOL    HW227306   2.053   1.793   5.087  3.0586 -1.8751 -0.9329
 5225SOL     OW27307   2.687   4.314   6.651  0.1983  0.2392 -0.5641
 5225SOL    HW127308   2.597   4.283   6.648  0.3352 -0.0127 -2.3781
 5225SOL    HW227309   2.679   4.403   6.685 -1.4803  0.0316 -0.4519
 5226SOL     OW27310   4.650   2.555  15.356 -0.0910 -0.2559 -0.0111
 5226SOL    HW127311   4.677   2.586  15.270 -0.1134  0.3138  0.1922
 5226SOL    HW227312   4.618   2.638  15.389  0.4353 -0.1337  0.1954
 5227SOL     OW27313   2.333   2.593   2.522 -0.5235 -0.1726  0.3254
 5227SOL    HW127314   2.378   2.653   2.463 -3.2659  2.5851  1.0303
 5227SOL    HW227315   2.313   2.662   2.586  1.3376  0.6943 -0.0141
 5228SOL     OW27316   0.346   4.028   4.585 -0.0702  0.0302  0.2030
 5228SOL    HW127317   0.412   4.072   4.639  0.1550 -0.1649  0.0917
 5228SOL    HW227318   0.266   4.079   4.597  0.2867  0.0972  2.2812
 5229SOL     OW27319   4.239   3.999   3.909  0.0996 -0.3835  0.6062
 5229SOL    HW127320   4.223   3.973   4.000  2.2262 -0.5121  0.9529
 5229SOL    HW227321   4.303   3.934   3.883  0.1839  0.8880 -2.3539
 5230SOL     OW27322   3.372   4.562   2.506  0.9082 -0.4169 -0.1448
 5230SOL    HW127323   3.454   4.588   2.549  1.1077  0.1270 -0.8466
 5230SOL    HW227324   3.374   4.467   2.517  0.4539 -0.2500  1.3753
 5231SOL     OW27325   4.396   0.446  13.822  0.0048  0.0771 -0.3914
 5231SOL    HW127326   4.319   0.392  13.838  0.9290 -0.8809  0.8502
 5231SOL    HW227327   4.367   0.498  13.747  0.0643  1.1392  0.3242
 5232SOL     OW27328   2.232   4.468   4.876 -0.4129 -0.2010 -0.7557
 5232SOL    HW127329   2.149   4.444   4.915 -0.0579 -0.4701 -0.1703
 5232SOL    HW227330   2.299   4.457   4.944  0.5841 -1.0355 -1.8591
 5233SOL     OW27331   1.768   4.697   2.372 -0.2351 -0.1917  0.0364
 5233SOL    HW127332   1.863   4.682   2.370 -0.4389 -1.2414 -1.2588
 5233SOL    HW227333   1.763   0.026   2.440  1.7084  0.7284 -0.7266
 5234SOL     OW27334   0.318   4.061   2.489 -0.0957 -0.3525 -0.4815
 5234SOL    HW127335   0.308   4.068   2.584 -0.2114 -3.1385 -0.3042
 5234SOL    HW227336   0.226   4.070   2.466 -0.2683 -0.0271  0.3411
 5235SOL     OW27337   3.305   1.737   2.261  0.6287 -0.1514  0.0915
 5235SOL    HW127338   3.307   1.731   2.356  0.4363 -2.5858 -0.0552
 5235SOL    HW227339   3.256   1.656   2.245  1.6743  0.0103 -3.9562
 5236SOL     OW27340   1.276   1.609   3.813 -0.4159 -0.1642  0.1557
 5236SOL    HW127341   1.242   1.601   3.724 -0.6597 -3.0043  0.4893
 5236SOL    HW227342   1.357   1.655   3.792 -2.2451  3.8171  1.8630
 5237SOL     OW27343   4.359   3.760  15.543 -0.1196  0.2347 -1.0646
 5237SOL    HW127344   4.336   3.845  15.504 -2.0107  1.2815  2.3448
 5237SOL    HW227345   4.378   3.784  15.634 -2.4309  0.7878 -0.7167
 5238SOL     OW27346   3.091   1.475   1.387  0.4185 -0.0316  0.3519
 5238SOL    HW127347   3.150   1.408   1.422 -0.6182 -0.6919  0.8450
 5238SOL    HW227348   3.153   1.544   1.364 -0.9559  0.9161 -0.5173
 5239SOL     OW27349   0.556   0.183  12.032  0.2066  0.1819  0.2405
 5239SOL    HW127350   0.597   0.130  12.101  1.6767  1.4809  0.3598
 5239SOL    HW227351   0.462   0.170  12.043  0.0033  1.3260 -0.1398
 5240SOL     OW27352   1.298   4.137   7.837  0.2303 -0.1346 -0.1045
 5240SOL    HW127353   1.349   4.163   7.914 -1.4902 -1.4201  1.4757
 5240SOL    HW227354   1.349   4.162   7.760 -2.4057  3.3511 -0.7323
 5241SOL     OW27355   2.602   4.675  12.801 -0.6650 -0.2353 -0.2411
 5241SOL    HW127356   2.535   4.607  12.808 -0.8885 -0.0124 -0.2329
 5241SOL    HW227357   2.610   4.699  12.709 -3.3787 -1.2587 -0.7621
 5242SOL     OW27358   2.271   1.993   6.942 -0.2640  0.0892  0.5558
 5242SOL    HW127359   2.339   2.008   6.876 -0.0147  0.2968  0.8631
 5242SOL    HW227360   2.240   1.912   6.903 -3.4099  2.7090 -2.4642
 5243SOL     OW27361   1.139   4.170   5.261 -0.3150 -0.7790  0.3187
 5243SOL    HW127362   1.075   4.126   5.206  1.4746 -3.2280  0.1974
 5243SOL    HW227363   1.105   4.152   5.349 -0.1528  0.5751  0.6574
 5244SOL     OW27364   1.278   1.774   1.208  0.6224  0.1184 -0.1477
 5244SOL    HW127365   1.333   1.708   1.251  0.6807 -0.6477 -1.4062
 5244SOL    HW227366   1.341   1.842   1.183  0.3784  0.9283  1.4377
 5245SOL     OW27367   3.286   3.259   1.412 -0.5890  0.1112 -0.5918
 5245SOL    HW127368   3.341   3.330   1.379 -0.5880  0.5358  0.3071
 5245SOL    HW227369   3.199   3.281   1.377 -0.1185  1.4046 -0.9584
 5246SOL     OW27370   0.028   0.732   2.066 -0.5556 -0.3267  0.0122
 5246SOL    HW127371   0.030   0.814   2.115  0.6810 -0.1269 -0.3946
 5246SOL    HW227372   4.686   0.688   2.095 -1.3186  0.3598 -1.0584
 5247SOL     OW27373   0.775   1.410   4.480  0.2189 -0.8420 -0.1684
 5247SOL    HW127374   0.723   1.408   4.399 -0.3254 -0.3073  0.1645
 5247SOL    HW227375   0.813   1.497   4.468 -0.9113 -0.3318 -0.0236
 5248SOL     OW27376   3.193   3.042   0.924 -0.1924  0.3863  0.6422
 5248SOL    HW127377   3.239   3.102   0.983  2.5133 -1.1624  0.1006
 5248SOL    HW227378   3.112   3.024   0.974 -2.4849 -1.3034 -3.7069
 5249SOL     OW27379   4.413   0.519  15.923  0.0286 -0.7319 -1.1760
 5249SOL    HW127380   4.321   0.532  15.903 -0.1243 -0.7923 -0.5209
 5249SOL    HW227381   4.405   0.457  15.996  0.0336  0.4878 -0.1429
 5250SOL     OW27382   4.578   1.636   5.812 -1.0472  0.2240  0.3460
 5250SOL    HW127383   4.661   1.675   5.786  1.2082 -4.0474  1.1062
 5250SOL    HW227384   4.565   1.689   5.890 -1.4430 -0.4237  0.7192
 5251SOL     OW27385   1.145   4.266   7.271 -0.0641 -0.3801  0.4329
 5251SOL    HW127386   1.092   4.197   7.312 -0.0472  0.3724  1.7223
 5251SOL    HW227387   1.073   4.328   7.284  0.3231 -0.2267  1.8666
 5252SOL     OW27388   1.755   4.278   3.135 -0.9864  0.2492  0.5516
 5252SOL    HW127389   1.727   4.210   3.196 -2.5664 -1.0821 -1.6468
 5252SOL    HW227390   1.720   4.353   3.183  1.7916  1.5916  0.4570
 5253SOL     OW27391   1.240   3.248   4.478  0.3584  0.3509 -0.6053
 5253SOL    HW127392   1.260   3.280   4.390 -1.4519 -3.1926 -2.2956
 5253SOL    HW227393   1.247   3.323   4.538 -1.0694 -0.5342  0.6803
 5254SOL     OW27394   2.754   4.120   3.812 -0.9260  0.7135  0.3938
 5254SOL    HW127395   2.700   4.136   3.734 -0.7838  2.2439  0.5931
 5254SOL    HW227396   2.789   4.034   3.791  1.0406  0.8592  2.9847
 5255SOL     OW27397   0.298   0.304   5.055 -0.0217  0.2446 -0.0966
 5255SOL    HW127398   0.206   0.318   5.074  0.0458  1.0274 -0.3155
 5255SOL    HW227399   0.298   0.317   4.960 -2.4677 -0.4860 -0.1983
 5256SOL     OW27400   0.335   0.559  12.429 -0.3082 -0.2485  0.4219
 5256SOL    HW127401   0.265   0.503  12.463 -2.2664  1.3264 -1.0554
 5256SOL    HW227402   0.410   0.536  12.484  0.6588  2.1288  0.1160
 5257SOL     OW27403   0.426   3.322   6.344  0.1792 -0.1507  0.1408
 5257SOL    HW127404   0.519   3.307   6.359 -0.2570 -3.9636 -1.0513
 5257SOL    HW227405   0.386   3.251   6.394 -2.3777  0.4660 -1.0318
 5258SOL     OW27406   2.448   0.876   4.740  0.0960  0.3611  0.3159
 5258SOL    HW127407   2.356   0.887   4.762 -0.0921 -0.8139  0.0854
 5258SOL    HW227408   2.479   0.966   4.734  0.0282  0.4259  0.9382
 5259SOL     OW27409   1.350   2.645   1.680  0.2427 -0.2416 -0.6882
 5259SOL    HW127410   1.411   2.716   1.662  1.0469 -0.7693 -0.0136
 5259SOL    HW227411   1.356   2.647   1.776  1.3871 -1.1924 -0.7469
 5260SOL     OW27412   1.148   0.888  11.487  0.3063 -0.3033  0.4185
 5260SOL    HW127413   1.237   0.853  11.486  1.4908  2.7453 -0.6671
 5260SOL    HW227414   1.115   0.837  11.413 -1.0939  3.9070 -1.8603
 5261SOL     OW27415   2.950   0.107   3.887 -0.6092 -0.7105  0.1072
 5261SOL    HW127416   2.961   0.058   3.805  1.1480  1.0515 -0.7092
 5261SOL    HW227417   3.027   0.163   3.875 -1.9491  1.0045 -0.3899
 5262SOL     OW27418   2.732   2.742  10.016 -0.2648 -0.1538 -0.1400
 5262SOL    HW127419   2.640   2.760   9.997  0.5483  2.6774 -1.4954
 5262SOL    HW227420   2.775   2.808   9.962  2.2958 -0.7225  1.2119
 5263SOL     OW27421   3.602   0.919   8.498  0.6099  0.2578  0.0014
 5263SOL    HW127422   3.661   0.904   8.572  0.6837 -1.0716 -0.3250
 5263SOL    HW227423   3.526   0.955   8.544 -0.5788 -2.8435  0.4501
 5264SOL     OW27424   2.179   0.575  11.257  0.2343  0.1095 -0.2657
 5264SOL    HW127425   2.208   0.600  11.169 -0.3316  0.1284 -0.4478
 5264SOL    HW227426   2.126   0.499  11.229 -0.4751  0.5841 -0.2154
 5265SOL     OW27427   3.812   1.518  10.763  0.3652 -0.1093 -0.6406
 5265SOL    HW127428   3.795   1.571  10.685  0.9244 -2.2453 -2.1970
 5265SOL    HW227429   3.906   1.534  10.767  0.3236  0.0729 -0.3959
 5266SOL     OW27430   3.635   1.084   6.806  0.2347  0.1084  0.2697
 5266SOL    HW127431   3.606   1.093   6.896 -1.0605 -0.0585 -0.1264
 5266SOL    HW227432   3.726   1.064   6.828  0.3968  1.6267  0.9584
 5267SOL     OW27433   4.667   1.538   2.044  0.1047  0.2082  0.5387
 5267SOL    HW127434   4.690   1.630   2.058 -0.0778  0.0203  2.0207
 5267SOL    HW227435   4.657   1.507   2.134 -3.1191 -4.1444 -1.3145
 5268SOL     OW27436   4.159   1.995  14.766 -0.2937  0.0296 -0.1006
 5268SOL    HW127437   4.073   1.993  14.724  0.3800 -1.2689 -1.4193
 5268SOL    HW227438   4.205   2.065  14.719 -0.2535 -0.0936 -0.2424
 5269SOL     OW27439   4.323   0.319   2.068  0.0557  0.0774  0.1123
 5269SOL    HW127440   4.411   0.353   2.086 -0.4685  2.0575 -1.0453
 5269SOL    HW227441   4.273   0.395   2.098 -0.2960 -0.5441  1.0810
 5270SOL     OW27442   1.125   1.516   9.787 -0.2996  0.0328 -0.1274
 5270SOL    HW127443   1.167   1.529   9.702  0.3034  0.6218  0.2643
 5270SOL    HW227444   1.184   1.444   9.807 -0.6881 -0.4036 -0.5439
 5271SOL     OW27445   0.070   3.023  12.857  0.0680 -0.0651 -0.3219
 5271SOL    HW127446   0.016   2.946  12.871 -0.9407  0.8603  0.9033
 5271SOL    HW227447   0.040   3.083  12.925  2.7040 -1.5779  2.1458
 5272SOL     OW27448   1.685   4.581  12.803 -0.8088  0.3050 -0.0212
 5272SOL    HW127449   1.715   4.540  12.722  1.7579 -1.0096  1.5994
 5272SOL    HW227450   1.765   4.560  12.852 -0.6997  0.4183 -0.1502
 5273SOL     OW27451   4.373   0.403   6.646  0.1487 -0.5596 -0.1076
 5273SOL    HW127452   4.393   0.315   6.677 -0.7904 -0.2126  1.4785
 5273SOL    HW227453   4.309   0.421   6.715 -0.2990  2.7286 -1.3635
 5274SOL     OW27454   3.117   2.120   5.127 -0.1720 -0.0444  0.4619
 5274SOL    HW127455   3.084   2.046   5.077 -1.3546  1.3718 -0.8851
 5274SOL    HW227456   3.112   2.196   5.068 -2.0487 -1.1418 -0.7805
 5275SOL     OW27457   2.139   3.538   5.489  0.2821  0.2958 -0.0830
 5275SOL    HW127458   2.044   3.531   5.488  0.1628  2.1242 -2.3354
 5275SOL    HW227459   2.157   3.610   5.429 -0.8108 -0.1679 -0.9583
 5276SOL     OW27460   0.306   0.258   2.158  0.3658  0.2908 -0.5955
 5276SOL    HW127461   0.363   0.331   2.183  0.0529  0.6914 -1.0592
 5276SOL    HW227462   0.333   0.196   2.226 -0.5055  1.0218  0.4271
 5277SOL     OW27463   4.142   2.858   6.560 -0.3397 -0.1694  0.5979
 5277SOL    HW127464   4.057   2.823   6.534 -0.5440 -0.6810  1.9401
 5277SOL    HW227465   4.168   2.910   6.484  0.3200  0.1315  1.0266
 5278SOL     OW27466   3.615   1.864   9.095 -0.3394 -0.4900 -0.0635
 5278SOL    HW127467   3.591   1.916   9.018  3.3631  0.0826 -0.8417
 5278SOL    HW227468   3.701   1.893   9.125 -0.6090 -1.8415  1.9865
 5279SOL     OW27469   3.233   2.716  16.062 -0.1487  0.5988  0.1868
 5279SOL    HW127470   3.147   2.737  16.025 -0.7370 -0.5219  0.9222
 5279SOL    HW227471   3.289   2.767  16.004  0.6983 -1.3948 -0.7356
 5280SOL     OW27472   0.789   3.576   3.825 -0.1973  0.3214  0.2811
 5280SOL    HW127473   0.813   3.489   3.792 -2.3595 -0.4418  0.7487
 5280SOL    HW227474   0.694   3.583   3.814 -0.1940 -1.7431 -1.1341
 5281SOL     OW27475   0.688   1.185   5.924 -0.0016  0.4548 -0.3441
 5281SOL    HW127476   0.734   1.237   5.859  0.7542 -0.6410 -0.6841
 5281SOL    HW227477   0.629   1.125   5.877 -0.6069  0.6899  0.1107
 5282SOL     OW27478   3.398   2.103   6.033 -0.4366  0.0530  0.4272
 5282SOL    HW127479   3.403   2.007   6.038  1.6986  0.2362  2.0984
 5282SOL    HW227480   3.419   2.141   6.118  1.3583  0.7427 -0.3064
 5283SOL     OW27481   2.910   3.743   6.880 -0.2489 -0.2650  0.0824
 5283SOL    HW127482   2.835   3.702   6.923 -1.0080  0.2507 -0.7532
 5283SOL    HW227483   2.960   3.673   6.839 -0.1221  0.1999 -0.5492
 5284SOL     OW27484   0.628   1.179   4.491  0.1046  0.0794 -0.0168
 5284SOL    HW127485   0.700   1.241   4.500 -0.8049  1.3289 -1.3860
 5284SOL    HW227486   0.672   1.094   4.497  1.6042  0.8524 -0.3210
 5285SOL     OW27487   0.434   2.478  14.530  0.0501 -0.4008 -0.8625
 5285SOL    HW127488   0.355   2.517  14.566 -0.2945 -2.3179  0.4483
 5285SOL    HW227489   0.498   2.485  14.600 -0.6443  0.0167 -0.2756
 5286SOL     OW27490   0.690   2.294   4.181  0.0156 -0.3493  0.1671
 5286SOL    HW127491   0.672   2.303   4.087 -1.3123 -1.1475  0.3472
 5286SOL    HW227492   0.644   2.212   4.198 -0.2111 -0.8558 -2.8490
 5287SOL     OW27493   3.118   3.938   7.069  0.0957  0.0846  0.2946
 5287SOL    HW127494   3.163   3.869   7.021  3.5474  0.6450  2.6785
 5287SOL    HW227495   3.078   3.995   7.004 -2.1874 -0.8674  0.8619
 5288SOL     OW27496   0.596   3.232   6.873 -0.1523  0.3383 -0.5578
 5288SOL    HW127497   0.583   3.288   6.949 -0.1823  0.9876 -1.0471
 5288SOL    HW227498   0.514   3.255   6.830 -0.9837 -1.8703 -0.1743
 5289SOL     OW27499   0.745   0.536   8.827 -0.1688  0.2368  0.4913
 5289SOL    HW127500   0.835   0.570   8.833 -0.1952  1.1007 -3.8596
 5289SOL    HW227501   0.741   0.520   8.733 -0.3458  0.2189  0.5019
 5290SOL     OW27502   1.172   2.450   8.517  0.5648 -0.0128 -0.2195
 5290SOL    HW127503   1.203   2.525   8.467  0.2545  0.7444  0.7246
 5290SOL    HW227504   1.192   2.375   8.460 -0.6626 -1.6825  1.5593
 5291SOL     OW27505   0.279   0.236  12.701  0.3589 -0.3939 -0.8537
 5291SOL    HW127506   0.188   0.232  12.733  0.7569  1.0854  0.4966
 5291SOL    HW227507   0.283   0.332  12.703  0.6037 -0.4715  1.8256
 5292SOL     OW27508   4.018   3.975   0.981 -0.2126  0.0653  0.8986
 5292SOL    HW127509   4.049   4.037   1.047  0.9577  0.3273  0.1027
 5292SOL    HW227510   4.076   3.900   0.990 -1.6453 -1.1974 -0.2742
 5293SOL     OW27511   1.892   4.382   2.796  0.2296  0.2849 -0.2256
 5293SOL    HW127512   1.923   4.426   2.875 -2.1335  0.1460  0.7667
 5293SOL    HW227513   1.963   4.411   2.738  1.1807 -1.2107  0.1903
 5294SOL     OW27514   1.028   3.191   6.748  0.3551  0.2019 -0.5613
 5294SOL    HW127515   0.968   3.192   6.673  0.7373 -0.1920 -0.8761
 5294SOL    HW227516   1.097   3.246   6.712 -1.4058  1.0095 -2.7327
 5295SOL     OW27517   3.193   1.260   8.507  0.1310  0.0747 -0.0352
 5295SOL    HW127518   3.155   1.228   8.588 -1.1840  0.1555 -0.6228
 5295SOL    HW227519   3.163   1.351   8.510 -0.5851 -0.1922  0.6163
 5296SOL     OW27520   0.543   2.333  15.243 -0.1491  0.1626 -0.3697
 5296SOL    HW127521   0.522   2.417  15.283 -1.3268 -1.5353  2.5844
 5296SOL    HW227522   0.478   2.278  15.286 -0.5226  1.0263  0.1705
 5297SOL     OW27523   0.766   0.755   2.580 -0.0020  0.2094 -1.0090
 5297SOL    HW127524   0.782   0.681   2.638 -0.5127  0.9104  0.0205
 5297SOL    HW227525   0.848   0.764   2.531  1.2781 -2.0318  0.7992
 5298SOL     OW27526   2.723   1.904   6.485 -0.2651  0.4853  0.1545
 5298SOL    HW127527   2.812   1.898   6.450 -0.1454  0.9923  0.3558
 5298SOL    HW227528   2.717   1.995   6.456  3.3412  1.0681  1.2274
 5299SOL     OW27529   1.815   0.061  13.542 -0.1234  0.3258  0.5477
 5299SOL    HW127530   1.905   0.065  13.573  0.6052  1.0708 -1.6096
 5299SOL    HW227531   1.785   4.711  13.562  1.5767 -0.6610 -1.2596
 5300SOL     OW27532   3.253   2.668   3.050 -0.3878 -0.5292  0.2226
 5300SOL    HW127533   3.283   2.716   3.127  0.5550  0.0235 -0.4918
 5300SOL    HW227534   3.240   2.736   2.983 -0.9593  0.1654  1.0306
 5301SOL     OW27535   4.669   4.202   8.176 -0.0333  0.4186 -0.3545
 5301SOL    HW127536   0.010   4.150   8.170  1.1204  2.0063  1.3885
 5301SOL    HW227537   4.702   4.290   8.194  1.7245 -0.3202  0.0600
 5302SOL     OW27538   1.472   1.100   6.787 -0.2181 -0.0242 -0.1453
 5302SOL    HW127539   1.564   1.121   6.774 -0.1028  0.8063  2.0050
 5302SOL    HW227540   1.427   1.179   6.816  1.1434  0.2907  1.1162
 5303SOL     OW27541   0.750   1.164   3.685 -0.1528 -0.1595 -0.3523
 5303SOL    HW127542   0.782   1.163   3.775 -0.5113  1.7204 -0.2040
 5303SOL    HW227543   0.829   1.164   3.631 -0.6861 -1.5864 -1.1274
 5304SOL     OW27544   3.174   1.351   1.867  0.4012  0.0631  0.7206
 5304SOL    HW127545   3.185   1.309   1.782 -2.7561  1.3585 -0.3289
 5304SOL    HW227546   3.250   1.316   1.915  0.0957  1.4759  2.2678
 5305SOL     OW27547   0.612   4.043  11.715  0.1778 -0.2608 -0.3493
 5305SOL    HW127548   0.699   4.008  11.738  0.7051  0.6042 -1.0272
 5305SOL    HW227549   0.627   4.073  11.626  1.4549  0.6702  0.1740
 5306SOL     OW27550   4.721   3.694   5.345  0.9494 -0.8675  0.2016
 5306SOL    HW127551   0.013   3.622   5.400  0.5421  0.5412  2.2618
 5306SOL    HW227552   4.626   3.685   5.351  1.0536 -2.1568  0.0036
 5307SOL     OW27553   2.720   1.734   7.700  0.1409  0.1194  0.4061
 5307SOL    HW127554   2.661   1.804   7.729 -0.5260  0.4851 -1.9044
 5307SOL    HW227555   2.747   1.710   7.789 -2.7416  0.5243  1.3708
 5308SOL     OW27556   1.849   1.042   8.109  0.0285 -0.1248 -0.0375
 5308SOL    HW127557   1.771   1.073   8.062  0.8427 -0.1998 -1.4526
 5308SOL    HW227558   1.922   1.077   8.058  0.8775 -1.4442  0.2999
 5309SOL     OW27559   1.186   4.230  15.737  0.6410 -0.9860 -0.1490
 5309SOL    HW127560   1.129   4.169  15.784 -0.9766 -0.7424 -1.8065
 5309SOL    HW227561   1.182   4.301  15.802 -0.4107 -0.9785 -0.2168
 5310SOL     OW27562   3.949   0.665   3.801  0.8392  0.5180 -0.3320
 5310SOL    HW127563   4.014   0.644   3.734  0.0708  0.4102 -1.0404
 5310SOL    HW227564   3.932   0.575   3.828  3.2539  0.4377  0.9767
 5311SOL     OW27565   0.529   4.011   1.495  0.1846 -0.3297  0.2096
 5311SOL    HW127566   0.502   4.030   1.405  0.2435 -0.3607  0.1852
 5311SOL    HW227567   0.480   3.929   1.509  0.8117 -0.9621 -1.2933
 5312SOL     OW27568   0.482   2.155   5.449  0.3894 -0.1336 -0.3681
 5312SOL    HW127569   0.498   2.073   5.403  0.1806  0.0850 -0.8300
 5312SOL    HW227570   0.521   2.134   5.534  0.6550 -0.4595 -0.5718
 5313SOL     OW27571   2.439   3.763   6.414 -0.0448  0.2727  0.4023
 5313SOL    HW127572   2.467   3.682   6.457  1.4402  0.4149 -0.2772
 5313SOL    HW227573   2.381   3.802   6.480  0.2321  2.9860 -0.9578
 5314SOL     OW27574   0.420   3.339   9.346 -1.3071 -0.8830  0.0859
 5314SOL    HW127575   0.430   3.263   9.288 -2.2266 -0.4033 -0.7084
 5314SOL    HW227576   0.391   3.401   9.280 -1.7022  0.6967  1.7512
 5315SOL     OW27577   2.572   2.413   0.740  0.0538  0.5167  0.2306
 5315SOL    HW127578   2.626   2.470   0.685  0.2649  0.4913  0.4116
 5315SOL    HW227579   2.518   2.375   0.671  1.7399 -0.7437 -0.3989
 5316SOL     OW27580   2.809   3.087   9.387 -0.1385 -0.4590 -0.0841
 5316SOL    HW127581   2.856   3.144   9.327  2.5273 -0.4931  1.9860
 5316SOL    HW227582   2.722   3.126   9.380 -0.3467 -0.8895  0.0883
 5317SOL     OW27583   4.126   1.205  11.917 -0.1353  0.1949 -0.2072
 5317SOL    HW127584   4.213   1.239  11.939 -0.7481  1.4227  0.3230
 5317SOL    HW227585   4.098   1.222  12.007  0.7490  0.8682 -0.0549
 5318SOL     OW27586   4.533   0.924   5.609 -0.1171  0.1117  0.4188
 5318SOL    HW127587   4.520   0.927   5.514  0.4553 -1.3687  0.2937
 5318SOL    HW227588   4.615   0.874   5.614  0.0074  0.2293 -0.3656
 5319SOL     OW27589   4.023   2.213   6.838 -0.5789 -0.4609 -0.6399
 5319SOL    HW127590   3.974   2.131   6.831 -3.3209  0.8685  2.5953
 5319SOL    HW227591   3.957   2.279   6.861 -1.2608 -0.9590 -1.1765
 5320SOL     OW27592   2.314   2.874   7.022 -0.3295 -0.0735  0.1167
 5320SOL    HW127593   2.299   2.809   6.953  1.0476 -0.7097  0.4206
 5320SOL    HW227594   2.311   2.818   7.099 -0.5774  0.5670  0.5698
 5321SOL     OW27595   3.772   2.283   4.872 -0.2544  0.3887 -0.2712
 5321SOL    HW127596   3.772   2.379   4.867  0.9937  0.3951 -0.1486
 5321SOL    HW227597   3.679   2.276   4.852 -0.4417 -0.5168  0.9090
 5322SOL     OW27598   1.609   0.985   2.418  0.2886  0.0934 -0.5091
 5322SOL    HW127599   1.682   1.021   2.367 -1.0728 -0.9961 -3.1945
 5322SOL    HW227600   1.547   0.966   2.348  1.7863 -0.6071 -1.6554
 5323SOL     OW27601   0.858   2.191   5.399  0.0958 -0.5483  0.1000
 5323SOL    HW127602   0.866   2.106   5.355 -2.3427 -0.9224  0.4016
 5323SOL    HW227603   0.783   2.221   5.348  0.0094  0.8388  1.0428
 5324SOL     OW27604   3.019   4.573   1.586  0.0188  0.2231 -0.0413
 5324SOL    HW127605   3.081   4.635   1.548  0.4847  0.8627  1.7765
 5324SOL    HW227606   3.004   4.511   1.515  0.5876  0.4068 -0.3208
 5325SOL     OW27607   0.896   3.777   8.148 -0.5331  0.6888  0.6508
 5325SOL    HW127608   0.869   3.700   8.098 -1.5872 -0.0218  2.3169
 5325SOL    HW227609   0.934   3.748   8.231  2.0767  2.7723  0.2155
 5326SOL     OW27610   1.869   4.164   5.312  0.1162  0.4071  0.5795
 5326SOL    HW127611   1.889   4.165   5.406  2.9491 -0.1616 -0.0197
 5326SOL    HW227612   1.945   4.210   5.276 -0.4390  0.8982  0.0441
 5327SOL     OW27613   0.102   0.510   8.428 -0.1936  0.3322  0.1681
 5327SOL    HW127614   0.105   0.574   8.499 -0.4635 -0.7092  1.1141
 5327SOL    HW227615   0.195   0.491   8.415 -0.9875 -1.7189 -2.6101
 5328SOL     OW27616   3.623   3.022   7.082  0.6808 -0.2401  0.1557
 5328SOL    HW127617   3.548   2.971   7.114  1.1831 -1.3046 -0.3705
 5328SOL    HW227618   3.587   3.065   7.004 -0.7210 -0.2594  0.7774
 5329SOL     OW27619   0.333   4.099  12.739  0.0509 -0.2928  0.5126
 5329SOL    HW127620   0.241   4.125  12.730  0.6979  2.5528  2.2710
 5329SOL    HW227621   0.309   4.053  12.819 -0.6827 -0.5691  0.1334
 5330SOL     OW27622   1.709   4.175   1.914 -0.6123  0.7197  0.0044
 5330SOL    HW127623   1.706   4.154   1.821 -1.5593  1.8482 -0.2192
 5330SOL    HW227624   1.661   4.258   1.915  0.6332  1.4223  1.5182
 5331SOL     OW27625   4.202   3.583   8.653 -0.2589 -0.9176 -0.2794
 5331SOL    HW127626   4.186   3.519   8.583 -1.0598 -2.7556  1.6113
 5331SOL    HW227627   4.136   3.649   8.634  0.8187  0.2856  0.1846
 5332SOL     OW27628   4.515   2.022   6.980  0.0935 -0.0859 -0.0662
 5332SOL    HW127629   4.533   2.102   7.029  0.4888 -0.9489  1.1967
 5332SOL    HW227630   4.420   2.008   6.984  0.1514 -1.2477 -2.3970
 5333SOL     OW27631   3.384   1.713   8.127 -0.1328  0.6002 -0.2307
 5333SOL    HW127632   3.375   1.707   8.222  2.2421  1.5533  0.0570
 5333SOL    HW227633   3.408   1.623   8.106 -0.8947  0.4185 -0.2941
 5334SOL     OW27634   2.364   4.523   4.169  0.3481  0.3438 -0.3933
 5334SOL    HW127635   2.374   4.504   4.076 -1.5675  0.0652 -0.5471
 5334SOL    HW227636   2.327   4.443   4.205  0.5310  1.0717  1.4419
 5335SOL     OW27637   2.459   3.445   5.072  0.1366  0.2097  0.1889
 5335SOL    HW127638   2.494   3.372   5.122  0.0666  0.0925  0.0675
 5335SOL    HW227639   2.537   3.470   5.022 -1.9687 -0.3219 -3.4287
 5336SOL     OW27640   0.450   2.912  17.420  0.7486  0.5970  1.1197
 5336SOL    HW127641   0.426   2.830  17.378 -0.5503  2.0312 -0.9134
 5336SOL    HW227642   0.431   2.974  17.350  1.3339 -0.6195 -0.1238
 5337SOL     OW27643   4.510   2.246   7.126  0.1633  0.5347  0.5682
 5337SOL    HW127644   4.453   2.303   7.074 -0.3832 -0.4326  0.1142
 5337SOL    HW227645   4.457   2.230   7.204 -0.1363 -1.9040 -0.1273
 5338SOL     OW27646   2.696   3.341  14.549 -0.2422  0.6349 -0.0960
 5338SOL    HW127647   2.626   3.380  14.602  0.1948  1.1413  0.1108
 5338SOL    HW227648   2.764   3.409  14.545 -0.4514  0.8864  0.6093
 5339SOL     OW27649   4.113   4.464   4.247  0.4513  0.2727 -0.5815
 5339SOL    HW127650   4.121   4.372   4.274  0.6436  0.9665  1.6358
 5339SOL    HW227651   4.203   4.496   4.254  0.1509  1.3786 -1.7636
 5340SOL     OW27652   0.197   2.687  12.931  0.2943  0.0624  0.0088
 5340SOL    HW127653   0.181   2.617  12.994 -3.0560  0.7791 -0.0223
 5340SOL    HW227654   0.206   2.760  12.991  2.9376  0.6034 -1.0380
 5341SOL     OW27655   0.464   1.602   3.244  0.1679  0.0451  0.1370
 5341SOL    HW127656   0.476   1.510   3.221 -0.5434 -0.1610  0.5626
 5341SOL    HW227657   0.549   1.639   3.222  0.3074  0.0663  0.7194
 5342SOL     OW27658   0.734   1.497   8.827  0.5117 -0.0974  0.7363
 5342SOL    HW127659   0.817   1.538   8.802  1.0286  0.5627  3.5427
 5342SOL    HW227660   0.723   1.548   8.908 -0.2424  0.8319  0.0520
 5343SOL     OW27661   4.604   0.889   3.269  0.2801 -0.3565  0.5325
 5343SOL    HW127662   4.676   0.840   3.230  0.4350 -0.1409  0.5491
 5343SOL    HW227663   4.602   0.857   3.359 -1.8147  2.4612  1.4944
 5344SOL     OW27664   2.789   2.284   1.833  0.4422  0.6033  0.3064
 5344SOL    HW127665   2.777   2.366   1.785  0.1606 -1.4349 -3.1040
 5344SOL    HW227666   2.698   2.254   1.829 -0.1728  2.4546  0.6584
 5345SOL     OW27667   2.128   3.068   7.395  0.3305  0.3789  0.5109
 5345SOL    HW127668   2.130   3.149   7.446  4.3419  0.1896  0.7017
 5345SOL    HW227669   2.076   3.098   7.320  1.0778  0.3520 -0.0237
 5346SOL     OW27670   2.504   3.890  12.270  0.6922  0.1772 -0.0019
 5346SOL    HW127671   2.573   3.842  12.225 -0.5328 -2.1559  0.5942
 5346SOL    HW227672   2.442   3.823  12.299  1.0327 -0.3166 -0.4127
 5347SOL     OW27673   0.719   3.937   7.214 -0.7964 -0.1568 -0.2143
 5347SOL    HW127674   0.631   3.946   7.250 -0.7214 -0.5947  0.0771
 5347SOL    HW227675   0.777   3.912   7.286 -1.6381 -0.6113  0.3000
 5348SOL     OW27676   1.998   4.464  15.836 -0.2362  0.0873 -0.3783
 5348SOL    HW127677   1.935   4.479  15.765  1.8038  0.5565 -2.0940
 5348SOL    HW227678   2.076   4.497  15.792  0.2323 -2.7000 -1.6675
 5349SOL     OW27679   1.089   1.619   5.792 -0.2925 -0.8219 -0.7987
 5349SOL    HW127680   1.107   1.699   5.841 -1.1122  0.0443 -1.9336
 5349SOL    HW227681   1.083   1.551   5.860 -0.4562  0.4100  0.4074
 5350SOL     OW27682   2.787   1.451   1.338  0.2451  0.1817  0.3883
 5350SOL    HW127683   2.798   1.358   1.318  0.4847  0.0472  1.1524
 5350SOL    HW227684   2.880   1.471   1.343  0.1212  0.7253  0.4513
 5351SOL     OW27685   0.936   4.666   4.491 -0.3995 -0.2820  0.2810
 5351SOL    HW127686   0.966   4.597   4.551 -0.6408 -1.8337 -1.3663
 5351SOL    HW227687   1.024   4.691   4.464 -1.0308 -0.2559 -1.7175
 5352SOL     OW27688   3.188   3.105   7.800  0.5673 -0.1381 -0.1579
 5352SOL    HW127689   3.146   3.185   7.832  0.4675  0.6948 -2.4266
 5352SOL    HW227690   3.131   3.046   7.850  2.0752  1.6121  3.6828
 5353SOL     OW27691   2.733   3.578   4.380 -0.4027 -0.1369 -0.1968
 5353SOL    HW127692   2.791   3.654   4.371  0.1439 -0.6304 -0.8857
 5353SOL    HW227693   2.788   3.512   4.338 -0.6974 -1.7273  1.9443
 5354SOL     OW27694   3.740   2.671   1.554  0.3513  0.5184  0.3328
 5354SOL    HW127695   3.798   2.658   1.480 -3.0374 -2.6895 -1.7148
 5354SOL    HW227696   3.661   2.659   1.502 -0.5952 -0.8686  2.0982
 5355SOL     OW27697   0.061   0.622  14.660  0.4509  0.4116  0.4545
 5355SOL    HW127698   4.721   0.601  14.709 -0.6487 -0.1821 -1.6126
 5355SOL    HW227699   0.108   0.669  14.730  1.0387  0.7311 -0.1579
 5356SOL     OW27700   2.268   0.294   7.988 -0.4352  0.0394 -0.1832
 5356SOL    HW127701   2.319   0.286   7.907  1.4633 -1.1837  1.1348
 5356SOL    HW227702   2.209   0.367   7.969  2.3619  1.9783 -1.4728
 5357SOL     OW27703   0.564   3.883   2.739 -0.2083 -0.1881  0.4062
 5357SOL    HW127704   0.572   3.847   2.827  2.4085 -1.3754 -0.3210
 5357SOL    HW227705   0.606   3.811   2.693  1.5056  1.7213 -0.9798
 5358SOL     OW27706   2.317   0.936   2.703 -0.2617 -0.0119  0.6620
 5358SOL    HW127707   2.318   0.855   2.754  1.6336 -1.0292 -1.0012
 5358SOL    HW227708   2.391   0.921   2.644  0.7071  1.7614  1.4292
 5359SOL     OW27709   0.136   4.653  11.151 -0.1425  0.1056 -0.0928
 5359SOL    HW127710   0.080   4.713  11.200 -0.5838 -0.6474  0.3146
 5359SOL    HW227711   0.124   4.684  11.061 -1.2763  3.3017  1.1749
 5360SOL     OW27712   1.975   3.472   8.116 -0.2704 -0.0734  0.1209
 5360SOL    HW127713   1.983   3.551   8.062 -2.6030 -1.0012 -1.5451
 5360SOL    HW227714   1.896   3.501   8.161 -0.7434  2.0148 -2.0562
 5361SOL     OW27715   2.544   0.894   2.575 -0.1368  0.4372 -0.1729
 5361SOL    HW127716   2.581   0.806   2.588  0.3997  0.4121 -1.7833
 5361SOL    HW227717   2.570   0.910   2.484  0.3278  2.4443  0.3230
 5362SOL     OW27718   2.211   2.339   4.677  0.0574 -0.7533  0.2285
 5362SOL    HW127719   2.204   2.412   4.615  1.5755 -1.4759 -0.7852
 5362SOL    HW227720   2.141   2.284   4.641  0.5659 -2.0067  1.1553
 5363SOL     OW27721   2.638   3.323   1.526  0.4440  0.1899 -0.0981
 5363SOL    HW127722   2.604   3.280   1.604 -1.8715  1.0898 -0.5946
 5363SOL    HW227723   2.560   3.309   1.472  1.1915 -0.6519 -0.9525
 5364SOL     OW27724   3.275   3.057  12.963 -0.5026  0.1415 -0.8725
 5364SOL    HW127725   3.240   3.012  12.887 -1.8402  0.5059 -0.4782
 5364SOL    HW227726   3.294   3.142  12.923 -1.5596  0.6064 -0.3867
 5365SOL     OW27727   0.890   3.289   8.389  0.3329 -0.3210  0.4363
 5365SOL    HW127728   0.846   3.373   8.394  0.7277 -0.1669  1.3053
 5365SOL    HW227729   0.825   3.239   8.439  1.0049 -2.1447 -0.4954
 5366SOL     OW27730   4.383   2.385   5.767 -0.3351 -0.2703  0.7791
 5366SOL    HW127731   4.435   2.424   5.837  0.6778  1.5253 -0.9730
 5366SOL    HW227732   4.294   2.396   5.801  0.3386  3.8230  1.1806
 5367SOL     OW27733   2.374   2.879   1.841 -0.4464  0.1575 -0.1296
 5367SOL    HW127734   2.321   2.938   1.787 -2.9301 -1.9083  0.0423
 5367SOL    HW227735   2.303   2.835   1.888 -0.3020 -1.2044 -1.1691
 5368SOL     OW27736   2.714   3.354   2.926 -0.3882 -0.3110 -0.3243
 5368SOL    HW127737   2.645   3.415   2.952  1.5961  2.1421 -0.7618
 5368SOL    HW227738   2.705   3.366   2.832  0.4113 -2.9875 -0.7304
 5369SOL     OW27739   2.782   0.666   2.359  0.1087 -0.7414 -0.7436
 5369SOL    HW127740   2.874   0.644   2.377  0.7533  0.3880 -2.6474
 5369SOL    HW227741   2.794   0.719   2.280  2.6939 -0.3664 -0.1193
 5370SOL     OW27742   3.368   2.752   6.277  0.2022  0.7194  0.2239
 5370SOL    HW127743   3.398   2.753   6.186  0.1874  0.0478  0.2142
 5370SOL    HW227744   3.278   2.785   6.277  0.2461  0.8375  0.3715
 5371SOL     OW27745   2.111   0.807   4.205  0.9355  0.0327  0.2073
 5371SOL    HW127746   2.129   0.874   4.140 -3.1128 -0.8127 -1.8179
 5371SOL    HW227747   2.056   0.742   4.160  3.6264 -0.3816 -2.4470
 5372SOL     OW27748   3.022   3.548   6.417 -0.0601 -0.5308  0.2856
 5372SOL    HW127749   2.999   3.623   6.361 -0.3672 -0.5490  0.3882
 5372SOL    HW227750   3.080   3.497   6.360 -0.0205  0.6365 -0.7296
 5373SOL     OW27751   0.868   2.539   6.401 -0.0048  0.8950 -0.2075
 5373SOL    HW127752   0.805   2.497   6.459  0.1853  0.9361  0.0302
 5373SOL    HW227753   0.940   2.551   6.463 -0.3765  1.0098  0.2006
 5374SOL     OW27754   1.623   4.636   1.594 -0.0125 -0.1081 -0.0416
 5374SOL    HW127755   1.614   4.573   1.523  1.0011 -1.9216  1.4561
 5374SOL    HW227756   1.533   4.658   1.614  0.0670 -1.3114  1.5816
 5375SOL     OW27757   3.044   0.398   6.371  0.2119 -0.0689 -0.1255
 5375SOL    HW127758   2.978   0.393   6.440  0.7642  0.4105  0.4533
 5375SOL    HW227759   3.121   0.434   6.416 -1.0607  1.8327  0.5229
 5376SOL     OW27760   4.534   4.205   3.679  0.4673 -0.1305  0.2381
 5376SOL    HW127761   4.463   4.147   3.651 -0.3337  1.4254 -0.9471
 5376SOL    HW227762   4.497   4.292   3.668  0.3903 -0.2550 -0.4895
 5377SOL     OW27763   1.073   1.242   5.583 -0.2182  0.5685  0.0522
 5377SOL    HW127764   1.124   1.177   5.631  0.3858  1.0176  0.0115
 5377SOL    HW227765   1.126   1.282   5.515 -3.4004  1.3020 -1.9983
 5378SOL     OW27766   3.393   3.092   6.398 -0.9267  0.8101  0.1011
 5378SOL    HW127767   3.338   3.130   6.329 -3.5667  0.3725  1.9620
 5378SOL    HW227768   3.470   3.087   6.341  0.5059 -0.7656  2.1507
 5379SOL     OW27769   0.261   1.667   9.361  0.6708 -0.2369  0.0357
 5379SOL    HW127770   0.167   1.685   9.365  0.8081  0.6103 -0.6755
 5379SOL    HW227771   0.295   1.756   9.347 -1.4361  1.2473  4.1508
 5380SOL     OW27772   4.279   1.979  16.547  0.2095  0.0410 -0.0087
 5380SOL    HW127773   4.318   2.064  16.527 -1.7509  0.6341 -1.3280
 5380SOL    HW227774   4.336   1.920  16.497  2.6917  1.1228  1.5639
 5381SOL     OW27775   4.155   3.175   8.946  0.0868 -0.1616  0.0562
 5381SOL    HW127776   4.228   3.219   8.902 -1.0580  1.4446 -0.2539
 5381SOL    HW227777   4.086   3.236   8.918  1.0837  1.6413  1.4666
 5382SOL     OW27778   0.827   4.670   6.006 -0.3961 -0.2925 -0.4906
 5382SOL    HW127779   0.759   4.658   6.073  0.0792 -1.8243 -0.2600
 5382SOL    HW227780   0.868   0.013   6.033  0.8667 -0.5708 -1.6189
 5383SOL     OW27781   4.054   1.005  11.733  0.3561  0.3909 -0.0813
 5383SOL    HW127782   4.084   1.063  11.803 -1.5295  2.1085 -0.6909
 5383SOL    HW227783   4.068   1.056  11.652 -0.8462  0.4340 -0.2613
 5384SOL     OW27784   3.945   1.324   5.403  0.2318  0.1968  0.2065
 5384SOL    HW127785   3.951   1.420   5.399 -3.2443  0.4929  1.6170
 5384SOL    HW227786   3.915   1.313   5.493 -0.0799 -1.1469 -0.0716
 5385SOL     OW27787   2.529   4.454   6.014 -0.1906 -0.7856 -0.4523
 5385SOL    HW127788   2.595   4.465   5.945  1.0981 -1.7102  0.6428
 5385SOL    HW227789   2.569   4.388   6.070 -0.1162 -1.2359 -1.0319
 5386SOL     OW27790   3.925   0.762  16.876  0.1246  0.3433  0.2670
 5386SOL    HW127791   3.949   0.693  16.938 -0.0525  0.6040  0.6256
 5386SOL    HW227792   3.849   0.723  16.832 -0.1885 -0.9317  1.9601
 5387SOL     OW27793   0.229   1.122   1.859 -0.2911 -0.2662  0.3977
 5387SOL    HW127794   0.185   1.204   1.876 -2.0720 -1.1645  0.1323
 5387SOL    HW227795   0.162   1.071   1.812 -0.0675  0.0843 -0.2981
 5388SOL     OW27796   1.661   2.776   3.208 -0.1422 -0.2369  0.4447
 5388SOL    HW127797   1.638   2.710   3.274  0.7726  0.3738  1.3755
 5388SOL    HW227798   1.746   2.797   3.247  0.2274 -0.0744 -0.4489
 5389SOL     OW27799   2.181   4.514  13.065  0.2473 -0.6533  0.3940
 5389SOL    HW127800   2.195   4.606  13.044 -1.9247 -1.0046 -2.6856
 5389SOL    HW227801   2.271   4.488  13.082 -0.2433 -2.0800  0.8216
 5390SOL     OW27802   3.897   1.900   5.209 -0.5202 -0.6511 -0.1423
 5390SOL    HW127803   3.883   1.868   5.298  0.8232  1.9019  1.0032
 5390SOL    HW227804   3.819   1.947   5.180  0.2192  0.8360  0.2435
 5391SOL     OW27805   4.646   0.183   2.343 -0.1886 -0.6222  0.5120
 5391SOL    HW127806   4.700   0.116   2.385 -0.3201 -1.0070  0.0683
 5391SOL    HW227807   4.701   0.238   2.288  0.4277  0.1292  1.9004
 5392SOL     OW27808   4.085   4.207  15.466  0.4344 -0.5577 -0.0095
 5392SOL    HW127809   4.048   4.295  15.463  1.3007 -0.2123 -1.0151
 5392SOL    HW227810   4.088   4.195  15.561  0.5895  1.5301  0.2503
 5393SOL     OW27811   3.120   4.350   5.990  0.8309  0.3311  0.1164
 5393SOL    HW127812   3.116   4.314   6.079  0.4204 -0.5571 -0.2667
 5393SOL    HW227813   3.190   4.412   6.008  1.5681 -0.6026  0.4667
 5394SOL     OW27814   3.792   4.014   6.120  0.1766  0.1742 -0.2195
 5394SOL    HW127815   3.800   4.109   6.130 -1.7456  0.2318  0.7480
 5394SOL    HW227816   3.853   4.009   6.046  2.8786 -0.4181  2.0427
 5395SOL     OW27817   3.439   2.037   9.555  0.2518 -0.2059 -0.0404
 5395SOL    HW127818   3.473   2.095   9.623 -0.1265  1.0665 -0.9332
 5395SOL    HW227819   3.423   2.103   9.488 -2.0224 -1.5299 -0.7832
 5396SOL     OW27820   1.771   3.405   6.262  0.8211  0.3067 -0.3369
 5396SOL    HW127821   1.795   3.330   6.207  2.3747 -0.4103  1.3123
 5396SOL    HW227822   1.699   3.442   6.211 -0.6881  0.3350  1.7804
 5397SOL     OW27823   0.311   4.159   8.386  0.2831  0.4328 -0.1384
 5397SOL    HW127824   0.263   4.190   8.463  0.2062 -0.0840  0.0226
 5397SOL    HW227825   0.382   4.222   8.384  0.9054 -0.2696 -0.0981
 5398SOL     OW27826   3.120   0.183   0.379 -0.0898  0.5659 -0.5417
 5398SOL    HW127827   3.061   0.236   0.432 -0.7893  0.3574 -1.1022
 5398SOL    HW227828   3.192   0.245   0.371 -0.7120  1.6690  2.5246
 5399SOL     OW27829   0.335   2.073  13.277 -0.0427  0.2082 -0.1585
 5399SOL    HW127830   0.388   2.151  13.259 -1.2166  0.8844 -0.6329
 5399SOL    HW227831   0.256   2.091  13.226  0.0052  1.4892  0.2220
 5400SOL     OW27832   4.081   4.455  12.413 -0.4519 -0.1991 -0.3621
 5400SOL    HW127833   4.030   4.440  12.493 -0.4254 -0.1378 -0.3340
 5400SOL    HW227834   4.068   4.373  12.365  0.6292  0.3762 -1.6545
 5401SOL     OW27835   1.424   2.057  13.139 -0.1817  0.7420  0.1136
 5401SOL    HW127836   1.517   2.046  13.159 -0.0536  1.7036  0.0535
 5401SOL    HW227837   1.419   2.030  13.048 -2.1145  0.1115  0.4099
 5402SOL     OW27838   2.023   0.919   6.297  0.3650  0.6754 -0.3003
 5402SOL    HW127839   1.997   0.829   6.317 -1.6436  1.9167  2.5988
 5402SOL    HW227840   2.016   0.925   6.202 -1.0790 -0.8131 -0.2849
 5403SOL     OW27841   2.048   1.990   9.641  0.1915  0.3339  0.6362
 5403SOL    HW127842   2.143   1.980   9.642  0.2942  1.3677  1.0049
 5403SOL    HW227843   2.019   1.942   9.719 -2.0753 -0.6513 -0.8051
 5404SOL     OW27844   3.260   2.933   5.178 -0.3055  0.4538  0.4024
 5404SOL    HW127845   3.325   2.863   5.181  0.5917  1.3081  1.0113
 5404SOL    HW227846   3.314   3.012   5.167 -1.2053  0.8602 -1.0843
 5405SOL     OW27847   3.144   3.672   5.638  0.4410  0.0109  0.4250
 5405SOL    HW127848   3.145   3.695   5.731  2.6566  2.2086 -0.1632
 5405SOL    HW227849   3.235   3.658   5.615  1.0328  0.5495  2.4418
 5406SOL     OW27850   4.416   4.007  17.340 -0.3268 -0.1948  0.6343
 5406SOL    HW127851   4.374   4.089  17.315 -0.6471 -0.1797  1.2165
 5406SOL    HW227852   4.344   3.956  17.303 -0.2067 -1.0358  1.5418
 5407SOL     OW27853   4.720   0.746   5.666  0.3514 -0.3246  0.1656
 5407SOL    HW127854   0.070   0.714   5.650  0.4398  0.1585 -0.2894
 5407SOL    HW227855   4.711   0.711   5.754  1.4012 -0.6831  0.1331
 5408SOL     OW27856   2.605   3.564   9.680 -0.1401 -0.5265  0.1619
 5408SOL    HW127857   2.537   3.601   9.736  0.0775  1.5895 -0.9511
 5408SOL    HW227858   2.557   3.573   9.597  1.3771  1.3160 -0.4982
 5409SOL     OW27859   0.098   2.941   8.817 -0.2202 -0.2869  0.3349
 5409SOL    HW127860   0.175   2.923   8.763 -1.1019 -1.7089 -0.4533
 5409SOL    HW227861   0.130   2.931   8.906 -0.3600  0.0421  0.4237
 5410SOL     OW27862   2.595   0.363   6.052 -0.0297 -0.4265 -0.2535
 5410SOL    HW127863   2.671   0.406   6.014 -0.4661 -0.6866 -1.4077
 5410SOL    HW227864   2.627   0.340   6.139  0.6123 -0.4722 -0.5065
 5411SOL     OW27865   3.475   1.832   6.156  0.0299  0.1681 -0.5251
 5411SOL    HW127866   3.454   1.742   6.180  0.9799 -0.0425 -0.5152
 5411SOL    HW227867   3.425   1.871   6.228  0.9175 -1.0629  0.7584
 5412SOL     OW27868   2.013   1.385   1.300 -0.1290  0.7383  0.3423
 5412SOL    HW127869   1.930   1.431   1.284  0.5469  1.7587 -0.2153
 5412SOL    HW227870   1.977   1.315   1.355 -0.5078  1.0375  0.4751
 5413SOL     OW27871   3.072   3.585   8.411 -0.5872  0.0948  0.3963
 5413SOL    HW127872   3.027   3.557   8.332  0.0420 -1.1375  0.4721
 5413SOL    HW227873   3.034   3.673   8.410  0.6532  0.6754  2.3335
 5414SOL     OW27874   4.600   1.088  13.126 -0.2395  0.3558  0.3136
 5414SOL    HW127875   4.683   1.135  13.131  0.5776 -1.0797  0.2791
 5414SOL    HW227876   4.598   1.036  13.206 -1.6484  0.2270  0.1872
 5415SOL     OW27877   1.820   0.722  12.443 -0.3525 -0.7840  0.8204
 5415SOL    HW127878   1.781   0.794  12.492  1.1678 -0.0405  0.9326
 5415SOL    HW227879   1.806   0.653  12.508  0.3238 -1.5784  0.1273
 5416SOL     OW27880   1.962   2.120   4.763  0.0693  0.4393 -0.4738
 5416SOL    HW127881   1.988   2.186   4.828  1.3806 -0.7707  0.2420
 5416SOL    HW227882   1.941   2.042   4.814  1.1377  0.8088  0.5270
 5417SOL     OW27883   4.341   4.613   6.771 -0.2053  0.1924  0.0646
 5417SOL    HW127884   4.276   4.554   6.809 -2.1813  1.7668 -0.8984
 5417SOL    HW227885   4.392   4.541   6.734  3.0412  1.4029  2.1217
 5418SOL     OW27886   0.532   3.984  12.561 -0.0259 -0.2013 -0.0314
 5418SOL    HW127887   0.492   3.924  12.498  0.7707 -0.3128 -0.4364
 5418SOL    HW227888   0.463   3.998  12.625 -0.9249 -2.9373 -0.3718
 5419SOL     OW27889   1.579   1.444   9.081 -0.0645 -0.2094 -0.0499
 5419SOL    HW127890   1.585   1.539   9.087  1.4736 -0.4140  1.8570
 5419SOL    HW227891   1.627   1.427   9.162 -1.2988 -1.4742  0.4153
 5420SOL     OW27892   0.421   2.688   4.966 -0.4387 -0.3236  0.7002
 5420SOL    HW127893   0.489   2.621   4.960 -0.5819 -0.3974 -0.1112
 5420SOL    HW227894   0.368   2.650   5.036 -0.9410  1.8927  1.5325
 5421SOL     OW27895   3.247   3.323   5.800 -0.2840  0.1562 -0.3242
 5421SOL    HW127896   3.326   3.369   5.772 -0.5991  1.9745  1.7846
 5421SOL    HW227897   3.249   3.314   5.895  0.9408 -1.2802 -0.4964
 5422SOL     OW27898   3.838   0.229   4.875  0.1823  0.4162  0.0101
 5422SOL    HW127899   3.781   0.241   4.951  2.2317 -0.0115  1.6305
 5422SOL    HW227900   3.806   0.298   4.816 -1.3005  0.4603  0.8721
 5423SOL     OW27901   2.759   2.988   1.244  0.2178 -0.1397 -0.5393
 5423SOL    HW127902   2.700   2.921   1.209 -2.4129  1.7612  0.2653
 5423SOL    HW227903   2.737   2.980   1.337 -0.6371 -0.1982 -0.7402
 5424SOL     OW27904   3.810   1.529  13.106 -0.1120 -0.0786 -0.0876
 5424SOL    HW127905   3.885   1.589  13.102  0.3230 -0.6223 -0.1582
 5424SOL    HW227906   3.850   1.451  13.145  0.2215  0.7115  1.1613
 5425SOL     OW27907   3.651   0.929  10.566 -0.5103 -0.0312 -0.4124
 5425SOL    HW127908   3.686   0.875  10.494  0.6401 -0.3352  0.3698
 5425SOL    HW227909   3.665   0.879  10.646 -1.7828  2.0945  1.1388
 5426SOL     OW27910   2.656   0.014  10.777 -0.8583  0.2053 -0.0661
 5426SOL    HW127911   2.692   4.700  10.847  1.3647  0.9835 -0.6293
 5426SOL    HW227912   2.654   4.683  10.712 -2.3571  0.5463 -0.4007
 5427SOL     OW27913   0.969   4.138  11.398  0.4220  0.3764 -0.0763
 5427SOL    HW127914   0.970   4.194  11.321 -1.3330  0.6520  0.1051
 5427SOL    HW227915   1.051   4.159  11.443  1.4388  0.4612 -1.9820
 5428SOL     OW27916   0.862   4.061  16.540  0.0914 -0.8370  0.0896
 5428SOL    HW127917   0.944   4.031  16.578  1.0175  0.8033 -0.6229
 5428SOL    HW227918   0.822   4.121  16.603 -0.0784 -0.7388 -0.1138
 5429SOL     OW27919   0.037   0.840   3.854 -0.3927  0.3830 -0.1855
 5429SOL    HW127920   4.723   0.880   3.785  0.0566  0.4826 -0.4747
 5429SOL    HW227921   0.051   0.903   3.925  0.6658 -0.2065  0.1331
 5430SOL     OW27922   4.100   3.086   5.896 -0.8292  0.2175  0.2521
 5430SOL    HW127923   4.065   3.166   5.936 -0.3998 -0.4489  1.9244
 5430SOL    HW227924   4.054   3.019   5.946 -1.5556  2.6694  2.8327
 5431SOL     OW27925   4.540   1.355   9.724  0.1015 -0.1417 -0.0847
 5431SOL    HW127926   4.499   1.297   9.660 -1.4077 -0.4199  1.1303
 5431SOL    HW227927   4.492   1.437   9.708 -0.3110 -0.2218  0.7150
 5432SOL     OW27928   1.464   4.661   4.890  0.0656 -0.1250 -0.6561
 5432SOL    HW127929   1.502   4.574   4.881  0.4657  0.2479 -2.5702
 5432SOL    HW227930   1.490   4.678   4.981 -1.8150 -1.4331  0.1205
 5433SOL     OW27931   3.779   2.104   5.085 -0.0858 -0.4781  0.7304
 5433SOL    HW127932   3.850   2.147   5.132 -1.6269  3.2635 -0.3382
 5433SOL    HW227933   3.778   2.159   5.007 -3.7314 -0.0920  1.0594
 5434SOL     OW27934   1.016   0.415   3.181  0.4626  0.4989  0.3734
 5434SOL    HW127935   0.943   0.358   3.207  0.5759  0.5285  0.7557
 5434SOL    HW227936   1.090   0.370   3.223  2.3104  1.2609 -2.1128
 5435SOL     OW27937   2.774   2.282   8.930  0.1936  0.7176  0.4368
 5435SOL    HW127938   2.773   2.349   8.999  1.2118 -1.5706  2.7098
 5435SOL    HW227939   2.804   2.209   8.985  1.2340  0.0133 -1.0860
 5436SOL     OW27940   0.985   0.204  12.737 -0.3345  0.1998  0.0051
 5436SOL    HW127941   1.022   0.195  12.824 -1.8017  0.9959  0.7105
 5436SOL    HW227942   1.057   0.208  12.674  0.8062  1.0935  1.3807
 5437SOL     OW27943   3.224   3.241  11.593 -0.3652 -0.0615  0.1125
 5437SOL    HW127944   3.278   3.239  11.513 -2.4965 -0.9296 -1.3036
 5437SOL    HW227945   3.263   3.319  11.633 -1.4251 -0.4432  1.8630
 5438SOL     OW27946   2.445   3.842  10.267  0.5466 -0.1623 -0.5555
 5438SOL    HW127947   2.528   3.873  10.303 -0.5585  0.9972  1.0084
 5438SOL    HW227948   2.422   3.915  10.209 -2.9929 -0.2626  0.7334
 5439SOL     OW27949   0.339   3.426   7.487 -0.4480 -0.3971  0.1169
 5439SOL    HW127950   0.295   3.458   7.408  1.4758 -2.4446 -1.7811
 5439SOL    HW227951   0.401   3.499   7.496 -1.2609  0.1739  1.0067
 5440SOL     OW27952   2.769   0.520  13.696 -0.0330 -1.1857 -0.1272
 5440SOL    HW127953   2.764   0.577  13.620  0.2180 -1.5530 -0.4173
 5440SOL    HW227954   2.744   0.436  13.657 -0.5384 -1.1405  0.0951
 5441SOL     OW27955   0.789   2.289   8.672 -0.5274 -0.1291  0.7928
 5441SOL    HW127956   0.830   2.243   8.599  0.4093  1.2251  0.4594
 5441SOL    HW227957   0.787   2.376   8.631 -0.9260 -0.5197 -0.0100
 5442SOL     OW27958   4.425   1.290  13.789  0.0409  0.1848 -0.0793
 5442SOL    HW127959   4.334   1.268  13.809  0.0095  1.3630  1.0644
 5442SOL    HW227960   4.470   1.242  13.858 -2.2019 -2.1343 -0.2389
 5443SOL     OW27961   4.715   2.609   9.312  0.2519 -1.2583 -0.0406
 5443SOL    HW127962   4.710   2.671   9.385  2.3929  0.2418 -1.1739
 5443SOL    HW227963   4.689   2.675   9.248 -1.5293 -1.2345  0.6976
 5444SOL     OW27964   1.212   1.943   7.576 -0.5473  0.3249  0.3345
 5444SOL    HW127965   1.300   1.950   7.541 -0.3521 -2.5185  0.2688
 5444SOL    HW227966   1.174   1.869   7.530  1.2947 -0.0233 -0.6128
 5445SOL     OW27967   3.028   4.246   5.315 -0.4778  0.0691  0.3414
 5445SOL    HW127968   3.029   4.271   5.222 -0.4099  1.7443  0.7811
 5445SOL    HW227969   2.947   4.196   5.308 -0.8684  0.9014 -1.3014
 5446SOL     OW27970   0.893   0.332  16.172 -0.0445  0.0127  0.2093
 5446SOL    HW127971   0.916   0.421  16.145 -1.4286 -0.0838 -1.2554
 5446SOL    HW227972   0.969   0.308  16.225 -1.3226 -0.4711  1.8082
 5447SOL     OW27973   1.442   0.433  10.615  0.3224  0.3097 -0.0040
 5447SOL    HW127974   1.423   0.524  10.637 -1.7923  0.6388 -3.2545
 5447SOL    HW227975   1.358   0.389  10.632  0.6586 -0.3628 -0.0780
 5448SOL     OW27976   1.804   2.188   7.936  0.1208  0.4188 -0.0824
 5448SOL    HW127977   1.711   2.199   7.955  0.1135 -0.5427  0.4839
 5448SOL    HW227978   1.788   2.096   7.915  0.0917  0.6518 -1.0597
 5449SOL     OW27979   3.063   0.403   6.107  0.3657 -0.0106  0.3887
 5449SOL    HW127980   3.147   0.446   6.089  0.0025  0.2475 -0.7308
 5449SOL    HW227981   3.049   0.423   6.200 -1.1230 -0.6276  0.3012
 5450SOL     OW27982   0.180   4.281   6.179 -0.1120 -0.5854  0.5325
 5450SOL    HW127983   0.194   4.251   6.268  2.3173 -0.2019  0.2629
 5450SOL    HW227984   0.212   4.370   6.184 -1.9225  0.1286 -0.4044
 5451SOL     OW27985   1.191   2.836   7.435 -0.1399 -0.6750 -0.6037
 5451SOL    HW127986   1.129   2.766   7.414 -1.3262 -0.7157  2.9583
 5451SOL    HW227987   1.131   2.910   7.448 -1.7217 -2.4656  2.4561
 5452SOL     OW27988   3.212   3.949   0.758 -0.3047 -0.0066  0.0745
 5452SOL    HW127989   3.274   3.980   0.824 -0.0221 -0.1561 -0.1217
 5452SOL    HW227990   3.152   3.886   0.798 -1.4913  0.7308 -0.5266
 5453SOL     OW27991   0.004   1.078   4.985 -0.1105  0.2405  0.2270
 5453SOL    HW127992   0.064   1.152   4.994  1.6920 -1.0874 -0.7679
 5453SOL    HW227993   0.023   1.026   5.063 -1.8022 -1.0439 -0.2125
 5454SOL     OW27994   1.163   4.709   6.526  0.1798 -0.2648  0.0275
 5454SOL    HW127995   1.245   0.019   6.518  0.5329 -1.1604 -1.8340
 5454SOL    HW227996   1.106   0.037   6.563 -1.2803 -1.7129  0.3493
 5455SOL     OW27997   0.898   1.039   1.287 -0.2179  0.4719 -0.4121
 5455SOL    HW127998   0.867   1.075   1.204  3.4721 -1.5409 -2.6700
 5455SOL    HW227999   0.951   1.106   1.328 -0.2620  1.0718 -1.3213
 5456SOL     OW28000   0.628   4.198   4.252 -0.2679  0.2476 -0.0473
 5456SOL    HW128001   0.603   4.135   4.184  0.2025 -1.2191  1.1326
 5456SOL    HW228002   0.709   4.157   4.283 -0.5574 -0.0395  0.3280
 5457SOL     OW28003   2.105   4.597   4.288 -0.0361 -0.5704  0.2500
 5457SOL    HW128004   2.153   4.572   4.209 -0.1633  0.6585 -0.2198
 5457SOL    HW228005   2.037   4.655   4.254 -1.2164 -1.2081  1.5419
 5458SOL     OW28006   4.115   3.084   3.022 -0.0785  0.3325 -0.0206
 5458SOL    HW128007   4.119   3.134   3.104 -0.0632  0.1861  0.0670
 5458SOL    HW228008   4.022   3.065   3.014 -0.2118  0.0106  2.2542
 5459SOL     OW28009   0.096   0.040   2.858  0.2604  0.3620  0.2989
 5459SOL    HW128010   0.154   0.052   2.783 -0.4391 -2.9382 -0.7811
 5459SOL    HW228011   0.142   0.101   2.916 -1.7114  2.6945 -0.6052
 5460SOL     OW28012   0.579   4.545   3.518  0.0948 -0.7563 -0.5552
 5460SOL    HW128013   0.541   4.591   3.593 -0.8977 -0.4466 -1.2574
 5460SOL    HW228014   0.617   4.465   3.555  1.2492  0.5415  1.0517
 5461SOL     OW28015   2.476   2.377   5.450  0.4012  0.3639  0.1391
 5461SOL    HW128016   2.424   2.396   5.372  0.1226  1.4497  0.5988
 5461SOL    HW228017   2.485   2.283   5.432 -0.3186  0.2467  0.3594
 5462SOL     OW28018   0.667   1.985  17.626 -0.0844 -0.3295  0.5114
 5462SOL    HW128019   0.753   2.016  17.655  0.7381 -1.8426 -0.3111
 5462SOL    HW228020   0.698   1.920  17.563  0.3446 -0.1748  0.5610
 5463SOL     OW28021   4.256   2.358   5.185  0.7485  0.0779  0.3829
 5463SOL    HW128022   4.228   2.433   5.237 -0.6867 -0.5808  0.5442
 5463SOL    HW228023   4.326   2.317   5.236  0.5475 -1.1026 -0.2711
 5464SOL     OW28024   4.078   2.075  10.199  0.3764  0.0840  0.0995
 5464SOL    HW128025   4.101   1.988  10.169 -0.9159 -0.1506 -0.2048
 5464SOL    HW228026   3.984   2.088  10.183  0.2117  0.4504  1.3468
 5465SOL     OW28027   2.273   0.513   5.814 -0.6599  0.1850 -0.6196
 5465SOL    HW128028   2.252   0.592   5.865  0.7172  0.1784 -0.0412
 5465SOL    HW228029   2.253   0.553   5.729  0.1451 -0.0254 -0.9070
 5466SOL     OW28030   4.577   0.585  12.085 -0.3064  0.0559  0.3984
 5466SOL    HW128031   4.490   0.623  12.085  0.0267  0.8106  1.5823
 5466SOL    HW228032   4.598   0.597  11.992  1.0081  0.1747  0.7070
 5467SOL     OW28033   4.324   3.329   1.966  0.2215  0.4209 -0.3761
 5467SOL    HW128034   4.260   3.332   1.894  0.5826  1.8168 -0.6528
 5467SOL    HW228035   4.401   3.291   1.925 -2.1122 -2.2807 -2.2614
 5468SOL     OW28036   3.260   0.528   5.410 -0.3883  0.7210  0.4135
 5468SOL    HW128037   3.187   0.505   5.468  0.2668 -0.2288  0.8641
 5468SOL    HW228038   3.209   0.517   5.330  0.6774  0.8159 -0.2733
 5469SOL     OW28039   1.110   0.911   8.874 -0.2998  0.1157 -0.6813
 5469SOL    HW128040   1.145   0.859   8.946  1.6963 -1.9017 -3.1042
 5469SOL    HW228041   1.189   0.923   8.821  0.4349 -0.4381  0.2890
 5470SOL     OW28042   4.005   0.523  16.258  0.3258  0.2519 -0.8314
 5470SOL    HW128043   3.919   0.487  16.278  1.2139  0.9058  3.9764
 5470SOL    HW228044   4.058   0.504  16.335  0.3667  1.6554 -0.5057
 5471SOL     OW28045   0.019   0.553   3.002 -0.2110  0.9239  0.1931
 5471SOL    HW128046   0.111   0.566   2.982 -0.6806  0.2807 -2.4893
 5471SOL    HW228047   0.021   0.466   3.043 -0.5643  0.2097 -1.2926
 5472SOL     OW28048   1.454   0.338  11.557  0.0348  1.0891  0.4692
 5472SOL    HW128049   1.466   0.421  11.604 -0.6808  1.9431 -0.8885
 5472SOL    HW228050   1.535   0.287  11.562 -1.1133 -0.6474  1.2155
 5473SOL     OW28051   3.633   4.303   2.589 -0.0418  0.0962  0.2021
 5473SOL    HW128052   3.629   4.360   2.512  0.4497  0.3335  0.3531
 5473SOL    HW228053   3.559   4.324   2.646 -0.6400 -0.7912 -0.2469
 5474SOL     OW28054   4.036   1.747   5.022  0.2860 -0.2408  0.2407
 5474SOL    HW128055   4.126   1.727   5.049 -0.2733 -0.7831  1.6787
 5474SOL    HW228056   4.005   1.798   5.097  0.3718  0.5285 -0.2447
 5475SOL     OW28057   4.581   2.108   5.235 -0.2817 -0.2707  0.0731
 5475SOL    HW128058   4.597   2.014   5.232 -0.1238 -0.1061 -3.3123
 5475SOL    HW228059   4.669   2.145   5.237 -1.5694  2.8423 -1.2973
 5476SOL     OW28060   2.294   1.691   2.921  0.7132 -0.3066  0.4715
 5476SOL    HW128061   2.207   1.667   2.952  0.4470  0.4538  0.3113
 5476SOL    HW228062   2.286   1.675   2.827  2.5742 -0.1251  0.2667
 5477SOL     OW28063   1.029   3.950   6.025  0.1015  0.0224 -0.9497
 5477SOL    HW128064   1.094   3.881   6.040  1.2841  1.1439 -1.0209
 5477SOL    HW228065   1.004   3.937   5.933  0.9687  1.3097 -1.3599
 5478SOL     OW28066   0.447   2.108   9.835 -0.1778  0.2531 -0.4467
 5478SOL    HW128067   0.381   2.073   9.895  0.7068 -0.3710  0.1841
 5478SOL    HW228068   0.498   2.034   9.803 -0.5580 -0.6059  0.9484
 5479SOL     OW28069   2.053   0.834   8.236 -0.0750  0.1246  0.4916
 5479SOL    HW128070   2.089   0.923   8.229 -2.1095  0.8789 -0.4314
 5479SOL    HW228071   2.085   0.783   8.161 -1.8655 -0.8030  0.3576
 5480SOL     OW28072   0.787   1.033   5.489 -0.5045 -0.1639 -0.0142
 5480SOL    HW128073   0.869   1.078   5.509 -0.4332 -0.7780  1.1261
 5480SOL    HW228074   0.795   0.973   5.564  1.3689  1.1315  0.8243
 5481SOL     OW28075   1.234   4.261  14.300  0.2444  0.4203 -0.3636
 5481SOL    HW128076   1.251   4.223  14.386  1.2272  1.0435 -0.2916
 5481SOL    HW228077   1.232   4.180  14.248 -1.4151 -1.2658  2.3341
 5482SOL     OW28078   1.180   3.552   7.556 -0.0847 -0.3116  0.0520
 5482SOL    HW128079   1.249   3.539   7.490 -1.4607  0.5632 -1.5599
 5482SOL    HW228080   1.115   3.591   7.498 -2.1702 -4.5483 -0.4267
 5483SOL     OW28081   4.411   1.272   5.777  0.3377 -0.0129  0.4403
 5483SOL    HW128082   4.458   1.219   5.841  1.5169  2.8453  1.9551
 5483SOL    HW228083   4.455   1.238   5.699  1.4362 -0.5582  1.2996
 5484SOL     OW28084   3.393   0.346   2.308  0.1808  0.1540  0.5713
 5484SOL    HW128085   3.431   0.321   2.223 -0.8933 -0.4084  0.2584
 5484SOL    HW228086   3.467   0.389   2.352  0.3789  0.5533 -0.1511
 5485SOL     OW28087   3.953   4.168  17.437 -0.1996 -0.4690 -0.0398
 5485SOL    HW128088   3.911   4.083  17.422 -0.6435  0.2489 -2.8537
 5485SOL    HW228089   4.025   4.161  17.374  2.5884 -0.9838  3.2090
 5486SOL     OW28090   1.820   1.120   2.294  0.0962 -0.0645 -0.4740
 5486SOL    HW128091   1.881   1.176   2.342  1.3191 -0.6774 -1.3017
 5486SOL    HW228092   1.882   1.077   2.235  0.3242  0.7703 -0.8337
 5487SOL     OW28093   3.291   0.901   8.466  0.3822  0.1053  0.5279
 5487SOL    HW128094   3.206   0.870   8.497 -0.1646 -0.7156 -1.8041
 5487SOL    HW228095   3.268   0.945   8.385 -1.1357 -0.4063  0.6882
 5488SOL     OW28096   2.565   3.060   4.816 -0.0505 -0.0921  0.1175
 5488SOL    HW128097   2.476   3.052   4.851  0.1238 -1.6107  0.2041
 5488SOL    HW228098   2.586   2.969   4.794 -1.3215 -0.4362  0.3187
 5489SOL     OW28099   0.374   2.771   8.685 -0.4562  0.2937  0.8302
 5489SOL    HW128100   0.374   2.865   8.668  2.4079  0.2001  0.3659
 5489SOL    HW228101   0.298   2.744   8.633  1.3511 -3.1434  0.0102
 5490SOL     OW28102   2.179   4.026   7.899  0.0683 -0.5289 -0.7455
 5490SOL    HW128103   2.256   4.081   7.906 -1.5586  1.5289  0.9137
 5490SOL    HW228104   2.160   4.033   7.805 -1.3704 -2.0284 -0.5912
 5491SOL     OW28105   1.537   4.717  13.738  0.1375 -0.1244  0.0151
 5491SOL    HW128106   1.583   4.693  13.657  2.1071  3.3747  0.1187
 5491SOL    HW228107   1.602   4.701  13.806  1.8210  1.1724 -1.3018
 5492SOL     OW28108   3.061   1.346   0.573 -0.0809 -0.3659 -0.0150
 5492SOL    HW128109   3.122   1.272   0.577 -1.3747 -1.5555 -2.5730
 5492SOL    HW228110   2.977   1.300   0.575 -0.6583  0.6015 -2.3418
 5493SOL     OW28111   3.722   4.654  15.857  0.0048  0.3985  0.9759
 5493SOL    HW128112   3.673   4.724  15.812  1.3584  2.1694  2.2719
 5493SOL    HW228113   3.650   4.600  15.889 -0.5510  0.0014 -0.9413
 5494SOL     OW28114   1.629   2.829   6.588  0.4636 -0.3012  0.4699
 5494SOL    HW128115   1.607   2.880   6.666 -0.2951  3.2544 -2.0591
 5494SOL    HW228116   1.682   2.893   6.539 -0.0496 -0.6459 -0.5403
 5495SOL     OW28117   2.590   0.109   7.946  1.1217  0.3537  0.3212
 5495SOL    HW128118   2.599   0.175   8.014 -1.0723  0.3590  0.6234
 5495SOL    HW228119   2.517   0.060   7.984 -0.0218  1.3608 -0.5360
 5496SOL     OW28120   1.943   0.678   4.635  0.0008 -0.0451  0.4538
 5496SOL    HW128121   2.020   0.622   4.648 -0.9063 -1.5775 -0.8135
 5496SOL    HW228122   1.967   0.755   4.688  1.1023  0.9425 -1.4825
 5497SOL     OW28123   4.172   1.165   9.250  0.1471  0.0764  0.1659
 5497SOL    HW128124   4.165   1.119   9.166  1.3791 -0.7871  0.5350
 5497SOL    HW228125   4.141   1.095   9.308 -2.7280  0.3333 -1.0523
 5498SOL     OW28126   1.892   2.335  16.442 -0.4878 -0.0262 -0.2206
 5498SOL    HW128127   1.845   2.339  16.526 -0.2427  0.2411 -0.0965
 5498SOL    HW228128   1.982   2.338  16.475 -0.4001  1.3799 -0.5784
 5499SOL     OW28129   4.658   1.720  11.142 -0.1556 -0.1971  0.1177
 5499SOL    HW128130   4.659   1.802  11.191 -3.0304  1.1993 -2.2151
 5499SOL    HW228131   4.581   1.675  11.176 -0.5444  1.2502  1.1478
 5500SOL     OW28132   0.795   4.128   2.783 -0.6554  0.7511 -0.3453
 5500SOL    HW128133   0.733   4.132   2.710  0.8667 -0.4688 -1.7059
 5500SOL    HW228134   0.876   4.100   2.741 -0.2163 -0.5479  1.3569
 5501SOL     OW28135   1.519   3.690   1.558  0.1948 -0.0703 -0.1717
 5501SOL    HW128136   1.579   3.619   1.535  3.2244  2.4678 -0.0645
 5501SOL    HW228137   1.516   3.745   1.480  0.8323 -0.3961 -0.4255
 5502SOL     OW28138   2.139   0.882  14.696  0.2320 -0.1856 -0.0536
 5502SOL    HW128139   2.233   0.880  14.711  0.1861  0.8505  0.3731
 5502SOL    HW228140   2.112   0.827  14.770  1.7426 -1.3908 -0.4196
 5503SOL     OW28141   3.808   3.773   6.667 -0.1500  0.3361 -0.4819
 5503SOL    HW128142   3.726   3.769   6.717  1.2313  0.3626  1.8142
 5503SOL    HW228143   3.841   3.856   6.701 -0.9236  0.2677  0.4597
 5504SOL     OW28144   3.061   0.510   5.197 -0.0951  0.5130 -0.1855
 5504SOL    HW128145   3.088   0.524   5.106 -0.9652  0.1909 -0.4937
 5504SOL    HW228146   2.976   0.552   5.201 -0.5232 -0.2808 -0.9490
 5505SOL     OW28147   0.957   1.687  10.634  0.2018 -0.3631 -0.1171
 5505SOL    HW128148   1.017   1.749  10.593 -1.1205  1.3494  0.5384
 5505SOL    HW228149   0.979   1.606  10.589  0.5783 -0.1285 -0.3567
 5506SOL     OW28150   0.719   3.810   4.199 -0.1097  0.0744 -0.1242
 5506SOL    HW128151   0.679   3.729   4.168  0.2399  0.0323 -0.4537
 5506SOL    HW228152   0.721   3.867   4.122 -1.1324  0.0369 -0.1879
 5507SOL     OW28153   2.509   1.293   3.043 -0.4356  0.0663  0.0001
 5507SOL    HW128154   2.522   1.363   2.979  0.3777  0.1520  0.2573
 5507SOL    HW228155   2.469   1.225   2.990 -0.1492  0.2521 -0.4572
 5508SOL     OW28156   4.292   1.150   0.892 -0.1367  0.5625 -0.9216
 5508SOL    HW128157   4.248   1.201   0.959  2.6170  1.3421  0.3015
 5508SOL    HW228158   4.243   1.068   0.883 -1.4950  1.2426  0.4193
 5509SOL     OW28159   0.716   1.561   7.638 -0.3664  0.1856 -0.0704
 5509SOL    HW128160   0.700   1.519   7.723 -0.1506  1.1443  0.4439
 5509SOL    HW228161   0.732   1.651   7.666  1.1097 -0.2821  0.5891
 5510SOL     OW28162   4.449   3.907   7.838 -0.0566 -0.0956  0.6020
 5510SOL    HW128163   4.446   3.956   7.756  1.5655 -0.9119  0.0493
 5510SOL    HW228164   4.408   3.971   7.896 -0.3635  0.5732 -0.3807
 5511SOL     OW28165   4.153   2.569   4.983  0.0213  0.2807 -0.1152
 5511SOL    HW128166   4.217   2.538   5.047 -1.0422  0.1321  0.8717
 5511SOL    HW228167   4.194   2.541   4.901 -0.4059  1.4188 -0.7168
 5512SOL     OW28168   3.677   2.092   2.723 -0.3691  0.2178 -0.3304
 5512SOL    HW128169   3.716   2.065   2.640  1.7270  0.0142  0.7210
 5512SOL    HW228170   3.639   2.006   2.740  0.1245  0.1183  0.2450
 5513SOL     OW28171   4.507   2.699   1.035  0.3877  0.2253  0.7050
 5513SOL    HW128172   4.495   2.756   1.110 -0.1284 -0.7982  1.3954
 5513SOL    HW228173   4.592   2.728   1.001 -0.2363  0.6565 -0.5158
 5514SOL     OW28174   2.361   1.311   6.523 -0.2461 -0.3064 -0.0175
 5514SOL    HW128175   2.407   1.227   6.522  1.9833  0.9069 -0.7151
 5514SOL    HW228176   2.432   1.364   6.486  1.1336 -1.4880  0.9366
 5515SOL     OW28177   1.914   0.192   2.443  0.1440  0.4486  0.1178
 5515SOL    HW128178   1.960   0.224   2.365  1.6983 -0.7144  0.5553
 5515SOL    HW228179   1.885   0.274   2.483  1.7024  0.0572  2.0463
 5516SOL     OW28180   1.405   4.146   2.564 -0.1033  0.6446  0.4070
 5516SOL    HW128181   1.365   4.091   2.497  0.5321 -1.1562  1.4958
 5516SOL    HW228182   1.436   4.218   2.509 -0.3778  0.7962  0.4497
 5517SOL     OW28183   3.022   3.523   3.732 -0.8968  0.5545 -0.4420
 5517SOL    HW128184   3.022   3.609   3.691  1.5374  0.5115 -0.5506
 5517SOL    HW228185   3.038   3.460   3.662  2.1285  1.8203 -0.9009
 5518SOL     OW28186   2.390   2.141   3.592  0.2494  0.0329  0.1789
 5518SOL    HW128187   2.303   2.172   3.564  0.5239 -0.7487 -1.5293
 5518SOL    HW228188   2.441   2.166   3.515 -0.5935 -2.5019 -1.2018
 5519SOL     OW28189   2.182   3.172   0.411 -0.2842 -0.1652  0.3319
 5519SOL    HW128190   2.225   3.094   0.444 -0.5279 -0.6726 -0.5608
 5519SOL    HW228191   2.237   3.249   0.424 -1.1317  0.6290 -0.8222
 5520SOL     OW28192   4.621   3.887   9.522  0.3954  0.6110  0.1055
 5520SOL    HW128193   4.701   3.878   9.470 -0.8382 -2.6843 -1.2470
 5520SOL    HW228194   4.558   3.875   9.451 -0.0705 -1.2447  0.8236
 5521SOL     OW28195   2.546   3.733  15.508  0.0068  0.0649 -0.3755
 5521SOL    HW128196   2.587   3.647  15.499 -0.4440 -0.2104  0.2016
 5521SOL    HW228197   2.529   3.749  15.600 -1.9356  1.7908 -1.0407
 5522SOL     OW28198   0.580   4.124   8.280  0.5602  0.0550 -0.2055
 5522SOL    HW128199   0.632   4.152   8.355  1.1282  0.8056 -0.8806
 5522SOL    HW228200   0.498   4.085   8.312 -0.2317 -0.2440 -2.5822
 5523SOL     OW28201   0.999   3.604   1.852  0.3781  0.5471 -0.0640
 5523SOL    HW128202   1.059   3.676   1.873 -1.2252  1.2913  1.9874
 5523SOL    HW228203   0.915   3.632   1.888  0.9225  1.7134  0.3192
 5524SOL     OW28204   3.206   1.967   9.731 -0.2140 -0.0646  0.4689
 5524SOL    HW128205   3.258   2.033   9.686  2.5758 -2.1202  0.6665
 5524SOL    HW228206   3.278   1.933   9.783  0.2294 -0.4629 -0.4043
 5525SOL     OW28207   4.540   3.799   6.547 -0.0520 -0.4102  0.4897
 5525SOL    HW128208   4.560   3.710   6.517 -1.1428 -1.4841  2.8706
 5525SOL    HW228209   4.517   3.846   6.467  0.6612  0.9159  1.0837
 5526SOL     OW28210   1.999   3.318   3.840 -0.2957  0.2684  0.4984
 5526SOL    HW128211   1.910   3.284   3.839  0.1405 -0.8715  0.1423
 5526SOL    HW228212   2.060   3.245   3.831 -2.3960 -1.4365  0.4009
 5527SOL     OW28213   3.305   0.222  13.806  0.5527  0.6961 -0.3994
 5527SOL    HW128214   3.299   0.135  13.765 -0.3450  0.9895 -0.8836
 5527SOL    HW228215   3.251   0.279  13.751  1.6202  1.2820 -0.8416
 5528SOL     OW28216   1.623   1.652   2.117 -0.1249 -0.1698  0.6702
 5528SOL    HW128217   1.644   1.572   2.164  0.2633 -1.0816 -1.0321
 5528SOL    HW228218   1.531   1.662   2.141  0.3154  0.7574  1.9522
 5529SOL     OW28219   4.319   3.949   2.535  0.0793  0.0335  0.2580
 5529SOL    HW128220   4.374   3.871   2.526  0.9643  0.8142 -1.0360
 5529SOL    HW228221   4.349   4.024   2.484 -0.3929  0.7774  1.0848
 5530SOL     OW28222   1.663   4.439   4.001 -0.0004 -0.5380  0.4402
 5530SOL    HW128223   1.600   4.369   4.017 -0.6720 -0.1672 -0.5882
 5530SOL    HW228224   1.689   4.425   3.910 -3.0152 -0.2633 -0.4655
 5531SOL     OW28225   0.960   4.687   5.502  0.0021  0.2776  0.1679
 5531SOL    HW128226   0.943   4.624   5.572  1.7180 -1.2649 -0.8077
 5531SOL    HW228227   0.906   0.023   5.525  0.1878  0.9397 -1.5765
 5532SOL     OW28228   3.078   2.666   5.960 -0.3492  0.5952  0.5168
 5532SOL    HW128229   3.035   2.688   5.878  3.0744 -0.8466 -1.6494
 5532SOL    HW228230   3.156   2.617   5.935  0.1535  1.4491  0.4358
 5533SOL     OW28231   4.420   1.080   1.343  0.4534  0.5560 -0.2617
 5533SOL    HW128232   4.469   0.999   1.334  0.5220  0.4093  1.3721
 5533SOL    HW228233   4.349   1.047   1.398  1.0589  0.6324  0.5606
 5534SOL     OW28234   2.318   4.063   9.031  0.3682 -0.1404 -0.3731
 5534SOL    HW128235   2.238   4.100   8.993 -0.6852 -0.6647  1.2949
 5534SOL    HW228236   2.311   3.973   8.998  1.0670 -0.3075 -0.0504
 5535SOL     OW28237   1.722   0.652   3.905  0.0989  0.1635 -0.1513
 5535SOL    HW128238   1.717   0.635   3.811 -3.0712 -0.0816  0.0574
 5535SOL    HW228239   1.664   0.728   3.915  1.8505  1.6188 -1.1676
 5536SOL     OW28240   1.218   0.931  12.842  0.4937  0.5069 -0.2712
 5536SOL    HW128241   1.161   0.974  12.906  0.9511 -0.1773  0.6065
 5536SOL    HW228242   1.263   0.864  12.894 -1.9217  0.9257  2.3694
 5537SOL     OW28243   1.470   1.522   8.684 -0.0871 -0.6816 -0.0002
 5537SOL    HW128244   1.425   1.533   8.601  0.5234 -1.3148 -0.4184
 5537SOL    HW228245   1.479   1.427   8.691 -0.3629 -0.6054  1.5300
 5538SOL     OW28246   3.982   1.266   5.984 -0.0111 -0.1277  0.0133
 5538SOL    HW128247   4.059   1.322   5.985  0.2299 -0.4482 -1.4744
 5538SOL    HW228248   4.022   1.188   5.945 -0.1701  0.4972 -1.3758
 5539SOL     OW28249   2.943   2.859   8.836 -0.2250  0.0589 -0.0254
 5539SOL    HW128250   2.951   2.849   8.931 -0.1292  1.7741  0.1470
 5539SOL    HW228251   2.884   2.789   8.809 -0.6204  0.0743  0.8113
 5540SOL     OW28252   1.775   3.620  17.676 -0.4459  0.0009  0.1421
 5540SOL    HW128253   1.792   3.715  17.680  0.0177 -0.0510 -0.6145
 5540SOL    HW228254   1.828   3.608  17.598  1.1632 -1.9878  1.5285
 5541SOL     OW28255   4.452   2.411  12.919  0.2930  0.3875  0.1655
 5541SOL    HW128256   4.364   2.440  12.941 -0.7764 -0.9372 -2.3184
 5541SOL    HW228257   4.498   2.434  13.000 -1.7743  2.2421  0.8045
 5542SOL     OW28258   1.831   2.067   4.276 -0.2348  0.1704  0.1129
 5542SOL    HW128259   1.907   2.112   4.313  0.0081 -1.8620  2.1076
 5542SOL    HW228260   1.827   2.106   4.189  0.9206 -2.4885 -1.1030
 5543SOL     OW28261   0.703   0.614   3.403 -0.2326 -0.9796  0.0742
 5543SOL    HW128262   0.758   0.692   3.417 -0.3023 -0.9835  0.3645
 5543SOL    HW228263   0.762   0.558   3.454  0.1914 -0.7878 -0.2034
 5544SOL     OW28264   3.237   2.095   2.568  0.2103 -0.5501 -0.1193
 5544SOL    HW128265   3.319   2.078   2.522  0.5241  1.4609 -0.3013
 5544SOL    HW228266   3.199   2.136   2.490 -1.1887 -0.4135  0.6459
 5545SOL     OW28267   3.159   4.218  10.849  0.1628 -0.1225  0.2268
 5545SOL    HW128268   3.090   4.204  10.914 -0.9485  4.7482  0.0835
 5545SOL    HW228269   3.220   4.148  10.872 -0.3346 -1.0070 -1.2125
 5546SOL     OW28270   1.439   2.731   3.056  0.0860  0.8852  0.2346
 5546SOL    HW128271   1.488   2.696   2.982 -1.5028 -1.8972  0.4956
 5546SOL    HW228272   1.516   2.744   3.110  0.3961 -1.6241  0.3839
 5547SOL     OW28273   1.101   0.708   4.193  0.5964 -0.0819  0.2158
 5547SOL    HW128274   1.177   0.650   4.198  0.2108 -0.6454 -0.5036
 5547SOL    HW228275   1.051   0.683   4.115  1.9446 -1.3458 -0.2394
 5548SOL     OW28276   3.725   1.963   6.117  0.3435 -0.2980  0.4113
 5548SOL    HW128277   3.648   1.907   6.131  0.0382 -0.0791 -0.4205
 5548SOL    HW228278   3.705   2.040   6.170 -0.0691  0.1352 -0.3653
 5549SOL     OW28279   2.266   4.610   6.797 -0.1310 -0.4931 -0.0628
 5549SOL    HW128280   2.293   4.701   6.799 -2.5622  0.2133  0.3980
 5549SOL    HW228281   2.281   4.585   6.888  0.7476 -0.8533 -0.3087
 5550SOL     OW28282   2.125   1.694  12.941  0.3841 -0.8733 -0.3206
 5550SOL    HW128283   2.212   1.689  12.980  0.7613 -0.1526 -1.0449
 5550SOL    HW228284   2.142   1.657  12.854  0.9932 -0.2215 -0.4788
 5551SOL     OW28285   1.442   2.554   5.349 -0.4701 -0.7258  0.0787
 5551SOL    HW128286   1.414   2.639   5.384  0.8196 -0.1979 -0.1562
 5551SOL    HW228287   1.535   2.577   5.347 -0.7124  0.2548 -0.2964
 5552SOL     OW28288   4.119   3.060  17.752  0.2592  0.4395  0.9753
 5552SOL    HW128289   4.044   3.111  17.721  0.5797  0.9578  1.0417
 5552SOL    HW228290   4.079   2.989   0.048  0.6788 -0.0184  0.6509
 5553SOL     OW28291   1.944   2.500   3.430  0.2606  0.4588 -0.1976
 5553SOL    HW128292   1.993   2.581   3.418  2.3275 -0.8183 -0.2837
 5553SOL    HW228293   1.911   2.508   3.520  0.8303  0.0663  0.0439
 5554SOL     OW28294   4.428   1.194   8.958  0.6998 -0.7462  0.4168
 5554SOL    HW128295   4.431   1.170   9.050 -0.6184  0.5924  0.8151
 5554SOL    HW228296   4.369   1.269   8.965  0.1874 -1.1875  0.7183
 5555SOL     OW28297   0.524   3.023  10.204  0.6897  1.1767  0.1410
 5555SOL    HW128298   0.519   3.119  10.207  0.5518  1.2073 -0.7979
 5555SOL    HW228299   0.604   3.006  10.153  0.9907  0.2247  0.9419
 5556SOL     OW28300   0.917   1.303  16.003  0.3582 -0.1427  0.4963
 5556SOL    HW128301   0.875   1.369  15.949 -0.1188 -0.5913  0.3137
 5556SOL    HW228302   0.992   1.355  16.031 -0.1765 -0.5198  2.6220
 5557SOL     OW28303   3.179   2.417   4.564  0.1746  0.4945 -0.3423
 5557SOL    HW128304   3.267   2.388   4.540  0.4609 -0.3351  1.7252
 5557SOL    HW228305   3.143   2.330   4.582 -0.6962  1.2739  1.6040
 5558SOL     OW28306   3.398   1.486   2.987  0.0189  0.1197  0.7330
 5558SOL    HW128307   3.349   1.426   3.043 -0.8288 -1.1564 -1.3868
 5558SOL    HW228308   3.331   1.526   2.932  0.5277 -0.6944 -0.4868
 5559SOL     OW28309   3.000   0.552   5.758 -0.6962 -0.0985  0.0061
 5559SOL    HW128310   2.959   0.534   5.673 -0.8939  3.2316 -0.5836
 5559SOL    HW228311   2.997   0.647   5.760  0.2607 -0.0884  1.0314
 5560SOL     OW28312   1.464   0.913   5.413 -0.3273  0.4056 -0.0790
 5560SOL    HW128313   1.507   0.982   5.362  0.9896 -1.4505 -1.4843
 5560SOL    HW228314   1.497   0.911   5.502  1.4350  0.7260 -0.7201
 5561SOL     OW28315   4.126   3.688   7.278  0.9320  0.1103 -0.1346
 5561SOL    HW128316   4.095   3.757   7.337 -0.0140 -0.9169  0.5665
 5561SOL    HW228317   4.071   3.695   7.200 -0.6734 -0.9327  0.9118
 5562SOL     OW28318   1.685   4.557   6.108  0.0795 -0.0754  0.0352
 5562SOL    HW128319   1.739   4.587   6.181 -1.3550  2.1659  0.1790
 5562SOL    HW228320   1.741   4.543   6.031  1.3919  0.0944  0.9676
 5563SOL     OW28321   3.947   4.383   7.025 -0.6653  0.3725  0.3215
 5563SOL    HW128322   3.968   4.291   7.040  0.3912  0.8452  1.7569
 5563SOL    HW228323   3.923   4.418   7.111 -1.5443 -2.2172  1.1401
 5564SOL     OW28324   0.233   1.243   6.372 -0.1755 -0.4437 -0.0175
 5564SOL    HW128325   0.179   1.209   6.443  1.0302 -0.4967  0.8648
 5564SOL    HW228326   0.227   1.337   6.384  1.1919 -0.3352 -0.1296
 5565SOL     OW28327   4.575   3.074   5.469 -0.4355  0.4532 -0.5569
 5565SOL    HW128328   4.558   3.023   5.390  0.3160  1.3144 -1.2712
 5565SOL    HW228329   4.670   3.078   5.470 -0.3210 -2.0227 -2.4876
 5566SOL     OW28330   3.272   4.193   3.131 -0.0257 -0.2006 -0.3549
 5566SOL    HW128331   3.287   4.100   3.148 -0.8963 -0.6243 -1.9332
 5566SOL    HW228332   3.288   4.218   3.222 -0.8369 -0.5260 -0.1244
 5567SOL     OW28333   1.299   2.150   5.302  0.4252  0.0413 -0.1707
 5567SOL    HW128334   1.356   2.126   5.375 -0.9357 -2.2044  0.1463
 5567SOL    HW228335   1.233   2.197   5.352  0.1795 -0.4846 -0.0019
 5568SOL     OW28336   0.980   4.154   4.526 -0.1826 -0.2890  0.0547
 5568SOL    HW128337   1.060   4.184   4.570  0.9121 -4.6480  1.0493
 5568SOL    HW228338   0.921   4.216   4.568  1.4716  2.1324 -1.1871
 5569SOL     OW28339   1.864   0.554   1.521 -0.5159  0.4688 -0.0614
 5569SOL    HW128340   1.788   0.496   1.509 -0.9763  0.7693  1.4015
 5569SOL    HW228341   1.856   0.612   1.446 -0.9531  1.1033  0.4758
 5570SOL     OW28342   4.639   3.556   9.331 -0.4111 -0.1412  0.8613
 5570SOL    HW128343   4.729   3.522   9.328 -1.1831 -2.0778 -0.0664
 5570SOL    HW228344   4.651   3.612   9.254 -1.1711  0.9559  1.5498
 5571SOL     OW28345   0.599   3.589   4.932  0.1601  0.0316  0.1068
 5571SOL    HW128346   0.672   3.633   4.888  0.1574  1.7422  1.8154
 5571SOL    HW228347   0.627   3.596   5.023  2.4604 -2.5797 -0.4069
 5572SOL     OW28348   2.989   3.410  16.082 -0.0064 -0.5007 -0.0608
 5572SOL    HW128349   3.035   3.474  16.136 -0.3219  0.2184 -0.6428
 5572SOL    HW228350   2.953   3.463  16.011  0.8282 -1.7027 -1.3609
 5573SOL     OW28351   0.568   3.656   1.441  0.2948 -0.1997 -0.0175
 5573SOL    HW128352   0.557   3.668   1.347 -3.1767 -2.4236  0.1151
 5573SOL    HW228353   0.661   3.680   1.447 -0.4698  2.3742  1.3329
 5574SOL     OW28354   3.761   1.768   5.872 -0.4215 -0.0792  0.4674
 5574SOL    HW128355   3.832   1.735   5.927 -0.3472 -0.1500  0.3310
 5574SOL    HW228356   3.720   1.810   5.947 -0.6869  1.0018 -0.2908
 5575SOL     OW28357   1.706   1.381   2.256  0.3152  0.4965  0.5114
 5575SOL    HW128358   1.744   1.293   2.259  1.1223  0.8027 -1.2682
 5575SOL    HW228359   1.781   1.434   2.231  1.1922 -1.2272 -0.4776
 5576SOL     OW28360   2.192   0.331   6.657  0.0111 -0.2369  0.4560
 5576SOL    HW128361   2.240   0.253   6.628 -1.1744 -0.9187  0.2998
 5576SOL    HW228362   2.208   0.320   6.751 -0.1381 -0.9502  0.4045
 5577SOL     OW28363   3.538   3.524   7.165  0.5175 -0.3846  0.2434
 5577SOL    HW128364   3.621   3.526   7.212  0.5852  1.2700  0.0478
 5577SOL    HW228365   3.494   3.602   7.199 -2.5859 -1.4227 -1.3822
 5578SOL     OW28366   1.018   2.703   2.629 -0.5729  0.6928 -0.2283
 5578SOL    HW128367   0.986   2.632   2.685  2.3597  0.1489  0.7518
 5578SOL    HW228368   0.935   2.710   2.582 -1.6092  1.8876  1.7659
 5579SOL     OW28369   1.325   1.889   6.714 -0.0542 -0.0777  0.8139
 5579SOL    HW128370   1.365   1.807   6.687 -2.3188 -0.0151 -2.6751
 5579SOL    HW228371   1.359   1.941   6.641 -3.4279  0.4569 -0.4027
 5580SOL     OW28372   4.679   4.362  12.951 -0.1974 -0.6464  0.0189
 5580SOL    HW128373   4.701   4.388  13.041 -2.5972  0.7482  0.2160
 5580SOL    HW228374   0.014   4.394  12.900  0.6134 -2.2865  0.1915
 5581SOL     OW28375   1.577   0.280  10.906  0.0202  0.4709 -0.2373
 5581SOL    HW128376   1.530   0.358  10.933 -0.7467 -0.1908  0.3685
 5581SOL    HW228377   1.642   0.281  10.977  0.5379 -1.3584 -0.6853
 5582SOL     OW28378   2.179   3.601   4.196 -0.1109 -0.4875  0.4316
 5582SOL    HW128379   2.174   3.579   4.289 -1.1249 -0.8327  0.2870
 5582SOL    HW228380   2.206   3.515   4.164 -0.7312 -0.0697 -1.2215
 5583SOL     OW28381   3.143   2.277   3.918  0.3530 -0.5365 -0.0264
 5583SOL    HW128382   3.189   2.355   3.950 -1.1464  0.1573  0.4843
 5583SOL    HW228383   3.054   2.306   3.940  1.1615  2.5114 -0.6510
 5584SOL     OW28384   3.296   1.636   6.956  0.1534 -0.4504  0.1946
 5584SOL    HW128385   3.352   1.560   6.974  0.5307 -0.1526  0.2839
 5584SOL    HW228386   3.261   1.627   6.868  0.6142  2.7261 -0.3131
 5585SOL     OW28387   3.775   0.990   3.644  0.3002 -0.0907 -0.0087
 5585SOL    HW128388   3.852   1.003   3.698 -1.1996 -0.4732  2.2109
 5585SOL    HW228389   3.804   1.002   3.554 -1.9121 -0.6316 -0.8074
 5586SOL     OW28390   3.972   2.230   7.330 -0.3265 -0.4387  0.1391
 5586SOL    HW128391   4.024   2.310   7.333  0.7183 -1.0705 -1.3136
 5586SOL    HW228392   3.885   2.249   7.295 -0.8092  2.2921  2.7715
 5587SOL     OW28393   4.594   1.643   1.397  0.2069 -0.2801 -0.2127
 5587SOL    HW128394   4.520   1.690   1.360  0.4228 -1.8950 -2.7629
 5587SOL    HW228395   4.552   1.618   1.479  0.8989  0.1096  0.2622
 5588SOL     OW28396   1.335   0.539  11.231 -0.0966  0.5324  0.0830
 5588SOL    HW128397   1.338   0.472  11.299  0.0040 -1.0301 -1.4553
 5588SOL    HW228398   1.256   0.514  11.183  0.9125  0.5323 -1.5813
 5589SOL     OW28399   1.903   1.553   2.216  0.2715 -0.4343  0.2670
 5589SOL    HW128400   1.978   1.517   2.168  0.7716 -1.8191  2.0561
 5589SOL    HW228401   1.893   1.634   2.167  1.3635 -0.2927  0.2774
 5590SOL     OW28402   0.565   1.111   1.160 -0.2314 -0.3230  0.2191
 5590SOL    HW128403   0.641   1.141   1.110  0.1459 -0.8356  0.4832
 5590SOL    HW228404   0.549   1.022   1.128 -0.3780 -1.0664  2.3591
 5591SOL     OW28405   3.832   4.131  11.639  0.8418 -0.6176 -0.2342
 5591SOL    HW128406   3.742   4.146  11.609  1.1888  1.0367 -0.4672
 5591SOL    HW228407   3.823   4.086  11.723 -2.2317  1.3893  0.5100
 5592SOL     OW28408   0.900   4.382   3.522  0.1230 -0.4671 -0.6960
 5592SOL    HW128409   0.814   4.358   3.556 -0.1185  0.3834 -0.7087
 5592SOL    HW228410   0.914   4.471   3.555 -2.8197 -0.2150 -0.1149
 5593SOL     OW28411   2.615   4.605   4.632 -0.2451 -0.4384 -0.1243
 5593SOL    HW128412   2.547   4.611   4.564 -1.2332 -1.2397  0.7988
 5593SOL    HW228413   2.695   4.644   4.596  0.5402 -0.3534  1.7076
 5594SOL     OW28414   1.312   4.578  11.812  0.9177  0.0722 -0.2435
 5594SOL    HW128415   1.316   4.628  11.894  1.0839 -0.4676  0.0829
 5594SOL    HW228416   1.403   4.547  11.809  1.4163  1.3496  1.4805
 5595SOL     OW28417   0.269   3.042  13.274  0.2958  0.3173  0.4873
 5595SOL    HW128418   0.331   3.096  13.323  0.2421  2.0522 -1.3564
 5595SOL    HW228419   0.329   2.992  13.218  0.1425  0.1063  0.5100
 5596SOL     OW28420   1.847   2.319   1.263  0.3302  0.1612  0.1421
 5596SOL    HW128421   1.906   2.249   1.235 -0.6736 -0.4684 -0.4116
 5596SOL    HW228422   1.894   2.386   1.213 -0.9713  0.0837 -1.2055
 5597SOL     OW28423   0.936   2.883   7.605  0.6363  0.2452 -0.0634
 5597SOL    HW128424   0.913   2.851   7.518 -1.7326  0.5898  0.4112
 5597SOL    HW228425   0.854   2.886   7.654 -0.1910 -3.0202 -1.2703
 5598SOL     OW28426   2.869   3.885   0.035  0.5941  0.0818 -0.3805
 5598SOL    HW128427   2.818   3.820   0.083 -0.5551  1.7346  0.6403
 5598SOL    HW228428   2.917   3.938   0.098  1.7794 -0.0099 -1.2073
 5599SOL     OW28429   1.737   3.174   3.122 -0.3147 -0.1267 -0.1075
 5599SOL    HW128430   1.661   3.138   3.077  1.0912 -1.3835 -1.5074
 5599SOL    HW228431   1.716   3.266   3.137  1.9371  0.4698 -0.5575
 5600SOL     OW28432   0.073   1.504  17.747 -0.2434 -0.1874  0.1924
 5600SOL    HW128433   0.018   1.436  17.708  0.0225 -0.4916  0.3527
 5600SOL    HW228434   0.144   1.512  17.684 -0.2364 -0.9456  0.0975
 5601SOL     OW28435   4.159   1.927   6.573 -0.0428 -0.1523  0.1881
 5601SOL    HW128436   4.197   2.015   6.569  1.4167 -0.7522  0.7760
 5601SOL    HW228437   4.067   1.944   6.591 -0.1696  1.0752 -1.6602
 5602SOL     OW28438   1.151   3.650   6.648 -0.1160  0.1935  0.1669
 5602SOL    HW128439   1.084   3.704   6.608 -0.5182  2.0318  3.3397
 5602SOL    HW228440   1.185   3.699   6.723 -1.5236  0.2806  0.7449
 5603SOL     OW28441   0.808   0.026  16.148 -0.3240  0.7213  0.1796
 5603SOL    HW128442   0.902   0.037  16.155 -0.3294  0.7260  0.2397
 5603SOL    HW228443   0.803   0.046  16.054 -1.1252 -0.7952 -0.1039
 5604SOL     OW28444   4.422   3.107   9.536 -0.1117  0.5061 -0.1432
 5604SOL    HW128445   4.331   3.129   9.518 -0.1326  2.2652  2.1575
 5604SOL    HW228446   4.468   3.175   9.488  2.0223 -1.0328 -0.2914
 5605SOL     OW28447   0.925   2.162   7.030  0.4881  0.5337  0.3632
 5605SOL    HW128448   0.918   2.155   7.125 -2.0735 -2.6564 -0.0406
 5605SOL    HW228449   1.021   2.153   7.025  0.4085 -0.0942 -0.0751
 5606SOL     OW28450   3.934   2.660   4.805 -0.4677  0.0543  0.0036
 5606SOL    HW128451   3.948   2.652   4.899 -1.7619 -0.9543  0.0991
 5606SOL    HW228452   3.989   2.737   4.790  3.1438 -2.2528  1.3185
 5607SOL     OW28453   1.177   3.912  12.605 -0.4188  0.0567 -0.5263
 5607SOL    HW128454   1.188   3.903  12.510 -0.6438  2.1920 -0.7425
 5607SOL    HW228455   1.093   3.957  12.615 -0.4399  0.1169 -0.9555
 5608SOL     OW28456   2.973   1.926  12.635  0.2784  0.2183  0.0792
 5608SOL    HW128457   2.892   1.912  12.585  0.7866 -0.0147 -0.6789
 5608SOL    HW228458   3.039   1.906  12.570  0.0240  1.3658 -0.5425
 5609SOL     OW28459   2.140   2.120   1.430  0.6316  0.4503 -0.0284
 5609SOL    HW128460   2.149   2.122   1.525  1.2388  1.7394 -0.1168
 5609SOL    HW228461   2.144   2.214   1.413 -0.1985  0.8232  1.8493
 5610SOL     OW28462   4.270   1.090   2.739  0.4842  0.0258  0.1518
 5610SOL    HW128463   4.278   1.002   2.777  1.1276  0.8823  2.0086
 5610SOL    HW228464   4.176   1.101   2.722  0.5015 -0.4507 -0.2317
 5611SOL     OW28465   1.481   4.191   0.884  0.1820  0.2593  0.0774
 5611SOL    HW128466   1.506   4.253   0.952 -1.9443 -1.0312  2.0054
 5611SOL    HW228467   1.539   4.205   0.809 -0.1947 -0.0337 -0.2746
 5612SOL     OW28468   1.110   3.947   3.898  0.5605 -0.6540  0.7233
 5612SOL    HW128469   1.088   3.894   3.821 -0.5708 -0.0845  0.6521
 5612SOL    HW228470   1.074   3.890   3.967 -1.5661  0.5777  0.6215
 5613SOL     OW28471   4.058   2.689   4.542  0.3785 -0.2274  0.1428
 5613SOL    HW128472   4.135   2.738   4.570 -0.4572 -0.0198  2.1070
 5613SOL    HW228473   4.013   2.658   4.621  0.2901 -0.5978 -0.0526
 5614SOL     OW28474   1.231   3.243   7.271  0.3804 -0.7014  0.1563
 5614SOL    HW128475   1.303   3.239   7.335  0.9790 -1.6615 -0.5843
 5614SOL    HW228476   1.155   3.212   7.320 -0.0596 -0.5844 -0.4593
 5615SOL     OW28477   1.638   0.662   2.486 -0.1791 -0.4938 -0.2896
 5615SOL    HW128478   1.548   0.659   2.454 -0.0194 -1.2295 -0.6673
 5615SOL    HW228479   1.675   0.737   2.440 -1.7300  0.6956  0.3865
 5616SOL     OW28480   3.922   2.783  16.823 -0.1786  0.4072 -0.1146
 5616SOL    HW128481   3.919   2.741  16.737  2.5668 -0.5165  0.2474
 5616SOL    HW228482   3.831   2.807  16.837  0.1640  0.5165  1.9416
 5617SOL     OW28483   0.440   3.256   3.944  0.0127 -0.2950 -0.3353
 5617SOL    HW128484   0.381   3.280   4.016  1.4284  0.0185  0.7245
 5617SOL    HW228485   0.418   3.332   3.890  1.9184  0.2770 -0.3109
 5618SOL     OW28486   1.961   2.243   0.814  0.2027  0.2359  0.2191
 5618SOL    HW128487   1.960   2.288   0.729 -2.0039  0.7352  0.5223
 5618SOL    HW228488   1.970   2.151   0.788  1.0135  0.7807 -1.4596
 5619SOL     OW28489   2.894   3.817   5.492  0.2787 -0.0963  0.1047
 5619SOL    HW128490   2.891   3.910   5.515 -1.7400 -0.1286  0.0406
 5619SOL    HW228491   2.963   3.786   5.550 -0.7027  0.1940  1.4301
 5620SOL     OW28492   4.313   4.177   6.925 -0.7572 -0.3490 -0.1328
 5620SOL    HW128493   4.405   4.162   6.944 -0.9276  0.1656  1.0958
 5620SOL    HW228494   4.287   4.098   6.877  0.9848  0.3432 -2.2198
 5621SOL     OW28495   2.842   1.318  17.137 -0.3542  0.4038 -0.0784
 5621SOL    HW128496   2.818   1.349  17.225  0.1322  0.8910 -0.1141
 5621SOL    HW228497   2.932   1.350  17.136 -0.1191 -0.3585 -1.7718
 5622SOL     OW28498   3.174   2.363   9.589 -0.5945  0.2886 -0.5455
 5622SOL    HW128499   3.132   2.429   9.645  0.5712  0.4615  0.1164
 5622SOL    HW228500   3.233   2.320   9.651 -1.9867  0.7784  1.1433
 5623SOL     OW28501   2.338   3.739   4.547  0.1851 -0.1761  0.0566
 5623SOL    HW128502   2.415   3.714   4.497  0.1160  0.5885 -0.4235
 5623SOL    HW228503   2.333   3.832   4.526 -2.1458  0.0506  1.5862
 5624SOL     OW28504   2.279   0.251   3.176  0.1277 -0.0438 -0.2456
 5624SOL    HW128505   2.255   0.184   3.112  1.0847 -0.2626 -0.3746
 5624SOL    HW228506   2.216   0.317   3.149  0.9269  0.0756 -1.8502
 5625SOL     OW28507   1.780   4.090   3.815 -0.2639  0.3409 -0.1484
 5625SOL    HW128508   1.813   4.001   3.806 -2.1885 -0.0720 -3.2671
 5625SOL    HW228509   1.705   4.075   3.872 -0.9403  1.1448 -0.8135
 5626SOL     OW28510   3.855   3.165   3.341  0.0729 -0.1666 -0.1996
 5626SOL    HW128511   3.856   3.078   3.302 -1.6437 -0.4927  0.4723
 5626SOL    HW228512   3.871   3.220   3.264  0.7266  0.2014  0.2020
 5627SOL     OW28513   2.031   1.873  12.596 -0.0282  0.1061 -0.0366
 5627SOL    HW128514   2.034   1.789  12.641 -3.9882  0.5206  1.0067
 5627SOL    HW228515   1.971   1.860  12.521  1.4887 -1.3754 -0.9870
 5628SOL     OW28516   2.173   2.073  12.715 -0.9812 -0.4660 -0.2112
 5628SOL    HW128517   2.111   2.020  12.664 -2.6397 -0.0995  1.4335
 5628SOL    HW228518   2.162   2.026  12.798  0.5887 -2.4237 -1.1432
 5629SOL     OW28519   2.837   2.269   4.823 -0.2574 -0.4243 -0.0133
 5629SOL    HW128520   2.805   2.245   4.736 -2.1579 -0.3784  0.6613
 5629SOL    HW228521   2.765   2.263   4.887  1.6079 -0.6354  2.0489
 5630SOL     OW28522   3.844   3.914   0.161 -0.5573 -0.9020 -0.2524
 5630SOL    HW128523   3.767   3.894   0.214  1.0517 -2.5388  1.5084
 5630SOL    HW228524   3.886   3.988   0.204  0.7638 -2.9751  2.0476
 5631SOL     OW28525   2.034   3.016  17.683  0.4094  0.4521 -0.0090
 5631SOL    HW128526   2.003   3.036  17.594  0.1303 -0.3790 -0.1009
 5631SOL    HW228527   2.014   3.092  17.737 -0.2269 -0.2898  0.7959
 5632SOL     OW28528   1.144   0.148   8.227  0.1384  0.4148 -0.2506
 5632SOL    HW128529   1.052   0.121   8.218 -0.4840  2.5640 -0.4545
 5632SOL    HW228530   1.135   0.230   8.178 -1.7370  0.7712  0.6867
 5633SOL     OW28531   2.492   1.440   4.721 -0.8268  0.4899 -0.2623
 5633SOL    HW128532   2.553   1.514   4.716 -0.5290  0.1877 -1.1246
 5633SOL    HW228533   2.466   1.428   4.629  0.3247 -0.4836 -0.4602
 5634SOL     OW28534   0.241   2.364   3.110 -0.1476 -0.0847  0.1443
 5634SOL    HW128535   0.192   2.430   3.062  0.3590  0.1697 -0.0219
 5634SOL    HW228536   0.167   2.308   3.133 -0.6537  0.9049  0.9157
 5635SOL     OW28537   4.102   1.454   4.457 -0.1450 -0.0338 -0.5679
 5635SOL    HW128538   4.175   1.452   4.518  0.5184 -0.2976 -1.3629
 5635SOL    HW228539   4.091   1.545   4.431 -0.5545 -0.6049 -2.3966
 5636SOL     OW28540   1.933   0.011   8.562  0.2406  0.0591 -0.0775
 5636SOL    HW128541   1.923   4.674   8.506  1.3142  1.8281 -2.6617
 5636SOL    HW228542   2.015   4.727   8.607  0.7216  1.2836 -0.3182
 5637SOL     OW28543   4.376   1.849   5.801  0.2020  0.7668 -0.1697
 5637SOL    HW128544   4.446   1.867   5.864  1.1988 -1.0928 -0.7650
 5637SOL    HW228545   4.421   1.871   5.720 -1.1337 -1.3800 -1.4961
 5638SOL     OW28546   1.864   3.647   6.340 -0.3012 -0.0236  0.3993
 5638SOL    HW128547   1.858   3.698   6.259  1.6012 -0.6979 -0.1800
 5638SOL    HW228548   1.826   3.561   6.324 -3.1592  1.2258  0.5117
 5639SOL     OW28549   0.196   1.377   1.315  0.1301 -0.6014 -0.2017
 5639SOL    HW128550   0.231   1.318   1.248  0.8957 -0.6484  0.2362
 5639SOL    HW228551   0.171   1.317   1.385 -2.0868 -0.8018 -1.1902
 5640SOL     OW28552   3.253   0.101   7.856 -0.1206 -0.1909 -0.1341
 5640SOL    HW128553   3.292   0.174   7.903 -3.8257  1.1892  0.7485
 5640SOL    HW228554   3.331   0.048   7.840 -0.6696 -1.0337 -0.0665
 5641SOL     OW28555   4.076   3.791   0.236 -0.2032 -0.1168  0.4700
 5641SOL    HW128556   4.022   3.831   0.168 -0.3748  1.9020  1.7856
 5641SOL    HW228557   4.075   3.867   0.296 -0.1834  1.0954 -1.0672
 5642SOL     OW28558   0.675   1.172   1.449  0.5442 -0.0555 -0.3060
 5642SOL    HW128559   0.708   1.082   1.458 -0.4945 -0.1312  2.8532
 5642SOL    HW228560   0.651   1.181   1.357 -0.3146  0.5865 -0.0209
 5643SOL     OW28561   4.655   2.260   1.949 -0.1064  0.4083 -0.5956
 5643SOL    HW128562   4.565   2.233   1.971 -0.2693  0.2101 -1.5245
 5643SOL    HW228563   4.642   2.333   1.887  0.9089  2.0966  1.1750
 5644SOL     OW28564   3.345   2.396  13.540  0.2446 -0.0381  0.4429
 5644SOL    HW128565   3.275   2.433  13.595 -0.6571  2.5481 -2.4305
 5644SOL    HW228566   3.345   2.310  13.583  1.9430  1.4730  3.3913
 5645SOL     OW28567   1.114   3.111  17.021  0.0260  0.6262 -0.2804
 5645SOL    HW128568   1.114   3.170  16.945  0.8986 -0.0078 -0.7754
 5645SOL    HW228569   1.020   3.092  17.031 -0.0111  1.7467  1.3798
 5646SOL     OW28570   2.236   3.631  14.809 -0.2452 -0.3399 -0.2733
 5646SOL    HW128571   2.261   3.721  14.830 -0.0845 -0.1475 -1.3008
 5646SOL    HW228572   2.292   3.611  14.734 -0.1544  1.1075 -0.5897
 5647SOL     OW28573   4.039   4.221   3.566 -0.6913  0.1630  0.1983
 5647SOL    HW128574   3.999   4.196   3.649 -0.8792  2.1883  0.7240
 5647SOL    HW228575   3.976   4.176   3.510  1.0507  0.1651 -1.7656
 5648SOL     OW28576   1.820   2.232   2.128 -0.0203 -0.3373  0.0468
 5648SOL    HW128577   1.800   2.308   2.182  2.0563  0.0794  0.2100
 5648SOL    HW228578   1.769   2.169   2.178 -2.0481  1.2760  0.0238
 5649SOL     OW28579   3.429   4.485  11.495  0.4625  0.0895 -0.5978
 5649SOL    HW128580   3.434   4.470  11.400 -2.4388  1.0904 -0.8886
 5649SOL    HW228581   3.439   4.580  11.495  1.8444 -0.0629  1.3374
 5650SOL     OW28582   0.414   1.619   1.475 -0.7354 -0.2112  0.4238
 5650SOL    HW128583   0.444   1.544   1.527  1.0439  0.9710  1.1104
 5650SOL    HW228584   0.319   1.610   1.472 -0.6891 -0.3751 -0.5261
 5651SOL     OW28585   2.902   0.734   4.159 -0.0689 -0.2634  0.2337
 5651SOL    HW128586   2.922   0.641   4.162  0.5962 -0.1490 -0.6804
 5651SOL    HW228587   2.984   0.774   4.128  0.0887  0.7001  1.8943
 5652SOL     OW28588   1.108   4.385   8.960 -0.6239 -0.3865  0.1786
 5652SOL    HW128589   1.100   4.432   8.877 -0.9646 -1.6165 -0.4745
 5652SOL    HW228590   1.085   4.451   9.026 -0.9215  0.1914 -0.5081
 5653SOL     OW28591   3.888   0.515   2.880  0.1843  0.4938  0.1753
 5653SOL    HW128592   3.917   0.520   2.789 -2.5706 -1.1150 -0.7795
 5653SOL    HW228593   3.796   0.541   2.873 -0.1292 -1.1027 -1.5315
 5654SOL     OW28594   4.423   2.751  12.397 -0.2133  0.0648 -0.1680
 5654SOL    HW128595   4.489   2.718  12.335 -0.8958 -0.3870 -0.6548
 5654SOL    HW228596   4.371   2.670  12.401 -1.2779  0.6857 -1.5045
 5655SOL     OW28597   4.515   3.503   0.358  0.6947  0.5669 -0.4241
 5655SOL    HW128598   4.541   3.564   0.289  0.6380  1.0873  0.0175
 5655SOL    HW228599   4.455   3.552   0.414 -0.5260  0.4329 -1.6193
 5656SOL     OW28600   0.380   1.049  16.237  1.2288  0.2493 -0.0757
 5656SOL    HW128601   0.364   0.959  16.209 -0.0031  0.2905  0.4730
 5656SOL    HW228602   0.302   1.066  16.289  0.6042  1.2570 -1.3421
 5657SOL     OW28603   3.753   1.750   8.484 -0.2707  0.0197  0.7441
 5657SOL    HW128604   3.829   1.701   8.515 -0.2638  0.1243  0.8922
 5657SOL    HW228605   3.685   1.694   8.521 -0.3218 -0.7392 -0.5069
 5658SOL     OW28606   1.280   3.718  15.841  0.2342 -0.1971 -0.4231
 5658SOL    HW128607   1.327   3.634  15.844  2.0013  0.9394  3.0118
 5658SOL    HW228608   1.325   3.751  15.763  0.2570  1.3120  0.2356
 5659SOL     OW28609   4.525   1.484   4.473 -0.0876  0.5230 -0.3774
 5659SOL    HW128610   4.476   1.558   4.509 -0.5830  0.1298 -0.2491
 5659SOL    HW228611   4.560   1.438   4.549 -0.9963  0.5917  0.0800
 5660SOL     OW28612   1.440   4.411   0.078 -0.2273  0.4261  0.1709
 5660SOL    HW128613   1.506   4.395   0.145  0.5557 -0.3662 -0.7974
 5660SOL    HW228614   1.484   4.466   0.014  0.4467 -0.3882 -0.0661
 5661SOL     OW28615   2.502   4.322  13.984 -0.2179  0.3731  1.0085
 5661SOL    HW128616   2.494   4.238  14.029 -0.5966 -0.8080 -1.2348
 5661SOL    HW228617   2.496   4.385  14.055 -0.8645  0.7194  0.6497
 5662SOL     OW28618   2.890   3.922  14.110 -0.1484 -0.2484 -0.0002
 5662SOL    HW128619   2.904   3.896  14.201  0.6234 -1.1395 -0.3730
 5662SOL    HW228620   2.897   3.836  14.068 -0.4395  0.5724 -1.7439
 5663SOL     OW28621   4.226   4.025   9.243  0.1026 -0.6420 -0.1911
 5663SOL    HW128622   4.235   4.108   9.289 -1.2142  0.5248 -2.0798
 5663SOL    HW228623   4.207   3.962   9.313  1.7173 -0.1331  0.7129
 5664SOL     OW28624   1.338   3.338   8.156 -0.3293 -0.5288  0.4723
 5664SOL    HW128625   1.367   3.265   8.101  0.9748  0.2379  0.1285
 5664SOL    HW228626   1.286   3.286   8.216 -2.3049 -1.3376 -1.9531
 5665SOL     OW28627   0.763   2.668   9.214  0.1967  0.4197 -0.6244
 5665SOL    HW128628   0.796   2.578   9.211 -0.3542  0.1342  1.8414
 5665SOL    HW228629   0.800   2.696   9.298  1.4380 -0.3922 -0.8931
 5666SOL     OW28630   0.687   1.710   5.831  0.9907  0.3411 -0.1031
 5666SOL    HW128631   0.694   1.768   5.755  2.6852 -0.7650 -0.8008
 5666SOL    HW228632   0.669   1.626   5.788  0.1381  1.2608 -1.5278
 5667SOL     OW28633   0.435   2.477   4.681 -0.3377  0.1840  0.2189
 5667SOL    HW128634   0.477   2.419   4.618 -0.6918  0.8130 -0.5989
 5667SOL    HW228635   0.499   2.545   4.701 -2.0427  2.7155 -2.9480
 5668SOL     OW28636   4.446   3.178   9.146  0.4984  0.1261  0.3724
 5668SOL    HW128637   4.509   3.210   9.211 -0.3951  0.1465  1.2245
 5668SOL    HW228638   4.360   3.190   9.187 -0.0067 -1.2278 -0.3007
 5669SOL     OW28639   1.557   0.361  12.337 -0.2796 -0.5637 -0.1095
 5669SOL    HW128640   1.653   0.351  12.339 -0.1391  0.9443  0.7571
 5669SOL    HW228641   1.527   0.282  12.382 -1.0306 -0.3029 -0.1653
 5670SOL     OW28642   3.748   1.036   4.060  0.2017  0.3471 -0.3104
 5670SOL    HW128643   3.817   1.003   4.002 -0.4473  2.0729 -2.0835
 5670SOL    HW228644   3.676   1.035   3.996 -0.0062  4.0708 -0.1424
 5671SOL     OW28645   4.249   2.450  13.520 -0.7290 -0.3402  0.3537
 5671SOL    HW128646   4.263   2.532  13.567 -0.7085 -1.2102  1.8591
 5671SOL    HW228647   4.322   2.395  13.550 -1.3267 -1.6330 -0.5570
 5672SOL     OW28648   2.669   2.459  13.410  0.5663 -0.3094  0.1032
 5672SOL    HW128649   2.607   2.521  13.447 -0.2353 -1.0721  0.0532
 5672SOL    HW228650   2.615   2.383  13.387  0.3615 -0.6184  1.6077
 5673SOL     OW28651   1.996   3.677   7.688  0.3296  0.4938 -0.6009
 5673SOL    HW128652   1.953   3.694   7.605 -1.1113 -1.7193 -0.3001
 5673SOL    HW228653   2.078   3.640   7.656  0.5304  0.4745 -0.0635
 5674SOL     OW28654   4.111   2.687   6.206  0.2335  0.1534 -0.2383
 5674SOL    HW128655   4.058   2.627   6.154  3.9022 -3.0568 -0.3220
 5674SOL    HW228656   4.072   2.689   6.293  0.8128  2.8360 -0.0176
 5675SOL     OW28657   0.081   2.020  10.009 -0.0341  0.6711  0.1222
 5675SOL    HW128658   0.004   2.037  10.064  1.1103 -0.9720  2.2794
 5675SOL    HW228659   0.031   2.028   9.928 -0.4898  3.1746  0.6614
 5676SOL     OW28660   3.963   1.598   3.348  0.0182  0.4589  0.3707
 5676SOL    HW128661   3.944   1.574   3.439 -1.4896  0.6809  0.1232
 5676SOL    HW228662   4.000   1.517   3.315 -0.0393  0.0459  1.3132
 5677SOL     OW28663   3.425   1.612   4.157 -0.3293 -0.4923  0.1833
 5677SOL    HW128664   3.478   1.663   4.218 -2.4133  0.7927  0.9098
 5677SOL    HW228665   3.409   1.543   4.222 -0.3849 -0.2127  0.4666
 5678SOL     OW28666   2.498   2.130   4.348 -0.1393 -0.5095  0.1776
 5678SOL    HW128667   2.524   2.176   4.428  1.5670 -0.4894 -0.3895
 5678SOL    HW228668   2.455   2.054   4.386  0.3091 -0.1688  1.3641
 5679SOL     OW28669   2.629   1.796  17.459 -0.2534 -0.7708  0.2144
 5679SOL    HW128670   2.711   1.843  17.472 -0.3446 -1.1205  2.0423
 5679SOL    HW228671   2.591   1.837  17.381 -1.1105 -0.8134  0.6079
 5680SOL     OW28672   1.299   4.007   9.626  0.0537 -0.6978 -0.0981
 5680SOL    HW128673   1.230   4.009   9.559 -1.7288  1.5946  1.7956
 5680SOL    HW228674   1.368   4.009   9.559  1.3826  2.2834  1.3795
 5681SOL     OW28675   0.010   3.521   6.048  0.1569  0.0665  0.6836
 5681SOL    HW128676   0.085   3.480   6.092 -0.9093 -1.7359  0.8211
 5681SOL    HW228677   0.028   3.608   6.084 -2.2609  0.5219  0.7857
 5682SOL     OW28678   4.526   1.874   2.270 -0.1715  0.4660 -0.1090
 5682SOL    HW128679   4.518   1.858   2.175 -1.7159  0.8210 -0.0415
 5682SOL    HW228680   4.584   1.949   2.274  0.3533 -0.0716  2.1986
 5683SOL     OW28681   2.048   4.237   6.723 -0.3551  0.1460  0.1086
 5683SOL    HW128682   1.969   4.185   6.706 -0.8561  0.7304  0.6577
 5683SOL    HW228683   2.110   4.208   6.656  0.5760  0.9943  0.5988
 5684SOL     OW28684   2.126   4.562  11.626  0.1919 -0.3557 -0.1101
 5684SOL    HW128685   2.123   4.496  11.696  0.4883  1.4374  1.5702
 5684SOL    HW228686   2.169   4.511  11.558  0.7343  0.7032 -0.5462
 5685SOL     OW28687   3.955   1.415  11.765 -1.0631 -0.3958 -0.0420
 5685SOL    HW128688   3.993   1.335  11.801  0.8405  0.7436  0.5092
 5685SOL    HW228689   3.895   1.448  11.831 -0.7665 -1.4989  0.7797
 5686SOL     OW28690   4.116   2.797  17.454 -0.0517 -0.4696  0.3629
 5686SOL    HW128691   4.177   2.754  17.514  0.3932  0.6751  0.7209
 5686SOL    HW228692   4.046   2.733  17.451 -2.2231  2.0170 -1.9703
 5687SOL     OW28693   1.702   0.037   2.122 -0.3187  0.2084 -0.1241
 5687SOL    HW128694   1.751   4.701   2.089  1.5748  1.2767  0.2667
 5687SOL    HW228695   1.723   0.018   2.214  0.3308 -0.1072 -0.3346
 5688SOL     OW28696   0.678   1.065   9.318  0.2745  0.7278  0.0677
 5688SOL    HW128697   0.626   1.063   9.238  1.5829 -1.5131 -0.7324
 5688SOL    HW228698   0.627   1.015   9.382  3.4317 -2.7699 -0.1220
 5689SOL     OW28699   1.990   2.782   6.699  0.1263  0.0547 -0.0240
 5689SOL    HW128700   1.926   2.717   6.670  0.8050 -1.5329  2.0034
 5689SOL    HW228701   2.005   2.830   6.618 -0.6515  0.4410  0.0556
 5690SOL     OW28702   0.827   4.092   1.484  0.5340  0.3186 -0.5110
 5690SOL    HW128703   0.735   4.079   1.461 -0.5187  2.8738  2.3124
 5690SOL    HW228704   0.862   4.009   1.452  2.9832  1.4913 -0.9121
 5691SOL     OW28705   1.953   1.203  12.068 -0.1545  0.2670  0.1621
 5691SOL    HW128706   1.929   1.113  12.088 -2.0785  0.6731 -0.3402
 5691SOL    HW228707   2.047   1.193  12.080 -0.4686 -1.8508  0.7997
 5692SOL     OW28708   2.665   4.416   0.232 -0.8945 -0.0810 -0.0214
 5692SOL    HW128709   2.698   4.332   0.201 -1.9459 -0.2850 -0.6083
 5692SOL    HW228710   2.734   4.466   0.274  1.3946 -1.1359 -2.5199
 5693SOL     OW28711   2.090   1.841   4.620 -0.2674  0.0613  0.3575
 5693SOL    HW128712   2.121   1.924   4.584  0.0186 -0.2296 -0.0766
 5693SOL    HW228713   2.095   1.785   4.542 -0.9916  0.4582  0.0288
 5694SOL     OW28714   4.550   1.410  11.111 -0.1995  0.5488 -0.1249
 5694SOL    HW128715   4.520   1.467  11.182 -1.4761  0.9043 -0.9528
 5694SOL    HW228716   4.625   1.384  11.164  0.0595 -0.9554 -1.2375
 5695SOL     OW28717   2.938   2.729   5.299 -0.2379  0.2505  0.4681
 5695SOL    HW128718   2.880   2.775   5.239  1.3607  0.4977 -0.8821
 5695SOL    HW228719   2.971   2.659   5.243  1.5663  0.5871  1.1086
 5696SOL     OW28720   3.848   1.051   3.386 -0.3415 -0.2592 -0.6030
 5696SOL    HW128721   3.902   1.128   3.374 -0.4570  0.2021  1.9469
 5696SOL    HW228722   3.776   1.080   3.330  0.0242  1.3375 -0.2375
 5697SOL     OW28723   4.056   4.363  16.735  0.4128  0.5028 -0.1015
 5697SOL    HW128724   4.049   4.456  16.714  0.6884  0.0892 -2.0474
 5697SOL    HW228725   4.069   4.328  16.646 -1.2964  0.1091 -0.1876
 5698SOL     OW28726   2.444   3.298   1.337  0.6007 -0.4611  0.5630
 5698SOL    HW128727   2.435   3.382   1.292  1.0384 -0.9970 -0.5402
 5698SOL    HW228728   2.363   3.305   1.387  0.5395  2.6677  0.0573
 5699SOL     OW28729   1.282   3.344   6.694  0.1767 -0.3919  0.5481
 5699SOL    HW128730   1.289   3.435   6.667 -0.4318  0.1728  2.3395
 5699SOL    HW228731   1.343   3.311   6.628  0.7226 -0.1912  0.9561
 5700SOL     OW28732   0.724   2.032   9.227  0.3048 -1.1531 -0.4247
 5700SOL    HW128733   0.768   2.044   9.143 -0.3504  2.2821 -0.2814
 5700SOL    HW228734   0.634   2.028   9.196 -0.5225  0.2074  1.7673
 5701SOL     OW28735   1.378   3.068   7.763  0.5479 -0.7711 -0.2731
 5701SOL    HW128736   1.301   3.013   7.746 -1.4886  1.3445  2.1893
 5701SOL    HW228737   1.347   3.153   7.734 -0.4250 -0.9495  0.2303
 5702SOL     OW28738   0.659   1.813  17.112 -0.7288  1.0997 -0.1540
 5702SOL    HW128739   0.746   1.787  17.139 -0.8057  0.9973 -0.0099
 5702SOL    HW228740   0.620   1.727  17.099 -1.4950  1.3692  0.3324
 5703SOL     OW28741   4.428   3.436   6.500 -0.6988 -0.2082 -0.3131
 5703SOL    HW128742   4.357   3.500   6.487 -1.2149 -0.6978  0.0856
 5703SOL    HW228743   4.383   3.363   6.542 -0.7054  0.6249  1.1329
 5704SOL     OW28744   4.195   0.429  11.907 -0.4120  0.2586 -0.6015
 5704SOL    HW128745   4.111   0.383  11.907  0.5240 -1.4508  0.7798
 5704SOL    HW228746   4.256   0.371  11.862 -0.8268  0.0027 -0.8330
 5705SOL     OW28747   4.207   1.104   6.144 -0.1416  0.5772  0.1555
 5705SOL    HW128748   4.117   1.079   6.126 -0.5310  1.6651  0.5292
 5705SOL    HW228749   4.257   1.023   6.140  0.2630  0.8091  0.4364
 5706SOL     OW28750   2.339   0.014  14.277  0.3824  0.2178 -0.7254
 5706SOL    HW128751   2.369   4.663  14.270  2.0914  0.8618 -1.6530
 5706SOL    HW228752   2.416   0.071  14.274 -1.2721  2.7000  3.0906
 5707SOL     OW28753   0.757   0.754   7.567 -0.1568 -0.1232 -0.2608
 5707SOL    HW128754   0.788   0.667   7.540  0.1762  0.4250 -1.6412
 5707SOL    HW228755   0.824   0.777   7.631 -1.2902 -0.0774  0.9208
 5708SOL     OW28756   1.649   0.464   4.148 -0.0017  0.7076  0.3085
 5708SOL    HW128757   1.683   0.485   4.060  0.4113  0.3677  0.3879
 5708SOL    HW228758   1.666   0.546   4.195 -0.7466  1.4872 -0.7586
 5709SOL     OW28759   3.418   3.912   0.283  0.4885 -0.4140  0.0997
 5709SOL    HW128760   3.396   3.913   0.190  0.5384  0.0217  0.0938
 5709SOL    HW228761   3.340   3.872   0.323 -0.3008 -1.2577 -2.2893
 5710SOL     OW28762   0.166   3.338   2.368 -0.1338 -0.8345  0.4638
 5710SOL    HW128763   0.091   3.349   2.427  0.3980  0.2742  0.9327
 5710SOL    HW228764   0.230   3.357   2.437  0.5079  0.0580 -0.3941
 5711SOL     OW28765   1.175   3.812   3.311  0.0394 -0.5101 -0.0089
 5711SOL    HW128766   1.260   3.772   3.331 -0.1907 -1.4126 -0.8474
 5711SOL    HW228767   1.178   3.814   3.216 -1.9106  0.4871 -0.0603
 5712SOL     OW28768   1.334   1.386  15.022  0.1531  0.2323 -0.6196
 5712SOL    HW128769   1.346   1.451  15.091  1.9653  0.8371 -1.5186
 5712SOL    HW228770   1.375   1.416  14.941 -0.8600  1.4851 -0.6796
 5713SOL     OW28771   3.871   2.202   6.451  0.6481  0.1185  0.2639
 5713SOL    HW128772   3.789   2.209   6.403  0.6843 -0.6764  0.0764
 5713SOL    HW228773   3.864   2.113   6.485 -2.8610  0.3515  0.1513
 5714SOL     OW28774   2.104   0.623   3.336 -0.3870  0.0008 -0.3333
 5714SOL    HW128775   2.091   0.693   3.272  1.1271  1.1249  0.5974
 5714SOL    HW228776   2.120   0.680   3.411 -0.1495  1.6629 -1.6357
 5715SOL     OW28777   2.502   0.699   3.866  0.6471 -0.1828 -0.5459
 5715SOL    HW128778   2.441   0.636   3.903  2.2371 -1.6572 -0.4150
 5715SOL    HW228779   2.567   0.701   3.936 -0.1840 -0.2716  0.2208
 5716SOL     OW28780   0.244   1.360  10.510 -0.0685  0.0314 -0.5296
 5716SOL    HW128781   0.153   1.346  10.536 -0.0091  0.4201 -0.1154
 5716SOL    HW228782   0.267   1.437  10.561  0.9089  0.6473 -1.9086
 5717SOL     OW28783   3.215   0.045  11.545 -0.8629 -0.6833 -0.3625
 5717SOL    HW128784   3.309   0.047  11.527 -0.7594 -0.1378  0.2240
 5717SOL    HW228785   3.190   4.719  11.479  0.8239 -2.2635  0.5410
 5718SOL     OW28786   0.025   3.441   4.655 -0.5211 -0.3409 -0.5073
 5718SOL    HW128787   0.012   3.457   4.748 -2.2957  1.9376 -1.1506
 5718SOL    HW228788   0.119   3.445   4.641 -0.3213 -0.4322  0.8380
 5719SOL     OW28789   4.497   2.061   0.021 -0.1946 -0.3780  0.3445
 5719SOL    HW128790   4.489   2.133  17.713  0.7861  0.6202  1.3702
 5719SOL    HW228791   4.422   2.009  17.747  0.6897 -1.5033  0.0805
 5720SOL     OW28792   2.129   0.954   7.954  0.1975  0.6522  0.6766
 5720SOL    HW128793   2.113   0.866   7.988 -1.6537  1.0159  0.7500
 5720SOL    HW228794   2.043   0.971   7.916  0.1888  1.2048  0.9455
 5721SOL     OW28795   3.700   4.139   3.055 -0.1310  0.2641 -0.3441
 5721SOL    HW128796   3.786   4.098   3.063  0.7883  2.8750  3.1848
 5721SOL    HW228797   3.685   4.160   3.147  1.9488  0.6514 -0.0882
 5722SOL     OW28798   3.938   0.225   9.347  0.3839 -0.0984 -0.2572
 5722SOL    HW128799   3.984   0.198   9.427  1.1023  0.6736 -0.4063
 5722SOL    HW228800   4.018   0.266   9.314 -0.4305  0.7578 -1.1366
 5723SOL     OW28801   3.010   4.391  16.744 -0.1167 -0.1168 -0.3962
 5723SOL    HW128802   2.926   4.349  16.726 -0.3410 -0.8098  2.2596
 5723SOL    HW228803   3.008   4.396  16.840 -2.4041  0.5881 -0.4770
 5724SOL     OW28804   1.230   1.358   9.308  0.1879 -0.4924 -0.2589
 5724SOL    HW128805   1.155   1.387   9.359  0.8271  1.3736 -0.3829
 5724SOL    HW228806   1.243   1.438   9.258  0.0676  1.0835  2.2341
 5725SOL     OW28807   3.398   3.884  16.558  0.1988 -0.3775  0.4242
 5725SOL    HW128808   3.357   3.925  16.483  2.6366 -2.6190 -2.1458
 5725SOL    HW228809   3.469   3.832  16.520  1.2443  1.5501 -0.2717
 5726SOL     OW28810   4.719   4.485   8.180  0.1078 -0.0503 -0.2342
 5726SOL    HW128811   4.672   4.506   8.261 -1.0179  0.4574 -1.0223
 5726SOL    HW228812   0.058   4.537   8.198 -0.7434  1.6782 -1.4564
 5727SOL     OW28813   3.254   4.704   9.645 -0.0779  0.1756 -0.3320
 5727SOL    HW128814   3.281   4.663   9.727 -2.7704  0.3427  0.6275
 5727SOL    HW228815   3.259   0.060   9.656 -0.0412  0.1933 -0.5063
 5728SOL     OW28816   2.309   0.337   2.831 -0.3390 -0.1898  0.6940
 5728SOL    HW128817   2.393   0.303   2.800  0.4625  0.4689  2.1459
 5728SOL    HW228818   2.268   0.377   2.754  2.0993  0.3822 -0.3025
 5729SOL     OW28819   4.697   4.316   3.839 -0.1886  0.4654  0.0604
 5729SOL    HW128820   0.002   4.249   3.892 -1.3771  0.0687  0.5543
 5729SOL    HW228821   4.635   4.257   3.797 -0.3975  0.8100 -0.1144
 5730SOL     OW28822   3.398   4.083   1.718  0.1942 -0.1869 -0.2597
 5730SOL    HW128823   3.445   4.125   1.646 -1.6047  1.1405 -0.6667
 5730SOL    HW228824   3.331   4.148   1.738 -1.2300 -1.5486 -0.6261
 5731SOL     OW28825   1.954   0.351  14.257 -0.2908  0.0743  0.3734
 5731SOL    HW128826   1.912   0.333  14.173 -0.6653  1.7035  0.2231
 5731SOL    HW228827   1.994   0.268  14.284  1.2800  0.8244  0.3628
 5732SOL     OW28828   3.345   0.019   4.131  0.5768 -0.6251 -0.2560
 5732SOL    HW128829   3.330   4.669   4.100  1.8839 -1.5861  1.8943
 5732SOL    HW228830   3.370   0.058   4.047  0.5691 -0.0211  0.0243
 5733SOL     OW28831   4.414   2.164   2.282 -0.5036 -0.3283  0.9832
 5733SOL    HW128832   4.404   2.256   2.257 -1.3108 -0.6282  0.2069
 5733SOL    HW228833   4.340   2.140   2.337 -1.0456 -1.6707 -0.3310
 5734SOL     OW28834   2.054   3.927   7.008  0.1504  0.4921  0.2647
 5734SOL    HW128835   2.141   3.910   7.044 -0.5774  0.0719  1.8492
 5734SOL    HW228836   2.055   4.022   7.018 -0.1862  0.1498  3.7365
 5735SOL     OW28837   1.457   0.129  14.318 -1.0675  0.0321  0.3783
 5735SOL    HW128838   1.441   0.189  14.245 -2.4277  1.4938  1.8923
 5735SOL    HW228839   1.516   0.181  14.371  0.5742 -1.3509 -0.0801
 5736SOL     OW28840   2.895   0.249   4.098  0.5291  0.0572  0.0429
 5736SOL    HW128841   2.975   0.219   4.139 -0.5956 -0.3516  1.9168
 5736SOL    HW228842   2.897   0.182   4.029  0.6072  0.4940 -0.3794
 5737SOL     OW28843   1.839   1.065  13.390 -0.3354 -0.2315  0.0253
 5737SOL    HW128844   1.844   1.134  13.325 -0.6305  0.8308  1.1196
 5737SOL    HW228845   1.914   1.084  13.447 -0.6939  0.2005  0.3594
 5738SOL     OW28846   2.929   4.185   3.500 -0.6554  0.0895  0.2194
 5738SOL    HW128847   2.913   4.268   3.455 -1.6603 -0.6607 -0.8117
 5738SOL    HW228848   2.938   4.121   3.429 -0.4309  1.0020 -0.5776
 5739SOL     OW28849   2.069   1.364   8.624 -0.5457  0.0133  0.2449
 5739SOL    HW128850   2.150   1.409   8.601 -0.6759  0.4097  0.5734
 5739SOL    HW228851   2.099   1.277   8.598 -1.4709  0.6645 -2.9985
 5740SOL     OW28852   1.715   0.733   9.162 -0.1789 -0.2214  0.0994
 5740SOL    HW128853   1.757   0.770   9.084 -3.1285 -4.6390 -3.5899
 5740SOL    HW228854   1.730   0.810   9.217  1.5612  0.2441 -1.0225
 5741SOL     OW28855   0.171   4.519   7.409  0.2039  0.4251  0.6762
 5741SOL    HW128856   0.079   4.546   7.414 -0.3437 -1.1999 -0.8575
 5741SOL    HW228857   0.161   4.424   7.409 -1.0554  0.5680 -0.8417
 5742SOL     OW28858   1.139   4.137   3.597 -0.9315 -0.4571 -0.5953
 5742SOL    HW128859   1.138   4.173   3.686  4.1716 -2.3570  0.2504
 5742SOL    HW228860   1.149   4.044   3.620 -0.1586  0.0390  1.0632
 5743SOL     OW28861   4.159   3.801   5.127  0.0092 -0.0179  0.0162
 5743SOL    HW128862   4.203   3.744   5.191 -1.4146 -0.5614  0.5039
 5743SOL    HW228863   4.126   3.877   5.174  2.3075  0.9668  0.0724
 5744SOL     OW28864   0.042   3.159   1.026 -0.3173 -0.5827  0.5451
 5744SOL    HW128865   0.049   3.254   1.015 -1.9792 -0.5062  0.0231
 5744SOL    HW228866   0.094   3.130   0.952 -0.6950 -0.5135  0.2518
 5745SOL     OW28867   3.426   0.137   7.203  0.0268 -0.2856 -0.2113
 5745SOL    HW128868   3.393   0.203   7.264  0.2149 -0.5266  0.1527
 5745SOL    HW228869   3.518   0.156   7.219 -0.0044  2.1152 -2.8858
 5746SOL     OW28870   3.953   4.288   7.501  0.4393 -0.2038  0.2194
 5746SOL    HW128871   3.972   4.208   7.549 -1.4571 -0.0129  1.2903
 5746SOL    HW228872   4.037   4.333   7.508  0.0379  0.6254 -0.2224
 5747SOL     OW28873   0.457   3.127  17.593  0.3974 -0.2877 -0.4244
 5747SOL    HW128874   0.424   3.207  17.551  0.2052 -0.3328 -0.3580
 5747SOL    HW228875   0.414   3.053  17.549  0.1776 -2.0590  2.8077
 5748SOL     OW28876   0.696   3.543  15.770 -0.6954 -0.0628  0.1758
 5748SOL    HW128877   0.698   3.575  15.680 -0.8381 -0.4507  0.0333
 5748SOL    HW228878   0.626   3.478  15.759 -2.0654  0.9885  2.7027
 5749SOL     OW28879   2.930   2.985  14.092 -0.7279 -0.3046  0.2091
 5749SOL    HW128880   2.935   3.070  14.135  0.0413  0.2602 -1.0318
 5749SOL    HW228881   2.857   3.003  14.033 -0.5817  0.2389  0.1931
 5750SOL     OW28882   2.102   2.487   4.465 -0.6311  0.9389  0.1933
 5750SOL    HW128883   2.094   2.497   4.370  1.8464 -0.8192 -0.2127
 5750SOL    HW228884   2.030   2.543   4.496 -0.5503  1.4213 -0.4981
 5751SOL     OW28885   3.480   1.278  11.436  0.2045 -0.0255 -0.5039
 5751SOL    HW128886   3.400   1.226  11.447  0.2558 -0.5641 -2.6528
 5751SOL    HW228887   3.454   1.321  11.355 -0.2783  1.1961  0.3038
 5752SOL     OW28888   1.548   2.297  14.242 -0.3805  0.2902  0.5535
 5752SOL    HW128889   1.611   2.250  14.297 -0.5794  0.2023  0.7047
 5752SOL    HW228890   1.464   2.284  14.285  0.1233 -0.8617  1.1805
 5753SOL     OW28891   4.685   1.903   8.188  0.2565  0.4139 -0.4369
 5753SOL    HW128892   4.652   1.962   8.120  1.0953  0.8834 -0.4439
 5753SOL    HW228893   4.640   1.934   8.267 -0.1654  1.5862 -1.1376
 5754SOL     OW28894   3.544   1.604  13.167 -0.3509 -0.2636  0.4882
 5754SOL    HW128895   3.626   1.564  13.140  0.2060  1.4996 -0.4160
 5754SOL    HW228896   3.577   1.658  13.239 -0.9137  0.6919  0.0316
 5755SOL     OW28897   1.075   1.581  10.078  0.1591  0.2458 -0.1013
 5755SOL    HW128898   1.151   1.607  10.130  0.2155  1.9021 -1.0090
 5755SOL    HW228899   1.117   1.542  10.001 -0.9694 -0.6014 -0.2887
 5756SOL     OW28900   0.970   1.095   6.583 -0.0283 -0.3515 -0.0399
 5756SOL    HW128901   1.055   1.133   6.605 -0.1082 -0.7225  0.8988
 5756SOL    HW228902   0.926   1.179   6.569 -0.1506 -0.3627  0.2768
 5757SOL     OW28903   3.857   0.152   1.254 -0.2917  0.3716  0.1414
 5757SOL    HW128904   3.776   0.163   1.303  0.6995  3.2007  1.1352
 5757SOL    HW228905   3.918   0.182   1.322  0.9215  0.4815 -0.9852
 5758SOL     OW28906   1.226   0.381   4.785 -0.0704  0.1862  0.4512
 5758SOL    HW128907   1.290   0.447   4.810  2.3487 -1.9617 -0.0877
 5758SOL    HW228908   1.278   0.312   4.743 -2.7767 -1.6606  0.1329
 5759SOL     OW28909   2.090   0.882  13.970 -0.4865  0.7214  0.1017
 5759SOL    HW128910   2.011   0.915  13.926 -0.6477  0.6610  0.3500
 5759SOL    HW228911   2.096   0.797  13.925 -1.2439  1.4499 -1.3959
 5760SOL     OW28912   1.889   2.521   9.584  1.0077  0.4763  0.4457
 5760SOL    HW128913   1.905   2.429   9.607  0.2076  0.6753  1.8100
 5760SOL    HW228914   1.859   2.553   9.669  0.7155  0.0827  0.4892
 5761SOL     OW28915   2.037   4.406   9.430  0.1381  0.1407  0.0486
 5761SOL    HW128916   2.026   4.413   9.525 -0.5470  0.5436 -0.0632
 5761SOL    HW228917   1.949   4.382   9.401 -0.9886  2.1516  1.8496
 5762SOL     OW28918   2.939   0.003   0.255 -0.1499 -0.4809 -0.3192
 5762SOL    HW128919   2.998   0.066   0.295 -0.7007 -0.1854  0.0228
 5762SOL    HW228920   2.859   0.052   0.234  0.0139 -0.5310 -1.0937
 5763SOL     OW28921   1.801   1.388   9.232  0.2320  0.3663 -0.1193
 5763SOL    HW128922   1.844   1.350   9.309 -0.5906 -0.3411 -0.0085
 5763SOL    HW228923   1.836   1.331   9.164  0.6300 -0.2285  0.5819
 5764SOL     OW28924   1.540   2.881  10.110  0.2077  0.1535 -0.0902
 5764SOL    HW128925   1.555   2.852  10.200 -1.1706  0.6697  0.3061
 5764SOL    HW228926   1.486   2.958  10.129  0.0265  0.6533 -2.5948
 5765SOL     OW28927   4.175   0.548   4.035 -0.1407 -0.2455  0.4540
 5765SOL    HW128928   4.167   0.643   4.040 -0.7751 -0.2936  0.3829
 5765SOL    HW228929   4.085   0.515   4.030 -0.8375  1.4570  1.9944
 5766SOL     OW28930   1.030   4.145   6.674  0.0847 -0.5360  0.3325
 5766SOL    HW128931   1.017   4.059   6.635  0.9100 -0.6346  0.2613
 5766SOL    HW228932   0.948   4.169   6.717  0.3865 -0.7763  1.0447
 5767SOL     OW28933   2.165   2.140   6.667  0.0679  0.2550  0.1736
 5767SOL    HW128934   2.240   2.081   6.657  0.7269  0.9372  1.0432
 5767SOL    HW228935   2.105   2.105   6.602 -1.1686 -0.0088  1.4580
 5768SOL     OW28936   4.507   0.930   7.660 -0.2066 -0.1437  0.4499
 5768SOL    HW128937   4.502   0.857   7.722  3.1508 -0.6457  0.1164
 5768SOL    HW228938   4.575   0.900   7.600  0.2826  1.4049  0.2345
 5769SOL     OW28939   3.251   3.388   8.727  0.3582  0.0246  0.2397
 5769SOL    HW128940   3.234   3.332   8.802  0.4230  0.7859  0.8290
 5769SOL    HW228941   3.235   3.471   8.771 -0.0755 -0.2257  0.5486
 5770SOL     OW28942   1.240   2.261  13.116 -0.2513 -0.3602 -0.2481
 5770SOL    HW128943   1.240   2.276  13.021  1.1399 -0.2304 -0.2244
 5770SOL    HW228944   1.272   2.171  13.111  0.7887 -0.0799  1.5650
 5771SOL     OW28945   2.245   0.044   7.248 -0.3821 -0.3842 -0.5043
 5771SOL    HW128946   2.225   0.072   7.337 -0.2746 -2.2196  0.1045
 5771SOL    HW228947   2.191   4.704   7.246  1.1887 -1.5236  1.3701
 5772SOL     OW28948   2.952   1.866   2.594 -0.1696 -0.2343 -0.0251
 5772SOL    HW128949   2.909   1.835   2.674 -0.6753 -0.3046 -0.3290
 5772SOL    HW228950   2.902   1.944   2.571 -1.1802 -1.0513 -0.6034
 5773SOL     OW28951   1.200   1.139   5.260  1.3111  0.1960  0.1229
 5773SOL    HW128952   1.226   1.084   5.334 -0.6786  0.3425  0.9382
 5773SOL    HW228953   1.249   1.092   5.193  0.2294  0.6440 -0.9807
 5774SOL     OW28954   3.298   1.234   3.755  0.0970  0.0363  0.4794
 5774SOL    HW128955   3.267   1.218   3.666  1.7084 -0.9153  0.0974
 5774SOL    HW228956   3.308   1.330   3.755 -0.0002  0.0443 -2.2420
 5775SOL     OW28957   0.252   0.136   4.158 -0.4149 -0.4226  0.7422
 5775SOL    HW128958   0.282   0.093   4.238  0.0689 -1.9575 -0.2695
 5775SOL    HW228959   0.255   0.063   4.097 -0.1003 -0.2003  0.4915
 5776SOL     OW28960   0.693   4.018   4.555  0.1419 -0.0579 -0.3939
 5776SOL    HW128961   0.737   4.101   4.536  0.9911 -0.6207 -0.8600
 5776SOL    HW228962   0.709   4.012   4.650 -0.1161  3.8210 -0.0955
 5777SOL     OW28963   3.676   0.220   7.255  0.1541  0.6392  0.7543
 5777SOL    HW128964   3.697   0.175   7.174 -0.9649  2.4924 -0.5648
 5777SOL    HW228965   3.738   0.292   7.244  0.1172  0.5175 -0.2328
 5778SOL     OW28966   2.485   3.360  17.168  0.1479 -0.2748  0.4942
 5778SOL    HW128967   2.464   3.267  17.160  0.0573 -0.4052  2.1456
 5778SOL    HW228968   2.494   3.390  17.078 -0.4039  0.1394  0.5777
 5779SOL     OW28969   2.955   1.286   5.413 -0.3647 -0.1576  0.0879
 5779SOL    HW128970   2.962   1.298   5.319  0.8259  2.3080  0.4846
 5779SOL    HW228971   3.031   1.334   5.446 -0.2080 -1.2483  1.3322
 5780SOL     OW28972   4.262   1.407   7.908  0.3713 -0.3548  0.7253
 5780SOL    HW128973   4.334   1.408   7.971 -1.4550  1.9004  2.7745
 5780SOL    HW228974   4.289   1.359   7.830  0.2255 -0.8388  0.9701
 5781SOL     OW28975   3.572   4.676   4.931 -0.1279 -0.1703  0.2255
 5781SOL    HW128976   3.595   4.638   5.016  0.8888  0.3017  0.1602
 5781SOL    HW228977   3.539   4.599   4.885 -0.4937 -1.1622  2.1469
 5782SOL     OW28978   1.131   4.409   5.916 -0.4015 -0.8016 -0.2326
 5782SOL    HW128979   1.120   4.328   5.867 -2.6786  0.1310 -1.3006
 5782SOL    HW228980   1.184   4.455   5.851 -0.2000 -0.3573  0.2450
 5783SOL     OW28981   1.913   0.023   4.166 -0.1077 -0.1711 -0.2337
 5783SOL    HW128982   1.995   0.061   4.132 -0.7550  0.5033 -1.0491
 5783SOL    HW228983   1.857   0.100   4.155  0.3028  0.3870  1.6000
 5784SOL     OW28984   2.533   3.741  10.863  0.2668  0.2520  0.3145
 5784SOL    HW128985   2.443   3.745  10.832 -0.2486  2.2889  2.0151
 5784SOL    HW228986   2.551   3.647  10.865  2.3022  0.6530  1.5914
 5785SOL     OW28987   2.987   1.495   2.439  0.2323  0.0464 -0.4297
 5785SOL    HW128988   2.998   1.407   2.477 -0.4084  0.6513  1.1610
 5785SOL    HW228989   2.925   1.471   2.371 -1.2711  0.6338  0.7406
 5786SOL     OW28990   1.256   4.479   7.529 -0.9777  0.1539 -0.4057
 5786SOL    HW128991   1.293   4.539   7.464 -2.1905  0.8576 -0.4268
 5786SOL    HW228992   1.206   4.419   7.473 -1.1649  1.3089 -1.4758
 5787SOL     OW28993   0.854   3.535   8.813 -0.0174 -0.0343  0.2565
 5787SOL    HW128994   0.847   3.440   8.820  0.8701  0.0235  1.8671
 5787SOL    HW228995   0.917   3.547   8.741 -0.0305  1.0369  0.4297
 5788SOL     OW28996   3.878   0.680  16.507  0.1092  0.5895  0.2896
 5788SOL    HW128997   3.959   0.634  16.531  1.0576  2.9629  1.6862
 5788SOL    HW228998   3.821   0.604  16.497 -0.1858  0.7797  0.5237
 5789SOL     OW28999   1.330   3.441   1.032  0.3882  0.5834 -0.0549
 5789SOL    HW129000   1.342   3.347   1.043  1.8010  0.8217  0.4842
 5789SOL    HW229001   1.378   3.487   1.100  1.7064 -1.5859  0.4676
 5790SOL     OW29002   3.385   1.085   4.623  0.2427  0.1040  0.3373
 5790SOL    HW129003   3.413   1.017   4.561  2.2588  0.3844  0.9554
 5790SOL    HW229004   3.428   1.155   4.575 -0.4819  1.3839  1.5821
 5791SOL     OW29005   2.572   2.473   6.127 -0.1953  0.2775  0.4302
 5791SOL    HW129006   2.643   2.515   6.077  0.0918 -0.1794  0.4513
 5791SOL    HW229007   2.596   2.498   6.216  0.8709  2.3841 -0.4529
 5792SOL     OW29008   4.358   2.273   3.555  0.0068  0.3662  0.0012
 5792SOL    HW129009   4.435   2.292   3.502 -0.5484  0.3372 -0.8291
 5792SOL    HW229010   4.401   2.274   3.640 -1.8652 -1.8150  0.9700
 5793SOL     OW29011   3.436   2.518   8.370 -0.0970 -0.2086  0.0947
 5793SOL    HW129012   3.467   2.428   8.355  0.5597  0.5466 -3.0214
 5793SOL    HW229013   3.340   2.513   8.369  0.0071 -1.5758 -1.9513
 5794SOL     OW29014   0.346   0.123   6.902 -0.1487  1.0643  0.5267
 5794SOL    HW129015   0.270   0.066   6.894 -0.1706  1.2153 -0.3486
 5794SOL    HW229016   0.413   0.055   6.909 -1.7421 -0.6154 -0.5653
 5795SOL     OW29017   1.586   4.065  12.570 -0.5298 -0.3150  0.4161
 5795SOL    HW129018   1.602   4.109  12.653  1.8806 -0.5020  0.0493
 5795SOL    HW229019   1.658   4.002  12.569 -0.9704 -0.8334  1.6246
 5796SOL     OW29020   2.740   3.387   9.376  0.3721 -0.2996 -0.3412
 5796SOL    HW129021   2.761   3.469   9.331 -0.5375 -0.7337 -1.5617
 5796SOL    HW229022   2.752   3.330   9.300 -1.5631 -1.1690  0.0114
 5797SOL     OW29023   2.005   0.496   3.712  0.0982 -0.4151  0.0417
 5797SOL    HW129024   1.979   0.482   3.803  1.3683  0.1452  0.4790
 5797SOL    HW229025   2.087   0.541   3.731 -0.2902 -0.5252  1.9559
 5798SOL     OW29026   4.226   0.623   5.626 -0.3907  0.1651 -0.8559
 5798SOL    HW129027   4.157   0.615   5.560  1.1277 -1.3673 -2.2298
 5798SOL    HW229028   4.305   0.596   5.580 -2.0105 -0.5584 -3.2386
 5799SOL     OW29029   3.158   4.496   3.179 -0.0294 -0.0800 -0.0293
 5799SOL    HW129030   3.179   4.496   3.086 -2.6643  0.2679 -0.6353
 5799SOL    HW229031   3.204   4.427   3.227  0.8566  0.8934  0.5326
 5800SOL     OW29032   2.101   0.003   6.223 -0.4686  0.4936  0.2197
 5800SOL    HW129033   2.097   0.045   6.137 -1.0229 -1.0752 -0.5053
 5800SOL    HW229034   2.184   4.694   6.216 -1.2515 -0.9393  0.7141
 5801SOL     OW29035   1.458   2.650  11.857 -0.0655 -0.0901  0.3676
 5801SOL    HW129036   1.364   2.637  11.871 -0.0145  0.3256  1.0966
 5801SOL    HW229037   1.467   2.704  11.779 -0.5816  0.3820  0.6293
 5802SOL     OW29038   1.488   1.743   1.621  0.0340  0.4578 -0.3017
 5802SOL    HW129039   1.437   1.664   1.604  1.1145 -0.0201 -1.2996
 5802SOL    HW229040   1.524   1.723   1.707 -0.8077  2.9525  0.6208
 5803SOL     OW29041   0.146   2.703   0.325  0.0959 -0.2039 -0.3970
 5803SOL    HW129042   0.239   2.708   0.304  0.0800  2.1070  0.0967
 5803SOL    HW229043   0.115   2.700   0.234 -0.1662  1.6892 -0.3828
 5804SOL     OW29044   3.148   2.987  11.637 -0.1664  0.1975  0.1516
 5804SOL    HW129045   3.139   3.082  11.632 -0.6385  0.1865  0.8387
 5804SOL    HW229046   3.090   2.957  11.706  0.0027 -1.8193 -0.5662
 5805SOL     OW29047   0.618   2.373   4.439  0.5153 -0.1879  0.0302
 5805SOL    HW129048   0.545   2.377   4.378  0.0766 -0.7355  0.5181
 5805SOL    HW229049   0.679   2.349   4.369  0.2919 -0.6103 -0.0222
 5806SOL     OW29050   0.711   3.122   3.672 -0.1238  0.2156 -0.0901
 5806SOL    HW129051   0.651   3.077   3.612 -1.4807  0.8483  0.8085
 5806SOL    HW229052   0.673   3.083   3.750  3.9032 -1.5378  1.0033
 5807SOL     OW29053   0.430   0.530  17.037 -1.0918  0.2157 -0.6024
 5807SOL    HW129054   0.523   0.509  17.031 -0.8142  1.0952  0.5693
 5807SOL    HW229055   0.390   0.466  16.978 -0.6714 -0.8627  0.2792
 5808SOL     OW29056   0.187   4.667   9.574 -0.2075  0.2666 -0.1559
 5808SOL    HW129057   0.138   4.631   9.500  2.0253 -2.7418 -0.1390
 5808SOL    HW229058   0.173   4.616   9.653 -0.5548  0.6432  0.0262
 5809SOL     OW29059   2.629   3.639  15.215 -0.0413  0.5527  0.1590
 5809SOL    HW129060   2.670   3.579  15.153  2.2502  0.8961  1.3402
 5809SOL    HW229061   2.535   3.640  15.195 -0.5267 -0.8585  2.3879
 5810SOL     OW29062   0.419   2.509   2.396 -0.3544 -0.4382  0.2677
 5810SOL    HW129063   0.328   2.483   2.411 -1.2397  2.8405  0.5799
 5810SOL    HW229064   0.436   2.593   2.439 -2.5511  0.1451  0.0095
 5811SOL     OW29065   0.954   2.243   4.291 -0.0552 -0.4247  0.2757
 5811SOL    HW129066   0.889   2.263   4.224  1.7596  1.4211 -0.9503
 5811SOL    HW229067   0.992   2.330   4.302 -1.2804  0.3865 -1.9055
 5812SOL     OW29068   2.471   3.195   2.752  0.1600 -0.8096  0.4025
 5812SOL    HW129069   2.551   3.231   2.714 -0.4553 -1.7472 -1.7763
 5812SOL    HW229070   2.415   3.268   2.726 -0.3210 -0.9510  1.0545
 5813SOL     OW29071   2.997   0.118   1.996 -0.0440 -0.2778  0.2528
 5813SOL    HW129072   3.060   0.123   2.067 -1.2027  1.2515  1.1558
 5813SOL    HW229073   3.038   0.041   1.956 -0.8253  0.7788 -2.5699
 5814SOL     OW29074   1.714   3.742   6.552  0.1627 -0.0588 -0.1163
 5814SOL    HW129075   1.653   3.795   6.501 -0.7275  0.0286  1.0152
 5814SOL    HW229076   1.760   3.708   6.476  2.1849 -0.4110  1.2731
 5815SOL     OW29077   0.993   3.269  15.017 -0.4373  0.1389  0.0195
 5815SOL    HW129078   0.989   3.176  15.039  0.3297  0.4825  1.6916
 5815SOL    HW229079   0.910   3.289  14.974  0.3987  0.5630 -1.3814
 5816SOL     OW29080   3.882   1.411   2.975 -0.4118 -0.5938 -0.1189
 5816SOL    HW129081   3.974   1.399   3.000  0.1516 -0.3954 -2.0520
 5816SOL    HW229082   3.898   1.459   2.894  1.2029  0.2804  0.7018
 5817SOL     OW29083   3.042   2.004  12.894 -0.1699 -0.0505 -0.1728
 5817SOL    HW129084   2.954   2.028  12.921 -0.5103  0.8258 -2.0075
 5817SOL    HW229085   3.028   1.986  12.801  0.9084 -1.5540 -0.0402
 5818SOL     OW29086   0.100   4.359   1.776  0.3276  0.0065  0.3866
 5818SOL    HW129087   0.149   4.299   1.719  0.4414  0.2336  0.2481
 5818SOL    HW229088   0.048   4.399   1.706  0.3601 -0.7160 -0.0556
 5819SOL     OW29089   2.095   2.384   4.930 -0.4826  0.2931 -0.0781
 5819SOL    HW129090   2.086   2.475   4.958 -0.1850  0.4755 -0.5708
 5819SOL    HW229091   2.156   2.407   4.859 -0.1046 -0.1389  0.1059
 5820SOL     OW29092   2.665   3.455   3.559  0.1645 -0.5206  0.5737
 5820SOL    HW129093   2.662   3.392   3.487  0.3534  1.4037 -1.1213
 5820SOL    HW229094   2.574   3.472   3.582  0.8808  2.7969  1.0688
 5821SOL     OW29095   2.665   1.936   8.435 -0.0009 -0.4088 -0.2653
 5821SOL    HW129096   2.724   1.890   8.375 -1.5287 -1.7648 -0.7313
 5821SOL    HW229097   2.653   2.025   8.403 -2.5099 -1.3403 -1.8874
 5822SOL     OW29098   1.815   0.930   6.902 -0.0218  0.2034 -0.0317
 5822SOL    HW129099   1.732   0.921   6.950  1.1609 -0.1368  1.9441
 5822SOL    HW229100   1.869   0.878   6.962 -2.9544  0.0879  2.4957
 5823SOL     OW29101   2.957   4.594   4.071 -0.1339 -0.3655 -0.1717
 5823SOL    HW129102   2.932   4.678   4.032 -2.5486 -1.0636 -0.1082
 5823SOL    HW229103   2.964   4.533   3.998 -1.1949 -0.2198 -0.3878
 5824SOL     OW29104   3.306   0.185   8.658 -0.9815 -0.1545  0.1978
 5824SOL    HW129105   3.357   0.128   8.716  0.2786  0.6574 -0.1275
 5824SOL    HW229106   3.358   0.177   8.578  1.4862 -0.2952  1.8139
 5825SOL     OW29107   1.172   2.621  17.629  0.0189 -0.2512 -0.1602
 5825SOL    HW129108   1.195   2.687  17.695  0.4904 -0.9978  0.4274
 5825SOL    HW229109   1.137   2.545  17.677  0.9098 -0.3420  0.3598
 5826SOL     OW29110   1.939   3.092   9.234  0.0112  0.7161 -0.2490
 5826SOL    HW129111   1.943   3.119   9.142  0.5575 -0.4444 -0.5727
 5826SOL    HW229112   1.886   3.013   9.234  1.0856 -0.0037 -0.1983
 5827SOL     OW29113   4.339   3.600   2.607  0.0120 -0.1883 -0.0275
 5827SOL    HW129114   4.397   3.525   2.617  2.3997  1.6484 -0.0404
 5827SOL    HW229115   4.369   3.626   2.520 -0.5355 -0.8552 -0.4134
 5828SOL     OW29116   3.213   0.587  16.424 -0.9390  0.0382 -0.2034
 5828SOL    HW129117   3.195   0.498  16.456  2.7900 -0.5781  0.2490
 5828SOL    HW229118   3.294   0.602  16.473 -0.2022  1.4058 -1.8529
 5829SOL     OW29119   3.508   3.581   4.872  0.1339  0.5206  0.0834
 5829SOL    HW129120   3.495   3.667   4.910 -3.0128  0.5815 -1.0876
 5829SOL    HW229121   3.421   3.541   4.864  0.5301 -0.1139 -1.0519
 5830SOL     OW29122   3.896   0.518  17.425 -0.4508  0.5897  0.0181
 5830SOL    HW129123   3.845   0.574  17.483  2.3868  1.1049  2.0200
 5830SOL    HW229124   3.884   0.429  17.457  0.7383  0.1772 -0.6942
 5831SOL     OW29125   1.336   1.117   7.605 -0.1275  0.3101  0.4435
 5831SOL    HW129126   1.391   1.195   7.597 -0.5139  0.5135 -0.1867
 5831SOL    HW229127   1.277   1.135   7.532  2.0586  1.1365 -1.1060
 5832SOL     OW29128   1.539   0.877   5.979  0.2615 -0.7138 -0.6738
 5832SOL    HW129129   1.586   0.793   5.979  0.2017 -0.7456 -3.7429
 5832SOL    HW229130   1.568   0.923   5.900  1.8287 -0.2001  0.1927
 5833SOL     OW29131   0.934   0.213   7.618 -0.6034 -0.5260  0.0076
 5833SOL    HW129132   0.852   0.183   7.577 -1.7479  0.2469  1.7302
 5833SOL    HW229133   0.921   0.191   7.710  3.8059 -1.7538  0.3137
 5834SOL     OW29134   2.546   3.570   3.035  0.6797  0.3680 -0.5140
 5834SOL    HW129135   2.487   3.523   3.093  1.9432  0.0892  0.5648
 5834SOL    HW229136   2.496   3.648   3.013  0.0727  0.5535  1.5196
 5835SOL     OW29137   4.359   2.742  15.921  0.2684 -0.2946  0.0948
 5835SOL    HW129138   4.437   2.779  15.880  0.3076 -0.8898 -0.3639
 5835SOL    HW229139   4.315   2.818  15.959  1.1665 -0.2183  0.9791
 5836SOL     OW29140   2.978   0.557  16.303 -0.0273  0.0182  0.2462
 5836SOL    HW129141   2.974   0.637  16.251  0.8773 -0.8882 -1.2122
 5836SOL    HW229142   3.066   0.567  16.339 -0.6208 -2.2131  2.3739
 5837SOL     OW29143   2.191   1.981  12.979 -0.3410 -0.1144 -0.4592
 5837SOL    HW129144   2.217   1.890  12.997  1.7302  0.7518  1.0058
 5837SOL    HW229145   2.102   1.985  13.013  0.5533  1.4718  1.6937
 5838SOL     OW29146   0.750   1.377   6.689  0.3347  0.8540  0.2587
 5838SOL    HW129147   0.663   1.340   6.703  1.9616 -2.0253  2.8619
 5838SOL    HW229148   0.734   1.389   6.595 -2.3911 -0.5379  0.5214
 5839SOL     OW29149   0.835   0.886   5.736 -0.2070 -0.3399 -0.0931
 5839SOL    HW129150   0.758   0.858   5.787 -0.0855 -0.0186  0.2659
 5839SOL    HW229151   0.894   0.916   5.805  0.2991 -0.1730 -0.6002
 5840SOL     OW29152   3.555   2.588  15.052 -0.4951  0.5055 -0.4736
 5840SOL    HW129153   3.481   2.628  15.098 -2.0505 -1.4110 -1.3171
 5840SOL    HW229154   3.513   2.522  14.997 -0.3976  0.4836 -0.5213
 5841SOL     OW29155   3.586   1.491  13.924 -0.1182  0.1760  1.0063
 5841SOL    HW129156   3.541   1.513  14.005  2.8651  1.5385  2.3074
 5841SOL    HW229157   3.546   1.407  13.903 -0.7248 -0.0033  2.8711
 5842SOL     OW29158   3.704   3.792   9.232  0.2302 -0.2097  0.3928
 5842SOL    HW129159   3.700   3.750   9.318  0.8553 -0.4071  0.3269
 5842SOL    HW229160   3.612   3.814   9.215  0.8607  1.9589 -0.1185
 5843SOL     OW29161   2.523   1.985   2.639 -0.3177 -0.5979 -0.4062
 5843SOL    HW129162   2.505   1.940   2.556 -0.2962  0.0584 -0.7670
 5843SOL    HW229163   2.442   2.031   2.660 -0.5926 -0.6735 -1.2773
 5844SOL     OW29164   4.478   4.171   9.170  0.1643 -0.1041 -0.3597
 5844SOL    HW129165   4.488   4.154   9.263  0.1168  0.6201 -0.2272
 5844SOL    HW229166   4.426   4.250   9.183 -0.5642 -0.7260  0.4702
 5845SOL     OW29167   2.689   1.347   2.492 -0.2848 -0.5031  0.3427
 5845SOL    HW129168   2.612   1.389   2.530 -1.4222  0.1731 -2.6612
 5845SOL    HW229169   2.644   1.294   2.426  0.1368 -2.0131  1.2772
 5846SOL     OW29170   0.927   1.662   5.174  0.3760 -0.0428  0.0342
 5846SOL    HW129171   0.987   1.727   5.138  2.3435 -1.1906  1.2791
 5846SOL    HW229172   0.983   1.584   5.168  0.7575  0.1324  1.3333
 5847SOL     OW29173   1.664   2.553   4.659 -0.6041  0.4748 -0.5296
 5847SOL    HW129174   1.660   2.505   4.742 -3.2254 -2.0282 -2.0943
 5847SOL    HW229175   1.720   2.627   4.681  1.2384 -0.6145 -1.6319
 5848SOL     OW29176   2.538   3.878   3.702 -0.3874 -0.2077  0.8352
 5848SOL    HW129177   2.489   3.959   3.720  0.0975  0.4645 -0.7901
 5848SOL    HW229178   2.484   3.837   3.635 -1.6484  1.9357  0.5304
 5849SOL     OW29179   2.715   0.085  16.496  0.2062 -0.1489  0.3856
 5849SOL    HW129180   2.701   0.172  16.534  1.5241  0.0770  0.3245
 5849SOL    HW229181   2.714   0.098  16.401  0.8131 -1.0613  0.2568
 5850SOL     OW29182   0.164   2.406   0.103  0.1177 -0.2758  0.1964
 5850SOL    HW129183   0.096   2.447   0.050  0.5781  0.7060  0.3719
 5850SOL    HW229184   0.233   2.471   0.092 -0.7888  0.8152  1.0414
 5851SOL     OW29185   3.083   3.581   6.686 -0.4141  0.3068 -0.2890
 5851SOL    HW129186   3.077   3.572   6.591  1.1031 -3.2039 -0.0256
 5851SOL    HW229187   3.142   3.511   6.711  1.2312  1.5692 -0.6462
 5852SOL     OW29188   0.430   0.049   4.606  0.0821  0.1608  0.3267
 5852SOL    HW129189   0.496   4.719   4.592  1.3101  1.9617 -2.7382
 5852SOL    HW229190   0.471   0.125   4.566 -0.5186  0.4823  0.3257
 5853SOL     OW29191   1.906   3.484   5.040 -0.0781  0.8354 -0.7591
 5853SOL    HW129192   1.967   3.554   5.018 -0.7987  2.0089  0.9800
 5853SOL    HW229193   1.833   3.536   5.074 -1.2506 -0.7755 -0.8175
 5854SOL     OW29194   4.094   2.339   3.608 -0.2410  0.3890 -0.8694
 5854SOL    HW129195   4.185   2.328   3.578  0.8876  2.2945  1.9387
 5854SOL    HW229196   4.046   2.263   3.575  3.2960 -2.0548 -0.4123
 5855SOL     OW29197   3.393   0.899   3.797 -0.2577  0.2149 -0.6200
 5855SOL    HW129198   3.438   0.820   3.767 -0.5945 -0.4474  0.6698
 5855SOL    HW229199   3.314   0.884   3.744  0.7545 -2.2515 -1.4475
 5856SOL     OW29200   2.356   4.248   4.208  0.0215 -0.1484  0.0783
 5856SOL    HW129201   2.280   4.192   4.200 -0.5438  0.8307 -1.4022
 5856SOL    HW229202   2.408   4.215   4.135 -0.8800  0.0335 -0.6460
 5857SOL     OW29203   4.603   1.331   4.782  0.3581  0.0876 -0.0517
 5857SOL    HW129204   4.580   1.416   4.820 -3.3384 -1.1842  0.6115
 5857SOL    HW229205   4.538   1.274   4.823  0.4459 -0.2947 -0.4540
 5858SOL     OW29206   3.497   0.743   8.927  0.3334 -0.2156  0.9316
 5858SOL    HW129207   3.482   0.835   8.905 -2.1802 -0.4447  1.7486
 5858SOL    HW229208   3.481   0.711   8.839  0.3731  2.0571  0.1013
 5859SOL     OW29209   1.826   1.866   1.803 -0.1497  0.2766 -0.0475
 5859SOL    HW129210   1.819   1.954   1.839  1.4729  1.2671 -2.1871
 5859SOL    HW229211   1.747   1.864   1.750 -1.2986 -0.7596  1.6708
 5860SOL     OW29212   2.948   3.124  16.079 -0.4578 -0.2630 -0.2601
 5860SOL    HW129213   2.861   3.127  16.039 -0.8749 -1.4798  0.5566
 5860SOL    HW229214   2.960   3.218  16.093 -1.0911 -0.0337 -1.2345
 5861SOL     OW29215   1.962   4.226   3.462 -0.9658  0.2592  0.1747
 5861SOL    HW129216   1.938   4.319   3.457 -1.1382  0.1313 -1.3300
 5861SOL    HW229217   1.873   4.208   3.493 -1.3349 -0.2571 -1.1805
 5862SOL     OW29218   2.429   4.468  12.872 -0.1133  0.1322  0.2800
 5862SOL    HW129219   2.476   4.397  12.828  0.2986  0.6385 -0.0986
 5862SOL    HW229220   2.420   4.428  12.958 -1.2476  2.0999  1.0818
 5863SOL     OW29221   4.455   3.357   9.356  0.2161 -0.0660 -0.4462
 5863SOL    HW129222   4.528   3.414   9.377 -1.0454  1.3224  0.1944
 5863SOL    HW229223   4.390   3.383   9.423  0.9172  0.1861  0.1326
 5864SOL     OW29224   3.117   4.149  11.574 -0.6246 -0.4285 -0.0977
 5864SOL    HW129225   3.082   4.184  11.492 -0.6763 -2.2716 -0.8752
 5864SOL    HW229226   3.173   4.073  11.557 -0.7736 -0.2120 -1.5078
 5865SOL     OW29227   3.348   2.053   6.556 -0.2866  0.1752 -0.1330
 5865SOL    HW129228   3.393   2.093   6.631  0.5770 -0.1543 -0.4796
 5865SOL    HW229229   3.260   2.090   6.557 -0.1413  0.4799  1.5745
 5866SOL     OW29230   3.740   3.625  16.212 -0.0105 -0.0230 -0.3856
 5866SOL    HW129231   3.650   3.618  16.244 -0.4187  2.1363 -1.0783
 5866SOL    HW229232   3.785   3.622  16.296 -0.4410  3.2086 -0.0499
 5867SOL     OW29233   3.265   2.216   1.250  0.4227  0.2729 -0.2535
 5867SOL    HW129234   3.311   2.205   1.333 -1.1512 -0.2416  0.5416
 5867SOL    HW229235   3.234   2.305   1.266  2.1741  0.6954  0.7718
 5868SOL     OW29236   2.269   3.534   7.921  0.3176  0.3532 -0.1019
 5868SOL    HW129237   2.274   3.493   8.008 -1.3439  1.2089  0.4013
 5868SOL    HW229238   2.281   3.624   7.953 -0.8612  0.6137 -0.3893
 5869SOL     OW29239   3.786   4.389   4.762 -0.1161  0.5074  0.4094
 5869SOL    HW129240   3.790   4.469   4.710  0.8235  2.3065  3.2334
 5869SOL    HW229241   3.874   4.354   4.748 -0.4658  0.1352 -0.8634
 5870SOL     OW29242   1.884   0.797   1.677 -0.0820 -0.1930  0.1890
 5870SOL    HW129243   1.961   0.803   1.621 -0.3972  0.8087 -0.1567
 5870SOL    HW229244   1.862   0.704   1.673 -2.2869  0.3255  0.2585
 5871SOL     OW29245   3.211   3.071  16.736  0.2959  0.1536 -0.0785
 5871SOL    HW129246   3.226   3.165  16.727 -1.4315  0.5932  1.5458
 5871SOL    HW229247   3.157   3.049  16.660  1.9733 -2.8566 -0.4161
 5872SOL     OW29248   2.691   1.907   8.916  0.4756 -0.2260 -0.3668
 5872SOL    HW129249   2.771   1.854   8.922  0.8311  0.5492  1.8541
 5872SOL    HW229250   2.691   1.955   8.833  0.3108  0.2958 -0.0668
 5873SOL     OW29251   2.801   3.665   8.933 -0.1206  0.2647  0.3656
 5873SOL    HW129252   2.862   3.720   8.885 -0.8343  0.6043 -0.1611
 5873SOL    HW229253   2.719   3.691   8.890  0.6020  2.6322  0.4323
 5874SOL     OW29254   1.669   4.403   5.126 -0.6761  0.6564  0.1566
 5874SOL    HW129255   1.699   4.484   5.084  1.6297  0.9204  2.2459
 5874SOL    HW229256   1.718   4.333   5.082  0.7106  1.0282  1.0848
 5875SOL     OW29257   3.883   2.655   6.484 -0.6038 -0.3630 -0.2397
 5875SOL    HW129258   3.818   2.600   6.441  0.0517  1.5530 -3.7082
 5875SOL    HW229259   3.825   2.718   6.528  1.1754 -1.1119  3.1846
 5876SOL     OW29260   2.252   4.174   8.221 -0.1380  0.2460  0.8001
 5876SOL    HW129261   2.294   4.231   8.286 -0.7564  0.5760  0.9118
 5876SOL    HW229262   2.193   4.128   8.281 -0.0289 -1.5764 -0.4954
 5877SOL     OW29263   3.001   3.447   5.537 -0.1757  0.2217  0.5834
 5877SOL    HW129264   2.911   3.478   5.540 -0.2673  0.0670 -0.6622
 5877SOL    HW229265   3.048   3.530   5.545  0.8380 -0.1521 -1.5227
 5878SOL     OW29266   0.317   0.078   6.080 -0.2472 -0.2982  0.0382
 5878SOL    HW129267   0.281   0.148   6.025  0.0375  0.0538  0.3008
 5878SOL    HW229268   0.395   0.124   6.111 -0.7276 -0.6103  1.7201
 5879SOL     OW29269   1.286   1.610   5.291  0.2576  0.5498 -0.4647
 5879SOL    HW129270   1.353   1.586   5.227  0.4176 -3.2963  1.1320
 5879SOL    HW229271   1.216   1.547   5.271 -0.9265  2.1025 -1.2336
 5880SOL     OW29272   1.314   0.228  11.157  0.0407  0.1358 -0.3776
 5880SOL    HW129273   1.240   0.172  11.134  0.4399 -0.8789  0.8229
 5880SOL    HW229274   1.330   0.287  11.083  1.1445  3.3223  2.4094
 5881SOL     OW29275   2.242   2.174   4.168 -0.4096  0.4994 -0.0725
 5881SOL    HW129276   2.292   2.093   4.184  0.4412  1.2305  1.0171
 5881SOL    HW229277   2.173   2.143   4.110  0.8259 -1.4806 -0.5055
 5882SOL     OW29278   3.627   2.756   6.983  0.4140 -0.4087  0.3054
 5882SOL    HW129279   3.681   2.818   7.032 -0.5673 -0.2476  1.1797
 5882SOL    HW229280   3.624   2.674   7.032 -1.3586  0.8624  2.3265
 5883SOL     OW29281   2.898   3.459   5.246 -0.2135 -0.3672  0.1641
 5883SOL    HW129282   2.876   3.495   5.332  0.3954  0.1244  0.1155
 5883SOL    HW229283   2.992   3.464   5.234 -0.2927 -0.2875 -0.4308
 5884SOL     OW29284   0.744   0.775   1.790  0.1739  0.6792 -0.1557
 5884SOL    HW129285   0.801   0.714   1.743 -0.3309 -0.0122  0.1230
 5884SOL    HW229286   0.664   0.768   1.738 -0.2153  0.6639  0.4400
 5885SOL     OW29287   3.324   1.185  16.961 -0.3510  0.2895 -0.2693
 5885SOL    HW129288   3.338   1.280  16.956  1.0316  0.1149  0.3423
 5885SOL    HW229289   3.361   1.157  16.878  0.5652  0.0377  0.2335
 5886SOL     OW29290   0.802   1.479  16.806  0.0271  0.2915  0.4065
 5886SOL    HW129291   0.894   1.506  16.807  0.4551 -1.1626  0.1912
 5886SOL    HW229292   0.772   1.525  16.728  2.5778 -0.1688 -0.8720
 5887SOL     OW29293   2.333   3.920   7.097  0.1038 -0.1503  0.2448
 5887SOL    HW129294   2.413   3.943   7.144  0.5741  0.4616 -0.8652
 5887SOL    HW229295   2.343   3.961   7.011 -0.6567  2.0558  1.2006
 5888SOL     OW29296   4.639   3.819   4.586 -0.0289 -0.0601 -0.1738
 5888SOL    HW129297   4.608   3.846   4.673  1.9483  1.3339  0.0897
 5888SOL    HW229298   4.730   3.808   4.611 -0.5373  1.4792  2.4003
 5889SOL     OW29299   0.250   4.428   4.848 -0.4475 -0.0093  0.0940
 5889SOL    HW129300   0.225   4.344   4.808 -0.1978 -0.6647  1.2935
 5889SOL    HW229301   0.231   4.501   4.789  0.7356  1.7164  1.8726
 5890SOL     OW29302   2.403   2.656  16.883  0.0443 -0.5372  0.1367
 5890SOL    HW129303   2.399   2.607  16.801 -0.7682  1.0786 -0.7747
 5890SOL    HW229304   2.324   2.709  16.885  0.2460 -0.2932  1.6021
 5891SOL     OW29305   1.541   4.037   9.128  0.2831  0.6153 -0.2220
 5891SOL    HW129306   1.524   3.945   9.111  0.0800  0.3454  1.4193
 5891SOL    HW229307   1.475   4.077   9.072 -1.0090 -1.2001  0.0345
 5892SOL     OW29308   4.437   3.281   8.876  0.3190  0.1997 -0.4194
 5892SOL    HW129309   4.525   3.272   8.838 -0.0659 -0.7594 -1.0873
 5892SOL    HW229310   4.453   3.267   8.969 -0.3508 -1.9457 -0.6090
 5893SOL     OW29311   3.076   0.686   6.676 -0.0314  0.4743  0.0296
 5893SOL    HW129312   3.155   0.661   6.629 -0.1392  1.3716 -0.6367
 5893SOL    HW229313   3.015   0.666   6.605 -1.5480  0.4546  1.3407
 5894SOL     OW29314   3.810   2.260   9.963  0.4555 -0.0290 -0.7456
 5894SOL    HW129315   3.835   2.190  10.023  0.4292 -0.2077 -0.9430
 5894SOL    HW229316   3.897   2.282   9.930  0.6745  1.1306  0.6203
 5895SOL     OW29317   3.398   4.654   2.940  0.3181  0.3440  0.6596
 5895SOL    HW129318   3.471   4.617   2.891  1.8244 -0.0633  3.1870
 5895SOL    HW229319   3.321   4.618   2.896  0.3398  0.2895  0.6659
 5896SOL     OW29320   2.023   0.548   6.694  0.6340  0.0318  0.4247
 5896SOL    HW129321   2.096   0.610   6.693  1.1228 -0.5725 -1.3116
 5896SOL    HW229322   2.068   0.465   6.678 -0.6631 -0.4398 -0.8419
 5897SOL     OW29323   1.595   0.634   6.496 -0.0209 -0.4016 -0.9555
 5897SOL    HW129324   1.547   0.605   6.574 -1.4717  1.7363 -1.0678
 5897SOL    HW229325   1.601   0.729   6.497  1.0917 -0.5013  1.2030
 5898SOL     OW29326   2.373   1.903   2.378 -0.1184 -0.3145  0.7078
 5898SOL    HW129327   2.448   1.898   2.319 -1.1779 -0.6396 -0.6138
 5898SOL    HW229328   2.320   1.838   2.332 -1.5282  0.9612  0.5445
 5899SOL     OW29329   1.210   3.088   8.837  0.5991 -0.0155 -0.2047
 5899SOL    HW129330   1.127   3.050   8.866 -0.6523  0.9718 -2.5593
 5899SOL    HW229331   1.241   3.146   8.908  3.3630  1.9627 -3.0400
 5900SOL     OW29332   2.345   1.143   3.635  0.3216  0.1237 -0.5142
 5900SOL    HW129333   2.386   1.230   3.637  2.0621 -0.6813 -1.1195
 5900SOL    HW229334   2.368   1.108   3.550  1.8597 -1.7661  0.6869
 5901SOL     OW29335   4.647   3.320   8.138 -0.1194 -0.2129 -0.3781
 5901SOL    HW129336   4.723   3.358   8.182 -0.2758  0.2449 -0.5020
 5901SOL    HW229337   4.681   3.305   8.049  1.9206  1.9942  0.0230
 5902SOL     OW29338   3.345   1.856   9.949  0.4294 -0.3296 -0.7565
 5902SOL    HW129339   3.265   1.820   9.986  0.6070 -0.3781 -0.4110
 5902SOL    HW229340   3.366   1.924  10.013  0.3254 -1.2302  0.2341
 5903SOL     OW29341   2.749   1.739   5.687  0.1891 -0.3627 -0.3515
 5903SOL    HW129342   2.756   1.652   5.648 -1.6713 -0.1827 -1.0995
 5903SOL    HW229343   2.804   1.797   5.635 -0.3986  0.8399  0.3817
 5904SOL     OW29344   2.014   2.827   2.350  0.4288 -0.2695  0.2891
 5904SOL    HW129345   1.943   2.868   2.300  1.3899  0.8726 -0.1419
 5904SOL    HW229346   1.951   2.772   2.397 -0.3484  0.9346  0.6651
 5905SOL     OW29347   2.172   2.857  12.164  0.0565  0.1105 -0.0557
 5905SOL    HW129348   2.197   2.886  12.076 -1.2891 -0.3270 -0.5845
 5905SOL    HW229349   2.210   2.771  12.149  0.4531  0.9289 -3.8081
 5906SOL     OW29350   3.603   1.393   3.369  0.4450  0.6920 -0.4269
 5906SOL    HW129351   3.578   1.328   3.434  1.1465  0.1783 -0.6695
 5906SOL    HW229352   3.520   1.398   3.322  0.8444 -2.1589 -1.4069
 5907SOL     OW29353   4.265   0.688   0.421  0.1895  0.3860  0.3467
 5907SOL    HW129354   4.291   0.677   0.513  0.3787  0.4322  0.2991
 5907SOL    HW229355   4.351   0.704   0.382  0.2067 -0.7707 -0.0744
 5908SOL     OW29356   1.677   1.551  12.363 -0.3940  0.1677  0.1377
 5908SOL    HW129357   1.593   1.557  12.408 -0.0084  0.7262  0.7829
 5908SOL    HW229358   1.682   1.455  12.357 -0.2733  0.0871  1.4158
 5909SOL     OW29359   3.397   2.922   8.159  0.3948  0.1106 -0.4608
 5909SOL    HW129360   3.451   2.877   8.225 -1.0945  0.1583  0.7850
 5909SOL    HW229361   3.313   2.926   8.204  1.2163  0.5644  1.0443
 5910SOL     OW29362   1.113   2.242   5.506  0.4506 -0.4649 -0.0607
 5910SOL    HW129363   1.095   2.191   5.585 -0.7175 -1.2286 -0.8222
 5910SOL    HW229364   1.033   2.220   5.458  0.5061  1.4892 -1.0551
 5911SOL     OW29365   0.996   0.120  15.521 -0.1702  0.4937  0.2216
 5911SOL    HW129366   1.017   0.094  15.610 -0.6859  2.2669  0.8633
 5911SOL    HW229367   1.056   0.062  15.473  1.0308 -0.1971  2.5864
 5912SOL     OW29368   4.666   4.311   5.208  0.0051  0.3402  0.5641
 5912SOL    HW129369   4.642   4.277   5.295 -1.6218 -1.1413 -0.4664
 5912SOL    HW229370   4.613   4.264   5.144  0.9546 -0.7684  0.5847
 5913SOL     OW29371   3.568   0.034   9.692  0.3082  0.6420  0.1776
 5913SOL    HW129372   3.608   4.733   9.615  2.0936  1.4882  0.6652
 5913SOL    HW229373   3.477   0.004   9.689  0.2292  0.7035  1.7379
 5914SOL     OW29374   3.555   1.599   8.635  0.3655 -0.3454  0.2142
 5914SOL    HW129375   3.546   1.639   8.721 -0.6102 -1.8447  0.8123
 5914SOL    HW229376   3.554   1.504   8.650  1.3735 -0.4229 -0.2150
 5915SOL     OW29377   2.282   3.295   6.929 -0.2790  0.1275 -0.0895
 5915SOL    HW129378   2.235   3.233   6.872 -0.4213  0.3366 -0.1988
 5915SOL    HW229379   2.326   3.241   6.995 -1.5656  1.3860  1.7985
 5916SOL     OW29380   1.449   3.593   5.887  0.4198 -0.2825 -0.2812
 5916SOL    HW129381   1.517   3.628   5.829 -0.6114  1.1541 -0.5944
 5916SOL    HW229382   1.397   3.530   5.837  1.6842 -0.5016 -1.3344
 5917SOL     OW29383   2.531   1.015   4.132 -0.0057  0.4748 -0.3879
 5917SOL    HW129384   2.463   1.034   4.196  1.5313 -0.6558  1.5894
 5917SOL    HW229385   2.488   1.036   4.049  0.6097  0.4757 -0.7167
 5918SOL     OW29386   3.498   3.920  13.822  0.3118  0.6588  0.1544
 5918SOL    HW129387   3.517   3.871  13.902 -0.8571  1.1383  0.7185
 5918SOL    HW229388   3.463   3.842  13.779 -1.0100  1.4352 -0.1836
 5919SOL     OW29389   0.718   3.830   3.407 -0.4014  0.6803 -0.1554
 5919SOL    HW129390   0.727   3.740   3.374 -0.3330  0.5229  0.2946
 5919SOL    HW229391   0.624   3.823   3.421  0.2125 -1.8126  2.7801
 5920SOL     OW29392   2.202   3.706   7.364 -0.5872 -0.0600  0.2832
 5920SOL    HW129393   2.274   3.728   7.423 -1.2572  0.0187  1.0594
 5920SOL    HW229394   2.262   3.679   7.294 -0.7303 -2.7088  1.1848
 5921SOL     OW29395   2.772   0.383   2.580 -0.5865 -0.3758 -0.2357
 5921SOL    HW129396   2.829   0.446   2.537  0.5424 -2.2182 -1.4162
 5921SOL    HW229397   2.828   0.311   2.607  0.9496  0.7050 -0.5601
 5922SOL     OW29398   3.871   0.409   7.209  0.5445 -0.2769 -0.3617
 5922SOL    HW129399   3.877   0.442   7.119 -0.8604  0.6211 -0.1363
 5922SOL    HW229400   3.915   0.482   7.253 -0.0516 -0.8634  1.2031
 5923SOL     OW29401   4.259   3.539   3.844 -0.4741  0.4463 -0.2863
 5923SOL    HW129402   4.191   3.471   3.835  0.4539 -0.5571  0.2353
 5923SOL    HW229403   4.328   3.476   3.823 -0.7290 -0.2215  0.8440
 5924SOL     OW29404   1.499   1.234   7.241  0.6329  1.0196  0.3263
 5924SOL    HW129405   1.555   1.235   7.163 -1.7427 -2.1848 -1.4665
 5924SOL    HW229406   1.540   1.312   7.278  1.6432  1.4755 -1.7459
 5925SOL     OW29407   3.304   0.061   6.853  0.3479  0.8980 -0.1388
 5925SOL    HW129408   3.332   4.719   6.895 -1.5735 -0.8643 -2.2044
 5925SOL    HW229409   3.237   0.090   6.915  1.5843  0.6680  1.2937
 5926SOL     OW29410   4.646   2.231   6.292 -0.4323  0.1002 -0.4877
 5926SOL    HW129411   4.600   2.207   6.372  1.0128  2.4957  1.0423
 5926SOL    HW229412   4.587   2.184   6.233 -1.0253 -1.3782  1.2955
 5927SOL     OW29413   1.271   2.903  17.121 -0.0306 -0.9610 -0.3559
 5927SOL    HW129414   1.209   2.885  17.192  2.3931  1.0146  2.2664
 5927SOL    HW229415   1.224   2.963  17.063  2.7001  0.0100 -1.5459
 5928SOL     OW29416   3.534   0.879   6.635 -0.1202 -0.2127 -0.0658
 5928SOL    HW129417   3.575   0.950   6.684 -1.6572  2.5176 -2.7348
 5928SOL    HW229418   3.500   0.919   6.555 -0.5958  2.1529  1.2983
 5929SOL     OW29419   2.659   2.937   7.637  0.0744 -0.2787  0.3305
 5929SOL    HW129420   2.583   2.898   7.593  1.2614 -0.6924 -1.3264
 5929SOL    HW229421   2.731   2.900   7.587  0.1864  0.9499 -0.4276
 5930SOL     OW29422   4.653   4.614   6.162  0.1890 -0.2960 -0.3231
 5930SOL    HW129423   4.696   4.537   6.199 -1.8379 -0.9591  0.6564
 5930SOL    HW229424   4.702   4.687   6.200  1.1598 -2.0046  1.7292
 5931SOL     OW29425   2.680   4.292   2.340  0.2304  0.5026  0.1485
 5931SOL    HW129426   2.722   4.330   2.417  0.3596 -0.2405  0.4377
 5931SOL    HW229427   2.690   4.202   2.369 -1.2407 -0.2517 -1.6519
 5932SOL     OW29428   3.158   4.163   6.458 -0.0792  0.5410 -0.2158
 5932SOL    HW129429   3.069   4.183   6.489  0.0660  1.0186 -0.1069
 5932SOL    HW229430   3.203   4.243   6.485 -0.7260  0.7691  0.2013
 5933SOL     OW29431   0.785   4.465  12.679  0.5206  0.3103 -0.3647
 5933SOL    HW129432   0.814   4.492  12.767  0.7272 -0.6728 -0.1334
 5933SOL    HW229433   0.699   4.428  12.699 -0.1828  2.7561  1.1910
 5934SOL     OW29434   3.359   1.229   6.674 -0.2138  0.0669  0.0885
 5934SOL    HW129435   3.449   1.214   6.702 -0.4230 -1.3817 -0.0470
 5934SOL    HW229436   3.367   1.196   6.585  0.1341  0.3908 -0.0009
 5935SOL     OW29437   1.408   3.946   1.908  0.6526  0.9325 -0.2277
 5935SOL    HW129438   1.423   4.010   1.978  1.1161  1.2175 -0.5925
 5935SOL    HW229439   1.427   3.993   1.827  1.1176 -1.3076 -1.4205
 5936SOL     OW29440   1.632   2.854  15.160 -0.4696  0.2773 -0.9037
 5936SOL    HW129441   1.613   2.807  15.079  0.7368 -1.7050 -0.0274
 5936SOL    HW229442   1.626   2.946  15.133  1.5389  0.7562  0.3339
 5937SOL     OW29443   2.106   4.344  11.818  0.3347  0.0101 -0.0707
 5937SOL    HW129444   2.069   4.256  11.826 -0.5228  0.4486  0.7871
 5937SOL    HW229445   2.137   4.368  11.905  2.2332 -1.1190 -0.4415
 5938SOL     OW29446   3.121   3.692   2.380 -0.6571  0.1584  0.2109
 5938SOL    HW129447   3.086   3.604   2.372  1.0370 -0.4807 -0.3124
 5938SOL    HW229448   3.205   3.673   2.337 -0.4224  1.6543  0.0052
 5939SOL     OW29449   4.545   1.612   6.861 -0.4951 -0.1745  0.0810
 5939SOL    HW129450   4.532   1.555   6.937 -0.9653  0.1341  0.2325
 5939SOL    HW229451   4.456   1.643   6.843 -0.3464  0.4522  0.3984
 5940SOL     OW29452   0.522   1.587   5.405 -0.0193 -0.4391 -0.4044
 5940SOL    HW129453   0.473   1.528   5.347 -0.8362 -0.3876  0.2244
 5940SOL    HW229454   0.583   1.606   5.333  0.3210 -2.3232 -0.6035
 5941SOL     OW29455   3.803   1.248  10.810 -0.5825 -0.1840  1.0540
 5941SOL    HW129456   3.710   1.225  10.810 -0.4999 -0.5156 -0.4828
 5941SOL    HW229457   3.797   1.343  10.796 -0.8824 -0.3605 -0.0369
 5942SOL     OW29458   1.496   0.325  13.589 -1.2346 -0.0968 -0.2814
 5942SOL    HW129459   1.424   0.373  13.630 -0.6414 -0.1969  0.9027
 5942SOL    HW229460   1.565   0.389  13.577 -0.2371 -1.3381 -1.1922
 5943SOL     OW29461   4.679   3.280  16.689 -0.3641 -0.0545 -0.1365
 5943SOL    HW129462   4.591   3.295  16.724  0.1310 -0.9912  1.5464
 5943SOL    HW229463   4.714   3.363  16.659 -2.5383  0.4101 -1.3313
 5944SOL     OW29464   3.857   4.453   3.327  0.2053  0.2540  0.0033
 5944SOL    HW129465   3.880   4.489   3.413  0.0414  0.4035 -0.0151
 5944SOL    HW229466   3.939   4.406   3.310 -0.8150 -1.6171  0.1919
 5945SOL     OW29467   0.846   1.109   9.783  0.2094  0.0980 -0.1480
 5945SOL    HW129468   0.871   1.119   9.691 -0.1830  1.3053 -0.1267
 5945SOL    HW229469   0.831   1.015   9.787 -1.9992  0.5170  1.6248
 5946SOL     OW29470   1.356   0.421   9.320  0.0540 -0.4826 -0.4666
 5946SOL    HW129471   1.291   0.454   9.382  0.4400 -0.3644 -0.1327
 5946SOL    HW229472   1.378   0.507   9.285  0.2074 -0.6983 -0.9007
 5947SOL     OW29473   2.659   1.440   3.416  0.2312  0.0327  0.1684
 5947SOL    HW129474   2.630   1.509   3.476 -1.5166  0.5922 -1.2993
 5947SOL    HW229475   2.721   1.480   3.356  0.2637  0.1347  0.2703
 5948SOL     OW29476   2.521   2.887   2.565  0.3966  1.0033 -0.1401
 5948SOL    HW129477   2.579   2.963   2.577  2.7971 -1.0645  1.4567
 5948SOL    HW229478   2.503   2.867   2.657 -0.3787  0.0943 -0.4874
 5949SOL     OW29479   1.246   4.010  15.598  0.0876  0.5128 -0.0003
 5949SOL    HW129480   1.223   4.041  15.510  0.3804  0.9360  0.0740
 5949SOL    HW229481   1.224   4.092  15.642  1.1506  1.0739 -0.5151
 5950SOL     OW29482   3.390   4.463   5.212  0.5501 -0.2011  0.3137
 5950SOL    HW129483   3.463   4.524   5.211  0.6689 -0.3304  1.2813
 5950SOL    HW229484   3.342   4.488   5.291  0.7235 -1.0821  0.6995
 5951SOL     OW29485   3.677   2.072   7.556 -0.2715 -0.2928  0.2945
 5951SOL    HW129486   3.768   2.044   7.553 -0.3611 -0.4721 -0.5590
 5951SOL    HW229487   3.636   2.027   7.483 -1.9761  0.0551  1.0365
 5952SOL     OW29488   1.188   2.892   8.627 -0.2522  0.3601 -0.1565
 5952SOL    HW129489   1.257   2.843   8.670 -2.0918 -0.9042  1.3108
 5952SOL    HW229490   1.175   2.962   8.691 -1.2229 -0.4177  0.4937
 5953SOL     OW29491   3.522   1.278  16.457 -0.4184 -0.2375 -0.2286
 5953SOL    HW129492   3.515   1.226  16.377 -1.8421 -2.5683  1.4323
 5953SOL    HW229493   3.615   1.298  16.468 -0.5273 -0.6842  1.4349
 5954SOL     OW29494   3.412   0.103   3.861  0.6403  0.6323 -0.5245
 5954SOL    HW129495   3.492   0.153   3.879 -0.1067  1.9484 -0.8574
 5954SOL    HW229496   3.458   0.037   3.810 -0.1746 -0.2152 -0.1640
 5955SOL     OW29497   1.523   1.736   5.416  0.6525 -0.1680  0.1366
 5955SOL    HW129498   1.490   1.737   5.506  1.6384 -0.2570  0.4942
 5955SOL    HW229499   1.453   1.682   5.378  0.0668 -1.0474  2.4710
 5956SOL     OW29500   3.598   0.874   2.964 -0.3615  0.3375 -0.1726
 5956SOL    HW129501   3.522   0.817   2.977 -1.5825  1.7401 -1.1989
 5956SOL    HW229502   3.574   0.904   2.877  1.5145 -0.6972 -1.0607
 5957SOL     OW29503   2.660   1.847   2.857  0.1675 -0.5820  0.1051
 5957SOL    HW129504   2.590   1.875   2.916 -1.0946 -0.0872 -1.6347
 5957SOL    HW229505   2.612   1.869   2.778 -0.1292 -0.8591  0.2109
 5958SOL     OW29506   1.697   3.082  16.490 -0.4276  0.3352 -0.3789
 5958SOL    HW129507   1.655   3.081  16.404 -1.6079 -0.7618  0.2043
 5958SOL    HW229508   1.622   3.084  16.550 -0.2464 -1.9226 -0.1025
 5959SOL     OW29509   0.884   0.875   6.392  0.1593 -0.2770  0.2604
 5959SOL    HW129510   0.910   0.944   6.453  1.2141 -1.1970  0.8437
 5959SOL    HW229511   0.964   0.832   6.364 -0.6336 -1.6406  0.0658
 5960SOL     OW29512   3.657   3.990   3.969 -0.6866  0.0011 -0.3004
 5960SOL    HW129513   3.732   3.987   4.029  0.0294  0.1582 -1.1933
 5960SOL    HW229514   3.690   3.961   3.884  0.7322 -1.6869  0.8313
 5961SOL     OW29515   2.162   3.422   1.500 -0.8081  0.4065  0.3757
 5961SOL    HW129516   2.133   3.506   1.466 -1.9113 -0.5720 -1.1261
 5961SOL    HW229517   2.081   3.371   1.492  0.6535 -2.0229  0.7911
 5962SOL     OW29518   3.107   3.307   6.285 -0.3531 -0.4672  0.1373
 5962SOL    HW129519   3.090   3.220   6.323  1.5426 -0.3060  1.3467
 5962SOL    HW229520   3.039   3.310   6.218 -0.0908 -3.7057 -0.3122
 5963SOL     OW29521   2.063   2.696   5.807  0.2590  0.4229 -0.5074
 5963SOL    HW129522   2.094   2.607   5.799 -0.8536  0.0124 -0.3355
 5963SOL    HW229523   2.142   2.750   5.808  1.0906 -0.8318  0.0135
 5964SOL     OW29524   4.664   3.473   7.313 -0.8562 -0.1208  0.9267
 5964SOL    HW129525   4.597   3.404   7.308 -0.2496 -0.5321 -1.9949
 5964SOL    HW229526   4.620   3.529   7.376 -0.4474  1.6719 -0.3921
 5965SOL     OW29527   4.370   4.687   6.204  0.3861 -0.4775 -0.5348
 5965SOL    HW129528   4.432   4.630   6.160  1.6294 -0.5397  1.3074
 5965SOL    HW229529   4.368   0.017   6.137  0.3588 -1.3164 -1.3887
 5966SOL     OW29530   1.687   3.626  14.936 -0.4515 -0.2110 -0.0670
 5966SOL    HW129531   1.605   3.628  14.987  1.2961  0.0790  2.7239
 5966SOL    HW229532   1.649   3.579  14.862 -0.6737 -0.7742  0.4049
 5967SOL     OW29533   4.576   3.946   5.642  0.2657 -0.0796  0.2965
 5967SOL    HW129534   4.656   3.972   5.688 -1.3985  0.5273  2.8045
 5967SOL    HW229535   4.597   3.965   5.550 -0.7419  0.7937  0.2560
 5968SOL     OW29536   3.121   0.141   4.654 -0.3888 -0.2550 -0.4629
 5968SOL    HW129537   3.131   0.214   4.593  3.6870 -0.1491  0.3395
 5968SOL    HW229538   3.201   0.144   4.705  0.6598 -1.5681 -2.0207
 5969SOL     OW29539   2.262   4.454   3.644  0.2730 -0.1680 -0.5717
 5969SOL    HW129540   2.244   4.368   3.606 -1.3226  1.0946 -2.6614
 5969SOL    HW229541   2.205   4.501   3.583 -0.9162 -0.0787  0.6296
 5970SOL     OW29542   3.320   1.607  17.302  0.0776  0.6716 -0.3809
 5970SOL    HW129543   3.364   1.691  17.289  0.1824  0.5589 -0.7756
 5970SOL    HW229544   3.246   1.626  17.359 -1.4130 -0.6153 -1.9069
 5971SOL     OW29545   1.817   1.836   9.523 -0.1864  0.5392  0.1746
 5971SOL    HW129546   1.801   1.825   9.430 -1.2316 -2.8726  0.7450
 5971SOL    HW229547   1.849   1.926   9.519  1.6745 -0.1185  0.2723
 5972SOL     OW29548   4.658   1.305  17.618 -0.4848 -0.4942 -0.1449
 5972SOL    HW129549   4.651   1.215  17.585 -0.8254  0.2361 -2.0618
 5972SOL    HW229550   4.710   1.345  17.548 -1.5585 -1.3517 -1.4407
 5973SOL     OW29551   1.599   4.504   9.907 -0.0933  0.1879 -0.0392
 5973SOL    HW129552   1.693   4.516   9.920  0.2775  1.1344 -3.6682
 5973SOL    HW229553   1.602   4.476   9.816  1.2644  0.3576 -0.0573
 5974SOL     OW29554   1.271   4.662  14.474 -0.3679  0.4975 -0.2123
 5974SOL    HW129555   1.216   4.713  14.533 -1.5860 -2.3064  1.0804
 5974SOL    HW229556   1.334   4.724  14.436  2.4875 -0.7144  2.5290
 5975SOL     OW29557   0.921   1.573   4.749  0.0423 -0.3198 -0.0843
 5975SOL    HW129558   0.942   1.480   4.749  1.2327 -0.0481  1.5542
 5975SOL    HW229559   1.001   1.604   4.792  0.1198 -0.1837 -0.3284
 5976SOL     OW29560   1.311   2.720   2.221 -0.2973  0.3193 -0.2054
 5976SOL    HW129561   1.311   2.807   2.261 -0.1522  0.8494 -1.3753
 5976SOL    HW229562   1.225   2.684   2.246 -0.1448  0.3651  0.3955
 5977SOL     OW29563   4.273   2.493   3.936 -0.4483 -0.0593  0.4023
 5977SOL    HW129564   4.258   2.571   3.884 -1.4727  0.0731  0.8890
 5977SOL    HW229565   4.192   2.480   3.986 -1.0147  2.0863  0.0614
 5978SOL     OW29566   3.610   3.627   3.444 -0.1029  0.0818  0.5028
 5978SOL    HW129567   3.678   3.684   3.408 -1.5774  2.3506  1.3232
 5978SOL    HW229568   3.614   3.645   3.538  0.0513 -3.0989  1.1152
 5979SOL     OW29569   1.134   1.746   4.833 -0.4230 -0.2280  0.4466
 5979SOL    HW129570   1.174   1.789   4.758  1.8920 -2.0755  0.6042
 5979SOL    HW229571   1.206   1.695   4.872 -0.1493 -0.9341 -0.9956
 5980SOL     OW29572   4.224   3.797   9.386 -0.4413 -0.3178  0.9665
 5980SOL    HW129573   4.212   3.715   9.339  1.8098 -0.1950  0.1725
 5980SOL    HW229574   4.164   3.786   9.460 -0.3344  3.5235  1.6268
 5981SOL     OW29575   0.681   4.129   6.360  0.2109 -0.0102 -0.7004
 5981SOL    HW129576   0.714   4.202   6.413  0.7231 -0.1483 -0.8389
 5981SOL    HW229577   0.758   4.114   6.305 -1.0537  1.4574 -2.8846
 5982SOL     OW29578   3.262   1.764   5.094  0.3159 -0.4397  0.1954
 5982SOL    HW129579   3.310   1.737   5.016 -2.3583 -0.8182 -1.3283
 5982SOL    HW229580   3.189   1.809   5.052  0.3788 -1.8597 -1.4385
 5983SOL     OW29581   0.724   0.398   9.405 -0.5393  0.0793  0.6949
 5983SOL    HW129582   0.810   0.368   9.437 -0.3998  1.1741  1.3608
 5983SOL    HW229583   0.721   0.352   9.322  0.2661  0.2106  0.5901
 5984SOL     OW29584   0.199   0.793   1.097 -0.4045  0.4959  0.0088
 5984SOL    HW129585   0.147   0.731   1.147  0.3198 -1.5244 -1.7484
 5984SOL    HW229586   0.147   0.870   1.123 -2.1551 -1.4495  2.2893
 5985SOL     OW29587   4.256   2.950   6.782 -0.3150 -0.2858 -0.2835
 5985SOL    HW129588   4.186   2.917   6.839 -1.6138 -0.5282 -2.0206
 5985SOL    HW229589   4.222   2.938   6.693 -1.1005 -1.6292  0.2115
 5986SOL     OW29590   0.631   1.552   3.797  0.0220  0.2151  0.2403
 5986SOL    HW129591   0.601   1.462   3.807  0.9512 -0.2490 -1.2222
 5986SOL    HW229592   0.714   1.535   3.754  1.4529 -0.3482  3.2796
 5987SOL     OW29593   0.861   0.052  14.475  0.2561  0.2915 -0.6446
 5987SOL    HW129594   0.821   0.118  14.530 -0.2290 -0.7411  0.2431
 5987SOL    HW229595   0.790   4.727  14.476  1.7975 -1.4142  0.4930
 5988SOL     OW29596   3.233   0.780   2.324  0.4670  0.9560  0.2460
 5988SOL    HW129597   3.167   0.849   2.311 -0.2864 -0.2872 -2.4206
 5988SOL    HW229598   3.283   0.807   2.247  2.2922 -1.9958  0.4145
 5989SOL     OW29599   1.478   0.779   4.452 -0.3487  0.3247 -0.0668
 5989SOL    HW129600   1.465   0.686   4.472 -0.6144  0.4819  0.5092
 5989SOL    HW229601   1.528   0.805   4.529  0.1625 -0.4736 -0.1298
 5990SOL     OW29602   4.029   2.610   2.258  0.4404 -0.4352 -0.0259
 5990SOL    HW129603   3.976   2.686   2.236 -1.0999 -1.9408 -1.4874
 5990SOL    HW229604   3.971   2.547   2.300 -0.7573 -0.1991 -1.3130
 5991SOL     OW29605   2.121   2.029  17.437 -0.3239 -0.2981 -0.2591
 5991SOL    HW129606   2.027   2.045  17.431 -0.3923 -0.7189 -0.3273
 5991SOL    HW229607   2.108   2.032  17.532  0.4325 -0.8593 -0.1416
 5992SOL     OW29608   0.149   1.754   5.834  0.0525 -0.2960  0.2587
 5992SOL    HW129609   0.190   1.668   5.835  0.9896  0.1552  0.7037
 5992SOL    HW229610   0.132   1.772   5.927 -0.4139  1.2167 -0.1240
 5993SOL     OW29611   3.657   3.778   7.440  0.2127  0.2138  0.3043
 5993SOL    HW129612   3.628   3.763   7.530 -0.3582  0.5892  0.1835
 5993SOL    HW229613   3.578   3.825   7.413  0.4441  0.0380 -0.6976
 5994SOL     OW29614   1.702   0.006   7.397  0.1647  0.1752 -0.0459
 5994SOL    HW129615   1.749   4.675   7.442 -0.7540 -0.5113 -0.1741
 5994SOL    HW229616   1.684   4.693   7.319 -0.2464  0.8920 -0.4261
 5995SOL     OW29617   4.447   3.855   4.351  0.4750 -0.1755 -0.2697
 5995SOL    HW129618   4.383   3.907   4.400  1.9160  0.3880  0.9786
 5995SOL    HW229619   4.509   3.831   4.419 -1.2308 -0.2523  1.2566
 5996SOL     OW29620   2.042   4.189   4.653 -0.3077  0.5079  0.4787
 5996SOL    HW129621   2.079   4.110   4.693 -1.5096 -1.1926 -1.7931
 5996SOL    HW229622   2.095   4.204   4.575 -0.2753  0.5448  0.5072
 5997SOL     OW29623   2.327   4.491   7.404  0.6951  0.2539  0.2163
 5997SOL    HW129624   2.337   4.451   7.490 -2.2625  0.6879  0.7574
 5997SOL    HW229625   2.383   4.435   7.351 -1.1037 -0.1679 -1.2672
 5998SOL     OW29626   2.978   2.192   4.350  0.2657 -0.0041  0.2976
 5998SOL    HW129627   3.057   2.245   4.353  0.9555 -1.1190  1.3957
 5998SOL    HW229628   2.952   2.187   4.258  1.7713 -3.6517  0.1006
 5999SOL     OW29629   1.447   2.052   6.490  0.1136 -0.2499  0.1961
 5999SOL    HW129630   1.430   2.058   6.396 -0.9399 -0.4281  0.3708
 5999SOL    HW229631   1.484   2.138   6.512  1.9822 -1.2739  1.0073
 6000SOL     OW29632   0.337   0.329   7.772  0.4820 -0.7035  0.3819
 6000SOL    HW129633   0.266   0.382   7.811 -0.5807 -2.8294  1.3265
 6000SOL    HW229634   0.410   0.390   7.764  0.3916 -0.3414  2.2478
 6001SOL     OW29635   2.256   2.322  11.889  0.5656 -0.6063  0.7224
 6001SOL    HW129636   2.324   2.389  11.891 -0.1775  0.2083 -0.6733
 6001SOL    HW229637   2.257   2.290  11.798  1.5828 -1.3649  0.9967
 6002SOL     OW29638   2.918   0.021   4.522  0.0241 -0.0070  0.1571
 6002SOL    HW129639   2.995   0.075   4.542 -0.6993  0.8350  0.6475
 6002SOL    HW229640   2.958   4.710   4.451 -0.5787  0.8440 -0.7792
 6003SOL     OW29641   0.303   3.983   5.480  0.3074 -0.4311 -0.0658
 6003SOL    HW129642   0.375   3.932   5.445 -1.3370 -2.5612 -0.3607
 6003SOL    HW229643   0.307   3.983   5.575  0.2101 -1.3960 -0.0620
 6004SOL     OW29644   2.550   0.751   6.488  0.0095  0.2051 -0.2367
 6004SOL    HW129645   2.514   0.809   6.421 -0.7330  0.2800  0.2390
 6004SOL    HW229646   2.484   0.682   6.498 -0.5063  1.1205  2.6122
 6005SOL     OW29647   1.940   4.388   8.828 -0.2000 -0.9142  0.0410
 6005SOL    HW129648   1.946   4.409   8.735 -0.4135 -2.1356 -0.2480
 6005SOL    HW229649   1.918   4.474   8.863 -0.1827 -1.5022  1.5388
 6006SOL     OW29650   2.658   1.138   2.686  0.0944 -0.7196  0.1184
 6006SOL    HW129651   2.617   1.067   2.637 -1.1068 -0.7309  1.1296
 6006SOL    HW229652   2.597   1.206   2.659 -1.3898 -1.6611  1.0559
 6007SOL     OW29653   3.223   0.920   1.277  0.5819  0.2403 -0.2150
 6007SOL    HW129654   3.268   0.951   1.199  1.3022 -1.5422 -0.5228
 6007SOL    HW229655   3.221   0.999   1.331  0.5607  0.0930  0.0029
 6008SOL     OW29656   3.782   1.685   6.286 -0.2186  0.3706  0.0796
 6008SOL    HW129657   3.859   1.692   6.230 -0.5956 -0.6676 -0.5668
 6008SOL    HW229658   3.801   1.602   6.330  2.3014  1.0253  0.2308
 6009SOL     OW29659   2.790   3.775   9.647  0.4900  0.3119  0.3039
 6009SOL    HW129660   2.760   3.693   9.608  0.3292  1.1423 -1.3089
 6009SOL    HW229661   2.716   3.832   9.626 -0.7692 -1.3304  0.2549
 6010SOL     OW29662   2.458   4.467   2.326  0.4881 -0.7086  0.2625
 6010SOL    HW129663   2.464   4.532   2.396 -1.3562  0.9899 -1.1529
 6010SOL    HW229664   2.532   4.412   2.352  0.1670 -1.4092 -0.3128
 6011SOL     OW29665   1.450   1.226   8.594  0.1356 -0.1093  0.0509
 6011SOL    HW129666   1.389   1.168   8.640  2.8258 -2.0128  1.1761
 6011SOL    HW229667   1.437   1.201   8.502  2.2004  1.1443 -0.5715
 6012SOL     OW29668   3.875   2.262   8.485 -0.1880  0.2155  0.8263
 6012SOL    HW129669   3.805   2.325   8.502 -2.1858 -1.4237 -1.3674
 6012SOL    HW229670   3.878   2.256   8.389  1.5947 -0.6519  0.9391
 6013SOL     OW29671   1.246   2.712   7.758 -0.5434  0.6025  0.0680
 6013SOL    HW129672   1.232   2.686   7.667 -2.0476 -1.3409  0.8595
 6013SOL    HW229673   1.206   2.800   7.758 -1.2446  0.2833  0.2912
 6014SOL     OW29674   2.090   0.114   1.615 -0.3427  0.0644 -0.0557
 6014SOL    HW129675   2.142   0.054   1.670  0.3697  0.1452 -0.6450
 6014SOL    HW229676   2.055   0.056   1.548  0.7177 -0.3578 -0.2484
 6015SOL     OW29677   2.294   4.578   8.459 -0.0773 -0.2501  0.2546
 6015SOL    HW129678   2.262   4.612   8.542  0.5977  2.0335 -0.4117
 6015SOL    HW229679   2.245   4.628   8.393 -0.9643  1.4178  2.1905
 6016SOL     OW29680   3.153   0.332   4.460 -0.2956  0.2850  0.0658
 6016SOL    HW129681   3.203   0.271   4.406 -1.3071 -1.3009  0.9365
 6016SOL    HW229682   3.099   0.373   4.391  0.1428 -0.5647 -0.7758
 6017SOL     OW29683   1.810   1.464   3.937  0.1790 -0.0201 -0.1330
 6017SOL    HW129684   1.807   1.369   3.950  3.0480 -0.0104  0.6764
 6017SOL    HW229685   1.827   1.474   3.844  0.3346  1.1515  0.0238
 6018SOL     OW29686   1.966   1.147  12.447  0.1183  0.3624 -0.1559
 6018SOL    HW129687   1.965   1.059  12.486 -1.2401 -0.2448 -1.5226
 6018SOL    HW229688   1.957   1.127  12.354  1.9230 -0.6102 -0.1153
 6019SOL     OW29689   3.923   3.646  16.028  0.0197  0.2590  0.2131
 6019SOL    HW129690   3.922   3.556  15.996  1.0128  0.3839 -0.1845
 6019SOL    HW229691   3.851   3.643  16.090 -0.5065 -0.2284 -0.4214
 6020SOL     OW29692   0.973   4.228   4.095  0.2756  0.2950  0.0654
 6020SOL    HW129693   0.969   4.154   4.156  0.1075 -0.8898 -1.3880
 6020SOL    HW229694   0.999   4.303   4.149 -1.1781  2.2904 -1.9993
 6021SOL     OW29695   4.446   2.251   4.258  0.1037 -0.1533  0.2655
 6021SOL    HW129696   4.460   2.193   4.183 -0.5594 -0.6180  0.4983
 6021SOL    HW229697   4.513   2.319   4.248 -0.5284  0.5619  0.9095
 6022SOL     OW29698   0.818   4.175   3.029 -0.3452  0.1185 -0.1697
 6022SOL    HW129699   0.801   4.154   2.937  1.4061 -0.3801 -0.3898
 6022SOL    HW229700   0.914   4.184   3.028 -0.3319  0.0113  0.5183
 6023SOL     OW29701   1.012   1.058   8.310  0.4097 -0.0481 -0.2810
 6023SOL    HW129702   1.019   1.147   8.274  2.4091 -0.9367 -2.0391
 6023SOL    HW229703   1.096   1.026   8.277  0.5837  1.9811 -1.8096
 6024SOL     OW29704   3.132   2.057   6.146 -0.5105 -0.3791 -0.4066
 6024SOL    HW129705   3.148   2.151   6.156  1.9640 -0.6909 -1.4893
 6024SOL    HW229706   3.190   2.036   6.073 -0.5316  1.8465 -1.0600
 6025SOL     OW29707   2.718   0.605   1.170  0.1197  0.2604 -0.5608
 6025SOL    HW129708   2.638   0.654   1.150  0.0057  0.8268  1.2838
 6025SOL    HW229709   2.784   0.667   1.139  0.4414 -0.0964 -0.5957
 6026SOL     OW29710   2.975   3.591   0.407 -0.5694  0.6179 -0.1889
 6026SOL    HW129711   2.981   3.497   0.390  2.2701  0.7612  0.0272
 6026SOL    HW229712   2.928   3.624   0.330 -1.1353  1.3609  0.4764
 6027SOL     OW29713   2.869   2.452   9.337  0.3354  0.7156  0.0600
 6027SOL    HW129714   2.790   2.404   9.362  1.0097 -0.4546 -0.0751
 6027SOL    HW229715   2.843   2.488   9.251 -1.4746 -2.1587 -0.6089
 6028SOL     OW29716   4.421   2.188   8.150  0.0382 -0.4007  0.2201
 6028SOL    HW129717   4.473   2.252   8.101 -0.4371  0.4679  0.8431
 6028SOL    HW229718   4.440   2.115   8.092 -0.4883  1.1726 -1.9274
 6029SOL     OW29719   3.676   2.502   3.281 -0.0849  0.2774  0.6392
 6029SOL    HW129720   3.603   2.477   3.225  0.2303 -0.0541  0.3750
 6029SOL    HW229721   3.735   2.542   3.218  0.6214 -0.3744  0.8871
 6030SOL     OW29722   2.997   3.796   6.300  0.6872  0.2570  0.7646
 6030SOL    HW129723   2.953   3.834   6.224 -0.6655 -0.1836  1.3200
 6030SOL    HW229724   2.978   3.866   6.362  0.5678  1.2428 -0.3916
 6031SOL     OW29725   3.175   3.545   1.064 -0.5430  0.3328  0.2890
 6031SOL    HW129726   3.144   3.553   1.154  2.2447 -2.0088  1.4540
 6031SOL    HW229727   3.267   3.522   1.075 -0.6377  0.2779  0.9275
 6032SOL     OW29728   4.647   0.511   7.669  0.0076 -0.5975  0.0989
 6032SOL    HW129729   4.662   0.596   7.628  0.1568  0.2426  1.9390
 6032SOL    HW229730   4.573   0.476   7.619  2.0650 -2.3051 -1.7660
 6033SOL     OW29731   2.687   2.649  14.810 -0.0924  0.1192 -0.5175
 6033SOL    HW129732   2.625   2.700  14.862  1.7323 -0.0687  1.8606
 6033SOL    HW229733   2.639   2.585  14.758  1.5894 -0.0264 -1.8840
 6034SOL     OW29734   4.351   2.451   7.716 -0.1866 -0.3073 -0.4250
 6034SOL    HW129735   4.410   2.388   7.674  1.9267  1.8518 -0.7000
 6034SOL    HW229736   4.266   2.407   7.707 -1.0413  1.7425 -2.3681
 6035SOL     OW29737   0.882   0.747   9.175 -0.2499  0.2600 -0.8685
 6035SOL    HW129738   0.792   0.760   9.145 -0.8518 -1.4152  0.1880
 6035SOL    HW229739   0.930   0.809   9.120  0.4377 -0.2800 -0.8724
 6036SOL     OW29740   4.339   2.261   9.464  0.6142 -0.0375  0.3063
 6036SOL    HW129741   4.258   2.239   9.418 -0.9447  2.0401  2.0012
 6036SOL    HW229742   4.357   2.352   9.439  1.5546 -0.2844  0.1019
 6037SOL     OW29743   1.341   3.017   1.388  0.1090  0.3292 -0.0470
 6037SOL    HW129744   1.302   3.103   1.372 -0.9661  0.1487  1.6733
 6037SOL    HW229745   1.267   2.964   1.416  0.2387  0.2428  0.1304
 6038SOL     OW29746   2.623   3.413   5.349  0.3938  0.2721 -0.1632
 6038SOL    HW129747   2.670   3.383   5.271 -0.9150  0.5826 -1.0698
 6038SOL    HW229748   2.553   3.347   5.354  1.3774 -0.6752  0.9126
 6039SOL     OW29749   4.274   2.853   0.357 -0.2890 -0.3098 -0.8841
 6039SOL    HW129750   4.222   2.925   0.393  1.0906  1.3096 -2.1009
 6039SOL    HW229751   4.201   2.809   0.315 -0.3048 -0.9871 -0.1411
 6040SOL     OW29752   4.034   3.735   3.877  0.2793 -0.1355  0.0214
 6040SOL    HW129753   4.005   3.650   3.842 -1.4802  0.3847  0.2208
 6040SOL    HW229754   4.126   3.719   3.897 -0.3000  0.0665  2.7620
 6041SOL     OW29755   0.207   3.850   6.676 -0.8375 -0.5533  0.0380
 6041SOL    HW129756   0.121   3.837   6.715 -2.3031  2.0803 -2.3089
 6041SOL    HW229757   0.271   3.811   6.736  0.0565  0.8943  0.0282
 6042SOL     OW29758   0.324   2.957   3.734  0.3528 -0.5352 -0.6829
 6042SOL    HW129759   0.281   2.887   3.685 -0.0894 -0.6805 -0.0925
 6042SOL    HW229760   0.247   2.967   3.790  0.6398  1.7543 -0.6973
 6043SOL     OW29761   1.610   0.364   6.948  0.4745  0.1924 -0.0792
 6043SOL    HW129762   1.697   0.404   6.949 -0.2715  1.8147  1.5385
 6043SOL    HW229763   1.563   0.410   7.019 -0.6139 -1.0113 -0.0219
 6044SOL     OW29764   0.532   3.309  15.743  0.4532 -0.8193  0.4028
 6044SOL    HW129765   0.502   3.311  15.652 -1.4808 -0.5043  1.0450
 6044SOL    HW229766   0.537   3.215  15.760 -2.5704 -0.6383  2.3077
 6045SOL     OW29767   0.995   0.314   0.294 -0.1931 -0.6687  0.1152
 6045SOL    HW129768   1.037   0.384   0.245 -0.2015 -1.1435 -0.5730
 6045SOL    HW229769   1.069   0.299   0.354 -1.0258  0.9405  1.5336
 6046SOL     OW29770   3.230   1.921   1.232 -0.6507  0.0812 -0.1351
 6046SOL    HW129771   3.189   1.900   1.148  1.0043  0.2795 -1.0100
 6046SOL    HW229772   3.215   2.016   1.228 -0.0888  0.2277  1.3136
 6047SOL     OW29773   0.721   1.394   6.432  0.2023 -0.1701 -0.1673
 6047SOL    HW129774   0.701   1.336   6.359 -2.2096  0.7321 -0.2199
 6047SOL    HW229775   0.712   1.478   6.386 -2.0872 -1.5688 -2.2357
 6048SOL     OW29776   0.884   1.120   3.913  0.0930 -0.0279 -0.4574
 6048SOL    HW129777   0.839   1.074   3.983 -1.3009  0.4180 -1.0613
 6048SOL    HW229778   0.928   1.189   3.963  0.0780 -0.1461 -0.2845
 6049SOL     OW29779   3.612   2.940   2.125 -0.4091 -0.2840 -0.1244
 6049SOL    HW129780   3.625   2.849   2.099 -0.7193 -0.7040  1.1636
 6049SOL    HW229781   3.654   2.939   2.211 -1.1466 -0.4712  0.2379
 6050SOL     OW29782   3.605   4.350   1.293 -0.4555 -0.2478  0.3993
 6050SOL    HW129783   3.523   4.394   1.271 -0.6721 -0.3296  1.0440
 6050SOL    HW229784   3.643   4.426   1.336  0.6342 -1.5266  1.6822
 6051SOL     OW29785   1.969   2.384   0.573  0.5264  0.4472 -0.3630
 6051SOL    HW129786   2.044   2.397   0.514  0.4334  1.8519 -0.1752
 6051SOL    HW229787   1.933   2.471   0.588  3.9554  1.5227  1.7088
 6052SOL     OW29788   0.117   0.397  12.506  0.0004 -0.5394  0.1996
 6052SOL    HW129789   0.069   0.425  12.584  1.4611  0.1032  0.8522
 6052SOL    HW229790   0.056   0.419  12.435 -1.0765 -1.2178  0.9119
 6053SOL     OW29791   1.184   0.081   1.364  0.0020 -0.6318 -0.8227
 6053SOL    HW129792   1.094   0.110   1.349 -0.1510  0.2081  1.6643
 6053SOL    HW229793   1.230   0.141   1.306  1.2849  0.1809  1.0117
 6054SOL     OW29794   3.203   3.969   6.080 -0.1350  0.5436 -0.0851
 6054SOL    HW129795   3.263   3.998   6.011 -1.5246  2.9206 -0.2587
 6054SOL    HW229796   3.146   3.916   6.025  1.9505 -1.6288 -0.1509
 6055SOL     OW29797   4.119   0.586   3.600  0.0982  0.1754 -0.2416
 6055SOL    HW129798   4.173   0.653   3.556 -0.4114  0.0920 -0.9998
 6055SOL    HW229799   4.189   0.535   3.641  0.2250  0.2325 -0.3829
 6056SOL     OW29800   0.230   4.268  10.312  0.0163 -0.4410 -0.2924
 6056SOL    HW129801   0.283   4.230  10.242 -0.4816 -0.9733 -0.3736
 6056SOL    HW229802   0.263   4.357  10.303 -0.6279 -0.0853  0.9330
 6057SOL     OW29803   2.760   1.304  16.469  0.5990  0.4301  0.6962
 6057SOL    HW129804   2.752   1.232  16.407  0.1975  1.8450 -0.8982
 6057SOL    HW229805   2.813   1.263  16.537  1.3067  0.3764  0.1151
 6058SOL     OW29806   0.008   2.983   6.684 -0.3043  0.3519  0.0485
 6058SOL    HW129807   4.714   2.970   6.595  0.6042  0.0369 -0.2349
 6058SOL    HW229808   4.669   2.957   6.734 -0.4964  2.3057  0.7915
 6059SOL     OW29809   2.212   0.450  14.431  0.0318 -0.7514 -0.9015
 6059SOL    HW129810   2.266   0.481  14.504 -2.2251 -0.1201  0.4915
 6059SOL    HW229811   2.129   0.475  14.471  0.6272 -0.7262  0.3123
 6060SOL     OW29812   0.819   1.182  14.255  0.0388  0.8865 -0.2135
 6060SOL    HW129813   0.822   1.209  14.163  0.3954  0.0243 -0.4542
 6060SOL    HW229814   0.817   1.087  14.245 -1.2188  0.9202 -0.3022
 6061SOL     OW29815   0.793   1.776   1.894  0.2602 -0.3025 -0.3427
 6061SOL    HW129816   0.769   1.715   1.964 -1.0308  0.3171 -0.2528
 6061SOL    HW229817   0.805   1.719   1.818  2.2686  0.7860 -0.8295
 6062SOL     OW29818   3.477   3.859  11.617 -0.0977 -0.1068 -0.6802
 6062SOL    HW129819   3.558   3.812  11.638 -0.3751 -1.3477 -2.3564
 6062SOL    HW229820   3.508   3.949  11.605  1.0794 -0.3836  0.2645
 6063SOL     OW29821   4.306   1.924   4.862  0.2221  0.2162  0.1819
 6063SOL    HW129822   4.282   1.902   4.952 -0.7954 -1.1984 -0.4230
 6063SOL    HW229823   4.386   1.975   4.875  1.0833 -1.4055  1.2101
 6064SOL     OW29824   3.651   3.452   1.490  0.4543  0.3471  0.4722
 6064SOL    HW129825   3.569   3.497   1.510  0.9665  1.1490  0.7600
 6064SOL    HW229826   3.616   3.365   1.511  1.0222  0.0119  0.0416
 6065SOL     OW29827   0.208   4.650   3.946 -0.6756 -0.0021 -0.7419
 6065SOL    HW129828   0.228   4.575   3.889  1.2172 -0.7475  0.8899
 6065SOL    HW229829   0.159   4.702   3.883 -0.7749  2.0837  1.0712
 6066SOL     OW29830   3.294   3.400   5.425  0.4709 -0.1900 -0.4002
 6066SOL    HW129831   3.241   3.321   5.432 -1.1948  1.1497  2.0643
 6066SOL    HW229832   3.236   3.464   5.382 -1.5247 -1.7556 -0.0090
 6067SOL     OW29833   3.513   1.769   1.237 -0.5555 -0.5415  0.0763
 6067SOL    HW129834   3.594   1.815   1.214  0.6662 -1.6860  2.1665
 6067SOL    HW229835   3.449   1.840   1.236 -1.0260 -1.0015 -2.5198
 6068SOL     OW29836   3.309   1.936   0.213 -0.7497 -0.3255 -0.1305
 6068SOL    HW129837   3.305   1.857   0.266  0.6868  0.1019  0.6112
 6068SOL    HW229838   3.388   1.979   0.246 -0.6306  0.5541 -1.5624
 6069SOL     OW29839   0.706   0.511   6.275  0.9272  0.1168 -1.3079
 6069SOL    HW129840   0.725   0.591   6.226 -0.6168  1.2172 -0.1197
 6069SOL    HW229841   0.719   0.536   6.366 -2.4664  0.6339 -0.9697
 6070SOL     OW29842   1.434   0.593  11.687 -0.1334 -0.2846 -0.0236
 6070SOL    HW129843   1.346   0.609  11.723 -0.2842  1.1529 -1.0342
 6070SOL    HW229844   1.430   0.655  11.615  2.1799  1.0911  1.0470
 6071SOL     OW29845   3.344   4.021  11.874 -0.7779  0.0930  0.0026
 6071SOL    HW129846   3.332   4.113  11.850 -0.2293 -0.4222 -2.2439
 6071SOL    HW229847   3.253   4.005  11.899 -0.8871 -0.0782 -0.5179
 6072SOL     OW29848   2.005   2.074  17.021  0.0253  0.0564 -0.0638
 6072SOL    HW129849   2.051   2.022  16.956 -1.4660 -0.6130 -0.5904
 6072SOL    HW229850   1.926   2.094  16.971 -0.3669  1.0351  0.9519
 6073SOL     OW29851   3.076   3.959   7.905 -0.2953 -0.0595  0.8302
 6073SOL    HW129852   3.137   4.026   7.875  0.8875 -2.0896 -1.3374
 6073SOL    HW229853   2.999   4.008   7.932  1.0386  2.2934  0.3461
 6074SOL     OW29854   1.178   4.280   4.670 -0.2680  0.2462 -0.0149
 6074SOL    HW129855   1.169   4.250   4.760 -0.1314 -2.5422 -0.9013
 6074SOL    HW229856   1.266   4.317   4.670 -0.9593  1.8763  0.7432
 6075SOL     OW29857   1.983   0.956  11.374 -0.1149 -0.1683  0.0984
 6075SOL    HW129858   2.038   0.892  11.420  1.5828  0.1702 -1.4203
 6075SOL    HW229859   1.947   1.016  11.439 -1.1811 -1.2854  0.5388
 6076SOL     OW29860   0.391   2.532  15.392 -0.0916 -0.6665  0.0363
 6076SOL    HW129861   0.310   2.496  15.428  0.4419 -0.0432  1.8760
 6076SOL    HW229862   0.354   2.555  15.307 -0.8507  0.6892  0.7165
 6077SOL     OW29863   2.596   0.766   5.784 -0.2317  0.2973 -0.1254
 6077SOL    HW129864   2.652   0.829   5.829 -0.6485  0.7055 -0.1786
 6077SOL    HW229865   2.547   0.725   5.855  1.5608  0.1726  1.0489
 6078SOL     OW29866   2.048   4.632   2.379  0.3667  0.1174  0.4576
 6078SOL    HW129867   2.082   4.558   2.329 -2.4819 -1.6221  1.0855
 6078SOL    HW229868   2.076   4.697   2.314 -1.7438 -0.3758 -0.9400
 6079SOL     OW29869   3.105   0.121   5.766 -0.0533 -0.4037  0.1996
 6079SOL    HW129870   3.159   0.060   5.817  0.6227  1.2371  1.4450
 6079SOL    HW229871   3.020   0.115   5.810  0.0406  1.3975  0.6345
 6080SOL     OW29872   3.650   1.215  13.618 -0.4331  0.0652 -0.4425
 6080SOL    HW129873   3.705   1.164  13.677  0.9922  0.2356 -1.6049
 6080SOL    HW229874   3.573   1.233  13.672  0.8973  2.5467  0.6029
 6081SOL     OW29875   0.315   0.586  13.342 -0.6297 -0.3270 -0.0090
 6081SOL    HW129876   0.279   0.497  13.336 -1.3268 -0.2854  3.6663
 6081SOL    HW229877   0.361   0.586  13.425  0.3619 -0.4736 -0.5611
 6082SOL     OW29878   0.601   4.011  13.362  0.8569  0.1708 -0.1923
 6082SOL    HW129879   0.559   4.096  13.375 -0.0326 -0.3454  0.3533
 6082SOL    HW229880   0.522   3.957  13.370  2.0231 -1.3598  0.8769
 6083SOL     OW29881   1.346   2.527   0.736 -0.7614 -0.5879  0.0499
 6083SOL    HW129882   1.274   2.480   0.777  0.0137  0.3068  2.4942
 6083SOL    HW229883   1.292   2.594   0.695  1.1626  0.5926 -0.5667
 6084SOL     OW29884   2.336   4.389   4.638 -0.4523  0.9158 -0.5615
 6084SOL    HW129885   2.301   4.438   4.712 -0.6813 -0.2683  0.1071
 6084SOL    HW229886   2.255   4.369   4.591 -0.1635 -0.1668 -0.6037
 6085SOL     OW29887   0.034   0.544   7.171  0.3689 -0.3071 -0.2416
 6085SOL    HW129888   4.691   0.515   7.210  1.0763 -1.3278  0.4765
 6085SOL    HW229889   0.087   0.466   7.187 -1.8088 -1.4566  1.3699
 6086SOL     OW29890   0.391   3.863  11.605  0.4612  0.1478 -0.2207
 6086SOL    HW129891   0.445   3.856  11.527  1.1594 -0.9245  0.3585
 6086SOL    HW229892   0.456   3.904  11.661 -1.1789  1.3211  0.8214
 6087SOL     OW29893   2.878   2.517   6.496  0.3629  0.0671  0.4409
 6087SOL    HW129894   2.834   2.448   6.447  0.4524  0.1115  0.2974
 6087SOL    HW229895   2.862   2.586   6.432  2.2891  0.6723  0.6156
 6088SOL     OW29896   3.019   0.618   2.438  0.4034  0.0202  0.3485
 6088SOL    HW129897   3.013   0.562   2.361  0.2666 -0.1261  0.4654
 6088SOL    HW229898   3.098   0.663   2.409 -1.9117  2.0879 -2.6925
 6089SOL     OW29899   4.289   0.497  12.551 -0.5829  0.0264  0.0080
 6089SOL    HW129900   4.262   0.475  12.462 -0.0253 -1.2654  0.1561
 6089SOL    HW229901   4.364   0.553  12.531 -1.2954  1.2086  0.6218
 6090SOL     OW29902   3.533   1.639  13.700 -0.4833  0.3332 -0.0273
 6090SOL    HW129903   3.540   1.590  13.782  2.5648  0.0340 -0.4465
 6090SOL    HW229904   3.569   1.587  13.629 -0.1860  0.7098 -0.1563
 6091SOL     OW29905   2.804   0.296   0.102  0.3083 -0.0849  0.5420
 6091SOL    HW129906   2.816   0.390   0.117 -0.9403 -0.3598  3.2500
 6091SOL    HW229907   2.893   0.266   0.085  1.2136  2.8126  0.0973
 6092SOL     OW29908   1.211   2.943   3.583 -0.3012 -0.3775  0.4002
 6092SOL    HW129909   1.125   2.983   3.596 -0.3050 -0.4110  0.4802
 6092SOL    HW229910   1.196   2.849   3.581  0.2713 -0.4922  1.3869
 6093SOL     OW29911   0.902   0.441   7.354 -0.4530 -0.5112  0.3725
 6093SOL    HW129912   0.843   0.474   7.421 -2.0147 -2.5114 -0.0251
 6093SOL    HW229913   0.847   0.431   7.276 -1.0451 -2.9949  1.1047
 6094SOL     OW29914   0.496   4.258  13.320  0.1072 -0.2942 -0.0533
 6094SOL    HW129915   0.468   4.315  13.392  0.2567  1.6115 -1.5225
 6094SOL    HW229916   0.491   4.315  13.243  2.8577 -1.5379 -1.1352
 6095SOL     OW29917   1.358   0.668   8.885  0.5038 -0.0644  0.0582
 6095SOL    HW129918   1.297   0.658   8.813 -1.7195  3.7769  1.4381
 6095SOL    HW229919   1.378   0.576   8.903 -2.0044 -0.1863  2.1879
 6096SOL     OW29920   1.742   1.041   4.448  0.3101  0.6613  0.0517
 6096SOL    HW129921   1.789   0.959   4.439 -4.6085 -2.3185  1.3530
 6096SOL    HW229922   1.678   1.031   4.378  0.8734  1.9259 -0.6408
 6097SOL     OW29923   3.145   1.484   5.400  0.1019  0.2290  0.4560
 6097SOL    HW129924   3.110   1.568   5.430 -1.3044 -1.1111  2.5585
 6097SOL    HW229925   3.223   1.519   5.357 -0.9612 -0.7989 -2.2652
 6098SOL     OW29926   0.856   1.016   4.222 -0.0804 -0.0396 -0.3178
 6098SOL    HW129927   0.860   1.111   4.232 -2.2908  0.0265  0.0006
 6098SOL    HW229928   0.935   0.994   4.270 -2.0030 -1.2867  2.2500
 6099SOL     OW29929   3.810   3.294   4.688  0.1170 -0.1393 -0.2058
 6099SOL    HW129930   3.874   3.299   4.617 -0.8442 -0.3648 -1.1079
 6099SOL    HW229931   3.740   3.358   4.674  0.0693  0.4076  2.6128
 6100SOL     OW29932   0.788   3.931  11.169 -0.4665  0.2971 -0.0948
 6100SOL    HW129933   0.719   3.866  11.152 -0.2974 -1.5295  5.8809
 6100SOL    HW229934   0.868   3.878  11.167 -1.1107 -0.6398 -1.1551
 6101SOL     OW29935   1.267   3.762  17.749 -0.3400  0.4947  0.4052
 6101SOL    HW129936   1.357   3.729  17.751 -0.2855  0.6597  0.6730
 6101SOL    HW229937   1.241   3.762   0.087  0.4519 -0.7185  0.6414
 6102SOL     OW29938   2.476   0.426   7.398 -0.9570  0.4111 -0.3337
 6102SOL    HW129939   2.420   0.351   7.421 -0.7030 -0.3136 -2.0723
 6102SOL    HW229940   2.419   0.487   7.350 -1.7810 -0.9544 -1.0855
 6103SOL     OW29941   4.045   3.098  14.188  0.4538  0.0519  0.8488
 6103SOL    HW129942   4.060   3.188  14.216  3.2395 -0.3657  0.6489
 6103SOL    HW229943   4.108   3.107  14.116  1.4746 -0.0915  1.7334
 6104SOL     OW29944   3.792   2.673   8.902  0.0762 -0.0850 -0.2043
 6104SOL    HW129945   3.805   2.727   8.825  2.0228 -0.5202 -0.1914
 6104SOL    HW229946   3.872   2.621   8.907 -0.8657 -1.4701  0.5854
 6105SOL     OW29947   0.069   1.223   5.441  0.1374  0.2340  0.1947
 6105SOL    HW129948   0.145   1.239   5.384 -0.7838 -0.1591 -1.1326
 6105SOL    HW229949   0.117   1.201   5.521  1.4793  0.5598 -0.5167
 6106SOL     OW29950   1.884   2.037  13.888 -0.0633 -0.0197 -0.1138
 6106SOL    HW129951   1.817   1.981  13.848  0.3354 -2.6384  2.8534
 6106SOL    HW229952   1.847   2.123  13.867 -0.0957 -0.1328 -0.5237
 6107SOL     OW29953   1.628   3.765  16.272 -0.0991  0.1560 -0.0864
 6107SOL    HW129954   1.588   3.807  16.348  3.9837  2.0289  1.0251
 6107SOL    HW229955   1.599   3.825  16.203  0.0272 -0.8192 -0.9836
 6108SOL     OW29956   3.875   1.399  10.389  0.1263  0.0698  0.0358
 6108SOL    HW129957   3.833   1.463  10.446 -0.9945 -0.3689 -0.2828
 6108SOL    HW229958   3.823   1.321  10.410 -0.9293  0.4123 -1.3308
 6109SOL     OW29959   0.089   0.569   7.859 -0.0974 -0.1242 -0.6669
 6109SOL    HW129960   0.024   0.570   7.789 -1.7282 -0.2853  0.8459
 6109SOL    HW229961   0.110   0.662   7.860 -1.9805  0.2398  2.5920
 6110SOL     OW29962   2.097   3.793  14.065  0.2260 -0.4622 -0.1925
 6110SOL    HW129963   2.041   3.795  13.988  0.5643  2.4096 -0.3435
 6110SOL    HW229964   2.039   3.815  14.138  0.6097  0.5241 -0.1863
 6111SOL     OW29965   2.195   4.195   6.966 -0.0371  0.4880  0.2292
 6111SOL    HW129966   2.162   4.200   6.877 -0.9410 -0.0322  0.5358
 6111SOL    HW229967   2.286   4.172   6.951  0.0823  2.2003 -1.6841
 6112SOL     OW29968   3.690   2.811   7.538 -0.2114 -0.5576  0.1067
 6112SOL    HW129969   3.676   2.823   7.632  2.1120  0.4661  0.3092
 6112SOL    HW229970   3.778   2.834   7.510  0.0166 -0.4923  0.8804
 6113SOL     OW29971   1.698   3.552  11.730  0.8713  0.3949  0.5995
 6113SOL    HW129972   1.764   3.553  11.800 -0.4816  1.2113  1.8621
 6113SOL    HW229973   1.749   3.561  11.650 -0.0158  1.1752  0.1208
 6114SOL     OW29974   3.668   3.047   4.960 -0.1033 -0.5244  0.1680
 6114SOL    HW129975   3.707   3.008   4.882  0.8588  1.9638 -0.5994
 6114SOL    HW229976   3.744   3.062   5.016 -0.0599 -1.6709  0.4229
 6115SOL     OW29977   4.168   2.821   9.680 -0.8397 -0.5210 -0.3612
 6115SOL    HW129978   4.167   2.829   9.775 -1.1686 -0.7834 -0.3442
 6115SOL    HW229979   4.081   2.854   9.658 -1.2283 -1.2926  0.0474
 6116SOL     OW29980   4.067   0.961  12.172 -0.0895  0.2208 -0.2072
 6116SOL    HW129981   4.046   0.892  12.110  1.3201  0.1132 -0.5587
 6116SOL    HW229982   4.005   0.947  12.243  2.5851  1.4830  2.3923
 6117SOL     OW29983   4.489   0.316  14.045  0.0366  0.0954 -0.3014
 6117SOL    HW129984   4.530   0.249  13.990 -1.1854 -1.2217  0.4005
 6117SOL    HW229985   4.485   0.386  13.980  0.2904 -2.7645 -3.4347
 6118SOL     OW29986   1.597   0.540  14.241  0.1943 -0.2389 -0.1203
 6118SOL    HW129987   1.546   0.570  14.316 -0.4436  1.5561 -1.2680
 6118SOL    HW229988   1.571   0.592  14.165 -2.9001 -0.2844  0.9014
 6119SOL     OW29989   2.723   2.685   8.201 -0.0523  0.3717  0.2921
 6119SOL    HW129990   2.768   2.632   8.266 -1.7168 -1.3900 -0.0295
 6119SOL    HW229991   2.681   2.620   8.144  0.1070 -0.9656  1.7201
 6120SOL     OW29992   2.576   1.538   3.963 -0.3198  0.0380 -0.4950
 6120SOL    HW129993   2.651   1.555   3.907 -1.6949  2.7406 -1.5343
 6120SOL    HW229994   2.503   1.574   3.912  0.1424  2.1900  0.3288
 6121SOL     OW29995   0.643   1.617  14.967  0.2519  0.1674 -0.8881
 6121SOL    HW129996   0.652   1.525  14.942  0.3470 -0.1651  0.3938
 6121SOL    HW229997   0.623   1.666  14.887  0.2388 -1.0512 -1.6340
 6122SOL     OW29998   1.499   1.682   3.079  0.6563 -0.6062 -0.7408
 6122SOL    HW129999   1.477   1.599   3.122  4.0628 -1.7217 -1.1855
 6122SOL    HW230000   1.440   1.688   3.004  2.0686 -0.6069 -1.8475
 6123SOL     OW30001   0.051   0.125   8.309  0.0804  0.0358 -0.1233
 6123SOL    HW130002   0.005   0.185   8.369  0.0594  1.4281 -1.5469
 6123SOL    HW230003   0.093   0.188   8.251  1.1597 -0.9430 -0.3994
 6124SOL     OW30004   2.139   3.794  16.047 -0.2741 -0.0403 -0.2937
 6124SOL    HW130005   2.048   3.772  16.065 -0.0148 -0.8215  0.0716
 6124SOL    HW230006   2.135   3.884  16.016  0.8425  0.3331  0.6353
 6125SOL     OW30007   1.794   0.491   9.240 -0.8206  0.0007 -0.1916
 6125SOL    HW130008   1.812   0.518   9.331 -1.0519  1.5853 -0.6130
 6125SOL    HW230009   1.752   0.573   9.213  0.5575  0.0567 -2.1321
 6126SOL     OW30010   2.155   1.766   1.912  0.2186  0.6006  0.0108
 6126SOL    HW130011   2.081   1.713   1.883 -0.4254  1.4238  0.1538
 6126SOL    HW230012   2.181   1.793   1.824 -1.1317 -1.0364 -0.8860
 6127SOL     OW30013   0.205   4.485   0.127  1.1223 -0.3454  0.0925
 6127SOL    HW130014   0.290   4.529   0.131  0.8521  0.2155 -0.2930
 6127SOL    HW230015   0.225   4.392   0.115 -1.3643 -1.0239  1.1804
 6128SOL     OW30016   0.592   1.069   9.054  0.0023  0.2391 -0.0852
 6128SOL    HW130017   0.519   1.129   9.037  0.5529  0.9600  0.1187
 6128SOL    HW230018   0.639   1.073   8.971 -1.6240 -0.4458 -1.0388
 6129SOL     OW30019   0.605   4.573   7.802 -0.4108 -0.3453 -0.6805
 6129SOL    HW130020   0.621   4.479   7.811 -0.6421 -0.3093  0.0955
 6129SOL    HW230021   0.616   4.590   7.709 -3.3689 -0.4495 -1.0595
 6130SOL     OW30022   4.292   1.359   2.528  0.0509 -0.4818 -0.2576
 6130SOL    HW130023   4.381   1.329   2.508  0.6795 -0.7755  3.0734
 6130SOL    HW230024   4.244   1.283   2.495 -1.8601  0.5220  0.2400
 6131SOL     OW30025   2.849   0.170   1.753  0.3803 -0.3609 -0.0797
 6131SOL    HW130026   2.927   0.193   1.703  0.8736  0.2492  0.9569
 6131SOL    HW230027   2.891   0.138   1.833 -0.6615 -0.6173  0.3743
 6132SOL     OW30028   0.664   4.338   3.152 -0.3232 -0.3915  0.2558
 6132SOL    HW130029   0.631   4.287   3.226 -0.4241  0.0763  0.5362
 6132SOL    HW230030   0.727   4.280   3.110  2.2048 -0.6764  4.5038
 6133SOL     OW30031   2.759   3.620   3.192 -0.1830 -0.0272  0.1205
 6133SOL    HW130032   2.682   3.596   3.140 -0.6502 -0.6740  1.1002
 6133SOL    HW230033   2.822   3.651   3.127  0.2663 -0.5918  0.2876
 6134SOL     OW30034   3.313   4.273   1.068 -0.4170 -0.5280  0.1088
 6134SOL    HW130035   3.224   4.253   1.039 -0.1262 -0.5650 -0.7604
 6134SOL    HW230036   3.368   4.223   1.008 -0.2077  0.3943 -0.4827
 6135SOL     OW30037   1.654   4.076   7.664  0.0536 -0.2940 -1.0493
 6135SOL    HW130038   1.667   4.170   7.656  1.8487 -0.4412 -0.0032
 6135SOL    HW230039   1.714   4.036   7.601  1.3711  0.6467 -0.3813
 6136SOL     OW30040   1.787   2.496   8.422  0.1373 -0.0770  0.4542
 6136SOL    HW130041   1.880   2.482   8.443  0.2602 -1.0293 -0.7620
 6136SOL    HW230042   1.748   2.409   8.425  0.7568 -0.2979  1.9986
 6137SOL     OW30043   4.353   0.798   3.926 -0.1654  0.2286  0.6946
 6137SOL    HW130044   4.360   0.853   4.004  1.5109 -0.1495  0.8084
 6137SOL    HW230045   4.307   0.854   3.863  1.2354 -0.5644 -1.0266
 6138SOL     OW30046   0.330   3.033   3.244 -0.1007  0.3152 -0.5914
 6138SOL    HW130047   0.319   3.123   3.276 -2.5958  0.6129 -2.3226
 6138SOL    HW230048   0.271   2.984   3.301  0.3492  2.1922  1.5039
 6139SOL     OW30049   2.852   3.073  15.369 -0.0702  0.3162 -0.1373
 6139SOL    HW130050   2.822   3.085  15.279  0.2298  1.0934 -0.1234
 6139SOL    HW230051   2.895   3.157  15.385  3.1635 -1.7704  2.1372
 6140SOL     OW30052   1.352   3.437  14.874  0.4118  0.8258 -0.3112
 6140SOL    HW130053   1.414   3.458  14.804  0.6865  0.6283 -0.1271
 6140SOL    HW230054   1.355   3.524  14.913 -0.9633  0.9665 -0.5282
 6141SOL     OW30055   0.537   0.295  14.682  0.3755 -0.7411  0.5545
 6141SOL    HW130056   0.626   0.300  14.647  0.7369  0.4493  1.6663
 6141SOL    HW230057   0.531   0.207  14.719 -0.9615 -0.2197  1.5619
 6142SOL     OW30058   3.215   2.498   5.345 -0.3377 -0.9146 -0.0952
 6142SOL    HW130059   3.283   2.436   5.318 -0.3504 -0.5601 -0.9335
 6142SOL    HW230060   3.264   2.579   5.356  0.0603 -1.1258 -0.3026
 6143SOL     OW30061   2.562   4.052   5.352 -0.4479 -0.4246 -0.1458
 6143SOL    HW130062   2.503   4.023   5.283 -1.8465  0.2056  0.7935
 6143SOL    HW230063   2.565   3.973   5.406  3.4945 -1.1514 -1.3906
 6144SOL     OW30064   2.745   4.120   9.203  0.2326  0.3198  0.5311
 6144SOL    HW130065   2.807   4.186   9.235 -0.8787  0.9194  1.4348
 6144SOL    HW230066   2.693   4.185   9.155  2.0171  2.0313  0.9312
 6145SOL     OW30067   1.108   1.402   6.527  0.1654 -0.3114 -0.4007
 6145SOL    HW130068   1.050   1.353   6.468  0.1448 -0.7600 -0.0088
 6145SOL    HW230069   1.183   1.343   6.530 -0.7416 -1.5107 -0.8177
 6146SOL     OW30070   3.196   1.488   2.266  0.8228  0.4299  0.0204
 6146SOL    HW130071   3.133   1.513   2.333  2.1713  4.4367 -0.2042
 6146SOL    HW230072   3.145   1.484   2.185  1.3827  0.3110 -0.3281
 6147SOL     OW30073   1.814   2.229   5.284 -0.0590  0.4920 -0.3155
 6147SOL    HW130074   1.849   2.184   5.207  1.6402  1.6484 -0.1961
 6147SOL    HW230075   1.749   2.288   5.244 -0.5026  0.6407  0.6139
 6148SOL     OW30076   2.878   2.764   8.442  0.3377  0.0023 -0.4903
 6148SOL    HW130077   2.845   2.807   8.363  2.8164  2.4094 -0.2227
 6148SOL    HW230078   2.867   2.838   8.502  1.3023  0.0480 -0.3623
 6149SOL     OW30079   4.335   4.449   1.505 -0.3300  0.1130 -0.3450
 6149SOL    HW130080   4.386   4.398   1.442 -2.6113 -2.3850 -0.1813
 6149SOL    HW230081   4.249   4.455   1.463 -0.7670  1.2967  0.7222
 6150SOL     OW30082   3.036   1.808   6.697 -0.6440  0.3709 -0.4466
 6150SOL    HW130083   3.070   1.868   6.764  0.9662  0.7636 -1.6113
 6150SOL    HW230084   3.106   1.743   6.688  1.2517  1.9923  2.7387
 6151SOL     OW30085   1.691   2.537   9.346  0.3849  0.8976 -0.1883
 6151SOL    HW130086   1.685   2.460   9.403  0.3665  2.4917  1.9908
 6151SOL    HW230087   1.726   2.500   9.266  1.3856  1.0960  0.1600
 6152SOL     OW30088   1.581   4.072   4.229 -0.0629 -0.0831  0.0269
 6152SOL    HW130089   1.590   4.156   4.274 -1.5758  1.2510 -2.1202
 6152SOL    HW230090   1.576   4.022   4.310 -0.0927 -1.3470 -0.7694
 6153SOL     OW30091   0.575   4.185   0.983  0.0788 -0.2611 -0.8513
 6153SOL    HW130092   0.551   4.277   0.997  2.2174  0.3255 -0.8897
 6153SOL    HW230093   0.584   4.189   0.887  0.6326 -0.9103 -0.8306
 6154SOL     OW30094   3.384   3.141   6.142 -0.7648  0.1914 -0.3418
 6154SOL    HW130095   3.396   3.095   6.059 -0.1476 -4.7834  2.5121
 6154SOL    HW230096   3.345   3.222   6.108 -1.7642  0.7509  2.1359
 6155SOL     OW30097   0.303   0.250   8.841  0.0683  0.6818 -0.6540
 6155SOL    HW130098   0.385   0.256   8.890 -0.3150  0.9344 -0.0517
 6155SOL    HW230099   0.335   0.203   8.764 -2.1023  1.2540 -1.8997
 6156SOL     OW30100   1.023   1.261   7.798 -0.2933  0.3178  0.7893
 6156SOL    HW130101   0.955   1.194   7.787 -0.0878  0.4778 -1.4684
 6156SOL    HW230102   1.022   1.299   7.710  2.8506 -0.6195  0.3509
 6157SOL     OW30103   3.355   1.269   5.456 -0.2985  0.3506  0.3086
 6157SOL    HW130104   3.304   1.334   5.503 -0.0923 -0.2849  1.4110
 6157SOL    HW230105   3.336   1.285   5.363  2.5811 -1.1865 -0.5382
 6158SOL     OW30106   4.516   3.233   1.823 -0.4249  0.5909  0.4095
 6158SOL    HW130107   4.597   3.192   1.853 -0.2873  0.2412 -0.4448
 6158SOL    HW230108   4.493   3.182   1.746  0.5223  0.0691  0.4739
 6159SOL     OW30109   0.136   0.263   3.338  0.0461  0.7343 -0.3552
 6159SOL    HW130110   0.230   0.281   3.348  0.6738 -1.3612 -2.7012
 6159SOL    HW230111   0.095   0.345   3.366 -1.0653  0.5214 -1.4040
 6160SOL     OW30112   4.089   1.035   5.833  0.6596  0.3885 -0.5409
 6160SOL    HW130113   4.082   1.007   5.925 -0.5894 -0.3045 -0.8498
 6160SOL    HW230114   4.143   0.967   5.793 -0.6958 -1.1784  0.2952
 6161SOL     OW30115   4.584   3.755  14.672 -0.0946  0.1345  0.2297
 6161SOL    HW130116   4.493   3.778  14.650  1.1782  3.5271 -1.5891
 6161SOL    HW230117   4.617   3.845  14.679  2.5333 -0.9332  1.3540
 6162SOL     OW30118   3.646   2.655   5.130  0.1602 -0.5040 -0.7845
 6162SOL    HW130119   3.649   2.617   5.042 -0.8243  0.5376 -1.2649
 6162SOL    HW230120   3.733   2.626   5.158  0.6400 -0.9964 -2.7813
 6163SOL     OW30121   1.556   0.611   2.167  0.1469 -0.1987 -0.5637
 6163SOL    HW130122   1.499   0.580   2.097  0.7544 -1.8000 -0.3389
 6163SOL    HW230123   1.496   0.633   2.238 -1.3272  0.9423 -2.1605
 6164SOL     OW30124   3.307   2.777   1.072  0.3786 -0.1893 -0.3017
 6164SOL    HW130125   3.267   2.862   1.056  0.3663 -0.1424 -0.0234
 6164SOL    HW230126   3.357   2.776   0.990  1.0959 -1.4428  0.1483
 6165SOL     OW30127   3.067   3.430   6.958 -0.4231  0.2952  0.2266
 6165SOL    HW130128   3.134   3.412   6.893 -2.2776  0.0750 -1.6173
 6165SOL    HW230129   3.025   3.345   6.972  0.9604 -0.3497  0.4439
 6166SOL     OW30130   1.797   3.278  17.536  0.4467  0.3113  0.2768
 6166SOL    HW130131   1.806   3.297  17.630 -0.7826  0.2335  0.4050
 6166SOL    HW230132   1.704   3.290  17.520  0.2590  1.6068  2.2935
 6167SOL     OW30133   3.354   1.861   9.156 -0.5505  0.3119 -0.4083
 6167SOL    HW130134   3.333   1.947   9.193 -1.5212 -0.8656  1.7521
 6167SOL    HW230135   3.449   1.869   9.147 -0.3492 -0.4827  1.0847
 6168SOL     OW30136   1.677   0.692   2.750  0.6702  0.7632  0.1810
 6168SOL    HW130137   1.653   0.784   2.752  1.7570  1.0678 -0.6270
 6168SOL    HW230138   1.644   0.673   2.662  0.8124 -0.3249  0.3649
 6169SOL     OW30139   2.072   2.257   1.718  0.0722  0.0406 -0.0971
 6169SOL    HW130140   2.028   2.171   1.721 -0.4230  0.2218 -1.8326
 6169SOL    HW230141   2.104   2.267   1.807 -0.2004  1.6901 -0.1838
 6170SOL     OW30142   2.737   2.024   8.691  0.4003  0.1697  0.3041
 6170SOL    HW130143   2.714   1.987   8.606 -1.9045 -0.8296  1.3507
 6170SOL    HW230144   2.695   2.109   8.674  2.0392  1.1317  1.0858
 6171SOL     OW30145   2.036   0.002   1.958  0.4225 -0.3816  0.0546
 6171SOL    HW130146   2.126   0.003   1.990  0.5587 -0.6631 -0.3080
 6171SOL    HW230147   2.020   0.093   1.933 -2.9368 -0.9816 -0.0445
 6172SOL     OW30148   1.808   1.721  16.677  0.1158 -0.3459  0.2250
 6172SOL    HW130149   1.852   1.644  16.641  3.5022  2.1367 -0.8533
 6172SOL    HW230150   1.847   1.791  16.626 -0.8030  0.4610  0.6173
 6173SOL     OW30151   0.846   2.726  17.368 -0.7026 -0.1593  0.1019
 6173SOL    HW130152   0.867   2.782  17.442 -2.2272 -1.1269  1.2938
 6173SOL    HW230153   0.797   2.655  17.410 -1.7440 -0.8422 -2.2538
 6174SOL     OW30154   4.590   4.716   8.693  0.1212  0.1182 -0.6083
 6174SOL    HW130155   4.543   4.689   8.614  1.1420 -2.4925 -0.3377
 6174SOL    HW230156   4.568   0.069   8.707  0.7563  0.1478  0.1874
 6175SOL     OW30157   1.663   0.609  11.815 -0.2084 -0.3485  0.4137
 6175SOL    HW130158   1.660   0.618  11.910  2.8389  0.0533  0.4644
 6175SOL    HW230159   1.580   0.582  11.776 -0.7872  0.3830  1.1129
 6176SOL     OW30160   3.397   0.712   3.040 -0.4278  0.4058  0.4238
 6176SOL    HW130161   3.356   0.713   3.126 -0.0355  1.5297  0.6089
 6176SOL    HW230162   3.320   0.704   2.983  0.9598 -2.0137 -1.1395
 6177SOL     OW30163   2.363   2.893   9.672  0.1967  0.0065 -0.4838
 6177SOL    HW130164   2.421   2.961   9.639  1.6588 -0.8604  0.3208
 6177SOL    HW230165   2.287   2.946   9.695  0.0259  0.3638 -1.8267
 6178SOL     OW30166   0.951   2.070  11.308  0.2959 -0.6643 -0.2634
 6178SOL    HW130167   0.868   2.116  11.298  0.5240  0.2568  2.0425
 6178SOL    HW230168   0.948   2.046  11.400 -0.1041 -1.1435 -0.4023
 6179SOL     OW30169   1.517   3.659   0.046  0.8023  0.1655  0.1178
 6179SOL    HW130170   1.489   3.570   0.022 -2.2801  0.5423  2.3455
 6179SOL    HW230171   1.602   3.658   0.003  1.2250  0.9663  0.9342
 6180SOL     OW30172   3.987   4.215   1.295 -0.3130  0.0075 -0.3761
 6180SOL    HW130173   4.034   4.131   1.292  0.4610  0.4158  0.4490
 6180SOL    HW230174   3.932   4.211   1.217 -0.7724 -0.7673 -0.0106
 6181SOL     OW30175   3.467   2.508   3.074  0.3190  0.4159  0.2540
 6181SOL    HW130176   3.396   2.572   3.065  1.0309  0.9315 -1.7727
 6181SOL    HW230177   3.417   2.443   3.122 -1.0087 -0.3414 -2.1271
 6182SOL     OW30178   4.357   2.834   4.087 -0.5091  0.0145  0.5154
 6182SOL    HW130179   4.312   2.893   4.148  1.7284  1.0301  1.1736
 6182SOL    HW230180   4.285   2.778   4.057 -0.5921 -0.6363  1.9361
 6183SOL     OW30181   4.609   1.678  10.358 -0.2803 -0.5391 -0.4609
 6183SOL    HW130182   4.694   1.714  10.384 -0.6643  0.0057  0.0540
 6183SOL    HW230183   4.553   1.756  10.350  1.2148  0.6353  0.4512
 6184SOL     OW30184   1.552   0.766  13.395  0.3426 -0.3396 -0.1346
 6184SOL    HW130185   1.544   0.715  13.314 -1.2927  3.4646 -2.3248
 6184SOL    HW230186   1.533   0.850  13.354 -0.8638  0.1785  1.4785
 6185SOL     OW30187   1.134   2.473   8.927  0.3352  0.0142  0.2543
 6185SOL    HW130188   1.170   2.419   8.997 -1.2175 -0.1699  0.9212
 6185SOL    HW230189   1.213   2.484   8.874 -1.0964 -0.6862 -2.0338
 6186SOL     OW30190   0.513   1.351   3.121 -0.6716 -0.4931 -0.0759
 6186SOL    HW130191   0.529   1.263   3.087  0.2975  0.8727 -3.0900
 6186SOL    HW230192   0.525   1.407   3.045 -2.1297  1.9871  1.5322
 6187SOL     OW30193   3.755   1.014  12.736  0.3543 -0.0733 -0.0551
 6187SOL    HW130194   3.659   1.017  12.731  0.4379 -0.6708 -1.7847
 6187SOL    HW230195   3.756   1.093  12.790  0.4330 -0.4640  0.5143
 6188SOL     OW30196   2.185   4.662  12.750 -0.4042  0.6127  0.2736
 6188SOL    HW130197   2.178   4.621  12.664  0.8693  2.0769 -0.5309
 6188SOL    HW230198   2.229   4.599  12.808 -0.9241 -0.3656 -0.4036
 6189SOL     OW30199   1.987   4.104  11.528 -0.2914 -0.2731  0.3555
 6189SOL    HW130200   1.911   4.075  11.478 -1.5523  1.6281  1.1485
 6189SOL    HW230201   1.949   4.192  11.526  1.0432  0.2145 -2.7500
 6190SOL     OW30202   4.379   1.007   2.517 -0.1525 -0.0673  0.1901
 6190SOL    HW130203   4.350   1.057   2.593  0.5807 -0.1457  0.5245
 6190SOL    HW230204   4.392   0.921   2.556 -0.5850 -0.5021 -0.6194
 6191SOL     OW30205   1.130   0.961   3.095  0.1059 -0.5110  0.0043
 6191SOL    HW130206   1.063   0.947   3.162  0.1802 -0.3752  0.1078
 6191SOL    HW230207   1.185   0.885   3.115 -0.7423 -1.3718 -0.9872
 6192SOL     OW30208   0.938   3.194   9.865 -0.1782 -0.2562 -0.0997
 6192SOL    HW130209   0.996   3.118   9.870  2.1965  1.6217  1.0490
 6192SOL    HW230210   0.978   3.253   9.929 -2.1580  0.2408  0.6774
 6193SOL     OW30211   3.057   3.999   1.250  0.4243  0.4966  0.0005
 6193SOL    HW130212   3.119   4.048   1.303  1.1409 -0.8603  0.4203
 6193SOL    HW230213   3.116   3.933   1.213  0.4370 -0.0032  0.9098
 6194SOL     OW30214   3.289   3.682   9.542  0.2410  1.1684  0.1738
 6194SOL    HW130215   3.228   3.654   9.474 -0.8017  2.1623  0.7101
 6194SOL    HW230216   3.308   3.606   9.596  0.6815  0.0738 -1.5011
 6195SOL     OW30217   1.854   1.747   2.792 -0.2935  0.0088  0.0962
 6195SOL    HW130218   1.894   1.741   2.705 -0.1033  1.8079  0.0491
 6195SOL    HW230219   1.773   1.700   2.773 -0.0758 -0.3483  0.0621
 6196SOL     OW30220   0.697   1.309   6.148 -0.7252  0.2812 -0.0128
 6196SOL    HW130221   0.636   1.260   6.203  0.2273 -0.3768  0.4686
 6196SOL    HW230222   0.703   1.265   6.063  1.8564  1.3371 -0.4014
 6197SOL     OW30223   1.822   4.002   6.770  0.3968 -0.2128  0.3724
 6197SOL    HW130224   1.727   3.989   6.774  0.3659  0.0516  0.5014
 6197SOL    HW230225   1.845   3.909   6.772  2.0567  0.2608  2.9657
 6198SOL     OW30226   2.781   3.664   0.205 -0.8512 -0.4522 -0.1920
 6198SOL    HW130227   2.768   3.601   0.134 -0.5772 -0.0964 -0.5605
 6198SOL    HW230228   2.691   3.665   0.238 -0.8096 -0.6968 -0.0768
 6199SOL     OW30229   4.001   3.864   3.643  0.2355 -0.3637 -0.1267
 6199SOL    HW130230   4.022   3.844   3.734  0.3536  2.3841  0.4504
 6199SOL    HW230231   3.910   3.892   3.658  0.4300  0.6623 -0.8243
 6200SOL     OW30232   3.737   4.421   6.823 -0.4599  0.4924  0.4957
 6200SOL    HW130233   3.753   4.504   6.779 -0.0367  0.8036  1.2417
 6200SOL    HW230234   3.821   4.415   6.868 -0.1925 -0.7594 -0.1460
 6201SOL     OW30235   0.518   4.351   1.334  0.3795  0.2741  0.0205
 6201SOL    HW130236   0.541   4.283   1.269  0.8523 -0.4477  0.9429
 6201SOL    HW230237   0.599   4.400   1.321  0.6404 -0.0090  0.5852
 6202SOL     OW30238   2.319   3.691  12.324  0.1196  0.0411 -0.0805
 6202SOL    HW130239   2.255   3.665  12.389 -0.6187  1.9518 -0.0451
 6202SOL    HW230240   2.268   3.719  12.248 -0.7520 -0.1402  0.4511
 6203SOL     OW30241   3.241   1.008   8.047 -0.1998  0.0685  0.0234
 6203SOL    HW130242   3.225   1.057   8.128  0.9368  1.0344 -0.3336
 6203SOL    HW230243   3.335   0.991   8.050 -0.1529  0.5713  1.4805
 6204SOL     OW30244   0.706   1.915   7.821  0.4234 -0.3052 -0.0482
 6204SOL    HW130245   0.696   1.997   7.868 -0.2798 -0.4580  0.0738
 6204SOL    HW230246   0.787   1.886   7.863  0.0311 -0.6390  0.4831
 6205SOL     OW30247   4.634   2.480   8.844 -0.3880  0.1493 -0.7003
 6205SOL    HW130248   4.663   2.473   8.753 -0.4596 -1.0305 -0.6244
 6205SOL    HW230249   4.718   2.515   8.875 -0.8732 -2.0348  3.0811
 6206SOL     OW30250   1.754   2.115   1.870  0.1439  0.1434 -0.3088
 6206SOL    HW130251   1.775   2.139   1.960 -0.4895 -2.5824  0.5696
 6206SOL    HW230252   1.671   2.161   1.860  0.8625  0.8204 -3.1461
 6207SOL     OW30253   0.357   2.814  10.247 -0.1538  0.2116 -0.3235
 6207SOL    HW130254   0.321   2.802  10.160 -0.8463  1.8363 -0.2557
 6207SOL    HW230255   0.422   2.879  10.222  0.9082 -0.5264  0.5212
 6208SOL     OW30256   3.501   2.445   2.805  0.0084 -0.3309  0.5826
 6208SOL    HW130257   3.518   2.463   2.897 -2.7191 -1.2269  1.2638
 6208SOL    HW230258   3.406   2.432   2.801 -0.3418  1.8325  2.2792
 6209SOL     OW30259   4.428   3.596   6.173 -0.2876 -0.0478  0.0876
 6209SOL    HW130260   4.519   3.580   6.149 -0.2718  0.1200  0.0401
 6209SOL    HW230261   4.408   3.515   6.220  1.0658 -1.3914 -1.6415
 6210SOL     OW30262   2.672   4.096  11.501 -0.0921 -0.1531  0.1092
 6210SOL    HW130263   2.682   4.011  11.544  0.1978 -1.0256 -1.6861
 6210SOL    HW230264   2.587   4.123  11.536 -0.0276 -1.2153  1.0733
 6211SOL     OW30265   3.219   1.437   7.530  0.0323  0.0887  0.2454
 6211SOL    HW130266   3.238   1.368   7.594  0.6556  1.7523  1.8502
 6211SOL    HW230267   3.288   1.502   7.545 -0.1823  0.3764 -0.0315
 6212SOL     OW30268   1.652   1.315   8.831  0.3354 -0.0165  0.2582
 6212SOL    HW130269   1.723   1.349   8.885  0.5756 -0.7317  0.3899
 6212SOL    HW230270   1.575   1.346   8.879  1.7726 -0.2438  2.6944
 6213SOL     OW30271   4.271   3.301  12.083  0.3981  0.0385 -0.4752
 6213SOL    HW130272   4.342   3.267  12.139 -0.7437 -0.9307  0.3880
 6213SOL    HW230273   4.294   3.259  12.000 -0.2749  0.3742 -0.8261
 6214SOL     OW30274   1.669   0.950   2.754 -0.0369 -0.7727 -0.2892
 6214SOL    HW130275   1.667   1.037   2.713  0.4627 -0.7118 -0.1916
 6214SOL    HW230276   1.759   0.950   2.789 -0.2305 -0.1050  0.2154
 6215SOL     OW30277   0.405   2.149   7.917  0.1988 -0.9420 -0.3856
 6215SOL    HW130278   0.410   2.126   8.009 -0.2543 -1.4015 -0.4770
 6215SOL    HW230279   0.487   2.192   7.893 -1.0611  2.2247  1.0425
 6216SOL     OW30280   4.564   3.384   5.954  0.6184  0.0663 -0.1269
 6216SOL    HW130281   4.563   3.407   5.861 -0.4483  2.0001  0.3655
 6216SOL    HW230282   4.640   3.438   5.975 -0.6740  2.5723 -1.8254
 6217SOL     OW30283   0.422   4.733  12.420  0.0366 -0.2138  0.0802
 6217SOL    HW130284   0.347   0.039  12.380  1.9022  0.7862 -2.3415
 6217SOL    HW230285   0.376   4.650  12.435  0.7921 -0.4775  0.9012
 6218SOL     OW30286   3.296   1.455  12.830  0.6553 -0.3016  0.1206
 6218SOL    HW130287   3.291   1.531  12.773  0.2688 -0.6628 -0.3380
 6218SOL    HW230288   3.235   1.475  12.901 -0.9376 -1.1648 -0.9925
 6219SOL     OW30289   2.037   3.912  17.324 -0.2603 -0.3697  0.8834
 6219SOL    HW130290   1.951   3.927  17.285 -0.0911 -1.9351 -0.0820
 6219SOL    HW230291   2.090   3.986  17.292  1.1464 -1.3091  1.0564
 6220SOL     OW30292   4.708   0.782   2.459 -0.4733 -0.1677 -0.4305
 6220SOL    HW130293   4.655   0.794   2.379 -0.1270  0.1521 -0.6092
 6220SOL    HW230294   0.019   0.702   2.442 -2.1493 -1.8099  2.3780
 6221SOL     OW30295   0.116   3.496   8.244 -0.0210 -0.0891  0.0338
 6221SOL    HW130296   0.192   3.548   8.219  0.0476  0.2714  1.0023
 6221SOL    HW230297   0.048   3.562   8.230 -2.0557 -2.1925 -0.0306
 6222SOL     OW30298   3.956   4.209   1.732  0.0654 -0.4826  0.0480
 6222SOL    HW130299   3.927   4.299   1.716  0.0992 -0.4014  0.4418
 6222SOL    HW230300   4.050   4.222   1.741 -0.4781  1.2070  3.2643
 6223SOL     OW30301   0.314   3.012   2.915  0.1236 -0.5125  0.2817
 6223SOL    HW130302   0.298   2.968   2.831  0.4255 -0.4169  0.1730
 6223SOL    HW230303   0.314   2.950   2.987  1.3859  0.5750  1.2232
 6224SOL     OW30304   3.112   1.282  16.761 -0.2071  0.1480 -0.7955
 6224SOL    HW130305   3.019   1.267  16.741  0.0020 -0.8233 -1.0508
 6224SOL    HW230306   3.138   1.239  16.842 -0.9831 -0.1575 -0.7073
 6225SOL     OW30307   0.549   2.166   6.649  0.1864 -0.0267  0.3024
 6225SOL    HW130308   0.529   2.185   6.741 -1.5442  1.6106 -0.4033
 6225SOL    HW230309   0.469   2.191   6.603 -0.5950 -2.8480  0.1296
 6226SOL     OW30310   0.387   1.248   9.305  0.4672 -0.5142  0.0833
 6226SOL    HW130311   0.416   1.222   9.217 -0.6121  1.2275 -0.7956
 6226SOL    HW230312   0.322   1.182   9.329  2.0439 -2.6627 -1.4929
 6227SOL     OW30313   1.624   3.891   5.855 -0.0695  0.1014  0.0752
 6227SOL    HW130314   1.633   3.807   5.811 -3.0716 -0.3388  0.3109
 6227SOL    HW230315   1.634   3.954   5.784 -0.4058 -0.2149 -0.2495
 6228SOL     OW30316   3.804   3.388   3.484 -0.1672 -0.1201 -0.4136
 6228SOL    HW130317   3.723   3.412   3.438  0.5739  1.8283 -0.7074
 6228SOL    HW230318   3.838   3.310   3.440 -1.7482  0.5806 -2.8600
 6229SOL     OW30319   4.690   2.385   3.803  0.3074 -0.0384 -0.6482
 6229SOL    HW130320   4.694   2.356   3.712  0.0238 -0.0019 -0.6719
 6229SOL    HW230321   4.613   2.333   3.826  1.2795 -1.6604 -1.0365
 6230SOL     OW30322   1.663   3.516   8.855  1.0013  0.0258  0.4114
 6230SOL    HW130323   1.612   3.455   8.907 -2.3269  0.3637 -2.4744
 6230SOL    HW230324   1.638   3.490   8.766 -0.1517  2.4734  0.0017
 6231SOL     OW30325   2.657   4.498  11.433 -0.4832 -0.4420 -0.4022
 6231SOL    HW130326   2.725   4.430  11.438  0.0044 -0.0849 -2.2789
 6231SOL    HW230327   2.716   4.572  11.445  1.1149 -1.4641 -1.8733
 6232SOL     OW30328   3.035   4.227   6.752 -0.0155  0.3265  0.6163
 6232SOL    HW130329   2.965   4.223   6.687  0.5740  0.7027 -0.0396
 6232SOL    HW230330   3.081   4.307   6.729 -2.0430  1.1135 -0.6864
 6233SOL     OW30331   1.238   2.924   6.627  0.5279 -0.3654  0.1665
 6233SOL    HW130332   1.194   3.008   6.636  1.7974  0.3428 -0.1779
 6233SOL    HW230333   1.279   2.926   6.541 -0.6820  0.3894 -0.3832
 6234SOL     OW30334   2.996   3.891   4.704 -0.2799 -0.0917 -0.3499
 6234SOL    HW130335   3.027   3.979   4.682 -0.8661 -0.4686 -2.6934
 6234SOL    HW230336   3.077   3.843   4.693 -0.4360 -0.5399  0.4874
 6235SOL     OW30337   2.963   1.117   5.001  0.1620  0.6016  0.0200
 6235SOL    HW130338   3.023   1.140   4.930 -1.8999  1.2071 -1.5597
 6235SOL    HW230339   3.005   1.036   5.029 -3.0793 -1.0901  0.0989
 6236SOL     OW30340   1.975   2.404   1.047 -0.5788  0.0494  0.1003
 6236SOL    HW130341   2.058   2.448   1.065 -1.1161  2.0904 -2.3996
 6236SOL    HW230342   1.976   2.367   0.959  0.9592  0.7886 -0.1905
 6237SOL     OW30343   1.053   1.450  12.118 -0.5453 -0.5013  0.1958
 6237SOL    HW130344   1.028   1.504  12.193  1.6908 -0.4942  0.9290
 6237SOL    HW230345   1.145   1.458  12.143 -1.8541  2.5887  4.0002
 6238SOL     OW30346   1.770   4.135   9.012 -0.0787 -0.3565 -0.0328
 6238SOL    HW130347   1.692   4.103   9.057 -0.1415  0.8143  0.6840
 6238SOL    HW230348   1.756   4.228   8.994  0.8928 -0.3916 -0.9838
 6239SOL     OW30349   3.360   0.387  10.289  0.6210  0.1704  0.3668
 6239SOL    HW130350   3.447   0.363  10.255  1.0598  0.5034  1.2575
 6239SOL    HW230351   3.303   0.378  10.212 -1.6247  1.4229  1.8857
 6240SOL     OW30352   0.272   4.176   6.941  0.5702 -0.4149 -0.1043
 6240SOL    HW130353   0.183   4.211   6.947  0.2724 -1.1388 -0.2028
 6240SOL    HW230354   0.244   4.097   6.988  0.8611  0.6933  1.8929
 6241SOL     OW30355   4.643   4.513   8.496  0.1605 -0.1497  0.4965
 6241SOL    HW130356   4.714   4.482   8.552  0.6153 -0.7051 -0.3802
 6241SOL    HW230357   4.569   4.455   8.516  1.0610 -1.4945 -0.0556
 6242SOL     OW30358   1.312   4.693  15.887  0.2191 -0.2382 -0.0211
 6242SOL    HW130359   1.375   4.706  15.958  1.3758  0.7604 -1.2364
 6242SOL    HW230360   1.305   0.040  15.846  0.1501 -1.9504 -3.5929
 6243SOL     OW30361   3.955   2.339   3.075 -1.1001 -0.1045 -0.0229
 6243SOL    HW130362   3.888   2.291   3.027  0.1704 -0.9517 -0.9610
 6243SOL    HW230363   3.943   2.306   3.164 -0.3874 -0.4988 -0.0738
 6244SOL     OW30364   4.446   3.840   3.808  0.0082 -0.4137 -0.0713
 6244SOL    HW130365   4.468   3.917   3.755  0.6283 -0.5006  0.0656
 6244SOL    HW230366   4.530   3.797   3.792  1.3832  1.8245  1.0936
 6245SOL     OW30367   1.196   0.180   7.276  0.0019  1.0389 -0.3273
 6245SOL    HW130368   1.261   0.109   7.283  0.4625  1.6684  1.8254
 6245SOL    HW230369   1.148   0.142   7.202 -2.1454  1.5182  0.8386
 6246SOL     OW30370   0.577   2.652   4.410 -0.0898 -0.6140 -0.3403
 6246SOL    HW130371   0.620   2.638   4.326 -0.5563 -1.6323 -0.4103
 6246SOL    HW230372   0.603   2.574   4.459 -0.0212 -0.5386 -0.2562
 6247SOL     OW30373   4.399   1.664   0.596 -0.6301  0.2935 -0.5847
 6247SOL    HW130374   4.345   1.702   0.527 -2.9784  0.5430  1.4089
 6247SOL    HW230375   4.344   1.667   0.674  3.3109  0.2975  2.2161
 6248SOL     OW30376   0.971   3.052   4.299  0.0458  0.5657  1.1303
 6248SOL    HW130377   0.921   3.129   4.325  0.8245  1.3592  0.2898
 6248SOL    HW230378   0.901   2.986   4.304 -0.1079  0.3547 -3.3289
 6249SOL     OW30379   3.478   0.035  11.467 -0.1345 -0.7501  0.5586
 6249SOL    HW130380   3.548   0.019  11.404 -0.7491 -0.0962 -0.2856
 6249SOL    HW230381   3.519   0.091  11.534 -2.1087 -0.8811  1.8623
 6250SOL     OW30382   0.197   1.675   7.598  0.5849  0.9057  0.6469
 6250SOL    HW130383   0.184   1.757   7.646  0.2010  1.0025  0.3855
 6250SOL    HW230384   0.274   1.704   7.550 -1.1949  0.3952 -2.5629
 6251SOL     OW30385   2.207   4.044   9.561  0.5595  1.0709  0.2728
 6251SOL    HW130386   2.163   3.983   9.620 -0.2225 -1.7371 -3.1985
 6251SOL    HW230387   2.135   4.082   9.511  1.1852  0.0430 -1.4141
 6252SOL     OW30388   3.233   1.048  14.379  0.1380  0.1103  0.2440
 6252SOL    HW130389   3.279   1.075  14.458 -1.4943  1.6859  0.6567
 6252SOL    HW230390   3.298   0.999  14.330 -1.8247 -0.3046 -1.9384
 6253SOL     OW30391   0.998   2.061   6.516 -0.2929 -0.0188  0.8468
 6253SOL    HW130392   1.030   2.016   6.593 -0.0204 -1.2277  0.0229
 6253SOL    HW230393   0.955   2.136   6.558  1.1119  0.7821  0.8519
 6254SOL     OW30394   3.617   0.241   5.071  0.3882 -0.2954  0.2260
 6254SOL    HW130395   3.580   0.240   5.159 -1.4245  0.3932 -0.5236
 6254SOL    HW230396   3.549   0.190   5.025  1.5931  0.7275 -2.7140
 6255SOL     OW30397   2.896   2.593   1.460  0.0255  0.5989 -0.0181
 6255SOL    HW130398   2.833   2.534   1.419 -0.7415  1.0807  0.4801
 6255SOL    HW230399   2.904   2.666   1.399  0.5732  1.3957  0.9956
 6256SOL     OW30400   0.196   2.143  15.782  0.1826  0.0405  0.7796
 6256SOL    HW130401   0.287   2.114  15.776  0.0527 -0.5946  1.8906
 6256SOL    HW230402   0.208   2.236  15.762 -0.2245  0.3892  2.1490
 6257SOL     OW30403   0.801   1.170   0.974  0.2652 -0.1342 -0.0992
 6257SOL    HW130404   0.780   1.168   0.881 -0.3753 -1.0132  0.0664
 6257SOL    HW230405   0.878   1.226   0.971  1.1850 -1.4047 -0.4248
 6258SOL     OW30406   1.408   3.690  13.327  0.0906 -0.0978  0.1493
 6258SOL    HW130407   1.361   3.665  13.406 -0.7451 -2.1036 -0.9804
 6258SOL    HW230408   1.480   3.627  13.331  0.6208  0.4045 -1.4448
 6259SOL     OW30409   1.932   3.686   7.432 -0.2518 -0.8342  0.3874
 6259SOL    HW130410   1.869   3.667   7.363  1.6005 -2.5012 -0.8472
 6259SOL    HW230411   2.022   3.691   7.400 -0.9958  0.4285 -1.5018
 6260SOL     OW30412   4.615   4.577   1.897  0.8136 -0.0563 -0.0584
 6260SOL    HW130413   4.616   4.644   1.966  0.3782 -1.3214  1.1882
 6260SOL    HW230414   4.697   4.592   1.849  1.0689  1.0926  0.7220
 6261SOL     OW30415   3.067   1.119   4.243  0.1374  0.0444 -0.3141
 6261SOL    HW130416   3.076   1.128   4.148  0.0283 -0.6002 -0.3829
 6261SOL    HW230417   2.978   1.084   4.245  0.6113 -1.0877  0.9937
 6262SOL     OW30418   2.954   3.028   4.691  0.4701 -0.1127  0.0224
 6262SOL    HW130419   2.994   3.115   4.686 -0.2647  0.3455  1.9108
 6262SOL    HW230420   3.001   2.987   4.619  0.9815 -0.7718  0.7194
 6263SOL     OW30421   4.007   1.060   7.566 -0.1828 -0.3553 -0.0380
 6263SOL    HW130422   4.095   1.031   7.588 -0.8685 -2.1462  0.3577
 6263SOL    HW230423   4.010   1.065   7.471  2.2436 -0.3390  0.0560
 6264SOL     OW30424   0.744   2.745   8.475  0.0272 -0.4645  0.2214
 6264SOL    HW130425   0.760   2.682   8.545  2.2305 -1.9907 -1.6720
 6264SOL    HW230426   0.675   2.707   8.420  0.1844 -1.7408  0.8978
 6265SOL     OW30427   2.552   3.282   7.521 -0.2946 -0.3177 -0.2950
 6265SOL    HW130428   2.623   3.343   7.504  0.7083 -1.1408  0.8838
 6265SOL    HW230429   2.498   3.320   7.591 -1.4537  0.9619 -1.9058
 6266SOL     OW30430   2.038   0.602  13.839 -0.0777  0.1094  0.5959
 6266SOL    HW130431   1.957   0.627  13.884 -0.0323 -0.8120  1.1846
 6266SOL    HW230432   2.065   0.517  13.874 -3.2575 -1.2589 -0.2933
 6267SOL     OW30433   4.298   3.434   5.844  0.0568 -0.2848  0.2859
 6267SOL    HW130434   4.379   3.460   5.888  1.1818 -0.3896 -1.7320
 6267SOL    HW230435   4.333   3.357   5.799 -1.4249 -0.6631 -0.2250
 6268SOL     OW30436   1.432   4.153   3.564  0.2965  0.3556 -0.5132
 6268SOL    HW130437   1.425   4.209   3.642 -1.6297 -0.8823  0.1857
 6268SOL    HW230438   1.374   4.079   3.580  0.4036 -0.0576 -2.0290
 6269SOL     OW30439   2.268   3.612   0.294 -0.5550 -0.2394 -0.1148
 6269SOL    HW130440   2.215   3.651   0.224 -0.4986  3.3135  1.8128
 6269SOL    HW230441   2.347   3.667   0.297 -1.2297  0.7362 -0.3355
 6270SOL     OW30442   1.667   2.181  15.749 -0.3785  0.2175 -0.5464
 6270SOL    HW130443   1.708   2.231  15.820  0.0497  0.6717 -1.1191
 6270SOL    HW230444   1.661   2.253  15.687 -2.2505  2.2565  1.9637
 6271SOL     OW30445   3.138   2.291   7.006 -0.4655 -0.0527  0.1432
 6271SOL    HW130446   3.073   2.222   7.017 -1.1514  0.8815  2.0390
 6271SOL    HW230447   3.116   2.350   7.079 -0.0067  0.6480 -0.2858
 6272SOL     OW30448   0.882   3.804   2.180 -0.0581 -1.0933  0.1623
 6272SOL    HW130449   0.825   3.811   2.257  0.8411  1.2699  0.6009
 6272SOL    HW230450   0.822   3.778   2.110 -1.1365 -2.0469  1.4278
 6273SOL     OW30451   3.432   1.292   4.090  0.2447 -0.0612 -0.3278
 6273SOL    HW130452   3.407   1.214   4.139 -2.0335  1.5053  1.0177
 6273SOL    HW230453   3.348   1.316   4.051  0.2295  1.6505  0.7112
 6274SOL     OW30454   2.511   2.281  16.731 -0.3350 -0.3301 -0.6429
 6274SOL    HW130455   2.564   2.258  16.654  2.1411  1.0841  0.6697
 6274SOL    HW230456   2.455   2.342  16.684  0.4409  1.0430  0.2357
 6275SOL     OW30457   2.274   3.267  15.030 -0.0634 -0.0648 -0.0803
 6275SOL    HW130458   2.208   3.198  15.018  0.3177 -0.0583 -2.1790
 6275SOL    HW230459   2.228   3.331  15.083  1.1807  1.4132 -0.7909
 6276SOL     OW30460   3.354   3.019  14.898  0.2018 -0.9507 -0.7523
 6276SOL    HW130461   3.367   3.097  14.845  0.7795 -0.4817  0.0787
 6276SOL    HW230462   3.275   3.041  14.948  0.5922  2.3751 -1.6003
 6277SOL     OW30463   1.739   2.291  16.672 -0.6851  0.1081 -0.2973
 6277SOL    HW130464   1.792   2.349  16.726 -0.7918  0.6505 -0.7777
 6277SOL    HW230465   1.727   2.216  16.730  1.0444  1.1295  1.3829
 6278SOL     OW30466   0.052   2.701   4.313 -0.4268  0.2717 -0.6918
 6278SOL    HW130467   0.009   2.785   4.322 -0.2442 -0.0858  3.2279
 6278SOL    HW230468   0.117   2.721   4.245  1.0444 -3.1138 -0.3147
 6279SOL     OW30469   4.195   4.405   4.995 -0.2881  0.0089  0.5319
 6279SOL    HW130470   4.127   4.381   5.057 -0.4347  1.4335  0.9130
 6279SOL    HW230471   4.155   4.387   4.910 -1.9537  4.0787  0.4898
 6280SOL     OW30472   3.915   2.919   3.985 -0.0425 -0.0713  0.5404
 6280SOL    HW130473   3.870   2.860   4.046 -0.2353 -0.9408 -0.4439
 6280SOL    HW230474   3.971   2.851   3.948  1.1338  1.4474 -0.4451
 6281SOL     OW30475   0.919   3.358  13.251  0.3603 -0.7479  1.1067
 6281SOL    HW130476   0.823   3.356  13.253  0.3338 -1.0471 -0.6874
 6281SOL    HW230477   0.926   3.269  13.217 -0.6891 -0.8635  1.1899
 6282SOL     OW30478   0.646   3.298  13.251  0.1494 -0.2013  0.1882
 6282SOL    HW130479   0.610   3.237  13.188 -0.5511 -1.0485  1.4129
 6282SOL    HW230480   0.599   3.274  13.330 -1.1250 -0.7564 -0.7503
 6283SOL     OW30481   0.343   3.931   5.760  0.2970  0.1776 -0.1689
 6283SOL    HW130482   0.354   3.847   5.805  0.6555  0.5710  0.4830
 6283SOL    HW230483   0.374   4.001   5.818  0.4889 -2.1857  2.5327
 6284SOL     OW30484   4.273   0.336  14.699  0.0303  0.0657  0.0733
 6284SOL    HW130485   4.353   0.318  14.749 -0.5879 -0.1760  0.9622
 6284SOL    HW230486   4.204   0.356  14.762 -0.9243  0.4974 -1.1223
 6285SOL     OW30487   1.179   2.841   1.509  0.2351 -0.1700 -0.1707
 6285SOL    HW130488   1.141   2.784   1.442 -1.5681  2.5533 -1.4642
 6285SOL    HW230489   1.145   2.802   1.590 -1.7596 -1.6705 -1.7117
 6286SOL     OW30490   0.862   3.755  10.159  0.7890 -0.6075 -0.6349
 6286SOL    HW130491   0.833   3.664  10.155 -0.5832 -0.2109  0.0631
 6286SOL    HW230492   0.807   3.798  10.094  0.0374 -0.9133 -0.2036
 6287SOL     OW30493   3.032   3.115   8.799 -0.2644 -0.3721 -0.3728
 6287SOL    HW130494   3.106   3.139   8.854  0.0945  1.3535 -1.5884
 6287SOL    HW230495   3.010   3.028   8.832 -0.5149 -0.5866 -1.1146
 6288SOL     OW30496   0.885   1.518   8.477  0.1605 -0.2387 -0.5786
 6288SOL    HW130497   0.869   1.551   8.566 -1.9870 -1.2603 -0.5801
 6288SOL    HW230498   0.939   1.585   8.434  0.4560 -1.6886 -2.4391
 6289SOL     OW30499   0.963   3.871   2.954  0.2559 -0.1288  0.1024
 6289SOL    HW130500   0.882   3.877   3.005  0.6498 -1.4723  0.8786
 6289SOL    HW230501   1.016   3.938   2.998 -0.7855 -0.1829  1.4692
 6290SOL     OW30502   4.323   4.064   3.586  0.0016 -0.0737  0.4045
 6290SOL    HW130503   4.231   4.084   3.605  0.0455 -0.2638  0.8143
 6290SOL    HW230504   4.319   3.976   3.623  0.0129 -0.9278 -1.6358
 6291SOL     OW30505   3.557   2.561   8.904  0.1434 -0.3922 -0.1412
 6291SOL    HW130506   3.507   2.591   8.980  0.8098 -3.6593  1.5863
 6291SOL    HW230507   3.646   2.590   8.922 -0.4762  1.3130  0.1620
 6292SOL     OW30508   2.771   4.330   0.816 -0.2646  0.0173 -0.0653
 6292SOL    HW130509   2.684   4.290   0.806 -0.1379  0.2998 -2.2399
 6292SOL    HW230510   2.799   4.316   0.726 -3.3757 -2.1291 -0.7088
 6293SOL     OW30511   1.741   0.781   2.061 -0.3333 -0.2229 -0.2844
 6293SOL    HW130512   1.807   0.727   2.017 -0.5697 -0.4801 -0.3260
 6293SOL    HW230513   1.683   0.726   2.113 -0.7758  1.0717  0.6073
 6294SOL     OW30514   3.184   1.714   5.722  0.1199 -1.1713  0.1776
 6294SOL    HW130515   3.139   1.715   5.637  0.4660  1.9352  0.0118
 6294SOL    HW230516   3.274   1.712   5.688 -0.4105  1.2169 -1.3657
 6295SOL     OW30517   4.144   2.282   2.184  0.0901  0.1093  0.1322
 6295SOL    HW130518   4.203   2.355   2.198 -0.6749  0.6697  0.4531
 6295SOL    HW230519   4.132   2.285   2.089  1.7748  0.1156 -0.0805
 6296SOL     OW30520   4.096   0.355   8.171  0.0818 -0.6538 -0.0859
 6296SOL    HW130521   4.076   0.433   8.223  1.5565  0.1306 -0.6595
 6296SOL    HW230522   4.166   0.322   8.227 -0.8265 -0.2982  1.2501
 6297SOL     OW30523   3.954   3.356   4.475  0.2217 -0.2283 -0.0773
 6297SOL    HW130524   3.972   3.363   4.382  0.3884  0.6499  0.0243
 6297SOL    HW230525   3.987   3.442   4.499 -0.2683 -0.6130  1.9856
 6298SOL     OW30526   0.063   2.390  14.737  0.1853  0.4943  0.0161
 6298SOL    HW130527   4.728   2.448  14.752 -0.8697 -0.6535 -0.7257
 6298SOL    HW230528   0.127   2.454  14.709 -0.3898  0.5996 -1.0420
 6299SOL     OW30529   0.379   1.762   2.296  0.0601  0.4867 -0.0098
 6299SOL    HW130530   0.416   1.684   2.253  0.8861  1.5783 -1.2654
 6299SOL    HW230531   0.289   1.777   2.267  0.0085  0.5371  0.1769
 6300SOL     OW30532   2.241   1.070   0.481 -0.0984 -0.2483 -0.3036
 6300SOL    HW130533   2.192   1.141   0.438 -0.8635  0.7247  2.1755
 6300SOL    HW230534   2.194   1.060   0.564 -1.1628 -1.3693 -1.0531
 6301SOL     OW30535   3.428   1.437   5.711  0.6653  0.1838  0.7260
 6301SOL    HW130536   3.416   1.516   5.658 -1.5276 -0.4748  0.2487
 6301SOL    HW230537   3.507   1.404   5.667  0.4333  1.0178 -0.2975
 6302SOL     OW30538   3.743   0.767   6.791  0.0567  0.7356 -0.0029
 6302SOL    HW130539   3.660   0.798   6.755  0.3782  2.9307  1.1711
 6302SOL    HW230540   3.719   0.756   6.883 -1.8476  2.5181 -0.2848
 6303SOL     OW30541   4.283   2.403  11.230  0.0019 -0.2453  0.2129
 6303SOL    HW130542   4.290   2.422  11.323  0.3355 -0.0434  0.1477
 6303SOL    HW230543   4.207   2.345  11.228  0.0841 -0.3641  0.8002
 6304SOL     OW30544   2.281   2.084   8.275  0.6758 -0.3265 -0.0421
 6304SOL    HW130545   2.255   2.134   8.353  1.8789  0.7401 -0.3278
 6304SOL    HW230546   2.274   1.995   8.310 -0.0421 -0.3288 -0.1836
 6305SOL     OW30547   0.659   2.290   9.851  0.1827 -0.4289  0.0003
 6305SOL    HW130548   0.567   2.263   9.845  0.1223 -0.5399  1.3107
 6305SOL    HW230549   0.711   2.218   9.815  2.7702  1.7862 -0.6352
 6306SOL     OW30550   4.565   1.605   9.515  0.1168  0.5888  0.3762
 6306SOL    HW130551   4.651   1.637   9.491  0.3787 -0.5595 -0.2117
 6306SOL    HW230552   4.518   1.628   9.435 -3.2113  0.7767  2.3373
 6307SOL     OW30553   1.960   0.368  11.754  0.2458 -0.0327  0.0665
 6307SOL    HW130554   1.980   0.420  11.677 -2.5214 -1.0745 -1.3214
 6307SOL    HW230555   2.049   0.374  11.789  0.0869  0.9074  0.3176
 6308SOL     OW30556   3.726   0.197   6.159  0.2471 -0.5396 -0.8648
 6308SOL    HW130557   3.640   0.204   6.199  0.1666 -1.2455 -0.9023
 6308SOL    HW230558   3.751   0.112   6.197 -0.0589 -0.2670 -0.0540
 6309SOL     OW30559   1.440   3.807   7.904  0.1072 -0.0997 -0.0748
 6309SOL    HW130560   1.502   3.799   7.832  0.5518  1.8715  0.0934
 6309SOL    HW230561   1.448   3.716   7.935  0.5770 -0.1482 -0.3547
 6310SOL     OW30562   1.674   0.313  10.052  0.5724 -0.0252  0.1150
 6310SOL    HW130563   1.580   0.297  10.059  0.0213  3.7640  1.1546
 6310SOL    HW230564   1.694   0.242   9.991 -0.5675 -1.5644  1.5375
 6311SOL     OW30565   1.881   1.897   3.773 -0.0426  0.4073 -0.1907
 6311SOL    HW130566   1.791   1.917   3.797 -0.5357 -0.5349 -1.2917
 6311SOL    HW230567   1.917   1.855   3.851  1.5247  2.3866  0.1627
 6312SOL     OW30568   2.166   0.170   4.297  0.6511  0.2360 -0.1511
 6312SOL    HW130569   2.259   0.155   4.280  0.6594 -0.9576  0.9215
 6312SOL    HW230570   2.133   0.195   4.211 -0.0969 -1.3703 -0.3308
 6313SOL     OW30571   1.906   3.502  15.066 -0.1216 -0.6951 -0.3141
 6313SOL    HW130572   1.861   3.524  15.148  1.1237  0.8962 -0.0562
 6313SOL    HW230573   1.833   3.508  15.004  0.0469  2.3495 -0.2469
 6314SOL     OW30574   2.257   1.545   8.540 -0.3955  0.2110  0.3065
 6314SOL    HW130575   2.305   1.620   8.506 -1.3707  1.0219  0.6997
 6314SOL    HW230576   2.241   1.583   8.626 -1.6381  1.2685 -0.3797
 6315SOL     OW30577   2.890   2.725   7.516  0.2535  0.1074 -0.4068
 6315SOL    HW130578   2.917   2.794   7.454  0.0832  0.7212  0.1998
 6315SOL    HW230579   2.861   2.665   7.447  0.0371 -2.2024  1.7244
 6316SOL     OW30580   4.347   4.308   2.893 -0.0407  0.0470 -0.0055
 6316SOL    HW130581   4.396   4.326   2.973  0.8538  0.1256 -0.5719
 6316SOL    HW230582   4.418   4.323   2.830 -0.2423 -0.2497 -0.3035
 6317SOL     OW30583   0.689   1.630   3.470 -0.4828  0.3113 -0.2736
 6317SOL    HW130584   0.600   1.595   3.475 -0.5906  0.4188 -1.5763
 6317SOL    HW230585   0.747   1.558   3.442 -0.7733 -0.2323  0.5151
 6318SOL     OW30586   3.069   2.365   5.532 -0.0784 -0.6967  0.4815
 6318SOL    HW130587   3.091   2.275   5.511  1.5251 -0.2011  0.0946
 6318SOL    HW230588   3.122   2.408   5.466  1.9585  0.0141  2.5696
 6319SOL     OW30589   0.854   4.364   8.644 -0.2502 -0.0231 -0.2274
 6319SOL    HW130590   0.930   4.383   8.700  0.9446  1.1771 -2.2364
 6319SOL    HW230591   0.891   4.363   8.555  0.7325 -3.0377  0.2029
 6320SOL     OW30592   1.335   3.899   6.270  0.2203 -0.0598 -0.5263
 6320SOL    HW130593   1.320   3.956   6.345  1.0817 -0.3811 -0.1187
 6320SOL    HW230594   1.414   3.938   6.231 -0.6586  1.4345 -0.8053
 6321SOL     OW30595   4.306   3.512   9.575 -0.1094  0.3262  0.3871
 6321SOL    HW130596   4.301   3.456   9.652  0.4054  1.5210  1.2791
 6321SOL    HW230597   4.352   3.592   9.599  0.2149 -0.6250  2.8800
 6322SOL     OW30598   0.343   3.343   4.949  0.2040 -0.7137 -0.0366
 6322SOL    HW130599   0.357   3.358   4.856 -0.1171  1.0063  0.2008
 6322SOL    HW230600   0.423   3.293   4.965 -0.5047 -1.9728 -0.4467
 6323SOL     OW30601   2.582   0.195   5.424 -0.1006 -0.5628 -0.4779
 6323SOL    HW130602   2.590   0.288   5.445 -0.6783 -0.1873 -1.9268
 6323SOL    HW230603   2.539   0.206   5.339  0.7489 -0.7621 -0.9296
 6324SOL     OW30604   0.997   2.142   7.551 -0.1528 -0.4085  0.5516
 6324SOL    HW130605   0.974   2.172   7.639  0.0828 -1.9868  1.1506
 6324SOL    HW230606   1.086   2.108   7.560  0.8356  2.6361  2.4900
 6325SOL     OW30607   3.345   1.486   9.506  0.5527  0.2574 -0.7476
 6325SOL    HW130608   3.377   1.569   9.471 -1.4732  1.8113  1.1392
 6325SOL    HW230609   3.250   1.496   9.509  0.4667 -0.2691 -1.5393
 6326SOL     OW30610   0.285   2.325   9.833  0.1619 -0.1007  0.1020
 6326SOL    HW130611   0.341   2.251   9.811  0.5185 -0.0738  0.9229
 6326SOL    HW230612   0.341   2.367   9.898  0.9444 -0.7127 -0.1838
 6327SOL     OW30613   4.328   4.186   5.788 -0.5461  0.1393 -0.0468
 6327SOL    HW130614   4.253   4.239   5.814 -0.6624  1.0032 -2.1707
 6327SOL    HW230615   4.306   4.099   5.821  0.1781 -0.4538 -1.1385
 6328SOL     OW30616   3.947   0.312  12.329  0.1205 -0.9599  0.0702
 6328SOL    HW130617   3.867   0.350  12.365 -0.0366 -0.8183 -0.4394
 6328SOL    HW230618   3.946   0.226  12.372 -0.9043 -1.0730 -0.1746
 6329SOL     OW30619   4.023   1.635   5.314 -0.1809 -0.3535  0.1818
 6329SOL    HW130620   3.993   1.624   5.404 -1.3964  0.2047 -0.1616
 6329SOL    HW230621   3.940   1.628   5.267  0.1987 -0.0846 -0.5135
 6330SOL     OW30622   0.502   0.417   4.652 -0.1380  0.6799  0.4966
 6330SOL    HW130623   0.584   0.416   4.702  0.6279  1.1177 -0.7474
 6330SOL    HW230624   0.518   0.354   4.583 -1.8027 -1.6937  2.2854
 6331SOL     OW30625   3.490   1.138   7.142  0.3303  0.0957  0.0277
 6331SOL    HW130626   3.420   1.075   7.123 -0.6011  0.5140  2.0218
 6331SOL    HW230627   3.478   1.151   7.236  1.2811  1.2820 -0.0179
 6332SOL     OW30628   3.166   0.381   3.583 -0.1805  0.1742  0.0864
 6332SOL    HW130629   3.127   0.426   3.509  1.5893 -0.2092 -1.0879
 6332SOL    HW230630   3.190   0.298   3.542 -1.7652 -0.1801 -0.1213
 6333SOL     OW30631   2.432   3.442  14.605  0.4110  0.2189 -0.1890
 6333SOL    HW130632   2.428   3.527  14.561 -0.4550  0.1815 -0.1863
 6333SOL    HW230633   2.349   3.405  14.575  0.5368 -0.5708  0.4424
 6334SOL     OW30634   0.961   1.107   9.144 -0.6430 -0.0274 -0.6220
 6334SOL    HW130635   0.915   1.076   9.066 -0.8401 -0.4664 -0.3334
 6334SOL    HW230636   0.885   1.122   9.200 -1.9000  0.0462 -2.3650
 6335SOL     OW30637   0.826   2.183   4.709  0.3297  0.1720 -0.2407
 6335SOL    HW130638   0.830   2.279   4.702  0.2190  0.1048 -1.2275
 6335SOL    HW230639   0.894   2.159   4.646 -1.0938 -0.4576 -1.5445
 6336SOL     OW30640   1.775   0.765   5.694  0.2439 -0.3319 -0.0178
 6336SOL    HW130641   1.809   0.795   5.609  2.1465  1.1709  1.2643
 6336SOL    HW230642   1.719   0.838   5.722 -0.1350 -0.3708 -0.6807
 6337SOL     OW30643   4.596   0.605   0.194  0.0239  0.2438  0.3042
 6337SOL    HW130644   4.629   0.643   0.275  1.3072 -0.5101  0.1278
 6337SOL    HW230645   4.598   0.685   0.141  0.8041 -0.5840 -0.9153
 6338SOL     OW30646   2.985   1.843   6.438  0.5452  0.9706 -0.1936
 6338SOL    HW130647   3.025   1.832   6.524 -0.6465  0.6339  0.3226
 6338SOL    HW230648   3.015   1.761   6.398  1.0629  0.5883  0.9800
 6339SOL     OW30649   0.339   2.596   0.045 -0.2541 -0.4577 -0.6853
 6339SOL    HW130650   0.379   2.635  17.721 -0.1144 -0.6587 -0.7156
 6339SOL    HW230651   0.403   2.625   0.111 -1.6571 -0.0044  0.4874
 6340SOL     OW30652   2.041   1.546   9.204  0.2412  0.2616 -0.0181
 6340SOL    HW130653   2.059   1.578   9.293  1.9044  1.8306 -0.9138
 6340SOL    HW230654   1.979   1.482   9.237 -0.8259  1.5857  0.5292
 6341SOL     OW30655   2.413   1.553   9.560 -0.0329 -0.7859 -0.4481
 6341SOL    HW130656   2.445   1.593   9.641 -0.2088 -0.3496 -0.5883
 6341SOL    HW230657   2.418   1.627   9.500  0.9294  1.2178  2.0931
 6342SOL     OW30658   3.258   2.954   6.597  0.1527 -0.1204 -0.3569
 6342SOL    HW130659   3.305   2.991   6.523  0.5073  0.2785  0.0707
 6342SOL    HW230660   3.327   2.923   6.655 -0.0212 -2.8830 -1.6457
 6343SOL     OW30661   0.362   3.459   0.746  1.1530  0.5554  0.3459
 6343SOL    HW130662   0.353   3.420   0.659  2.8712 -1.3579  1.0135
 6343SOL    HW230663   0.272   3.478   0.773  0.7612 -2.8177  1.4176
 6344SOL     OW30664   1.765   0.570   4.451 -0.0548 -0.5559 -0.3473
 6344SOL    HW130665   1.752   0.650   4.399  1.1827  1.0005  1.7271
 6344SOL    HW230666   1.824   0.601   4.520 -0.0663  0.1037 -0.6310
 6345SOL     OW30667   1.267   1.537  11.762 -0.0883  0.2901  0.4052
 6345SOL    HW130668   1.308   1.452  11.747 -0.1882  0.5350 -1.1724
 6345SOL    HW230669   1.180   1.516  11.797 -1.1227 -0.1729 -2.4593
 6346SOL     OW30670   2.037   0.049  13.726  0.5836 -0.4473 -0.3377
 6346SOL    HW130671   2.018   0.069  13.818 -1.8701 -4.4868  0.0138
 6346SOL    HW230672   2.131   0.028  13.724  1.1466  2.0895 -0.7945
 6347SOL     OW30673   4.507   1.155   1.823 -0.2553 -0.0902 -0.7151
 6347SOL    HW130674   4.499   1.248   1.843  0.7499  0.1049 -1.2424
 6347SOL    HW230675   4.594   1.139   1.787  0.0705 -0.2302  0.1350
 6348SOL     OW30676   0.476   0.569   6.501 -0.3664  0.0402 -0.5911
 6348SOL    HW130677   0.458   0.611   6.416  1.5717 -1.9031 -1.9565
 6348SOL    HW230678   0.570   0.553   6.504 -0.2519  0.7178 -0.5962
 6349SOL     OW30679   4.243   1.238  15.661  0.1019  0.2676  0.4885
 6349SOL    HW130680   4.278   1.171  15.719 -2.1433 -1.6371 -0.3475
 6349SOL    HW230681   4.291   1.320  15.673 -1.0543  1.0595 -0.2949
 6350SOL     OW30682   1.979   3.601   3.873  0.0197  0.2932  0.8855
 6350SOL    HW130683   1.987   3.586   3.779  1.3068  0.4635  0.9764
 6350SOL    HW230684   2.030   3.524   3.898  0.6860  1.1423  2.1259
 6351SOL     OW30685   1.119   1.445   8.730  0.3977 -0.0478 -0.3964
 6351SOL    HW130686   1.118   1.390   8.809  2.1661  1.7659  0.8996
 6351SOL    HW230687   1.076   1.528   8.751  0.0889 -0.0418 -1.0708
 6352SOL     OW30688   0.464   0.908   1.545  0.5949 -0.4255 -0.3285
 6352SOL    HW130689   0.434   0.999   1.534 -0.3311 -0.3963  2.2120
 6352SOL    HW230690   0.545   0.912   1.495  0.0305 -0.3601 -1.2241
 6353SOL     OW30691   0.676   1.710   8.074 -0.5346  0.6054  0.3766
 6353SOL    HW130692   0.755   1.714   8.020  0.7985 -1.1640  2.1836
 6353SOL    HW230693   0.609   1.717   8.006  0.0767  0.1730 -0.2709
 6354SOL     OW30694   4.528   3.423   4.272  0.4517 -0.4188  0.7499
 6354SOL    HW130695   4.447   3.458   4.236  1.0143 -0.3807 -0.4863
 6354SOL    HW230696   4.553   3.494   4.332  0.6654 -0.7940  1.1077
 6355SOL     OW30697   1.650   2.616   8.745  0.2021 -0.0242  0.0426
 6355SOL    HW130698   1.722   2.645   8.689  0.3724  0.8436  0.7028
 6355SOL    HW230699   1.581   2.675   8.714 -0.4588 -0.9967 -0.3232
 6356SOL     OW30700   3.696   1.151  11.598  0.1026 -0.4996 -0.0165
 6356SOL    HW130701   3.743   1.100  11.532  2.3750  0.0563  1.1860
 6356SOL    HW230702   3.641   1.209  11.545 -0.0059  0.3169  0.9903
 6357SOL     OW30703   1.093   4.539  12.671 -0.6234 -0.1829  0.3302
 6357SOL    HW130704   1.011   4.502  12.639 -0.5551 -0.4800  0.4990
 6357SOL    HW230705   1.146   4.467  12.705  0.1810 -0.0855 -0.7015
 6358SOL     OW30706   0.408   1.585  13.461  0.0711  0.3752 -0.2557
 6358SOL    HW130707   0.346   1.515  13.438  1.4756 -1.5863  1.8954
 6358SOL    HW230708   0.375   1.659  13.410 -0.2002  0.5804  0.2191
 6359SOL     OW30709   1.569   3.413   2.750  0.2735  0.1084 -0.3376
 6359SOL    HW130710   1.576   3.431   2.656 -1.6071  0.4169 -0.4016
 6359SOL    HW230711   1.605   3.324   2.750  0.9474  0.3979  1.5226
 6360SOL     OW30712   4.538   1.893  15.567  0.0839 -0.1293  0.1207
 6360SOL    HW130713   4.568   1.899  15.658 -0.9563  1.1016  0.3733
 6360SOL    HW230714   4.618   1.923  15.523 -0.2998 -0.1016 -0.5521
 6361SOL     OW30715   0.663   1.457  17.239 -0.4792  0.6338 -0.3222
 6361SOL    HW130716   0.587   1.409  17.273 -1.1404 -0.4853 -3.3382
 6361SOL    HW230717   0.691   1.501  17.319  1.7434 -1.7392  0.1960
 6362SOL     OW30718   1.719   3.248   8.359  0.2322 -0.0017 -0.1504
 6362SOL    HW130719   1.705   3.169   8.307  0.4908 -0.7676  0.9642
 6362SOL    HW230720   1.679   3.320   8.310  2.6545  0.9694 -0.7078
 6363SOL     OW30721   3.785   4.436   7.975 -0.3394 -0.0281 -0.0203
 6363SOL    HW130722   3.692   4.414   7.965 -1.2457  3.8274 -0.2928
 6363SOL    HW230723   3.829   4.365   7.928  0.3957  1.5494 -1.7081
 6364SOL     OW30724   3.484   0.716  12.782 -0.0156  0.4081 -0.3489
 6364SOL    HW130725   3.477   0.810  12.803 -1.4340  0.3547 -0.5997
 6364SOL    HW230726   3.579   0.706  12.790  0.0335 -0.1085 -1.6343
 6365SOL     OW30727   0.357   0.779   5.468  0.1280 -0.2118 -0.2275
 6365SOL    HW130728   0.436   0.821   5.435  0.4610  1.6215  2.9096
 6365SOL    HW230729   0.319   0.748   5.385 -0.1041 -0.8729  0.1200
 6366SOL     OW30730   3.710   1.822   3.522  0.1726  0.7091  0.1383
 6366SOL    HW130731   3.760   1.902   3.535  2.0330  0.1176 -3.2495
 6366SOL    HW230732   3.768   1.770   3.577 -0.5125  1.6988  1.7724
 6367SOL     OW30733   4.118   2.059   5.407  0.3199 -0.0621  0.6508
 6367SOL    HW130734   4.144   1.971   5.382  0.8257  0.2438  0.1227
 6367SOL    HW230735   4.206   2.092   5.424  0.1765  0.2294  0.8396
 6368SOL     OW30736   2.935   2.283   5.788 -0.6509  0.1066 -0.0012
 6368SOL    HW130737   2.994   2.214   5.820 -0.3694  0.8986  1.1883
 6368SOL    HW230738   2.990   2.334   5.728 -0.2799  3.3221  3.0904
 6369SOL     OW30739   3.522   3.795  17.672 -0.0111 -0.6261 -0.0585
 6369SOL    HW130740   3.484   3.752  17.595  0.3949  0.9534 -1.1419
 6369SOL    HW230741   3.447   3.853  17.686  1.4480  1.3553 -0.4546
 6370SOL     OW30742   2.838   0.364   6.559  0.6932  0.3735 -0.3159
 6370SOL    HW130743   2.802   0.295   6.615  0.6589  0.9262  0.3469
 6370SOL    HW230744   2.855   0.441   6.614  0.9164  0.8094 -0.9923
 6371SOL     OW30745   2.554   1.664   6.836  0.0529 -0.0557 -0.7489
 6371SOL    HW130746   2.631   1.706   6.796  0.4435  0.5174  0.5941
 6371SOL    HW230747   2.533   1.722   6.909 -0.5576  1.0507 -1.8124
 6372SOL     OW30748   3.851   1.487  14.881  0.2792 -0.5696  0.0696
 6372SOL    HW130749   3.838   1.401  14.841  0.0553  0.6301 -2.3950
 6372SOL    HW230750   3.903   1.542  14.823 -0.2288  0.6463  0.7706
 6373SOL     OW30751   3.532   3.443   5.554 -0.6706  0.3715 -0.1832
 6373SOL    HW130752   3.449   3.449   5.507  0.1277 -0.2565 -1.6981
 6373SOL    HW230753   3.508   3.514   5.612  0.2016  1.1034 -0.7132
 6374SOL     OW30754   4.492   1.578  11.314 -0.4691 -0.5711 -0.9596
 6374SOL    HW130755   4.404   1.593  11.349  0.0922  0.7407 -0.1037
 6374SOL    HW230756   4.532   1.636  11.378 -2.3013 -1.5706  1.0817
 6375SOL     OW30757   0.488   3.830   3.935  0.3122 -0.5027  0.2640
 6375SOL    HW130758   0.576   3.862   3.916  0.0068  0.0708 -0.1697
 6375SOL    HW230759   0.495   3.736   3.917  0.7637 -0.2492 -0.8480
 6376SOL     OW30760   4.457   4.306   9.753 -0.5117  0.2590  0.3324
 6376SOL    HW130761   4.444   4.215   9.724 -2.8972  0.9561 -0.7819
 6376SOL    HW230762   4.459   4.349   9.668 -1.2980  3.3700  1.9000
 6377SOL     OW30763   4.431   3.216   5.692  0.1090  0.0609  0.2129
 6377SOL    HW130764   4.507   3.163   5.714 -0.5137 -1.0929 -0.4348
 6377SOL    HW230765   4.367   3.145   5.688  0.0133  0.0051  2.6751
 6378SOL     OW30766   0.969   0.128   6.660 -0.2522  0.2299  0.1969
 6378SOL    HW130767   0.998   0.140   6.750  2.1356  1.4504 -0.7200
 6378SOL    HW230768   0.987   0.216   6.626  0.4362  0.0470  0.0957
 6379SOL     OW30769   0.019   2.523   8.284  0.5922  0.0437  0.2468
 6379SOL    HW130770   4.738   2.492   8.195 -1.2858  0.3077  0.5780
 6379SOL    HW230771   4.707   2.463   8.338  0.0874 -0.7167 -1.0531
 6380SOL     OW30772   1.230   3.640  13.533 -0.0440  0.1141  0.0240
 6380SOL    HW130773   1.225   3.733  13.508  0.1982  0.3304  0.7833
 6380SOL    HW230774   1.172   3.647  13.609  1.2743 -0.3973  1.0797
 6381SOL     OW30775   1.630   0.734   4.226  0.3791  0.4681  0.6030
 6381SOL    HW130776   1.590   0.779   4.300 -0.2926  0.0460  0.4901
 6381SOL    HW230777   1.585   0.765   4.148  1.5381  0.7789  0.0599
 6382SOL     OW30778   0.516   1.781   0.865 -0.0277 -0.3243  0.0794
 6382SOL    HW130779   0.586   1.718   0.884  1.0302  0.7870 -0.1149
 6382SOL    HW230780   0.525   1.842   0.938  0.3724 -0.5956  0.2595
 6383SOL     OW30781   1.969   2.595  11.381  0.1265 -0.0274  0.1835
 6383SOL    HW130782   2.000   2.535  11.450 -0.4119  1.5162  1.7763
 6383SOL    HW230783   2.031   2.565  11.315 -1.1443 -0.6854 -0.7065
 6384SOL     OW30784   1.020   1.599   7.226 -0.2643  0.1454 -0.7542
 6384SOL    HW130785   0.942   1.589   7.281 -0.2283  1.8350 -0.3956
 6384SOL    HW230786   1.038   1.507   7.208  0.7547 -0.0496  1.2702
 6385SOL     OW30787   0.151   4.209   8.607 -0.0993  0.1919  0.0645
 6385SOL    HW130788   0.097   4.287   8.620  1.6451  1.4427 -0.2787
 6385SOL    HW230789   0.099   4.140   8.650 -0.4467  0.8214  0.6515
 6386SOL     OW30790   0.105   0.007   8.793  1.0272 -0.2616 -0.0884
 6386SOL    HW130791   0.027   0.025   8.741 -0.0050 -0.6936  1.3011
 6386SOL    HW230792   0.089   0.033   8.884  2.2696 -1.4211  0.4589
 6387SOL     OW30793   3.790   1.703   0.884 -0.0785  0.3612  0.2839
 6387SOL    HW130794   3.721   1.662   0.936  0.7699 -0.8692  0.4265
 6387SOL    HW230795   3.868   1.664   0.923  0.9529  1.8286 -0.3147
 6388SOL     OW30796   3.801   3.290   6.821 -0.1179 -0.6169  0.2481
 6388SOL    HW130797   3.837   3.298   6.733 -1.9648 -1.0674 -0.5550
 6388SOL    HW230798   3.776   3.380   6.843  0.3976 -0.5255  0.4578
 6389SOL     OW30799   0.269   2.145   5.011  0.3323 -0.1314  0.2900
 6389SOL    HW130800   0.249   2.218   4.952 -1.2322 -2.6664 -2.3722
 6389SOL    HW230801   0.341   2.104   4.963  0.0913  2.7611 -2.5447
 6390SOL     OW30802   2.658   1.037   4.534  0.5443  0.2241 -0.0003
 6390SOL    HW130803   2.735   1.035   4.590  0.2528  2.8243  0.5031
 6390SOL    HW230804   2.642   1.131   4.523  1.1723  0.3398  0.1098
 6391SOL     OW30805   4.029   1.052   7.290  0.5148  0.0893 -0.1916
 6391SOL    HW130806   3.967   1.012   7.229  0.6856  0.2497 -0.4713
 6391SOL    HW230807   4.041   1.143   7.263 -1.0362  0.6183  0.8861
 6392SOL     OW30808   2.256   2.551  11.668 -0.1068 -0.1371  0.3987
 6392SOL    HW130809   2.184   2.501  11.629  0.1730  2.4723 -3.4331
 6392SOL    HW230810   2.216   2.603  11.738 -2.6387 -0.5780 -0.6882
 6393SOL     OW30811   3.999   2.834   7.546 -0.2548  0.0111  0.3195
 6393SOL    HW130812   4.024   2.810   7.457  0.4365 -0.2841  0.5931
 6393SOL    HW230813   4.082   2.828   7.594 -1.2479 -0.1242  2.0259
 6394SOL     OW30814   4.668   3.423   5.692 -0.0157 -0.2371 -0.2902
 6394SOL    HW130815   4.663   3.342   5.641  0.9646 -0.1926 -0.4484
 6394SOL    HW230816   4.717   3.480   5.633 -0.8943  1.7805  0.9364
 6395SOL     OW30817   2.180   1.563  16.021 -0.5630 -0.2287  0.5208
 6395SOL    HW130818   2.172   1.657  16.007  0.7495  0.0335  1.5181
 6395SOL    HW230819   2.225   1.555  16.105  0.6854  1.6202  0.0166
 6396SOL     OW30820   0.538   3.821   8.246 -0.2696  0.0645  0.1482
 6396SOL    HW130821   0.497   3.745   8.286  0.6991 -1.1135 -1.0904
 6396SOL    HW230822   0.628   3.813   8.278 -0.4527 -2.3497  0.0661
 6397SOL     OW30823   4.316   3.891   8.430  0.2432  0.1780 -0.2923
 6397SOL    HW130824   4.233   3.864   8.469  1.3894 -1.7353  0.8288
 6397SOL    HW230825   4.377   3.824   8.461  0.2217  0.8035  1.1240
 6398SOL     OW30826   4.079   3.610   4.500 -0.1246 -0.1622  0.2166
 6398SOL    HW130827   4.155   3.635   4.448  0.0492 -0.3333  0.3898
 6398SOL    HW230828   4.077   3.679   4.567  1.8841 -0.0854  0.1792
 6399SOL     OW30829   0.950   2.194  14.733  0.2662 -0.5897 -0.1662
 6399SOL    HW130830   0.904   2.144  14.801  2.2093  1.2240  2.4344
 6399SOL    HW230831   0.882   2.248  14.693 -0.9120 -0.7000  1.6817
 6400SOL     OW30832   3.028   4.420  11.289 -0.2122 -0.2145 -0.2756
 6400SOL    HW130833   3.021   4.395  11.381 -0.0599  1.0981  0.0981
 6400SOL    HW230834   2.984   4.345  11.249  2.2747 -1.6960 -0.2279
 6401SOL     OW30835   4.707   2.255  13.639 -0.3077  0.2388 -0.0951
 6401SOL    HW130836   0.031   2.231  13.572  0.9725 -0.7017  1.4616
 6401SOL    HW230837   4.738   2.344  13.659  1.4810 -0.8579  2.0524
 6402SOL     OW30838   2.421   2.982  17.062 -0.2493  0.4750  0.0684
 6402SOL    HW130839   2.420   3.001  16.968  4.2582  0.7484  0.0585
 6402SOL    HW230840   2.432   2.887  17.060 -1.7800  0.2718  1.4913
 6403SOL     OW30841   0.696   0.695   4.472  0.1545 -0.1539  0.4785
 6403SOL    HW130842   0.726   0.701   4.382 -0.8439  0.3129  0.1778
 6403SOL    HW230843   0.611   0.654   4.457  0.2445  0.3447 -1.4000
 6404SOL     OW30844   1.133   3.855   2.449 -0.2045 -0.1473  0.7481
 6404SOL    HW130845   1.207   3.915   2.440  0.5319 -0.9014  1.8843
 6404SOL    HW230846   1.102   3.848   2.358 -0.4072 -0.6559  0.8584
 6405SOL     OW30847   1.851   2.684   7.919  0.2605 -0.2515  0.3427
 6405SOL    HW130848   1.826   2.604   7.965 -0.3963 -0.9784 -1.2697
 6405SOL    HW230849   1.858   2.647   7.831  1.4418  5.1252 -1.8242
 6406SOL     OW30850   2.401   0.343   3.794  0.4840 -0.0676 -0.8095
 6406SOL    HW130851   2.380   0.252   3.817 -2.4793  0.9086  0.3176
 6406SOL    HW230852   2.490   0.357   3.824 -0.0778  1.0897  0.3093
 6407SOL     OW30853   0.096   3.041   5.459 -0.6108  0.0190  0.6824
 6407SOL    HW130854   0.174   3.074   5.414  1.4976 -2.4135  2.5269
 6407SOL    HW230855   0.121   3.061   5.549 -1.9159  0.3997  0.9630
 6408SOL     OW30856   0.574   2.061   0.756  0.6186  0.0649 -0.0058
 6408SOL    HW130857   0.559   2.097   0.844 -3.6905 -1.7327  0.0420
 6408SOL    HW230858   0.578   2.142   0.706 -1.3842  0.3770  0.3149
 6409SOL     OW30859   3.870   3.522  10.350  0.9961 -0.0563 -0.0956
 6409SOL    HW130860   3.950   3.502  10.302 -0.8285 -2.7732 -2.0733
 6409SOL    HW230861   3.862   3.450  10.412  1.8080  0.0876  0.1716
 6410SOL     OW30862   2.326   2.749   1.305  0.0294 -0.3956 -0.7153
 6410SOL    HW130863   2.375   2.829   1.287 -2.5546  0.6661 -3.0099
 6410SOL    HW230864   2.369   2.711   1.382 -0.5758 -0.8259 -0.5884
 6411SOL     OW30865   3.393   2.170   8.050  0.2992  0.4192 -0.2889
 6411SOL    HW130866   3.367   2.250   8.004  0.9062  0.9411  0.2817
 6411SOL    HW230867   3.429   2.118   7.978  1.0850 -0.8955  1.0489
 6412SOL     OW30868   3.449   1.739   4.518  0.4767 -0.5158  0.5769
 6412SOL    HW130869   3.376   1.749   4.458  0.2494 -0.8905  0.7920
 6412SOL    HW230870   3.521   1.762   4.458 -1.4548  0.9993 -1.1371
 6413SOL     OW30871   0.352   4.194   2.932 -0.1717  0.0017 -0.0740
 6413SOL    HW130872   0.438   4.159   2.957  0.2009  1.1630  0.2515
 6413SOL    HW230873   0.355   4.155   2.844  0.5570 -0.8735  0.3380
 6414SOL     OW30874   3.926   4.729   5.006 -0.5029  0.1312 -0.1700
 6414SOL    HW130875   3.910   0.053   4.935  2.6471  1.9777  0.7244
 6414SOL    HW230876   3.844   4.680   5.003 -0.3547 -0.1888  1.1684
 6415SOL     OW30877   2.112   0.619   7.226 -0.0852  0.3596  0.2478
 6415SOL    HW130878   2.055   0.546   7.203 -0.3982  0.9306 -0.7514
 6415SOL    HW230879   2.201   0.583   7.222  0.0604  0.9754 -2.0227
 6416SOL     OW30880   3.479   1.964   8.455 -0.4061 -0.6209 -0.3564
 6416SOL    HW130881   3.483   1.936   8.547 -0.9487 -2.1551 -0.8191
 6416SOL    HW230882   3.400   1.924   8.421 -0.8999 -0.7757  0.9518
 6417SOL     OW30883   2.748   4.737   5.556  0.0629  0.1162 -0.3177
 6417SOL    HW130884   2.840   0.004   5.528 -0.0101  1.3570 -0.2856
 6417SOL    HW230885   2.712   0.084   5.535  0.1303  0.1438 -0.3223
 6418SOL     OW30886   1.212   1.728   3.080  0.3897  0.2443  1.4674
 6418SOL    HW130887   1.225   1.648   3.027  0.7690  1.0355  0.3572
 6418SOL    HW230888   1.239   1.791   3.014  0.0981 -1.4034 -0.2423
 6419SOL     OW30889   4.261   3.764   3.347  0.4892 -0.2508  0.1440
 6419SOL    HW130890   4.181   3.767   3.400  0.7139 -0.7514  0.5103
 6419SOL    HW230891   4.229   3.791   3.261  2.2376 -0.7043 -0.6466
 6420SOL     OW30892   0.591   0.251   4.471 -0.2398  0.3060 -0.0095
 6420SOL    HW130893   0.574   0.280   4.381 -1.2390  2.2672  0.8136
 6420SOL    HW230894   0.657   0.182   4.459 -0.3081 -0.1994  2.6467
 6421SOL     OW30895   0.777   1.003  11.248 -0.0878  0.5340  0.3110
 6421SOL    HW130896   0.840   1.070  11.274  1.1454 -0.7667  0.6504
 6421SOL    HW230897   0.781   0.939  11.319  0.7637 -0.4584 -0.6337
 6422SOL     OW30898   2.009   2.201   5.073  0.6671  0.2028 -0.4170
 6422SOL    HW130899   2.079   2.141   5.097 -0.8306 -2.4215 -2.6166
 6422SOL    HW230900   2.056   2.265   5.019 -0.0877  2.0970  1.1504
 6423SOL     OW30901   2.147   0.438   6.393  0.1790  0.5075 -0.4304
 6423SOL    HW130902   2.179   0.364   6.341  0.7918 -2.0397  3.5454
 6423SOL    HW230903   2.138   0.395   6.478  0.8957  2.5987  0.6888
 6424SOL     OW30904   3.472   0.655   4.717 -0.4133 -0.1068 -0.4977
 6424SOL    HW130905   3.376   0.663   4.713 -0.7679 -3.2073  2.1035
 6424SOL    HW230906   3.484   0.690   4.805 -0.9316 -1.9837  0.3167
 6425SOL     OW30907   4.616   2.911   4.331 -0.0573  0.6384  0.1331
 6425SOL    HW130908   4.530   2.945   4.308 -0.5730  0.4567  1.8514
 6425SOL    HW230909   4.625   2.941   4.421 -0.1752 -1.1050  0.7418
 6426SOL     OW30910   3.852   0.116   4.536 -0.6817 -0.3500  0.0028
 6426SOL    HW130911   3.942   0.143   4.520 -1.4876  1.6121 -1.1671
 6426SOL    HW230912   3.812   0.202   4.549 -1.7317 -1.1509  2.1355
 6427SOL     OW30913   2.220   4.492  15.685  0.0694  0.0093  0.4211
 6427SOL    HW130914   2.209   4.457  15.597  1.2973 -0.1788  0.3491
 6427SOL    HW230915   2.306   4.454  15.700  0.8314  1.8187  0.6101
 6428SOL     OW30916   4.500   1.346   7.614 -0.0081  0.5571 -0.1436
 6428SOL    HW130917   4.491   1.285   7.687 -1.6405  0.0626 -0.7590
 6428SOL    HW230918   4.554   1.299   7.550  0.1193 -1.5812  1.5264
 6429SOL     OW30919   4.435   3.241   3.429 -0.2497  0.4105 -0.0550
 6429SOL    HW130920   4.406   3.331   3.445  0.5307  1.0461 -2.2056
 6429SOL    HW230921   4.371   3.204   3.369  0.9199 -1.1468 -0.3301
 6430SOL     OW30922   0.552   3.831  11.391  0.4519  0.1685 -0.3655
 6430SOL    HW130923   0.532   3.830  11.297  1.5332 -2.5894 -0.5671
 6430SOL    HW230924   0.640   3.867  11.391  0.7220 -0.4946 -2.4253
 6431SOL     OW30925   3.287   2.761   9.336  0.2663  0.3689 -0.1601
 6431SOL    HW130926   3.216   2.822   9.352 -1.2359 -1.1711 -0.9358
 6431SOL    HW230927   3.362   2.821   9.341  0.4322 -0.0414  1.9909
 6432SOL     OW30928   2.804   1.660   3.331 -0.0836 -0.9954 -0.2593
 6432SOL    HW130929   2.784   1.753   3.343 -0.2078 -0.8745 -1.4412
 6432SOL    HW230930   2.883   1.664   3.279  0.1293 -0.0397  0.1280
 6433SOL     OW30931   3.840   4.539   8.222  0.1748  0.3441 -0.1706
 6433SOL    HW130932   3.780   4.596   8.269  2.7286  2.6522  0.3181
 6433SOL    HW230933   3.796   4.526   8.138 -1.1714  0.4002  0.5400
 6434SOL     OW30934   1.113   2.110   6.189 -0.3484 -0.7509  0.2776
 6434SOL    HW130935   1.048   2.047   6.158 -0.7457 -0.5081  0.6299
 6434SOL    HW230936   1.056   2.173   6.232  0.1790 -0.6699  0.8553
 6435SOL     OW30937   0.557   1.158   4.213 -0.0876  0.0068 -0.0909
 6435SOL    HW130938   0.522   1.151   4.302 -2.1836  1.6589 -0.7913
 6435SOL    HW230939   0.604   1.074   4.216  2.4719  1.2730 -4.2954
 6436SOL     OW30940   1.092   0.624   7.886  0.0302 -0.0432  0.0328
 6436SOL    HW130941   1.181   0.593   7.900 -0.3983 -0.2045  2.3860
 6436SOL    HW230942   1.058   0.571   7.814 -1.6412  3.1253 -1.5540
 6437SOL     OW30943   2.392   4.103  11.535  0.1874 -0.1149 -0.4804
 6437SOL    HW130944   2.420   4.034  11.476 -1.2907 -1.4216  0.3378
 6437SOL    HW230945   2.348   4.048  11.600 -0.0561  1.3336  0.5914
 6438SOL     OW30946   0.376   1.155   8.418  0.0547  0.3737  0.3031
 6438SOL    HW130947   0.286   1.188   8.420  0.0905  0.5310 -0.8078
 6438SOL    HW230948   0.421   1.206   8.485 -0.0984  1.0677 -0.1320
 6439SOL     OW30949   2.350   1.340   2.049  0.1538  0.6422 -0.7589
 6439SOL    HW130950   2.430   1.295   2.075 -0.4436  0.1123  0.1773
 6439SOL    HW230951   2.394   1.398   1.988  3.9482 -2.3048 -0.8186
 6440SOL     OW30952   3.910   4.217   7.934 -0.0788  0.1522  0.1133
 6440SOL    HW130953   3.899   4.159   7.859 -2.4815 -1.3484  1.6229
 6440SOL    HW230954   3.975   4.179   7.993 -0.8436  0.5817  1.2335
 6441SOL     OW30955   2.019   3.378   8.795 -0.2967 -0.1183  0.3895
 6441SOL    HW130956   1.990   3.442   8.729 -0.8246 -0.4078  0.3416
 6441SOL    HW230957   2.085   3.331   8.743  1.3980  1.2987  1.2527
 6442SOL     OW30958   1.878   2.162   3.642 -0.7328  0.0620  0.1916
 6442SOL    HW130959   1.789   2.156   3.606 -1.6667  1.0481  2.3345
 6442SOL    HW230960   1.885   2.081   3.693 -0.2497  0.7344  1.1705
 6443SOL     OW30961   0.631   0.944   3.597 -0.3855  0.6644  0.0553
 6443SOL    HW130962   0.681   1.024   3.609  1.4837 -0.7992  1.9747
 6443SOL    HW230963   0.636   0.895   3.679 -1.1553 -3.2665 -2.2103
 6444SOL     OW30964   4.407   1.335   8.137  0.0623  0.1796 -0.3206
 6444SOL    HW130965   4.501   1.355   8.131 -0.0041  0.8447  0.7748
 6444SOL    HW230966   4.392   1.408   8.197  0.4148  0.4796 -0.5931
 6445SOL     OW30967   2.002   0.076   6.761  0.5192  0.0502  0.2383
 6445SOL    HW130968   2.062   0.019   6.808  0.7055 -0.6714 -0.8729
 6445SOL    HW230969   1.952   0.121   6.829 -0.8717 -2.1658  0.6947
 6446SOL     OW30970   2.990   3.416   9.526 -0.0122 -0.0099 -0.3140
 6446SOL    HW130971   3.068   3.417   9.470 -0.9009 -1.1478 -1.5639
 6446SOL    HW230972   2.923   3.374   9.472 -0.3307 -1.4864  1.2505
 6447SOL     OW30973   3.921   3.875   0.533 -0.2828  0.1130 -0.5981
 6447SOL    HW130974   3.900   3.790   0.572  0.1076  0.0790 -0.4704
 6447SOL    HW230975   3.835   3.878   0.490  1.3930 -1.8966 -4.1442
 6448SOL     OW30976   2.890   2.711   2.113  0.1277 -0.4068  0.5421
 6448SOL    HW130977   2.907   2.728   2.205  1.5793  2.1544 -0.1944
 6448SOL    HW230978   2.954   2.641   2.098 -1.5439 -1.6833 -0.6544
 6449SOL     OW30979   3.024   3.211  17.370 -0.1189 -0.5021 -0.2511
 6449SOL    HW130980   3.001   3.153  17.298  1.0794 -0.6786 -0.4903
 6449SOL    HW230981   3.115   3.200  17.396 -0.2863 -2.5167 -0.5237
 6450SOL     OW30982   4.237   0.929   3.714 -0.7491 -0.4506  0.2673
 6450SOL    HW130983   4.223   0.921   3.620  0.8966  0.2977 -0.0496
 6450SOL    HW230984   4.167   0.992   3.731 -0.9844 -0.5815 -0.2207
 6451SOL     OW30985   0.584   0.914   9.863 -0.0681 -0.5357 -0.2957
 6451SOL    HW130986   0.522   0.928   9.934  2.9310 -3.1495  2.8628
 6451SOL    HW230987   0.612   1.004   9.846  1.6975 -0.5256  2.6662
 6452SOL     OW30988   3.129   1.368  13.372 -0.4560 -0.6952 -0.5317
 6452SOL    HW130989   3.207   1.421  13.353 -1.3654  1.0692  0.6751
 6452SOL    HW230990   3.057   1.410  13.325 -0.5175 -1.7423 -1.3664
 6453SOL     OW30991   3.299   4.661   5.885 -0.5313 -0.1679  0.3579
 6453SOL    HW130992   3.264   4.659   5.974  2.9828  0.0804  1.7353
 6453SOL    HW230993   3.371   4.599   5.885 -0.0752  0.3666 -0.0200
 6454SOL     OW30994   3.909   0.169   5.963 -0.1147  0.2505 -0.1376
 6454SOL    HW130995   3.846   0.171   6.036 -1.2917 -0.0889 -1.1340
 6454SOL    HW230996   3.902   0.261   5.939 -1.4164 -0.4177 -2.3712
 6455SOL     OW30997   2.854   1.162   1.794  0.4209 -0.3282 -0.1617
 6455SOL    HW130998   2.908   1.153   1.715 -0.3790 -0.4909 -0.7006
 6455SOL    HW230999   2.931   1.158   1.850 -0.2622 -0.9390  0.7228
 6456SOL     OW31000   0.356   4.329   1.557  0.3307  0.1176  0.4453
 6456SOL    HW131001   0.419   4.326   1.485 -0.8204  0.8327 -0.5880
 6456SOL    HW231002   0.330   4.240   1.580 -0.4260 -0.0370 -1.0352
 6457SOL     OW31003   1.949   0.870   3.181  0.4743  0.0512 -0.5400
 6457SOL    HW131004   1.913   0.957   3.160 -0.4539 -0.4080 -0.8334
 6457SOL    HW231005   2.000   0.835   3.109  0.0711  2.4129 -2.0022
 6458SOL     OW31006   2.705   3.888   6.634  0.0920 -0.5335  0.2047
 6458SOL    HW131007   2.631   3.842   6.672 -0.7013  0.0871 -0.5872
 6458SOL    HW231008   2.679   3.980   6.631 -0.1712 -0.6403 -0.8362
 6459SOL     OW31009   1.563   4.625  14.231 -0.4430  0.5859  0.4991
 6459SOL    HW131010   1.548   4.717  14.251  0.6484  0.9416 -0.3399
 6459SOL    HW231011   1.517   4.581  14.304  0.6087 -1.9197 -0.3637
 6460SOL     OW31012   3.590   1.618   8.938 -0.2245  0.0069  0.3410
 6460SOL    HW131013   3.674   1.579   8.914  0.7104  1.5563  1.0820
 6460SOL    HW231014   3.620   1.681   9.004 -0.8732 -0.6327  1.2381
 6461SOL     OW31015   3.567   2.969  14.411 -0.1992 -0.3084 -0.3318
 6461SOL    HW131016   3.589   3.017  14.331  0.3750  0.6934  0.4345
 6461SOL    HW231017   3.657   2.947  14.434  0.7221  3.5498 -0.3817
 6462SOL     OW31018   4.487   3.742   2.418  0.3721  0.1169 -0.8784
 6462SOL    HW131019   4.503   3.690   2.339  2.7716 -0.1598 -0.2323
 6462SOL    HW231020   4.577   3.761   2.445 -0.6653  1.4739  1.6822
 6463SOL     OW31021   1.297   2.711  13.784  0.4531  0.2376 -0.1963
 6463SOL    HW131022   1.261   2.635  13.830 -0.3640  0.4093 -0.5589
 6463SOL    HW231023   1.214   2.756  13.769  1.1774  1.3632 -0.8547
 6464SOL     OW31024   0.600   2.045   6.400  0.2008  0.3648  0.2263
 6464SOL    HW131025   0.584   2.091   6.482 -0.6182  1.0481 -0.3186
 6464SOL    HW231026   0.685   2.006   6.420  0.8115  0.8375 -1.5078
 6465SOL     OW31027   1.091   3.417   3.792 -0.4218 -0.5138  0.6864
 6465SOL    HW131028   1.010   3.400   3.742  0.3901  2.0784 -1.4864
 6465SOL    HW231029   1.064   3.478   3.860  0.1836  1.1097 -0.5223
 6466SOL     OW31030   4.308   0.791   1.763 -0.0830 -0.4006  0.2597
 6466SOL    HW131031   4.365   0.830   1.696  2.1119 -2.3949  0.9830
 6466SOL    HW231032   4.234   0.752   1.716  0.2907 -0.0179 -0.6390
 6467SOL     OW31033   0.306   1.373   4.799  0.0860  0.4092 -0.3968
 6467SOL    HW131034   0.367   1.325   4.854  0.4639  0.8347 -0.4462
 6467SOL    HW231035   0.323   1.340   4.711  0.3955 -0.4630 -0.0061
 6468SOL     OW31036   3.403   1.472   4.384  0.6502 -0.3470  0.0737
 6468SOL    HW131037   3.451   1.475   4.466 -0.1763 -2.1020  0.6169
 6468SOL    HW231038   3.419   1.381   4.362 -0.0010 -0.3378 -0.4232
 6469SOL     OW31039   1.799   0.069   6.561 -0.0901  0.2247  0.5769
 6469SOL    HW131040   1.891   0.061   6.590  0.5452 -0.1235 -1.5316
 6469SOL    HW231041   1.755   0.083   6.645  0.8156 -0.5926  1.1950
 6470SOL     OW31042   1.193   0.490   8.373 -0.2904 -0.3406 -0.1593
 6470SOL    HW131043   1.261   0.476   8.439  0.3577  1.7979 -0.3727
 6470SOL    HW231044   1.242   0.544   8.311 -0.1699  1.1079  1.1777
 6471SOL     OW31045   4.283   0.496   1.451  0.3272  0.1116 -0.1863
 6471SOL    HW131046   4.202   0.466   1.411 -0.9061  3.5685 -0.2594
 6471SOL    HW231047   4.345   0.439   1.404  0.6530 -0.5839  1.0931
 6472SOL     OW31048   3.218   1.214   3.500  0.5674 -0.1119 -0.6061
 6472SOL    HW131049   3.133   1.250   3.526  0.2599 -1.0139 -0.3443
 6472SOL    HW231050   3.190   1.147   3.438  1.9501 -1.0679 -0.2140
 6473SOL     OW31051   1.327   2.415   7.506 -0.4700  0.3358  0.5635
 6473SOL    HW131052   1.235   2.432   7.488 -0.5322 -1.0602 -0.4648
 6473SOL    HW231053   1.353   2.350   7.441  0.0791 -0.5380  1.6332
 6474SOL     OW31054   1.391   4.732   1.056 -0.1461 -0.0132 -0.2259
 6474SOL    HW131055   1.411   4.721   1.149 -1.4369  0.6771  0.1382
 6474SOL    HW231056   1.424   0.081   1.039 -2.3721  1.3884  2.5362
 6475SOL     OW31057   4.053   3.954   4.235 -0.0259  0.8095 -0.0243
 6475SOL    HW131058   4.114   3.893   4.194 -3.1038 -1.1455 -1.7540
 6475SOL    HW231059   3.985   3.963   4.167  0.6135  2.0943 -0.4894
 6476SOL     OW31060   0.198   2.496  15.185 -0.4948 -0.5138 -0.1720
 6476SOL    HW131061   0.216   2.437  15.112 -2.3680 -0.8165 -0.4001
 6476SOL    HW231062   0.113   2.527  15.154  0.3659  1.2038 -0.7955
 6477SOL     OW31063   3.882   4.589   4.327 -0.4387 -0.0528  0.1617
 6477SOL    HW131064   3.935   4.668   4.337 -0.1870  0.0235 -1.7729
 6477SOL    HW231065   3.952   4.534   4.291  0.6917  1.3010  0.2547
 6478SOL     OW31066   2.187   4.451   1.944  0.0623 -0.2217 -0.2014
 6478SOL    HW131067   2.129   4.374   1.945 -0.2245 -0.0267 -1.5365
 6478SOL    HW231068   2.145   4.491   1.868 -0.9803  1.0055  1.0312
 6479SOL     OW31069   4.519   0.271  13.640 -0.0443  0.1831  0.2003
 6479SOL    HW131070   4.506   0.335  13.711 -3.7139  2.4211 -2.4917
 6479SOL    HW231071   4.467   0.201  13.678  0.4344 -0.4072 -0.2277
 6480SOL     OW31072   1.714   3.528  11.415  0.0315  0.1080 -0.5969
 6480SOL    HW131073   1.734   3.582  11.339 -1.2051  2.2955  0.6235
 6480SOL    HW231074   1.619   3.520  11.403  0.3141 -1.2554 -1.9380
 6481SOL     OW31075   3.020   0.325  12.522 -0.1125 -0.1982 -0.4636
 6481SOL    HW131076   2.991   0.365  12.604 -0.1914  0.3762 -0.7785
 6481SOL    HW231077   2.950   0.267  12.493  0.6482 -2.0265  1.3317
 6482SOL     OW31078   1.356   0.105   6.790 -0.3889  0.1128  0.3244
 6482SOL    HW131079   1.339   0.112   6.696  1.6921 -0.1892 -0.0819
 6482SOL    HW231080   1.387   0.015   6.804  1.6592  0.9272  0.9601
 6483SOL     OW31081   2.019   2.971   2.998  0.3158 -0.0229 -0.8385
 6483SOL    HW131082   1.991   2.920   3.074  2.5692 -3.0604 -2.0172
 6483SOL    HW231083   2.106   2.932   2.994 -0.6162 -2.2299  0.4367
 6484SOL     OW31084   1.760   0.252   3.895  0.3075 -0.2342  0.4868
 6484SOL    HW131085   1.793   0.163   3.903 -1.1819 -0.8656 -0.5020
 6484SOL    HW231086   1.839   0.305   3.911  1.4458 -2.5569  2.5288
 6485SOL     OW31087   3.302   3.970   4.862 -0.0974  0.0467  0.3767
 6485SOL    HW131088   3.220   3.966   4.911  0.8465 -2.2030  1.7538
 6485SOL    HW231089   3.278   3.943   4.774 -0.6882  2.1427 -0.1085
 6486SOL     OW31090   0.787   0.183   5.379 -0.2832 -0.0062  0.5453
 6486SOL    HW131091   0.700   0.184   5.341 -0.4591  0.3745  0.9594
 6486SOL    HW231092   0.835   0.155   5.300 -0.6498 -0.2752  0.4196
 6487SOL     OW31093   2.500   2.179   2.372  0.2116  0.0972 -0.4625
 6487SOL    HW131094   2.448   2.129   2.309  0.3035  1.6497 -1.7650
 6487SOL    HW231095   2.587   2.184   2.331 -0.1462 -0.7183 -1.3188
 6488SOL     OW31096   3.480   1.705  15.755 -0.4275 -0.0738 -0.4088
 6488SOL    HW131097   3.464   1.624  15.707  2.3294 -0.5165 -0.6083
 6488SOL    HW231098   3.545   1.742  15.694  0.5165  0.3598  0.8705
 6489SOL     OW31099   1.657   0.842   4.720  0.2090 -0.1370  0.0603
 6489SOL    HW131100   1.693   0.755   4.740  0.1519 -0.4462 -1.1696
 6489SOL    HW231101   1.645   0.876   4.808  0.9704  0.7668 -0.1902
 6490SOL     OW31102   1.742   2.977   1.876 -1.1845 -0.0748  0.6431
 6490SOL    HW131103   1.769   2.994   1.786 -0.9717  0.8420  0.8846
 6490SOL    HW231104   1.770   2.885   1.875 -0.3386  0.1873  0.6769
 6491SOL     OW31105   1.168   1.943   7.887 -0.2022  0.0457  0.1525
 6491SOL    HW131106   1.137   2.034   7.894 -2.0396 -0.3261 -3.1148
 6491SOL    HW231107   1.197   1.949   7.796 -0.5060 -2.2429 -0.0915
 6492SOL     OW31108   3.850   0.326  14.301  0.1718  0.4135 -0.4837
 6492SOL    HW131109   3.932   0.280  14.318 -0.1682 -0.3868 -1.0295
 6492SOL    HW231110   3.824   0.303  14.212 -2.1203  1.6289 -0.1288
 6493SOL     OW31111   2.674   3.127   8.559  0.0292 -0.6597 -0.4157
 6493SOL    HW131112   2.618   3.202   8.538  0.1221 -0.3407  0.4904
 6493SOL    HW231113   2.696   3.090   8.474  1.5095  0.1422 -0.3908
 6494SOL     OW31114   1.131   1.832   9.090 -0.7461  0.6877  0.3016
 6494SOL    HW131115   1.055   1.879   9.057 -0.2531 -0.9441 -3.1227
 6494SOL    HW231116   1.171   1.800   9.009  1.5349  0.6018  1.4515
 6495SOL     OW31117   3.002   1.090   2.014  0.3315  0.2869  0.1740
 6495SOL    HW131118   3.071   1.152   2.039  2.3260 -2.3568  1.2033
 6495SOL    HW231119   2.964   1.067   2.099  1.9770  1.9816  1.3587
 6496SOL     OW31120   3.758   2.442  12.398  0.1453  0.2276 -0.7497
 6496SOL    HW131121   3.825   2.409  12.459 -1.9776  0.2317  1.5500
 6496SOL    HW231122   3.682   2.436  12.456  0.8940  2.9433  0.5325
 6497SOL     OW31123   3.334   2.732   4.301 -0.3296  0.3730 -0.3133
 6497SOL    HW131124   3.400   2.663   4.289  1.0490  1.3610  1.4319
 6497SOL    HW231125   3.371   2.780   4.376 -0.6692  0.4880 -0.2179
 6498SOL     OW31126   3.210   4.637   3.803 -0.5542 -0.4699 -0.6424
 6498SOL    HW131127   3.294   4.682   3.794 -1.3884  0.8649 -1.7590
 6498SOL    HW231128   3.214   4.597   3.890  1.8712 -0.3729 -0.7071
 6499SOL     OW31129   3.455   3.912   9.258  0.5802  0.1430 -0.4040
 6499SOL    HW131130   3.363   3.932   9.277  0.4152  0.5787 -1.6307
 6499SOL    HW231131   3.478   3.979   9.193  0.0615 -0.6305 -1.3735
 6500SOL     OW31132   3.913   3.006   7.914 -0.0251 -0.4756 -0.1454
 6500SOL    HW131133   3.881   2.952   7.841 -0.4954 -0.5957  0.1469
 6500SOL    HW231134   3.853   3.080   7.918  1.0257  0.5012 -2.4336
 6501SOL     OW31135   0.153   4.064  10.493 -0.2869  0.3623  0.5394
 6501SOL    HW131136   0.071   4.100  10.527 -1.5636 -0.1115 -1.9773
 6501SOL    HW231137   0.167   4.124  10.419  0.0169  0.5809  0.7749
 6502SOL     OW31138   4.045   1.102  13.283 -0.2024  0.4971  0.4264
 6502SOL    HW131139   4.089   1.114  13.367 -0.0328 -0.0405  0.4103
 6502SOL    HW231140   4.126   1.098  13.231  0.3897 -0.8791  1.4770
 6503SOL     OW31141   2.373   2.900   6.412  0.4552 -0.2253  0.6237
 6503SOL    HW131142   2.367   2.938   6.500 -1.6940  1.0083 -0.0694
 6503SOL    HW231143   2.404   2.979   6.367 -0.8229 -0.0073  0.1346
 6504SOL     OW31144   4.673   4.106   6.412 -0.3957  0.7542  0.5317
 6504SOL    HW131145   4.732   4.102   6.487  0.1433  1.7499  0.1682
 6504SOL    HW231146   4.708   4.042   6.350  0.3590 -0.7720  2.5502
 6505SOL     OW31147   3.110   0.589  16.713  0.2535 -0.2189  0.1874
 6505SOL    HW131148   3.142   0.666  16.760 -0.8371  0.2051  0.2460
 6505SOL    HW231149   3.194   0.560  16.677 -0.0112 -0.0944 -0.5429
 6506SOL     OW31150   1.451   4.315   2.345 -0.3453  0.3013  0.5797
 6506SOL    HW131151   1.455   4.261   2.266 -1.8181  0.2478  0.5415
 6506SOL    HW231152   1.528   4.373   2.347  0.5528 -0.8359 -1.0001
 6507SOL     OW31153   1.477   3.002   8.338  0.4585 -0.0305 -0.4057
 6507SOL    HW131154   1.497   2.909   8.347  2.7877  0.3628 -1.4011
 6507SOL    HW231155   1.548   3.022   8.277 -0.7700  0.7291 -1.5764
 6508SOL     OW31156   1.897   0.329  13.763  0.1488 -0.2636 -0.2221
 6508SOL    HW131157   1.830   0.387  13.798  0.0422  0.5891 -1.8276
 6508SOL    HW231158   1.954   0.339  13.840 -1.4095 -1.3496  1.0661
 6509SOL     OW31159   2.120   3.821   2.649 -0.2055 -0.4416  0.0567
 6509SOL    HW131160   2.061   3.769   2.594  0.1685  0.0235 -0.7796
 6509SOL    HW231161   2.142   3.895   2.593  1.1144 -0.5787  0.4153
 6510SOL     OW31162   1.048   3.909   4.873 -0.0875 -0.4054  0.1561
 6510SOL    HW131163   1.143   3.918   4.865 -0.2030  0.2408 -0.4764
 6510SOL    HW231164   1.050   3.829   4.926 -1.0251  0.2479  1.1962
 6511SOL     OW31165   3.705   4.523   2.866  1.4061 -0.7789 -0.1317
 6511SOL    HW131166   3.755   4.551   2.943  1.2479 -1.2011  0.1260
 6511SOL    HW231167   3.628   4.492   2.915  1.0238 -1.0874 -0.9288
 6512SOL     OW31168   3.779   4.062   8.938 -0.6016 -0.1738  0.3323
 6512SOL    HW131169   3.779   4.054   8.842  0.4983 -0.5587  0.3663
 6512SOL    HW231170   3.840   3.997   8.972 -0.1633 -1.6655 -3.3456
 6513SOL     OW31171   3.784   3.322   5.846  0.2493  0.5592  0.5193
 6513SOL    HW131172   3.875   3.330   5.876  0.0062  0.8476  1.2051
 6513SOL    HW231173   3.789   3.350   5.755 -0.1200 -1.1199 -0.0175
 6514SOL     OW31174   3.714   1.695   1.924  0.0270 -0.0703 -0.1254
 6514SOL    HW131175   3.635   1.713   1.872  0.3778  1.5749 -0.0935
 6514SOL    HW231176   3.746   1.781   1.950 -2.1286  1.1709 -1.5271
 6515SOL     OW31177   3.541   2.762   4.552 -0.0157 -0.3477 -0.4099
 6515SOL    HW131178   3.532   2.675   4.591  1.9449 -0.1996  0.3471
 6515SOL    HW231179   3.470   2.811   4.594  1.0504 -2.0456  3.3085
 6516SOL     OW31180   4.739   3.427   3.890  0.1392 -0.4276  0.3681
 6516SOL    HW131181   0.070   3.380   3.845  3.3034  0.8998  3.8884
 6516SOL    HW231182   4.719   3.362   3.958 -0.9200 -0.5057 -0.0233
 6517SOL     OW31183   1.715   1.279   7.732 -0.0412 -0.5069 -0.0206
 6517SOL    HW131184   1.803   1.271   7.694  1.3702  0.4355  3.0412
 6517SOL    HW231185   1.717   1.372   7.756 -0.6399 -1.7180  4.6677
 6518SOL     OW31186   2.209   2.898   7.611 -0.8452 -0.0228 -0.1081
 6518SOL    HW131187   2.176   2.951   7.539 -0.2615  4.2280  2.7410
 6518SOL    HW231188   2.208   2.957   7.686 -0.8539 -2.0721  1.5013
 6519SOL     OW31189   2.809   4.213   7.651  0.5617  0.3763 -0.3102
 6519SOL    HW131190   2.866   4.199   7.575  0.4099 -4.3959  0.4640
 6519SOL    HW231191   2.823   4.307   7.663  1.1763  0.0505  1.4025
 6520SOL     OW31192   0.880   1.490   3.666  0.1921  0.3571  0.1627
 6520SOL    HW131193   0.963   1.535   3.654 -0.0090  0.9006  0.8178
 6520SOL    HW231194   0.892   1.410   3.615 -1.5240  0.0873  0.1674
 6521SOL     OW31195   3.697   1.457  13.518 -0.1062  0.4352  0.3037
 6521SOL    HW131196   3.701   1.364  13.538  1.2465  0.2660 -0.7148
 6521SOL    HW231197   3.772   1.466  13.459 -1.0868 -0.7237 -1.1224
 6522SOL     OW31198   2.734   0.898   8.114 -0.3085 -0.3500  0.7545
 6522SOL    HW131199   2.742   0.956   8.039 -0.1033 -1.3410  0.0104
 6522SOL    HW231200   2.826   0.874   8.124 -0.4204 -1.2365 -0.3570
 6523SOL     OW31201   0.486   2.619   5.484 -0.6541  0.3871  0.1025
 6523SOL    HW131202   0.410   2.634   5.541 -1.0520  0.0227 -0.3339
 6523SOL    HW231203   0.564   2.640   5.535 -0.3057 -0.7343  0.0339
 6524SOL     OW31204   0.084   2.526   2.973 -0.2048  0.0454 -0.5348
 6524SOL    HW131205   0.079   2.545   2.880 -0.2174 -0.1394 -0.5725
 6524SOL    HW231206   0.047   2.603   3.014 -2.4151 -1.6154  0.5895
 6525SOL     OW31207   3.333   0.071  10.395  0.1157  0.3664  0.0293
 6525SOL    HW131208   3.410   0.061  10.338  0.5607  3.6133  0.0848
 6525SOL    HW231209   3.366   0.146  10.445 -1.5578  1.2389 -0.1940
 6526SOL     OW31210   0.363   2.016   3.342  0.2837  0.4842  0.1738
 6526SOL    HW131211   0.357   1.967   3.424  1.1878 -2.0381 -1.2745
 6526SOL    HW231212   0.457   2.029   3.340  0.4713 -0.8754  0.4496
 6527SOL     OW31213   1.241   2.805   6.118 -0.0415  0.2791 -0.0568
 6527SOL    HW131214   1.218   2.726   6.068  0.0524 -0.7350  1.5047
 6527SOL    HW231215   1.176   2.807   6.188  0.4812 -1.9291  0.4953
 6528SOL     OW31216   4.425   2.291   3.841 -0.1417 -0.2621 -0.6005
 6528SOL    HW131217   4.380   2.368   3.876 -1.5105 -1.6419  0.6882
 6528SOL    HW231218   4.389   2.229   3.906  1.5683 -0.2993  0.3050
 6529SOL     OW31219   4.198   1.294  13.951  0.0171 -0.2398  0.3293
 6529SOL    HW131220   4.105   1.314  13.959  0.0035  0.1932 -0.9725
 6529SOL    HW231221   4.219   1.212  13.997  0.3725 -0.8728 -0.9813
 6530SOL     OW31222   0.262   3.351  16.542  0.2341  0.2452 -0.1768
 6530SOL    HW131223   0.215   3.336  16.460 -0.4777 -1.1872  0.5091
 6530SOL    HW231224   0.231   3.280  16.598 -0.5854  0.1410 -0.7535
 6531SOL     OW31225   2.096   1.504   7.977  0.1384 -0.1074 -0.2879
 6531SOL    HW131226   2.039   1.567   8.021 -0.3452 -1.3678  0.8909
 6531SOL    HW231227   2.187   1.513   8.007 -0.1133  0.8977  0.1751
 6532SOL     OW31228   0.500   3.247   4.535 -0.4809  0.3927  0.3230
 6532SOL    HW131229   0.523   3.301   4.611 -0.7101 -1.0600  1.4266
 6532SOL    HW231230   0.416   3.284   4.508 -1.8479 -1.3430  2.1704
 6533SOL     OW31231   1.840   2.311  10.974  0.2195 -0.2181 -0.9544
 6533SOL    HW131232   1.747   2.294  10.956  0.0480 -0.5003  0.2159
 6533SOL    HW231233   1.834   2.371  11.048 -2.2335 -0.5095 -0.9244
 6534SOL     OW31234   2.072   0.036  16.914 -0.0212 -0.0529  0.4029
 6534SOL    HW131235   2.136   4.720  16.961  1.1474  1.2788  0.3745
 6534SOL    HW231236   2.113   0.122  16.912  0.4596 -0.2461  1.6606
 6535SOL     OW31237   3.415   1.995   0.502  0.2045  0.1971  0.4094
 6535SOL    HW131238   3.474   2.015   0.575  0.1050  2.4200 -0.1098
 6535SOL    HW231239   3.474   1.941   0.450  1.1329  0.3146  1.3397
 6536SOL     OW31240   1.113   1.677  17.366 -0.2879 -0.1710  0.4002
 6536SOL    HW131241   1.110   1.589  17.329  2.9083 -0.2030  0.2135
 6536SOL    HW231242   1.181   1.711  17.307 -1.1200  0.4675 -0.1777
 6537SOL     OW31243   1.157   1.059   9.565  0.2299 -0.3870 -0.1096
 6537SOL    HW131244   1.075   1.107   9.580 -0.4755 -1.5005 -0.3552
 6537SOL    HW231245   1.154   1.063   9.469 -0.4653  0.0680 -0.0766
 6538SOL     OW31246   3.881   0.757   7.119 -0.8043 -0.2317 -0.5438
 6538SOL    HW131247   3.849   0.707   7.194 -0.0215 -0.4530 -0.3608
 6538SOL    HW231248   3.837   0.838   7.145 -1.7729 -1.7231  2.4760
 6539SOL     OW31249   1.644   1.404  11.923  0.7368  0.4971  0.0018
 6539SOL    HW131250   1.646   1.392  11.828 -3.1021  0.2764 -0.0766
 6539SOL    HW231251   1.659   1.499  11.931 -1.4574  0.6695  2.4169
 6540SOL     OW31252   2.846   2.697   7.787  0.2070  0.2156 -0.1617
 6540SOL    HW131253   2.866   2.787   7.815  1.0179  0.7417 -2.4210
 6540SOL    HW231254   2.854   2.702   7.692  0.9377  2.6537  0.0063
 6541SOL     OW31255   3.598   4.739   1.761 -0.0272 -0.0876  0.5989
 6541SOL    HW131256   3.651   0.048   1.825 -3.3366  1.4615  2.1341
 6541SOL    HW231257   3.518   4.729   1.812 -0.1069  0.4812  0.5880
 6542SOL     OW31258   2.350   4.360   7.653  0.0381 -0.4616 -0.1953
 6542SOL    HW131259   2.282   4.311   7.607 -0.9283  0.7073  0.0165
 6542SOL    HW231260   2.303   4.395   7.728  2.2096 -0.2368  1.0534
 6543SOL     OW31261   0.904   0.919   5.107 -0.3699 -0.2417  0.5745
 6543SOL    HW131262   0.820   0.876   5.090 -1.0919  0.7198  1.6510
 6543SOL    HW231263   0.939   0.869   5.181  1.6499  1.3908  0.7031
 6544SOL     OW31264   4.002   0.902   6.045  0.4434 -0.2167 -0.1408
 6544SOL    HW131265   4.003   0.834   6.113 -0.2727  0.2381  0.3234
 6544SOL    HW231266   3.907   0.905   6.034  0.2917 -0.1967  1.1679
 6545SOL     OW31267   2.440   4.679   4.416 -0.4816 -0.2099  0.1982
 6545SOL    HW131268   2.402   4.632   4.342 -3.0618 -0.6473  1.8008
 6545SOL    HW231269   2.528   4.687   4.379 -0.4925  1.1509  0.4727
 6546SOL     OW31270   1.889   1.816   4.818  0.2234  0.0759  0.5673
 6546SOL    HW131271   1.968   1.808   4.764 -1.3778 -2.0736 -1.4485
 6546SOL    HW231272   1.835   1.844   4.744  0.1494 -3.7142 -0.7998
 6547SOL     OW31273   3.104   2.551   9.028 -0.1648  0.5131  0.4473
 6547SOL    HW131274   3.065   2.605   9.097  1.7196  1.2140  0.9669
 6547SOL    HW231275   3.106   2.466   9.074  2.0069 -0.1044 -0.8140
 6548SOL     OW31276   1.520   2.315   3.725  0.6139 -0.1619 -0.0902
 6548SOL    HW131277   1.518   2.410   3.713  2.1997  0.0380  1.1508
 6548SOL    HW231278   1.489   2.314   3.815  0.4103 -1.5714 -0.1732
 6549SOL     OW31279   3.030   2.814   1.688  0.0135  0.9001 -0.4198
 6549SOL    HW131280   3.066   2.727   1.704 -2.1787  0.2881  1.3202
 6549SOL    HW231281   3.109   2.868   1.694  1.7887 -1.7770  0.0227
 6550SOL     OW31282   1.836   2.798   7.257  0.3165  0.4936  0.0370
 6550SOL    HW131283   1.740   2.801   7.263  0.5585 -0.3524  3.9260
 6550SOL    HW231284   1.864   2.850   7.333  0.8460 -0.8221  0.7356
 6551SOL     OW31285   3.047   2.232  12.110 -0.3514  0.0337 -0.6581
 6551SOL    HW131286   3.113   2.203  12.047 -0.4144  0.6608 -1.0120
 6551SOL    HW231287   2.987   2.279  12.052 -2.6802 -1.3909  0.5512
 6552SOL     OW31288   1.420   3.406   0.765  0.1319 -0.3352  0.3400
 6552SOL    HW131289   1.408   3.446   0.851 -2.0366 -1.3793  0.5096
 6552SOL    HW231290   1.514   3.415   0.748 -0.0231  1.7946  0.6220
 6553SOL     OW31291   2.159   2.205   5.391  0.1651  0.0862  0.2061
 6553SOL    HW131292   2.195   2.292   5.373 -2.9042  1.2493 -0.2780
 6553SOL    HW231293   2.155   2.180   5.299 -0.0150  4.3162 -0.9624
 6554SOL     OW31294   2.976   4.119  11.026  0.0853  0.3750 -0.1453
 6554SOL    HW131295   2.970   4.130  11.121 -0.2287 -0.8473 -0.0322
 6554SOL    HW231296   2.975   4.024  11.013  1.3096  0.5041 -1.1523
 6555SOL     OW31297   0.427   1.574  12.039  0.6529  0.2093  0.0632
 6555SOL    HW131298   0.394   1.485  12.047  0.0661  0.5307  1.2404
 6555SOL    HW231299   0.345   1.623  12.036 -0.0749 -1.0358 -0.3723
 6556SOL     OW31300   1.638   3.081  16.181 -0.0672 -0.0783 -0.1649
 6556SOL    HW131301   1.723   3.037  16.186  0.3906  0.7409 -0.7583
 6556SOL    HW231302   1.592   3.017  16.126 -0.1919 -0.4042  0.3251
 6557SOL     OW31303   0.039   2.857   5.736  0.3722 -0.9163  0.3755
 6557SOL    HW131304   4.702   2.914   5.722  2.9774  2.1759 -1.1032
 6557SOL    HW231305   0.056   2.804   5.658  0.4815 -0.8573  0.3592
 6558SOL     OW31306   3.877   3.025   4.739  0.0567  0.2298 -0.4776
 6558SOL    HW131307   3.834   3.109   4.726 -0.6213  0.1725  1.4062
 6558SOL    HW231308   3.911   2.994   4.655 -2.8159 -0.9454 -1.1932
 6559SOL     OW31309   1.777   2.867   2.173  0.2917  0.3166  0.1825
 6559SOL    HW131310   1.825   2.845   2.093 -0.4374 -0.8697  0.0743
 6559SOL    HW231311   1.703   2.809   2.160 -0.9765  0.8310  5.0339
 6560SOL     OW31312   0.081   2.849  13.210  0.5011  0.1506 -0.0406
 6560SOL    HW131313   0.111   2.814  13.294  1.7097  0.2010 -0.4521
 6560SOL    HW231314   0.160   2.894  13.182  1.7865 -2.8178 -1.1583
 6561SOL     OW31315   0.210   2.253  16.926  0.7703 -0.3815 -0.0669
 6561SOL    HW131316   0.230   2.239  16.834 -0.8413 -0.3818 -0.4236
 6561SOL    HW231317   0.133   2.310  16.921  1.4688  0.4608 -0.9998
 6562SOL     OW31318   2.208   3.562   9.728  0.5244 -0.1135  0.0262
 6562SOL    HW131319   2.147   3.502   9.768  1.8320 -1.9103 -0.6641
 6562SOL    HW231320   2.284   3.510   9.700  0.9349  0.5588 -0.1181
 6563SOL     OW31321   1.069   1.912   6.767  0.3842  0.3493 -0.0949
 6563SOL    HW131322   1.161   1.892   6.751  0.5738 -0.4601  2.0786
 6563SOL    HW231323   1.048   1.832   6.815  0.5545  0.0685 -0.4820
 6564SOL     OW31324   3.470   3.218   8.041 -0.0833 -0.1235 -0.1678
 6564SOL    HW131325   3.401   3.249   8.100 -0.4385  2.4541 -1.9352
 6564SOL    HW231326   3.453   3.124   8.037 -1.1149  0.0009  1.3183
 6565SOL     OW31327   3.497   3.799   5.031  0.0624  0.7451  0.2051
 6565SOL    HW131328   3.444   3.848   4.967 -0.7685  1.1679  1.2273
 6565SOL    HW231329   3.552   3.863   5.076 -0.9269  1.4607  0.4041
 6566SOL     OW31330   2.164   3.691   9.150  0.3730 -0.3555 -0.2886
 6566SOL    HW131331   2.109   3.770   9.153  0.1356 -0.6478  2.8962
 6566SOL    HW231332   2.254   3.723   9.158  0.1108  0.6872 -1.4836
 6567SOL     OW31333   1.580   4.462   7.236 -0.0793  0.2454  0.0470
 6567SOL    HW131334   1.634   4.384   7.249  0.6202  1.1413  2.5012
 6567SOL    HW231335   1.591   4.477   7.142 -2.0831 -1.2240 -0.4154
 6568SOL     OW31336   4.370   0.324   8.483  0.1017  0.2698  0.4634
 6568SOL    HW131337   4.335   0.302   8.396  2.7451 -2.2720  0.0411
 6568SOL    HW231338   4.463   0.311   8.466  0.7126  2.8965  1.8694
 6569SOL     OW31339   1.243   2.426   2.443 -0.3431  0.0003 -0.0469
 6569SOL    HW131340   1.151   2.441   2.463 -0.4173  1.1922 -1.2695
 6569SOL    HW231341   1.237   2.386   2.356  0.2715  0.1698 -0.1685
 6570SOL     OW31342   3.455   4.602  17.121  0.0475  0.3599  0.2710
 6570SOL    HW131343   3.377   4.615  17.174  0.3972  2.6650  0.2322
 6570SOL    HW231344   3.435   4.659  17.046  2.8418  0.6218 -0.2948
 6571SOL     OW31345   2.395   1.282  14.653  0.5084  0.3252 -0.6449
 6571SOL    HW131346   2.427   1.204  14.608  1.0591  0.5260 -0.6005
 6571SOL    HW231347   2.311   1.294  14.608 -1.4790 -3.7148  1.9899
 6572SOL     OW31348   3.322   1.412  15.295  0.7319  0.3706  0.1233
 6572SOL    HW131349   3.360   1.496  15.269 -0.6872  1.0520  0.2060
 6572SOL    HW231350   3.237   1.413  15.250  0.8873 -0.1961 -0.1796
 6573SOL     OW31351   3.965   4.318   6.171 -0.3388 -0.1584  0.0484
 6573SOL    HW131352   3.922   4.372   6.237 -1.7808 -0.3709 -0.7164
 6573SOL    HW231353   4.013   4.384   6.122  0.3798 -0.1589  0.7525
 6574SOL     OW31354   1.591   0.413   6.190  0.0999 -0.4222 -0.1615
 6574SOL    HW131355   1.632   0.390   6.274 -0.2329  0.1706  0.1584
 6574SOL    HW231356   1.666   0.411   6.130 -0.2836 -0.9560 -0.6226
 6575SOL     OW31357   0.228   2.848   0.699 -0.8211  0.1080  0.0939
 6575SOL    HW131358   0.244   2.878   0.788 -1.5484 -0.6412  0.4774
 6575SOL    HW231359   0.269   2.917   0.647  1.5768 -0.9133  0.6241
 6576SOL     OW31360   0.460   4.709   3.708 -0.1672 -0.2669 -0.3726
 6576SOL    HW131361   0.472   4.680   3.798  1.3773 -0.4078 -0.6263
 6576SOL    HW231362   0.369   4.692   3.684 -0.7953 -0.2229  1.9933
 6577SOL     OW31363   0.322   1.695   6.745 -0.1705  0.5388  0.2750
 6577SOL    HW131364   0.257   1.651   6.800 -1.9258  1.4858 -1.0336
 6577SOL    HW231365   0.275   1.673   6.664 -0.6098  0.6741  0.4918
 6578SOL     OW31366   0.597   3.475   1.807  0.8505 -0.3622  0.0759
 6578SOL    HW131367   0.575   3.389   1.844  1.0651 -0.1553  0.6749
 6578SOL    HW231368   0.666   3.440   1.751  2.1126  1.2819  0.6075
 6579SOL     OW31369   3.424   3.709  16.200 -0.6262  0.1609  1.1294
 6579SOL    HW131370   3.364   3.710  16.126 -1.5468 -1.0612  1.8557
 6579SOL    HW231371   3.425   3.617  16.228 -0.0886  0.4750  2.1497
 6580SOL     OW31372   3.530   4.349   3.820 -0.3471  0.7536  0.1418
 6580SOL    HW131373   3.586   4.276   3.795 -0.5440  0.3630  0.8298
 6580SOL    HW231374   3.543   4.349   3.915 -2.0805  1.2417  0.3834
 6581SOL     OW31375   3.541   4.651   8.517  0.3546  0.3460  0.2123
 6581SOL    HW131376   3.595   4.721   8.482 -0.6907  0.7798 -0.5259
 6581SOL    HW231377   3.561   4.581   8.455 -0.5013 -0.0106  0.3273
 6582SOL     OW31378   3.421   1.166  16.688 -0.5258  0.3371 -0.1592
 6582SOL    HW131379   3.428   1.092  16.628 -1.5881  0.7577 -0.8155
 6582SOL    HW231380   3.472   1.227  16.636 -0.9300  0.2000 -0.7217
 6583SOL     OW31381   2.213   1.985  16.485  0.6695  0.3208 -0.4815
 6583SOL    HW131382   2.216   2.030  16.401  2.0638  1.3545  0.1311
 6583SOL    HW231383   2.297   1.942  16.496  0.7460  1.3796  3.3335
 6584SOL     OW31384   0.735   3.702   9.655  0.2529  0.5530  0.3812
 6584SOL    HW131385   0.761   3.709   9.563  1.8088  0.0153  0.7875
 6584SOL    HW231386   0.801   3.749   9.706 -0.4101  0.6038  1.1908
 6585SOL     OW31387   2.716   2.363   6.910 -0.3137  0.1240  0.0326
 6585SOL    HW131388   2.641   2.372   6.850 -0.5126  1.1059  0.4214
 6585SOL    HW231389   2.772   2.437   6.886  1.4316 -1.3299 -0.3458
 6586SOL     OW31390   2.592   4.617   9.106  0.1606 -0.3331 -0.1691
 6586SOL    HW131391   2.498   4.635   9.112  0.4409  1.4810 -1.2416
 6586SOL    HW231392   2.595   4.547   9.041 -2.1780 -0.3695 -0.2450
 6587SOL     OW31393   3.118   0.134   4.217  0.1184 -0.1083 -0.5768
 6587SOL    HW131394   3.128   0.089   4.301  2.7989  2.7109  0.6265
 6587SOL    HW231395   3.200   0.099   4.183  0.4945 -0.3246  0.5565
 6588SOL     OW31396   0.821   2.037   3.811  0.0767  0.2448 -0.4077
 6588SOL    HW131397   0.822   1.955   3.761 -0.3627 -0.8460  1.3883
 6588SOL    HW231398   0.859   2.019   3.897  0.2765 -0.8987 -0.7285
 6589SOL     OW31399   1.099   3.532   4.615 -0.1199 -0.2155  0.2577
 6589SOL    HW131400   1.177   3.477   4.619 -0.1015 -0.3467 -2.1615
 6589SOL    HW231401   1.139   3.613   4.585 -0.4526 -0.0643  0.2202
 6590SOL     OW31402   4.723   1.169  10.461 -0.2716  0.7781 -0.0049
 6590SOL    HW131403   4.652   1.201  10.405  2.1289 -1.3934 -4.2610
 6590SOL    HW231404   0.050   1.165  10.392 -1.5126 -0.0194 -1.1538
 6591SOL     OW31405   3.115   4.687   2.555  0.2447 -0.3032 -0.5398
 6591SOL    HW131406   3.198   4.640   2.556  0.3864 -0.0520 -0.6049
 6591SOL    HW231407   3.075   4.654   2.474 -0.4372 -2.6708  0.7551
 6592SOL     OW31408   1.802   0.230   7.548  0.1425 -0.0797  0.8117
 6592SOL    HW131409   1.762   0.147   7.520  1.2383 -0.7896  1.3604
 6592SOL    HW231410   1.742   0.267   7.613  2.2633  0.3575  2.4961
 6593SOL     OW31411   1.939   3.454   0.863 -0.1680 -0.5853  0.3357
 6593SOL    HW131412   1.993   3.413   0.795  0.5054 -2.2370  1.8698
 6593SOL    HW231413   1.996   3.505   0.920 -0.0421 -0.9779  0.5626
 6594SOL     OW31414   2.204   1.526   8.247  0.0956 -0.3301  0.2888
 6594SOL    HW131415   2.184   1.438   8.278  0.6022 -0.6418 -0.2895
 6594SOL    HW231416   2.170   1.575   8.322 -0.9079  0.4736 -0.6802
 6595SOL     OW31417   1.582   0.068   3.206  0.3972 -0.5429 -0.1927
 6595SOL    HW131418   1.597   0.129   3.278 -2.1931  1.8176 -1.6434
 6595SOL    HW231419   1.608   0.122   3.131 -2.8355 -0.4248 -1.2415
 6596SOL     OW31420   3.198   0.574   4.647 -0.2840 -0.1085 -0.0820
 6596SOL    HW131421   3.208   0.499   4.589 -0.2608  1.2742 -1.8762
 6596SOL    HW231422   3.155   0.643   4.596  0.2214 -0.6426 -1.2207
 6597SOL     OW31423   3.131   2.348   7.887  1.1081 -0.0856 -0.1803
 6597SOL    HW131424   3.131   2.443   7.892 -2.0503 -0.1353  0.9646
 6597SOL    HW231425   3.127   2.332   7.792 -1.6683 -1.6391  0.1958
 6598SOL     OW31426   4.374   0.177   3.102 -0.4674  0.3899  0.4614
 6598SOL    HW131427   4.428   0.214   3.032  0.9953  0.5982  1.6949
 6598SOL    HW231428   4.440   0.126   3.149  1.6645  2.0412 -0.7107
 6599SOL     OW31429   4.691   2.314   3.158  0.0476  0.0859  0.1542
 6599SOL    HW131430   4.696   2.221   3.180 -0.1257 -0.2532 -1.2089
 6599SOL    HW231431   4.665   2.309   3.066 -1.4225  0.8169  0.5259
 6600SOL     OW31432   2.254   0.660   6.512 -0.2160 -0.0101  0.4812
 6600SOL    HW131433   2.207   0.732   6.470  1.1985 -0.5482 -2.0573
 6600SOL    HW231434   2.212   0.583   6.473 -0.4968 -0.1866  1.1222
 6601SOL     OW31435   1.422   1.682   5.681  0.5515  0.1233  0.1289
 6601SOL    HW131436   1.507   1.726   5.674 -0.6466  1.7410 -4.0172
 6601SOL    HW231437   1.413   1.690   5.776 -0.9647  2.4902 -0.2227
 6602SOL     OW31438   0.492   4.365   8.182 -0.4293 -0.1954 -0.0542
 6602SOL    HW131439   0.559   4.419   8.224 -2.0045  1.4843  0.3249
 6602SOL    HW231440   0.530   4.280   8.203 -2.2867 -0.8076  0.8541
 6603SOL     OW31441   2.294   4.407   0.736  0.1248  0.1448  0.1715
 6603SOL    HW131442   2.354   4.375   0.669  0.4310  2.2087 -0.5501
 6603SOL    HW231443   2.296   4.502   0.725  1.1424 -0.0174 -1.1117
 6604SOL     OW31444   3.765   0.104   5.346 -0.0831  0.3585  0.5072
 6604SOL    HW131445   3.779   0.183   5.293 -0.3240  1.4186  1.9908
 6604SOL    HW231446   3.688   0.137   5.393 -0.3521 -0.8869  0.9306
 6605SOL     OW31447   2.624   0.952   3.419  0.0496  0.3685  0.4374
 6605SOL    HW131448   2.618   1.024   3.483  1.4000 -0.7219  1.8011
 6605SOL    HW231449   2.636   0.880   3.480  0.4607  0.4419  0.4423
 6606SOL     OW31450   3.289   1.897   2.761  0.8003 -0.1324  0.6952
 6606SOL    HW131451   3.262   1.942   2.681  3.4962  0.4767  0.1248
 6606SOL    HW231452   3.378   1.867   2.740  0.0414 -0.6217 -1.8445
 6607SOL     OW31453   2.206   1.784   5.937  0.1490 -0.3271 -0.0040
 6607SOL    HW131454   2.197   1.817   6.026  0.0987  3.0134 -1.2477
 6607SOL    HW231455   2.300   1.768   5.934 -0.1544 -2.1257  0.3172
 6608SOL     OW31456   3.982   1.404   2.227  0.4849  0.3807  0.1576
 6608SOL    HW131457   3.893   1.432   2.249  0.5422 -0.2810  1.2485
 6608SOL    HW231458   4.023   1.488   2.207  0.3719  0.4073  0.0319
 6609SOL     OW31459   3.499   0.814   5.939  0.0985 -0.3208 -0.3776
 6609SOL    HW131460   3.441   0.738   5.938 -0.3669  0.0680 -2.0436
 6609SOL    HW231461   3.453   0.875   5.996 -1.4172 -1.9383  0.1109
 6610SOL     OW31462   0.135   3.482   4.257  0.3896  0.0600  0.2620
 6610SOL    HW131463   0.125   3.577   4.244  0.9044  0.0744 -0.0283
 6610SOL    HW231464   0.050   3.476   4.301 -0.1609  2.5294 -0.4625
 6611SOL     OW31465   3.190   4.604   6.130  0.0261  0.5331  0.2494
 6611SOL    HW131466   3.095   4.615   6.137  0.0005  1.3305 -1.2253
 6611SOL    HW231467   3.211   4.561   6.212 -2.5602 -0.2245  0.5077
 6612SOL     OW31468   2.093   3.930   3.679  0.7284  0.1085 -1.1220
 6612SOL    HW131469   2.072   4.020   3.656 -0.3754  0.3758  0.9314
 6612SOL    HW231470   2.019   3.905   3.734  1.0696 -0.1217 -0.7675
 6613SOL     OW31471   0.664   2.422   6.530  0.1031 -0.1703 -0.4331
 6613SOL    HW131472   0.581   2.400   6.487 -0.3124  0.5092  0.0077
 6613SOL    HW231473   0.673   2.343   6.582 -3.1370 -1.9065 -2.5317
 6614SOL     OW31474   1.923   2.267   9.662 -0.0611  0.2391  0.4986
 6614SOL    HW131475   1.937   2.251   9.755  1.2613 -1.0270  0.0749
 6614SOL    HW231476   1.962   2.196   9.612  0.7358  1.5794 -0.7772
 6615SOL     OW31477   3.207   2.729   6.891  0.2196 -0.3497  0.4004
 6615SOL    HW131478   3.280   2.788   6.877  1.0592 -1.4265  0.2082
 6615SOL    HW231479   3.130   2.784   6.876  0.7369  0.4277  0.6046
 6616SOL     OW31480   0.697   1.710   9.337 -0.5910  0.2983  0.5215
 6616SOL    HW131481   0.791   1.719   9.319  0.0305  0.5165  3.7631
 6616SOL    HW231482   0.708   1.670   9.424 -0.9290 -0.2704  0.3060
 6617SOL     OW31483   1.125   4.006   9.200  0.0875  0.6051 -0.0897
 6617SOL    HW131484   1.184   4.043   9.134  0.1233  0.8633  0.0871
 6617SOL    HW231485   1.164   3.920   9.216 -0.3615  0.3964 -0.1189
 6618SOL     OW31486   2.795   4.243   7.239 -0.7260 -0.4438 -0.0834
 6618SOL    HW131487   2.822   4.163   7.283  0.1113  0.0900  0.3787
 6618SOL    HW231488   2.790   4.226   7.145  0.1506  0.0066 -0.2147
 6619SOL     OW31489   4.637   0.510   4.237 -0.2313  0.2971 -0.9819
 6619SOL    HW131490   4.675   0.426   4.213 -1.0136 -0.5774  0.8079
 6619SOL    HW231491   4.590   0.532   4.156 -0.2893  0.5360 -0.8854
 6620SOL     OW31492   4.344   3.497   4.670 -0.1609  0.3338 -0.8027
 6620SOL    HW131493   4.271   3.491   4.732 -0.7201  0.4960 -1.4456
 6620SOL    HW231494   4.377   3.585   4.687 -2.1341  1.2939 -1.9588
 6621SOL     OW31495   0.003   1.050  17.158 -0.0597 -0.5352 -0.5060
 6621SOL    HW131496   0.028   0.962  17.130 -1.6939 -1.0124 -0.5043
 6621SOL    HW231497   4.670   1.072  17.098  0.5610  0.5741 -0.8487
 6622SOL     OW31498   2.797   2.146   2.282  0.3506  0.3629 -0.1626
 6622SOL    HW131499   2.833   2.058   2.286 -0.3773  0.0655 -0.2277
 6622SOL    HW231500   2.793   2.161   2.188  3.5957  0.4694 -0.2747
 6623SOL     OW31501   3.876   2.608   1.890  0.0132 -0.0626  0.8730
 6623SOL    HW131502   3.958   2.587   1.935  0.2092  0.7220  0.8896
 6623SOL    HW231503   3.898   2.574   1.804 -4.8448  0.1846 -0.4540
 6624SOL     OW31504   2.840   0.550   6.748 -0.0161  0.0022  0.2995
 6624SOL    HW131505   2.811   0.558   6.839  2.1662  0.6492  0.9152
 6624SOL    HW231506   2.913   0.611   6.745  1.3295 -1.4939  2.6296
 6625SOL     OW31507   4.721   1.768   0.377 -0.0696  0.1971  0.2217
 6625SOL    HW131508   4.703   1.675   0.388  1.9678 -0.1599  0.5874
 6625SOL    HW231509   0.054   1.775   0.440 -0.1519 -4.5149  0.8049
 6626SOL     OW31510   2.315   2.080   7.398 -0.7074  0.0375  0.3830
 6626SOL    HW131511   2.279   2.022   7.331 -2.2597  2.0414 -0.5140
 6626SOL    HW231512   2.322   2.019   7.471 -0.3551  2.0343  2.0169
 6627SOL     OW31513   0.296   0.733   3.826  0.2225 -0.8268 -0.1640
 6627SOL    HW131514   0.214   0.763   3.866  0.7974  1.1592 -0.5096
 6627SOL    HW231515   0.269   0.743   3.735 -0.7534  3.2714  0.5936
 6628SOL     OW31516   4.205   2.298   8.933  0.3566  0.2393 -0.2407
 6628SOL    HW131517   4.294   2.303   8.966  0.0894  1.0280  0.3663
 6628SOL    HW231518   4.215   2.238   8.859  0.0296 -1.6827  1.2813
 6629SOL     OW31519   2.925   0.854   9.016 -0.1822  0.0705 -0.1154
 6629SOL    HW131520   2.848   0.822   8.967  0.8941 -0.6007 -1.3916
 6629SOL    HW231521   2.889   0.892   9.095  2.0210  2.1319 -0.1158
 6630SOL     OW31522   0.348   0.027  14.060 -0.3234  0.8247  0.3397
 6630SOL    HW131523   0.297   0.037  14.140 -0.5242 -1.3246  0.4947
 6630SOL    HW231524   0.440   0.042  14.081 -0.1391  0.1585  0.0098
 6631SOL     OW31525   2.879   2.203  17.653  0.0469  0.3568 -0.6298
 6631SOL    HW131526   2.859   2.224  17.745 -1.4454 -0.2278 -0.8226
 6631SOL    HW231527   2.948   2.265  17.630 -1.5064  1.9010 -1.0815
 6632SOL     OW31528   2.194   3.939   8.450  0.2009 -0.3085 -0.3542
 6632SOL    HW131529   2.187   4.013   8.510  2.7510 -0.0912 -0.3301
 6632SOL    HW231530   2.112   3.891   8.455  0.0186  0.2035  1.6142
 6633SOL     OW31531   0.614   0.338   2.754  0.0922  0.3881  0.5335
 6633SOL    HW131532   0.649   0.330   2.665 -0.3759 -1.9370  0.5528
 6633SOL    HW231533   0.577   0.251   2.772 -0.4901  0.1199 -1.9194
 6634SOL     OW31534   3.783   3.858   4.468 -0.2207 -0.1452 -0.4322
 6634SOL    HW131535   3.756   3.766   4.476  1.2551 -0.5866 -0.6558
 6634SOL    HW231536   3.869   3.862   4.508 -0.2306 -0.6744 -0.3580
 6635SOL     OW31537   2.364   2.709   3.774  0.2754 -0.2391 -0.6624
 6635SOL    HW131538   2.433   2.771   3.751  0.6519 -0.7843 -1.0136
 6635SOL    HW231539   2.362   2.674   3.685  1.9374 -0.3236 -0.6708
 6636SOL     OW31540   1.900   4.634   8.932  0.2315  0.1758 -0.1774
 6636SOL    HW131541   1.914   4.625   9.026 -2.7630  2.1378  0.4371
 6636SOL    HW231542   1.952   4.712   8.912 -1.5039  0.6254 -2.8890
 6637SOL     OW31543   3.394   3.901   3.981  0.0078  0.2803  0.3396
 6637SOL    HW131544   3.479   3.945   3.993 -0.1419  0.3405  1.1652
 6637SOL    HW231545   3.335   3.971   4.010 -1.6779 -0.7128 -0.7005
 6638SOL     OW31546   0.070   2.068   2.913  0.1490  0.1526  0.3570
 6638SOL    HW131547   0.020   2.035   2.988 -1.2044  0.7315 -0.2866
 6638SOL    HW231548   0.004   2.126   2.876 -0.1627 -0.2089  0.3508
 6639SOL     OW31549   3.310   4.329   9.672  0.2266 -0.5416  0.3207
 6639SOL    HW131550   3.336   4.263   9.736 -1.2707 -1.4889 -0.0405
 6639SOL    HW231551   3.218   4.347   9.690  0.7506  0.8737  1.5740
 6640SOL     OW31552   1.749   1.603  17.753 -0.1087 -0.1746  0.1625
 6640SOL    HW131553   1.739   1.561  17.667  0.4870  0.7920 -0.3804
 6640SOL    HW231554   1.787   1.688  17.730  1.4188 -0.5968  1.0802
 6641SOL     OW31555   1.591   3.814  10.508  0.4310 -0.4345  0.2164
 6641SOL    HW131556   1.667   3.779  10.461  1.3984  0.7987  0.8655
 6641SOL    HW231557   1.556   3.882  10.450 -0.4055 -1.8134 -0.9194
 6642SOL     OW31558   2.950   0.465   3.879  0.1917 -0.2151  0.1512
 6642SOL    HW131559   2.924   0.401   3.945  1.2026 -0.0403  0.7254
 6642SOL    HW231560   2.970   0.419   3.798 -1.6762  0.7923 -0.8789
 6643SOL     OW31561   0.520   1.200   9.970  0.4180 -0.1998 -0.3798
 6643SOL    HW131562   0.545   1.197  10.063 -1.0764 -0.6961  0.0085
 6643SOL    HW231563   0.470   1.281   9.968  0.4350 -0.1572  0.6522
 6644SOL     OW31564   0.788   1.047   1.738  0.2929  0.1227  0.1147
 6644SOL    HW131565   0.698   1.033   1.767 -0.2317 -0.7278 -1.8620
 6644SOL    HW231566   0.814   0.956   1.749  0.4291  0.5227  2.9708
 6645SOL     OW31567   0.838   3.967   8.703  0.4281 -0.2446 -0.1995
 6645SOL    HW131568   0.785   4.031   8.750 -1.1226 -0.5961 -1.4835
 6645SOL    HW231569   0.924   3.971   8.745 -0.1005 -0.2307  0.8857
 6646SOL     OW31570   2.556   2.672   1.828  0.3037  0.3842  0.0422
 6646SOL    HW131571   2.589   2.679   1.917 -1.0752 -1.2749  0.6758
 6646SOL    HW231572   2.506   2.752   1.817 -0.4311 -0.1306 -0.3495
 6647SOL     OW31573   4.153   2.838  10.188 -0.2577 -0.1931  0.0415
 6647SOL    HW131574   4.224   2.835  10.252  0.8084  0.2093 -1.1055
 6647SOL    HW231575   4.107   2.755  10.198  0.1625  0.0268  3.6886
 6648SOL     OW31576   1.096   0.484   5.463  0.0531 -0.2494  0.1992
 6648SOL    HW131577   1.150   0.420   5.418 -0.0061  0.4734 -0.9052
 6648SOL    HW231578   1.019   0.434   5.489 -0.3583 -0.2089 -0.9631
 6649SOL     OW31579   3.420   0.715   8.660  0.4463 -0.3102 -0.6018
 6649SOL    HW131580   3.401   0.645   8.598  0.6015 -1.3720  0.5533
 6649SOL    HW231581   3.382   0.786   8.607 -0.4533  0.5454  1.1765
 6650SOL     OW31582   3.428   3.126   4.764  0.2773 -1.0410 -0.6781
 6650SOL    HW131583   3.512   3.122   4.810 -0.3946  1.2100  0.7688
 6650SOL    HW231584   3.458   3.143   4.675 -0.6785 -0.9890 -0.9890
 6651SOL     OW31585   2.259   1.691   5.515 -0.2091 -0.6527  0.3509
 6651SOL    HW131586   2.190   1.705   5.580  0.1350  2.0079  0.1557
 6651SOL    HW231587   2.341   1.712   5.560 -1.0279  0.2739  1.4183
 6652SOL     OW31588   2.728   3.464   5.002  0.1263 -0.4076 -0.0933
 6652SOL    HW131589   2.775   3.470   5.085 -0.2446  1.7630 -0.0317
 6652SOL    HW231590   2.768   3.384   4.969  1.7379  1.2366 -2.0990
 6653SOL     OW31591   2.829   4.366   4.273 -0.5461  0.3331 -0.2419
 6653SOL    HW131592   2.788   4.390   4.189 -0.3204  2.7175  0.3320
 6653SOL    HW231593   2.766   4.298   4.296  0.4827 -0.3694  0.4776
 6654SOL     OW31594   3.531   3.345   4.045  0.7687  0.3250 -0.1800
 6654SOL    HW131595   3.589   3.286   3.997 -0.3758 -0.3480 -0.7282
 6654SOL    HW231596   3.558   3.427   4.002  0.2878 -1.0975 -3.1705
 6655SOL     OW31597   4.088   2.665   5.708  0.4802  0.1627  0.0189
 6655SOL    HW131598   4.181   2.651   5.688  1.1400  1.5716  2.1121
 6655SOL    HW231599   4.074   2.755   5.679 -0.1255  0.0081 -0.1642
 6656SOL     OW31600   3.324   3.963  11.117  0.3271  0.1113  0.2559
 6656SOL    HW131601   3.418   3.966  11.134 -0.1822  1.9606  2.6839
 6656SOL    HW231602   3.303   3.882  11.165 -1.2000  0.8691  0.8423
 6657SOL     OW31603   4.075   2.857   9.948 -0.2600  0.0746  0.6428
 6657SOL    HW131604   4.117   2.875  10.032  0.0857 -0.9646  0.6914
 6657SOL    HW231605   4.005   2.797   9.977 -0.7859  0.7143  0.6950
 6658SOL     OW31606   3.738   2.588   7.336  0.4073  0.4347  0.1443
 6658SOL    HW131607   3.655   2.569   7.292  0.4245  1.2155 -0.2256
 6658SOL    HW231608   3.712   2.643   7.409  1.4129  2.0687 -0.7372
 6659SOL     OW31609   0.507   1.120   9.642  0.3656 -0.4847 -0.3046
 6659SOL    HW131610   0.507   1.172   9.723 -1.6829 -1.1070  0.1033
 6659SOL    HW231611   0.555   1.189   9.596  0.4024 -1.8878 -2.3329
 6660SOL     OW31612   2.565   3.746   8.815  0.1274 -0.3771 -0.2109
 6660SOL    HW131613   2.524   3.692   8.747 -0.6144  0.7322 -0.6435
 6660SOL    HW231614   2.495   3.771   8.874 -0.8488 -1.9470 -0.7005
 6661SOL     OW31615   1.177   0.638  17.104 -0.3573 -0.4648  0.6563
 6661SOL    HW131616   1.217   0.652  17.018  0.7889 -1.4374  1.0409
 6661SOL    HW231617   1.204   0.719  17.147  0.7825 -0.6766  0.3303
 6662SOL     OW31618   3.275   1.294   3.129 -0.5028 -0.7750 -0.5504
 6662SOL    HW131619   3.256   1.335   3.213 -1.6129 -0.3098 -1.0333
 6662SOL    HW231620   3.205   1.231   3.116  0.8863 -2.0657 -1.8440
 6663SOL     OW31621   1.953   0.370   5.688  0.2203  0.2203 -0.1072
 6663SOL    HW131622   1.934   0.439   5.751  0.5295  0.3463 -0.1490
 6663SOL    HW231623   2.033   0.402   5.646  1.1297 -3.3173 -1.0670
 6664SOL     OW31624   0.733   2.524   3.647  0.1668 -0.0437 -0.4193
 6664SOL    HW131625   0.704   2.478   3.569  1.0119 -0.1192 -0.6902
 6664SOL    HW231626   0.796   2.461   3.682 -0.0139 -0.5957 -1.1022
 6665SOL     OW31627   1.746   1.665  11.897  0.0336 -0.4768  0.2206
 6665SOL    HW131628   1.749   1.706  11.811 -0.2779 -2.4725 -0.7489
 6665SOL    HW231629   1.793   1.724  11.956 -0.7818 -0.8085  1.2080
 6666SOL     OW31630   1.120   3.094  16.733 -0.2946  0.2205 -0.2507
 6666SOL    HW131631   1.035   3.055  16.711 -0.7462  1.3292 -0.4530
 6666SOL    HW231632   1.136   3.130  16.646  1.9799 -0.8725 -0.2841
 6667SOL     OW31633   3.386   4.514  13.946 -0.1400 -0.4536 -0.0614
 6667SOL    HW131634   3.305   4.547  13.984 -0.2183 -0.8590  0.1231
 6667SOL    HW231635   3.389   4.569  13.868 -2.0746 -1.2238 -0.6716
 6668SOL     OW31636   0.669   4.623   4.586 -0.0501 -0.1499  0.2393
 6668SOL    HW131637   0.763   4.623   4.567  0.1800  0.2911  1.3782
 6668SOL    HW231638   0.636   4.563   4.518  1.3513 -1.4549  0.6990
 6669SOL     OW31639   0.289   1.965   7.419  0.3276 -0.6045  0.5943
 6669SOL    HW131640   0.336   1.889   7.452 -0.2397 -0.2062  2.3069
 6669SOL    HW231641   0.208   1.928   7.384 -1.7048  2.9506  1.5033
 6670SOL     OW31642   3.444   1.195   7.410  0.0384 -0.0184  0.0444
 6670SOL    HW131643   3.512   1.257   7.384 -0.0577 -0.5509 -1.5152
 6670SOL    HW231644   3.365   1.249   7.419  0.5859  0.6534  0.7695
 6671SOL     OW31645   2.514   1.819   7.100  0.2865 -0.5434 -0.4790
 6671SOL    HW131646   2.512   1.736   7.148 -2.8210 -0.2386 -0.0911
 6671SOL    HW231647   2.495   1.887   7.165  0.2141 -1.5590  0.5718
 6672SOL     OW31648   2.586   1.154   8.771 -0.3263 -0.2690  0.3782
 6672SOL    HW131649   2.647   1.092   8.812 -0.3894 -1.4472 -1.3215
 6672SOL    HW231650   2.524   1.151   8.844 -0.0424  0.4404  0.6481
 6673SOL     OW31651   2.553   2.658   2.709  0.4449  0.2094 -0.0894
 6673SOL    HW131652   2.609   2.582   2.692 -0.4272 -0.4791  0.1204
 6673SOL    HW231653   2.544   2.688   2.618 -1.4488  1.8827  0.6324
 6674SOL     OW31654   2.777   4.297   5.714 -0.2827  0.5163 -0.1165
 6674SOL    HW131655   2.845   4.363   5.725  0.6906 -0.3753 -0.7932
 6674SOL    HW231656   2.739   4.322   5.630 -0.4841  1.8810  0.3959
 6675SOL     OW31657   0.848   3.920  11.849 -0.5440  0.2793  0.4749
 6675SOL    HW131658   0.865   4.009  11.880  1.6275 -1.1628  3.4226
 6675SOL    HW231659   0.923   3.896  11.795 -0.3533  1.5081  0.1772
 6676SOL     OW31660   1.817   3.635   1.515  0.7472  0.9830 -0.0181
 6676SOL    HW131661   1.775   3.549   1.515  2.5350  0.1113  0.0474
 6676SOL    HW231662   1.865   3.636   1.598 -0.2825 -2.0701  0.6059
 6677SOL     OW31663   2.678   1.022   1.661  0.0503 -0.6497  0.9555
 6677SOL    HW131664   2.639   1.096   1.615 -0.6073 -1.6422 -0.0851
 6677SOL    HW231665   2.738   1.071   1.717  0.9452 -2.0575  1.2178
 6678SOL     OW31666   3.293   4.656  13.711  0.2703 -0.2113  0.0016
 6678SOL    HW131667   3.232   4.583  13.698 -0.6034  0.6562 -0.8050
 6678SOL    HW231668   3.351   4.649  13.636  2.8238  0.1575  1.9693
 6679SOL     OW31669   4.194   3.269  15.081 -0.2453 -0.5968 -0.1900
 6679SOL    HW131670   4.271   3.257  15.137  0.8018 -0.6437 -1.6274
 6679SOL    HW231671   4.157   3.180  15.079 -0.5213 -0.4997  0.6859
 6680SOL     OW31672   2.987   1.467   4.127 -0.2442  0.0552  0.7968
 6680SOL    HW131673   2.899   1.428   4.126 -0.0373 -0.3638 -0.4891
 6680SOL    HW231674   2.971   1.561   4.127  1.6503  0.3818 -0.4660
 6681SOL     OW31675   1.091   1.735   3.607 -0.1541  0.3549 -0.7055
 6681SOL    HW131676   1.050   1.820   3.587 -1.1682 -0.1071 -0.5983
 6681SOL    HW231677   1.102   1.703   3.518 -0.9082 -2.4851  0.2192
 6682SOL     OW31678   3.482   3.273  16.759  0.0843  0.2581 -0.0635
 6682SOL    HW131679   3.523   3.360  16.751  0.6485 -0.0932 -1.0015
 6682SOL    HW231680   3.524   3.224  16.688  0.9117 -0.4737  0.9358
 6683SOL     OW31681   2.345   0.399  16.931 -0.1559  0.1418  0.2546
 6683SOL    HW131682   2.341   0.413  17.025 -0.7243 -1.2917  0.4317
 6683SOL    HW231683   2.260   0.360  16.914 -0.6422  0.8815  1.0013
 6684SOL     OW31684   2.870   4.008   1.056 -0.0943  0.0230  0.2777
 6684SOL    HW131685   2.910   3.924   1.034  0.6836 -0.4060  3.4648
 6684SOL    HW231686   2.924   4.042   1.127  0.4151 -2.2379  0.9662
 6685SOL     OW31687   0.122   1.542   4.488  0.6931  0.4322  0.3070
 6685SOL    HW131688   0.090   1.452   4.480 -0.1325  0.7382  0.1930
 6685SOL    HW231689   0.175   1.543   4.567  3.0486  0.3150 -1.2798
 6686SOL     OW31690   3.429   3.374   0.169  0.5245  0.1281  0.5338
 6686SOL    HW131691   3.502   3.397   0.112  0.4065 -0.5340  0.1175
 6686SOL    HW231692   3.366   3.349   0.101  0.6648 -1.4351  0.9722
 6687SOL     OW31693   3.604   3.653   3.697  0.0484  0.2745 -0.2699
 6687SOL    HW131694   3.560   3.638   3.780  1.5981  0.5793  0.6045
 6687SOL    HW231695   3.693   3.627   3.720  0.5159  1.7085 -0.3951
 6688SOL     OW31696   3.068   4.411   9.778 -0.1387 -0.2936 -0.2622
 6688SOL    HW131697   3.020   4.494   9.772  0.3147  0.1247  1.8681
 6688SOL    HW231698   3.004   4.356   9.732 -0.8089  0.9769 -0.8356
 6689SOL     OW31699   3.265   1.414   6.460  0.4441  0.0363  0.1278
 6689SOL    HW131700   3.283   1.378   6.546 -1.3168  0.4051  0.6579
 6689SOL    HW231701   3.347   1.387   6.419 -1.1468 -1.4804 -2.0437
 6690SOL     OW31702   3.852   2.226   9.479  0.3712 -0.5618 -0.3751
 6690SOL    HW131703   3.886   2.308   9.514  0.5079 -0.4198 -0.8361
 6690SOL    HW231704   3.809   2.180   9.552 -0.7646 -0.1098 -0.7628
 6691SOL     OW31705   3.532   0.176   0.059 -0.4008  0.0971 -0.4057
 6691SOL    HW131706   3.562   0.085   0.049 -1.4005 -0.2806  0.0814
 6691SOL    HW231707   3.563   0.205  17.727 -2.2782  0.7620 -0.8492
 6692SOL     OW31708   0.850   0.487   7.006  0.0533  0.1520 -0.2470
 6692SOL    HW131709   0.782   0.420   7.002 -0.5684  0.7106  1.0464
 6692SOL    HW231710   0.804   0.548   7.063  0.9475 -2.0182  2.8241
 6693SOL     OW31711   2.820   2.063   9.118  0.1034 -0.6662 -0.3494
 6693SOL    HW131712   2.907   2.024   9.110  0.1956 -0.2745 -1.2731
 6693SOL    HW231713   2.771   2.023   9.046  2.2675 -1.7498 -1.2284
 6694SOL     OW31714   2.663   0.343  13.533  0.1113  0.2521  0.9379
 6694SOL    HW131715   2.650   0.250  13.513  1.5795 -0.0630  1.4945
 6694SOL    HW231716   2.600   0.381  13.471 -0.8254 -3.3049 -0.2990
 6695SOL     OW31717   0.994   4.121  15.921 -0.6348  0.1985 -0.0768
 6695SOL    HW131718   1.037   4.042  15.955  0.0950  0.1788 -1.0391
 6695SOL    HW231719   0.942   4.149  15.997  0.1208 -0.5240  0.7163
 6696SOL     OW31720   4.004   4.720   1.719 -0.0607 -0.2581 -0.0781
 6696SOL    HW131721   4.049   0.037   1.656  0.4659  0.2416  0.7430
 6696SOL    HW231722   4.070   4.723   1.789 -1.0539 -1.3470  0.9228
 6697SOL     OW31723   1.428   1.666   5.978 -0.3573 -0.0715  0.5673
 6697SOL    HW131724   1.356   1.613   6.014 -0.9196 -0.1710 -0.7092
 6697SOL    HW231725   1.457   1.720   6.052 -0.6125  1.1339 -0.2131
 6698SOL     OW31726   1.597   2.986   2.961  0.8708 -0.1976 -0.3043
 6698SOL    HW131727   1.503   2.987   2.980  1.0309  3.1732  0.2986
 6698SOL    HW231728   1.615   2.892   2.961  0.1346 -0.3415 -0.7748
 6699SOL     OW31729   4.687   0.108  11.242 -0.1785  0.0815 -1.0104
 6699SOL    HW131730   4.605   0.110  11.192 -1.1436  0.5101  0.5697
 6699SOL    HW231731   4.669   0.053  11.319  1.8475 -2.6035 -2.4866
 6700SOL     OW31732   4.128   3.705  17.570 -0.4849  0.0429 -0.1673
 6700SOL    HW131733   4.100   3.624  17.528  1.5029 -1.0235  0.5326
 6700SOL    HW231734   4.224   3.705  17.572 -0.5054  2.1329  1.1824
 6701SOL     OW31735   1.287   4.194   7.033  0.1478 -0.1670  0.4479
 6701SOL    HW131736   1.255   4.238   7.111  0.5963  1.2599 -0.1757
 6701SOL    HW231737   1.294   4.107   7.072 -0.2187  0.0427  0.9815
 6702SOL     OW31738   0.422   2.848  10.514  0.0859 -0.2622  0.2239
 6702SOL    HW131739   0.403   2.845  10.420  0.2328  0.9868  0.1608
 6702SOL    HW231740   0.416   2.944  10.517  3.0508 -0.2153  3.4887
 6703SOL     OW31741   3.127   2.485  13.679  0.5897 -0.0447  0.2956
 6703SOL    HW131742   3.043   2.483  13.633  0.2009  1.8027  0.9280
 6703SOL    HW231743   3.107   2.413  13.739 -0.2401  0.1056  0.1910
 6704SOL     OW31744   1.132   0.413   2.412 -0.0094  0.7285  0.2150
 6704SOL    HW131745   1.124   0.319   2.430  0.3284  1.0756  2.1616
 6704SOL    HW231746   1.112   0.414   2.318 -1.0952  2.3467  0.4624
 6705SOL     OW31747   4.477   4.369   6.754 -0.5470  0.1919 -0.6486
 6705SOL    HW131748   4.518   4.428   6.819 -1.0734 -0.5120  0.3234
 6705SOL    HW231749   4.489   4.282   6.793  0.1233  0.3146 -0.5717
 6706SOL     OW31750   2.248   0.508   4.412  0.4506 -0.5313 -0.3808
 6706SOL    HW131751   2.333   0.464   4.412  0.5167 -0.4028  0.1387
 6706SOL    HW231752   2.225   0.531   4.502 -1.3167 -1.9401 -0.4847
 6707SOL     OW31753   1.764   0.679   8.133 -0.6347  0.4019 -0.8006
 6707SOL    HW131754   1.740   0.630   8.054 -0.3758 -0.6752 -0.1975
 6707SOL    HW231755   1.681   0.676   8.180 -0.6759  0.7496 -0.8514
 6708SOL     OW31756   3.778   2.470  10.652  0.1538  0.1473 -0.0849
 6708SOL    HW131757   3.691   2.478  10.613  0.0602  1.0584  0.3119
 6708SOL    HW231758   3.762   2.392  10.705  1.8069  0.3873  0.7628
 6709SOL     OW31759   2.235   2.405  14.348  0.5478  0.9158  0.0306
 6709SOL    HW131760   2.257   2.492  14.314  0.4574  0.4240 -1.2718
 6709SOL    HW231761   2.209   2.430  14.437 -2.8820 -2.2625 -0.0818
 6710SOL     OW31762   2.735   3.520   8.156 -0.4053 -0.1854  0.2296
 6710SOL    HW131763   2.648   3.487   8.179 -0.2921 -0.5758  0.1032
 6710SOL    HW231764   2.747   3.586   8.223  1.9147  0.6227 -0.9922
 6711SOL     OW31765   3.471   0.405  10.917  0.7378 -0.2315  0.1243
 6711SOL    HW131766   3.476   0.476  10.852 -1.5591  1.8988  2.2718
 6711SOL    HW231767   3.395   0.355  10.889  0.6798 -0.5834  0.9245
 6712SOL     OW31768   0.652   4.030   5.669  0.2343 -0.0616 -0.3115
 6712SOL    HW131769   0.628   3.952   5.719 -2.9506  0.2129 -1.4106
 6712SOL    HW231770   0.696   3.992   5.594  0.2253 -2.1618  0.7562
 6713SOL     OW31771   1.207   0.463  17.582 -0.5761  0.0197  0.0520
 6713SOL    HW131772   1.231   0.460  17.490  0.2832  0.6733  0.2487
 6713SOL    HW231773   1.277   0.517  17.619  0.4411  0.0089 -1.8836
 6714SOL     OW31774   1.508   2.022  11.429  0.3257 -0.7745  0.1466
 6714SOL    HW131775   1.431   2.003  11.482 -0.8783  3.0013 -0.2429
 6714SOL    HW231776   1.477   2.034  11.340  0.0060 -0.1785  0.3394
 6715SOL     OW31777   0.463   3.590   5.231 -0.4881 -0.1871 -0.2458
 6715SOL    HW131778   0.541   3.643   5.212 -0.6573  0.8272  1.9114
 6715SOL    HW231779   0.410   3.624   5.158 -0.3274  0.4476 -0.0683
 6716SOL     OW31780   3.159   2.592   2.467 -0.4276 -0.1223 -0.3361
 6716SOL    HW131781   3.075   2.618   2.505  0.5858 -0.0776  1.8130
 6716SOL    HW231782   3.124   2.519   2.415  0.2314 -0.5279 -0.2074
 6717SOL     OW31783   4.205   2.499  16.125  0.6341  0.0362  0.7993
 6717SOL    HW131784   4.121   2.488  16.080  0.3226 -1.5030  1.7724
 6717SOL    HW231785   4.181   2.578  16.173  3.0442  2.0814 -1.3367
 6718SOL     OW31786   3.808   4.105   1.494 -0.2682 -0.3373  0.1916
 6718SOL    HW131787   3.853   4.177   1.449  1.3554  0.1448  2.5715
 6718SOL    HW231788   3.861   4.092   1.573 -1.2380 -1.3655  0.6750
 6719SOL     OW31789   2.941   0.472   1.787  0.4216  0.5604 -0.0288
 6719SOL    HW131790   2.974   0.387   1.759  0.6959  1.1655 -1.5177
 6719SOL    HW231791   3.014   0.528   1.815  2.1432 -1.9884  0.4975
 6720SOL     OW31792   1.250   0.701  16.861 -0.2209  0.0315  0.4992
 6720SOL    HW131793   1.251   0.796  16.876 -0.0243  0.2365 -0.8942
 6720SOL    HW231794   1.179   0.677  16.801 -0.2980 -1.3272  1.1235
 6721SOL     OW31795   4.066   0.293   4.259  0.2673 -0.2106 -0.4286
 6721SOL    HW131796   4.068   0.337   4.344  2.5697  1.3661 -1.3130
 6721SOL    HW231797   4.060   0.204   4.293 -0.3612  0.2192  0.6162
 6722SOL     OW31798   4.460   4.682   1.633 -0.1885 -0.0856  0.2241
 6722SOL    HW131799   4.524   4.693   1.703  1.3737  1.6278 -1.4731
 6722SOL    HW231800   4.450   4.588   1.621 -0.8678  0.2416 -1.7749
 6723SOL     OW31801   0.826   0.497   2.047  0.1880 -0.2593  0.3807
 6723SOL    HW131802   0.791   0.561   2.109  0.5585 -0.6259  0.9729
 6723SOL    HW231803   0.912   0.535   2.030 -0.0179  1.2365  2.6204
 6724SOL     OW31804   3.669   1.425   5.574 -0.4297 -0.3300 -0.3504
 6724SOL    HW131805   3.747   1.403   5.625 -1.6279 -0.5868  1.3517
 6724SOL    HW231806   3.667   1.521   5.579  1.5863 -0.3020  0.0416
 6725SOL     OW31807   1.362   2.813  12.387 -0.6677  0.3687  0.5124
 6725SOL    HW131808   1.421   2.889  12.385 -0.6745  0.3658  0.1447
 6725SOL    HW231809   1.287   2.871  12.398  0.4856  1.5403  2.2451
 6726SOL     OW31810   0.079   3.475   9.628 -0.9066  0.5415  0.3661
 6726SOL    HW131811   0.138   3.522   9.686  0.9724  1.3946 -2.2241
 6726SOL    HW231812   4.733   3.510   9.654 -1.2018 -0.2162  0.4251
 6727SOL     OW31813   2.190   4.007   5.426  0.4031  0.5249  0.3366
 6727SOL    HW131814   2.165   3.924   5.385  0.6790 -0.0088  1.2475
 6727SOL    HW231815   2.154   4.002   5.514 -1.6073  0.2477 -0.4848
 6728SOL     OW31816   3.602   1.324   8.651  0.2931  0.1449  0.3617
 6728SOL    HW131817   3.697   1.325   8.661  0.2509 -3.3247  0.8795
 6728SOL    HW231818   3.587   1.231   8.636 -0.9006  0.3092  0.4785
 6729SOL     OW31819   1.078   4.202   6.339  0.5176 -0.0564  0.1275
 6729SOL    HW131820   1.141   4.222   6.270  0.9960  1.4776  1.0082
 6729SOL    HW231821   1.053   4.290   6.365  0.7223  0.2389 -0.6765
 6730SOL     OW31822   3.649   3.333   1.788  0.0840 -1.0562 -0.7275
 6730SOL    HW131823   3.582   3.332   1.855  0.8998 -0.4218  0.0933
 6730SOL    HW231824   3.626   3.256   1.736 -1.3017  0.6320 -2.5918
 6731SOL     OW31825   0.332   3.715   1.916  0.3792  0.1267  1.0916
 6731SOL    HW131826   0.359   3.680   2.002  0.2273  1.3459  1.6298
 6731SOL    HW231827   0.412   3.759   1.889  1.3979 -2.0557  0.5944
 6732SOL     OW31828   4.448   2.122   6.463 -0.4890 -0.4547 -0.1679
 6732SOL    HW131829   4.451   2.120   6.559 -0.2081 -0.1411 -0.1735
 6732SOL    HW231830   4.362   2.159   6.443 -1.0504 -1.8313 -0.2942
 6733SOL     OW31831   0.477   3.140  13.415  0.8375  0.2276 -0.4539
 6733SOL    HW131832   0.456   3.169  13.504 -1.9068 -0.4926 -0.8727
 6733SOL    HW231833   0.545   3.075  13.432  3.4241  3.0433 -0.0161
 6734SOL     OW31834   0.185   4.136   3.345  0.0498 -0.0860  0.3960
 6734SOL    HW131835   0.168   4.042   3.358 -0.0928 -0.3492 -1.6616
 6734SOL    HW231836   0.157   4.164   3.432  0.6790  0.1155  0.5317
 6735SOL     OW31837   3.678   1.941   5.577 -0.3982 -0.2663  0.0319
 6735SOL    HW131838   3.624   2.020   5.587  0.2840 -0.2565  3.6239
 6735SOL    HW231839   3.771   1.966   5.578 -0.5417  0.2470  0.3858
 6736SOL     OW31840   3.387   2.107   1.926 -0.9602 -0.1833  0.1278
 6736SOL    HW131841   3.477   2.115   1.957 -0.9894 -2.8023  0.8677
 6736SOL    HW231842   3.366   2.013   1.925 -1.3293 -0.1109  1.8277
 6737SOL     OW31843   3.113   1.504   8.589 -0.0967 -0.0894  0.2634
 6737SOL    HW131844   3.034   1.556   8.605 -1.8683 -2.2972 -1.2349
 6737SOL    HW231845   3.173   1.572   8.561  0.8216 -1.6508 -1.5895
 6738SOL     OW31846   3.361   0.941   6.149  0.7456  1.4446  0.3958
 6738SOL    HW131847   3.315   1.020   6.177 -0.1746  1.5096 -1.3463
 6738SOL    HW231848   3.290   0.877   6.153  3.7230 -1.9147  0.3745
 6739SOL     OW31849   3.716   2.679  17.245  0.1474  0.0125  0.2690
 6739SOL    HW131850   3.771   2.733  17.189  3.0490 -1.4279  1.7508
 6739SOL    HW231851   3.770   2.677  17.324  1.1102 -1.1422 -0.4279
 6740SOL     OW31852   3.467   4.192   5.472 -0.1142  0.0083  0.3796
 6740SOL    HW131853   3.397   4.255   5.491 -0.6016 -0.6985  0.9192
 6740SOL    HW231854   3.418   4.129   5.420 -1.2071  2.2503 -1.3239
 6741SOL     OW31855   4.039   4.397   5.215 -0.0766 -0.0909 -0.2051
 6741SOL    HW131856   3.947   4.383   5.238 -0.2897  2.6412  0.5899
 6741SOL    HW231857   4.087   4.342   5.276  1.4732  1.5166  0.0067
 6742SOL     OW31858   3.274   2.119   2.984 -0.1509 -0.2860  0.6829
 6742SOL    HW131859   3.255   2.059   2.912 -0.2898 -1.2655  1.5418
 6742SOL    HW231860   3.292   2.194   2.927  0.1038 -1.8064 -1.2850
 6743SOL     OW31861   1.066   0.623   2.232 -0.5435 -0.2950 -0.5322
 6743SOL    HW131862   1.003   0.681   2.190 -2.4174 -0.8299  1.5280
 6743SOL    HW231863   1.021   0.626   2.317  0.6053  0.7064  0.0227
 6744SOL     OW31864   3.015   2.918   3.506 -0.3081  0.5772 -0.3723
 6744SOL    HW131865   3.105   2.891   3.486 -1.1956 -2.1319 -0.6528
 6744SOL    HW231866   2.988   2.955   3.422  0.0122  0.8327 -0.3650
 6745SOL     OW31867   2.173   2.532  11.214 -0.9238  0.0232 -0.0671
 6745SOL    HW131868   2.240   2.555  11.149 -1.4637  0.1783 -0.5658
 6745SOL    HW231869   2.173   2.437  11.202  1.6874  0.1373 -1.0901
 6746SOL     OW31870   2.608   0.765   3.606 -0.4245  0.2447  0.1388
 6746SOL    HW131871   2.595   0.804   3.693 -1.3766 -1.8033  0.8994
 6746SOL    HW231872   2.624   0.675   3.632 -2.7285  0.3918  2.0767
 6747SOL     OW31873   4.098   3.084  10.449 -0.1118  0.3883 -0.2891
 6747SOL    HW131874   4.172   3.023  10.456 -0.1798  0.1698 -1.4357
 6747SOL    HW231875   4.068   3.082  10.540 -0.1472  1.6553 -0.2720
 6748SOL     OW31876   3.897   2.481   6.087 -0.3975 -0.0626  0.1575
 6748SOL    HW131877   3.817   2.520   6.051 -0.1536  0.1971 -0.0958
 6748SOL    HW231878   3.905   2.400   6.038  2.4941  2.6179 -3.7845
 6749SOL     OW31879   4.736   0.422  14.476  0.0834 -0.1194  0.0668
 6749SOL    HW131880   0.009   0.347  14.535  0.3709  0.4012  0.6733
 6749SOL    HW231881   0.027   0.491  14.535 -0.3348 -1.1722  1.5508
 6750SOL     OW31882   3.231   4.600   7.490 -0.2735  0.1482 -0.1333
 6750SOL    HW131883   3.161   4.561   7.438  0.2547  0.4360 -1.0499
 6750SOL    HW231884   3.189   4.656   7.556  0.2447 -0.6471  0.8626
 6751SOL     OW31885   4.314   1.415  13.577  0.4817 -0.0330 -0.2123
 6751SOL    HW131886   4.360   1.376  13.651  0.4717 -0.8737 -0.6553
 6751SOL    HW231887   4.358   1.500  13.567  1.6561 -0.6565 -0.3367
 6752SOL     OW31888   2.911   2.480  13.524 -0.0106  0.3604 -0.2784
 6752SOL    HW131889   2.909   2.472  13.428 -2.6771  1.2039 -0.3096
 6752SOL    HW231890   2.823   2.466  13.559 -0.0308 -0.9265 -0.8396
 6753SOL     OW31891   1.843   2.013   8.766  0.1781  0.3542  0.0993
 6753SOL    HW131892   1.828   1.935   8.820 -1.1146 -0.0603 -0.8658
 6753SOL    HW231893   1.806   1.975   8.687 -1.1734 -1.1353  1.4419
 6754SOL     OW31894   4.513   2.667   4.661  0.3188  0.2896 -0.1811
 6754SOL    HW131895   4.602   2.697   4.676  0.7202 -1.3070  0.5919
 6754SOL    HW231896   4.506   2.612   4.739  0.1802 -1.0677 -1.1555
 6755SOL     OW31897   0.055   1.955  15.922  0.2323 -0.5778 -0.0910
 6755SOL    HW131898   0.090   2.031  15.875 -0.1219 -0.1663  0.3174
 6755SOL    HW231899   4.707   1.963  15.883  0.9348 -1.4930 -1.8620
 6756SOL     OW31900   4.144   3.262   2.167 -1.0157  0.4739  0.9407
 6756SOL    HW131901   4.070   3.264   2.106 -0.3502  0.6436  0.1336
 6756SOL    HW231902   4.210   3.281   2.100 -0.4685 -0.7248  1.1459
 6757SOL     OW31903   0.493   4.493   0.903  0.1475  0.1136 -0.2594
 6757SOL    HW131904   0.522   4.573   0.859  1.6867 -0.6798 -0.7029
 6757SOL    HW231905   0.443   4.524   0.979  0.0218 -0.5809 -0.0517
 6758SOL     OW31906   0.030   3.966   5.403  0.5766 -0.2104 -0.0293
 6758SOL    HW131907   0.013   3.872   5.392  2.0638 -0.4350 -0.4537
 6758SOL    HW231908   0.125   3.967   5.410  0.6309  0.7115 -0.9112
 6759SOL     OW31909   3.397   4.579  12.477 -0.3792 -0.3023 -0.0408
 6759SOL    HW131910   3.479   4.627  12.466  0.7587 -2.8462 -2.7208
 6759SOL    HW231911   3.328   4.643  12.458  0.9175  0.5244 -1.9627
 6760SOL     OW31912   0.969   0.273   4.876 -0.1929 -0.2327  0.2750
 6760SOL    HW131913   1.044   0.319   4.839  1.0945 -0.2963  2.8203
 6760SOL    HW231914   1.011   0.187   4.873 -1.5403 -0.8522 -0.5431
 6761SOL     OW31915   0.615   1.577  10.157 -0.5587 -0.7276  0.2610
 6761SOL    HW131916   0.578   1.501  10.113  0.8602 -1.1159 -0.2553
 6761SOL    HW231917   0.673   1.532  10.219 -0.0658  1.2389  1.2223
 6762SOL     OW31918   0.086   1.583   7.360 -0.3168  0.3176  0.6432
 6762SOL    HW131919   0.164   1.586   7.305 -1.6014 -3.1354 -1.3737
 6762SOL    HW231920   0.109   1.582   7.453  0.3765  0.1873  0.4701
 6763SOL     OW31921   2.174   3.342   7.491  0.2434  0.4016  0.2173
 6763SOL    HW131922   2.178   3.438   7.497  2.3834  0.4122 -1.4156
 6763SOL    HW231923   2.181   3.349   7.396 -0.7730  2.4258  0.2837
 6764SOL     OW31924   0.861   1.434   8.150  0.0191 -0.0428  0.3334
 6764SOL    HW131925   0.832   1.468   8.235  0.7773 -1.6187  1.2120
 6764SOL    HW231926   0.774   1.426   8.111  0.6896 -0.7016 -1.0170
 6765SOL     OW31927   1.186   0.202   7.550  0.1056  0.3949  0.4759
 6765SOL    HW131928   1.092   0.209   7.566 -0.1869 -2.7079  0.2722
 6765SOL    HW231929   1.181   0.212   7.454 -0.6960  0.4240  0.5199
 6766SOL     OW31930   2.272   3.794  17.357  0.3458  0.2984 -0.0005
 6766SOL    HW131931   2.198   3.854  17.345  0.3261  0.5052  1.1647
 6766SOL    HW231932   2.257   3.747  17.275 -0.0813  2.0790 -0.9641
 6767SOL     OW31933   1.428   0.399   5.978 -0.3346 -0.0624 -0.2991
 6767SOL    HW131934   1.354   0.422   6.033  0.3947  0.2216  0.5707
 6767SOL    HW231935   1.487   0.397   6.054  1.4311  1.9882 -1.6121
 6768SOL     OW31936   4.045   2.388   7.710  0.5721 -0.0704 -0.0831
 6768SOL    HW131937   3.973   2.324   7.711  0.0967  0.4706  0.3701
 6768SOL    HW231938   3.999   2.472   7.712  0.9831  0.2209 -2.2572
 6769SOL     OW31939   3.579   3.715   8.757 -0.6363  0.9526 -0.3990
 6769SOL    HW131940   3.576   3.807   8.733  0.4348  0.7801 -1.2053
 6769SOL    HW231941   3.584   3.666   8.675  0.5749  2.1783 -1.0500
 6770SOL     OW31942   0.377   3.383  15.957 -0.5666 -0.2455 -0.6386
 6770SOL    HW131943   0.437   3.365  15.885 -0.3618 -0.2574 -0.4671
 6770SOL    HW231944   0.437   3.406  16.028 -0.9691 -0.3879 -0.2502
 6771SOL     OW31945   2.088   1.575   3.062 -0.1522  0.0516 -0.3737
 6771SOL    HW131946   1.999   1.610   3.061  0.2904  1.1878  0.2713
 6771SOL    HW231947   2.123   1.572   3.151 -0.1164  1.9903 -0.3177
 6772SOL     OW31948   2.483   3.095   7.344  0.0040  0.3468 -0.0405
 6772SOL    HW131949   2.413   3.085   7.408  0.8724  1.0281  1.0121
 6772SOL    HW231950   2.515   3.183   7.365 -0.4321  0.3677  0.5289
 6773SOL     OW31951   2.885   1.719   2.895 -0.5242  0.0839 -0.4531
 6773SOL    HW131952   2.853   1.642   2.848  0.4823  0.7535 -2.2214
 6773SOL    HW231953   2.801   1.766   2.902 -0.5091  0.2586 -1.4509
 6774SOL     OW31954   1.348   2.769   3.925 -0.2456  0.5895 -0.2281
 6774SOL    HW131955   1.310   2.711   3.991 -1.0390 -0.4250 -1.5695
 6774SOL    HW231956   1.275   2.829   3.913 -0.4145  0.3446 -0.4336
 6775SOL     OW31957   2.263   1.895   0.958  0.0882 -0.1089 -0.5001
 6775SOL    HW131958   2.246   1.971   1.014 -0.4454 -1.0289  0.5968
 6775SOL    HW231959   2.320   1.842   1.013 -1.2493  0.0340  1.0369
 6776SOL     OW31960   3.707   2.449   0.805 -0.0917 -0.2611  0.1781
 6776SOL    HW131961   3.655   2.514   0.757  0.2851 -0.1523 -0.0825
 6776SOL    HW231962   3.742   2.391   0.738  2.2909  1.3816 -0.0147
 6777SOL     OW31963   3.287   0.913   6.762  0.1278  0.1980  0.2551
 6777SOL    HW131964   3.363   0.873   6.805  2.2182  0.5734 -3.0486
 6777SOL    HW231965   3.224   0.841   6.770  0.2919  0.3100  2.4840
 6778SOL     OW31966   0.704   3.519  17.035  0.4930  0.2667  0.0966
 6778SOL    HW131967   0.799   3.509  17.035  0.5401  0.6684 -1.4081
 6778SOL    HW231968   0.687   3.511  16.941 -1.5683 -0.7369  0.5435
 6779SOL     OW31969   3.372   4.524   6.679 -0.0925 -0.1163  0.2288
 6779SOL    HW131970   3.411   4.501   6.763 -0.4493 -1.5277 -0.0034
 6779SOL    HW231971   3.423   4.602   6.658  1.2294 -0.9475  0.4118
 6780SOL     OW31972   1.698   3.101   3.456 -0.7154  0.4170  0.8050
 6780SOL    HW131973   1.759   3.097   3.383 -0.8066  1.9053  0.6515
 6780SOL    HW231974   1.745   3.055   3.526  0.2902 -1.4798 -1.1091
 6781SOL     OW31975   1.412   4.473   3.306  0.2244 -0.5501  0.1098
 6781SOL    HW131976   1.352   4.446   3.375 -1.6160  1.6246 -0.6395
 6781SOL    HW231977   1.351   4.474   3.232 -0.4993  2.3787  0.7463
 6782SOL     OW31978   2.553   1.526   7.911  0.0158  0.1753 -0.1846
 6782SOL    HW131979   2.527   1.434   7.921 -1.9091  0.5796 -1.4359
 6782SOL    HW231980   2.482   1.569   7.958  0.5907  0.1654  0.6784
 6783SOL     OW31981   4.524   3.606   7.497 -0.5420  0.7948  0.3654
 6783SOL    HW131982   4.591   3.648   7.551 -0.8411  2.8088 -0.8357
 6783SOL    HW231983   4.472   3.559   7.561  0.5892  0.8168  1.2997
 6784SOL     OW31984   0.258   2.355   8.649 -0.1757  0.0202 -0.1766
 6784SOL    HW131985   0.340   2.404   8.638  1.1547 -2.2740 -0.4694
 6784SOL    HW231986   0.228   2.347   8.559 -1.2876 -0.6356  0.2575
 6785SOL     OW31987   2.907   4.038   8.224 -0.0727 -0.0329 -0.4646
 6785SOL    HW131988   2.825   3.990   8.210  0.0356 -0.0510 -1.0136
 6785SOL    HW231989   2.875   4.092   8.297  1.0891 -0.2524  0.2077
 6786SOL     OW31990   4.360   0.128  16.804  0.3575  0.2921 -0.5037
 6786SOL    HW131991   4.436   0.070  16.803 -0.0582 -0.2568 -0.7364
 6786SOL    HW231992   4.399   0.199  16.855  1.2474 -0.9440  0.5389
 6787SOL     OW31993   0.187   0.041   1.259  0.2398  0.0010  0.0012
 6787SOL    HW131994   0.174   0.024   1.352 -2.9031  0.8952 -0.2872
 6787SOL    HW231995   0.171   4.689   1.235  1.0172 -0.2540  0.4274
 6788SOL     OW31996   2.836   4.170   5.950  0.1558  0.3643  0.4770
 6788SOL    HW131997   2.826   4.218   5.868  1.8687  2.2359  1.3699
 6788SOL    HW231998   2.776   4.095   5.945  0.2494  0.3403 -0.2396
 6789SOL     OW31999   2.917   3.752  16.105 -0.1401 -0.6583  0.3724
 6789SOL    HW132000   2.993   3.809  16.093  0.3740 -0.9948  1.9737
 6789SOL    HW232001   2.947   3.700  16.180 -0.3424 -0.8291  0.3373
 6790SOL     OW32002   2.899   1.589   3.568  0.1420 -0.6968  0.8721
 6790SOL    HW132003   2.873   1.585   3.476  1.1814 -0.7405  0.5808
 6790SOL    HW232004   2.962   1.661   3.563 -2.4050  1.4602  0.0378
 6791SOL     OW32005   0.991   4.133   7.450 -0.6388  0.0819 -0.5376
 6791SOL    HW132006   1.001   4.186   7.529  0.3135 -0.3422 -0.3762
 6791SOL    HW232007   0.903   4.101   7.470 -1.0036  1.3812 -0.0444
 6792SOL     OW32008   2.623   3.822   5.516  0.2571 -0.3848 -0.0812
 6792SOL    HW132009   2.603   3.750   5.456  0.3132 -0.5400  0.0885
 6792SOL    HW232010   2.718   3.821   5.501  0.3637 -0.3366  0.6031
 6793SOL     OW32011   3.879   3.200   2.290 -0.2822  0.1559 -0.2071
 6793SOL    HW132012   3.879   3.216   2.195 -0.3357  1.1006 -0.0450
 6793SOL    HW232013   3.947   3.262   2.317 -0.4142 -0.0488  0.5870
 6794SOL     OW32014   0.964   2.848   8.216 -0.6281  0.4858 -0.4712
 6794SOL    HW132015   0.878   2.884   8.236 -0.7597  0.0882 -0.3196
 6794SOL    HW232016   1.016   2.903   8.275 -1.3815  0.7915 -0.0846
 6795SOL     OW32017   3.987   4.178   3.006 -0.3834  0.0978 -0.6606
 6795SOL    HW132018   3.929   4.219   2.942  1.0201  0.6125 -1.6117
 6795SOL    HW232019   4.048   4.137   2.945 -0.4644 -3.4951  1.6438
 6796SOL     OW32020   1.747   0.279   6.400 -0.6123 -0.1711  0.0848
 6796SOL    HW132021   1.775   0.210   6.460 -0.4887  0.6577  0.9941
 6796SOL    HW232022   1.742   0.356   6.457 -0.3033  0.0541 -0.1957
 6797SOL     OW32023   0.696   4.414   9.431  0.2874  0.7404 -0.2599
 6797SOL    HW132024   0.690   4.459   9.347 -2.2465  2.5882  0.9102
 6797SOL    HW232025   0.617   4.451   9.471  0.1658 -1.0737  1.1858
 6798SOL     OW32026   3.177   4.153   8.173  0.2666  0.1645  0.0090
 6798SOL    HW132027   3.101   4.210   8.160 -1.5839 -2.0981  0.8233
 6798SOL    HW232028   3.134   4.068   8.163  0.7704 -0.0499 -0.3391
 6799SOL     OW32029   0.199   4.601   4.632  0.6335 -0.1993  0.3207
 6799SOL    HW132030   0.117   4.634   4.596 -0.4351  0.3276  3.2292
 6799SOL    HW232031   0.265   4.666   4.607 -1.1115  1.0379 -1.0820
 6800SOL     OW32032   2.940   1.437   7.272  0.0456  0.3520  0.7695
 6800SOL    HW132033   2.859   1.484   7.253 -0.4131 -0.8923 -0.3766
 6800SOL    HW232034   2.992   1.437   7.192  2.2997  1.8472  2.2310
 6801SOL     OW32035   3.763   2.512   0.015 -0.4869  0.3534 -0.7734
 6801SOL    HW132036   3.804   2.509   0.102 -2.1629  0.7288  0.0250
 6801SOL    HW232037   3.675   2.487   0.041 -0.0388  0.4226  0.8393
 6802SOL     OW32038   3.815   1.032   5.066  0.2626  0.1562  0.3682
 6802SOL    HW132039   3.746   1.081   5.110 -0.8792 -1.8360  0.8133
 6802SOL    HW232040   3.755   0.968   5.026  1.9491 -1.7994  0.9706
 6803SOL     OW32041   1.791   0.140   6.140  0.5497 -0.8839  0.6190
 6803SOL    HW132042   1.828   0.067   6.189  0.8270 -0.3884  1.1414
 6803SOL    HW232043   1.751   0.194   6.208  0.5159  1.1439 -1.0006
 6804SOL     OW32044   4.002   4.039   5.210 -0.5696 -0.0464 -0.1037
 6804SOL    HW132045   4.026   4.078   5.294  1.6500  0.3027 -0.8912
 6804SOL    HW232046   3.928   3.987   5.240 -1.1488  0.1165 -1.2249
 6805SOL     OW32047   1.717   4.427   7.748 -0.7327  0.1450 -0.2467
 6805SOL    HW132048   1.683   4.422   7.837 -0.1186 -0.5031 -0.0414
 6805SOL    HW232049   1.644   4.395   7.695 -1.5961  1.6656  0.0155
 6806SOL     OW32050   2.137   4.641   3.164  0.0209  0.1901  0.2241
 6806SOL    HW132051   2.112   4.623   3.255 -0.2400  0.0253  0.1207
 6806SOL    HW232052   2.221   4.597   3.147  0.7407  1.3470  0.7726
 6807SOL     OW32053   2.216   0.027   7.880  1.0265 -0.5281 -0.1250
 6807SOL    HW132054   2.215   0.091   7.951  0.5736 -1.2589  0.5178
 6807SOL    HW232055   2.129   0.050   7.847  1.4600 -0.6561 -1.3828
 6808SOL     OW32056   1.711   0.599   7.845 -0.6726  0.4790  0.0109
 6808SOL    HW132057   1.746   0.525   7.794 -1.2200 -0.8393  1.5728
 6808SOL    HW232058   1.682   0.653   7.771  0.8733 -0.2796 -1.1425
 6809SOL     OW32059   2.616   3.731   7.030  0.3769 -0.1611 -0.0210
 6809SOL    HW132060   2.530   3.697   7.058  1.7224 -2.5150  1.2356
 6809SOL    HW232061   2.664   3.722   7.112 -0.3769  0.9408  0.5320
 6810SOL     OW32062   3.010   0.071   6.485  0.1931 -0.5364  0.2298
 6810SOL    HW132063   2.948   0.127   6.532 -1.1464 -0.3942 -1.7333
 6810SOL    HW232064   2.980   0.076   6.395  0.8236 -0.4443  0.0262
 6811SOL     OW32065   0.579   3.727   1.151  0.4191 -0.0337  0.1436
 6811SOL    HW132066   0.486   3.741   1.167 -0.6282 -2.7241 -3.7693
 6811SOL    HW232067   0.578   3.691   1.063 -2.4570  1.9237 -0.6175
 6812SOL     OW32068   4.670   3.831   6.797  0.2240  0.1362 -0.1175
 6812SOL    HW132069   4.633   3.757   6.846  0.9057 -1.9908 -2.7598
 6812SOL    HW232070   4.640   3.806   6.709 -1.5305  2.1917 -0.1055
 6813SOL     OW32071   0.801   2.436   7.418  0.0008  0.7934  0.3102
 6813SOL    HW132072   0.754   2.481   7.347  0.9335 -0.0518 -0.8590
 6813SOL    HW232073   0.759   2.350   7.410 -0.0608  1.0904 -2.9070
 6814SOL     OW32074   2.758   3.678   8.383 -0.3511  0.0126 -0.0512
 6814SOL    HW132075   2.826   3.741   8.410 -0.3053  0.7943 -1.9588
 6814SOL    HW232076   2.682   3.731   8.408  0.7893  1.4563  0.3619
 6815SOL     OW32077   1.073   4.315   2.966  0.0890 -0.2004 -0.0256
 6815SOL    HW132078   1.074   4.406   2.936  1.4675 -0.5741 -1.1394
 6815SOL    HW232079   1.129   4.275   2.899  1.3687  1.3841  0.0834
 6816SOL     OW32080   4.292   2.028   3.775  0.3215  0.1621 -0.0233
 6816SOL    HW132081   4.225   1.986   3.720 -0.0742  1.3204 -0.4257
 6816SOL    HW232082   4.374   1.999   3.735  0.6396  0.0945  0.6888
 6817SOL     OW32083   3.274   3.104   5.562 -0.1650  0.3670  0.4701
 6817SOL    HW132084   3.253   3.014   5.537 -0.5817  0.2351  1.3101
 6817SOL    HW232085   3.186   3.121   5.596  0.3518  0.0400  1.9571
 6818SOL     OW32086   4.150   0.508   8.396 -0.8740 -0.0530  0.2354
 6818SOL    HW132087   4.101   0.589   8.410 -1.0876  0.0760 -1.2857
 6818SOL    HW232088   4.242   0.536   8.399 -0.0658 -2.5669 -1.7110
 6819SOL     OW32089   0.842   0.527   9.628  0.0095  0.1117  0.2237
 6819SOL    HW132090   0.789   0.478   9.566  1.9480 -0.3058 -1.1138
 6819SOL    HW232091   0.788   0.605   9.633 -1.1634 -0.7178  0.5404
 6820SOL     OW32092   2.983   1.360   5.140 -0.4486  0.4289  0.0097
 6820SOL    HW132093   3.068   1.385   5.103 -0.5326  1.5373  0.5547
 6820SOL    HW232094   2.970   1.280   5.090 -0.2680  1.1089 -1.1483
 6821SOL     OW32095   0.037   0.424   6.273  0.2744 -0.5820  0.1267
 6821SOL    HW132096   0.091   0.401   6.348  2.7404  1.2422 -1.0965
 6821SOL    HW232097   4.695   0.375   6.287 -0.8948  1.0172 -0.9285
 6822SOL     OW32098   3.218   3.415   9.399 -0.4742 -0.3901  0.0573
 6822SOL    HW132099   3.238   3.465   9.320  0.1811  0.2848  0.6584
 6822SOL    HW232100   3.247   3.330   9.364 -1.5451 -0.1774 -1.3632
 6823SOL     OW32101   4.508   2.109   4.820  0.1268  0.2020  0.6502
 6823SOL    HW132102   4.594   2.068   4.811  0.2004  0.1454  1.5927
 6823SOL    HW232103   4.510   2.168   4.745 -3.0732  0.9778  1.1769
 6824SOL     OW32104   4.702   2.639  15.059  0.5555  0.1506 -0.9221
 6824SOL    HW132105   4.724   2.726  15.025 -0.6952  0.2802 -1.3913
 6824SOL    HW232106   4.672   2.601  14.976  1.9958  2.0925 -2.3489
 6825SOL     OW32107   0.831   3.401   9.286  0.4112  0.9423  0.4530
 6825SOL    HW132108   0.865   3.486   9.313  1.2439  1.0636 -0.9782
 6825SOL    HW232109   0.804   3.367   9.371 -0.4593  1.1414  0.2575
 6826SOL     OW32110   4.302   3.259   1.121  0.0553  0.2638  0.4720
 6826SOL    HW132111   4.320   3.241   1.029 -1.5051 -2.2406  0.6558
 6826SOL    HW232112   4.304   3.173   1.162 -1.3788 -1.0586 -2.2306
 6827SOL     OW32113   3.514   3.351   5.933 -0.0172  0.0557 -0.0576
 6827SOL    HW132114   3.489   3.442   5.951 -0.2605 -0.1174  0.4935
 6827SOL    HW232115   3.600   3.358   5.892  0.7871  0.4002  1.7260
 6828SOL     OW32116   1.379   4.637   7.308 -0.1544 -0.0946  0.0102
 6828SOL    HW132117   1.442   4.565   7.307 -1.1131 -0.8940 -1.5946
 6828SOL    HW232118   1.393   4.677   7.222  0.2100 -3.9181 -1.6753
 6829SOL     OW32119   2.692   2.395   5.778  0.3411 -0.0891 -0.3456
 6829SOL    HW132120   2.772   2.344   5.788  1.1860  1.6293  1.7249
 6829SOL    HW232121   2.683   2.395   5.683 -3.0259  0.1345 -0.0178
 6830SOL     OW32122   0.966   2.018   8.986 -0.5663  0.2293  0.6270
 6830SOL    HW132123   1.020   2.007   8.908 -0.1634  1.0354  0.7931
 6830SOL    HW232124   0.910   2.092   8.963 -0.1436  0.9084  1.7625
 6831SOL     OW32125   3.683   3.780   1.578  0.2314  0.5005  0.3925
 6831SOL    HW132126   3.645   3.853   1.628  0.3616  0.3259  0.7391
 6831SOL    HW232127   3.717   3.729   1.650  0.0589 -0.4968 -0.2358
 6832SOL     OW32128   3.303   3.263   3.744  0.5543  0.1421 -0.3274
 6832SOL    HW132129   3.216   3.240   3.776  1.6800 -2.3480  0.9565
 6832SOL    HW232130   3.291   3.353   3.715 -1.2320  0.5036  1.5575
 6833SOL     OW32131   3.316   2.509   5.965 -0.0653  0.2052 -0.5098
 6833SOL    HW132132   3.327   2.431   5.911 -0.5066 -0.1352 -0.1113
 6833SOL    HW232133   3.398   2.557   5.950  1.2329 -2.5683 -2.1742
 6834SOL     OW32134   1.643   4.511   8.424  0.3145  0.0235 -0.1397
 6834SOL    HW132135   1.561   4.464   8.417 -0.9827  2.2788 -0.2018
 6834SOL    HW232136   1.628   4.585   8.365  1.2665  0.1461 -0.2318
 6835SOL     OW32137   3.259   2.658   3.812  0.4851 -0.2211  0.2100
 6835SOL    HW132138   3.334   2.609   3.846 -1.7753 -2.5629  1.8549
 6835SOL    HW232139   3.219   2.676   3.898  2.0047 -1.8226  1.2522
 6836SOL     OW32140   1.739   2.960   5.359 -0.2767  0.0317  0.5351
 6836SOL    HW132141   1.811   2.927   5.413  1.2176  1.5881 -0.5145
 6836SOL    HW232142   1.797   2.985   5.287 -3.0153 -0.4281 -1.8698
 6837SOL     OW32143   4.470   1.614   6.157  0.6588  0.0673  0.1045
 6837SOL    HW132144   4.507   1.537   6.114 -0.5975  0.0570 -0.9587
 6837SOL    HW232145   4.527   1.687   6.133  0.8637  0.5322  1.9985
 6838SOL     OW32146   0.072   2.199   5.611  0.1308 -0.1832 -0.3501
 6838SOL    HW132147   0.106   2.152   5.535 -0.9451 -0.1607 -0.8450
 6838SOL    HW232148   0.151   2.239   5.647  0.0785  0.8297 -1.3962
 6839SOL     OW32149   4.577   2.842   1.259  0.0481 -0.0340 -0.3595
 6839SOL    HW132150   4.659   2.847   1.210  0.9478 -1.2117  1.0485
 6839SOL    HW232151   4.609   2.844   1.349 -0.2598  1.5266 -0.2795
 6840SOL     OW32152   0.373   3.388  12.670 -0.1058  0.3686 -0.3881
 6840SOL    HW132153   0.402   3.297  12.663  1.0619  0.6648  0.6038
 6840SOL    HW232154   0.422   3.417  12.747 -1.0249  0.9917 -0.0393
 6841SOL     OW32155   2.656   2.771  10.651 -0.3200 -0.1481 -0.2689
 6841SOL    HW132156   2.679   2.850  10.601 -1.2737 -0.0150 -0.5037
 6841SOL    HW232157   2.728   2.768  10.714 -1.2895  0.4234  0.8781
 6842SOL     OW32158   4.135   4.581   9.134 -0.3095 -0.1392  0.5542
 6842SOL    HW132159   4.045   4.560   9.107 -0.3963 -0.3597  1.0155
 6842SOL    HW232160   4.175   4.620   9.056  1.1955  0.5038  1.6654
 6843SOL     OW32161   0.604   1.830   5.596 -0.2849  0.1019  0.1879
 6843SOL    HW132162   0.646   1.851   5.513 -1.1368 -1.5880 -0.6792
 6843SOL    HW232163   0.549   1.755   5.573  1.9153 -1.4708  0.0686
 6844SOL     OW32164   4.204   1.586   7.640 -0.6001 -0.4232  0.1198
 6844SOL    HW132165   4.138   1.621   7.700 -0.8548  0.0948 -0.4641
 6844SOL    HW232166   4.170   1.499   7.616 -0.8937  0.0836 -1.3443
 6845SOL     OW32167   0.289   1.199   1.130 -0.0307 -0.3700  0.3935
 6845SOL    HW132168   0.379   1.186   1.161  0.5934  1.9102 -0.4786
 6845SOL    HW232169   0.287   1.159   1.043  0.3671 -0.9416  0.6511
 6846SOL     OW32170   2.731   4.200  16.476  0.3477 -0.2085 -0.5519
 6846SOL    HW132171   2.817   4.169  16.505  0.2664 -1.4340 -1.6010
 6846SOL    HW232172   2.718   4.160  16.390  1.9013 -1.0623 -0.4028
 6847SOL     OW32173   2.494   3.022   3.138  0.0866 -0.6041 -0.6558
 6847SOL    HW132174   2.588   3.036   3.126  0.5761 -2.1669  1.3653
 6847SOL    HW232175   2.473   2.940   3.094  1.0348 -1.0957 -0.1833
 6848SOL     OW32176   4.642   1.746   2.521 -0.4690 -0.3275 -0.2068
 6848SOL    HW132177   4.673   1.808   2.455  2.6432  1.2296  2.7736
 6848SOL    HW232178   4.726   1.718   2.557  1.0044  1.8686 -1.9452
 6849SOL     OW32179   4.089   2.985   1.116 -0.0750  0.4879  0.3793
 6849SOL    HW132180   4.183   2.977   1.134  0.2824  1.3000 -1.0830
 6849SOL    HW232181   4.055   3.052   1.175 -0.5594  2.0877 -1.6786
 6850SOL     OW32182   2.331   4.244   7.953  0.7663  0.2818  0.0445
 6850SOL    HW132183   2.286   4.327   7.940 -0.0472 -0.2545 -0.5760
 6850SOL    HW232184   2.312   4.230   8.046  0.4210 -0.7231 -0.1813
 6851SOL     OW32185   0.985   0.429  14.423 -0.4864  0.1811  0.3501
 6851SOL    HW132186   1.042   0.502  14.445 -0.5750  0.0105  1.1264
 6851SOL    HW232187   1.044   0.380  14.364  1.8603  2.6756  0.6357
 6852SOL     OW32188   0.864   2.177   6.735  0.1000 -0.4570 -0.0747
 6852SOL    HW132189   0.822   2.222   6.808  0.6736 -1.4703  0.8895
 6852SOL    HW232190   0.936   2.138   6.785  1.1195  1.0194 -0.3868
 6853SOL     OW32191   4.503   4.609  17.075  0.4240 -0.3099 -0.1145
 6853SOL    HW132192   4.556   4.530  17.086 -0.1753 -0.6928 -0.0277
 6853SOL    HW232193   4.575   4.670  17.057  0.4889 -0.7588 -1.4177
 6854SOL     OW32194   3.975   0.643   5.737  0.2238 -0.2048 -0.5212
 6854SOL    HW132195   3.976   0.624   5.831 -2.0088  1.0742 -0.2306
 6854SOL    HW232196   4.066   0.621   5.717  0.4112  1.3885 -1.3954
 6855SOL     OW32197   3.662   3.130   3.920  0.5706 -0.1289  0.1071
 6855SOL    HW132198   3.631   3.052   3.966 -0.5094 -0.8472 -1.8406
 6855SOL    HW232199   3.626   3.120   3.831  0.6429 -3.7505  0.4798
 6856SOL     OW32200   4.289   1.892   5.127 -0.1385 -0.0190 -0.0289
 6856SOL    HW132201   4.385   1.888   5.131 -0.1952 -0.0214  1.2658
 6856SOL    HW232202   4.259   1.844   5.204  0.9617  0.2546  0.5722
 6857SOL     OW32203   3.619   4.186   9.323  0.0882 -0.2686 -0.7400
 6857SOL    HW132204   3.592   4.159   9.236 -0.0366  1.2292 -1.1640
 6857SOL    HW232205   3.537   4.191   9.371  0.1847  1.5437 -0.7810
 6858SOL     OW32206   2.098   1.091   2.685  0.1709 -0.1432 -0.1005
 6858SOL    HW132207   2.035   1.026   2.653 -0.3211 -1.1433  2.8596
 6858SOL    HW232208   2.181   1.044   2.687 -0.1769 -0.7898 -0.6898
 6859SOL     OW32209   4.210   0.618   7.663 -0.4818  0.0068 -0.0792
 6859SOL    HW132210   4.170   0.697   7.699  0.7744 -0.2987  1.9763
 6859SOL    HW232211   4.186   0.550   7.725 -0.3975  2.4706  2.6808
 6860SOL     OW32212   4.316   2.670   7.428 -0.1844 -0.1429 -0.5013
 6860SOL    HW132213   4.264   2.743   7.396  0.7512  0.1067 -1.4576
 6860SOL    HW232214   4.388   2.663   7.365  0.4759  1.8711  0.0300
 6861SOL     OW32215   2.074   2.812   4.861 -0.4054  0.0110  0.2572
 6861SOL    HW132216   2.048   2.856   4.781  2.1025 -0.0551 -0.5986
 6861SOL    HW232217   2.129   2.869   4.915  0.3738  0.1439 -0.6852
 6862SOL     OW32218   3.755   0.881   5.953  0.1634 -0.0706  0.3022
 6862SOL    HW132219   3.758   0.951   5.888 -1.1545 -0.7589 -0.4976
 6862SOL    HW232220   3.670   0.838   5.944 -0.1900  0.7515 -0.2410
 6863SOL     OW32221   0.431   0.609   1.072 -0.1889  0.1099 -0.3782
 6863SOL    HW132222   0.361   0.672   1.090  0.3047  0.2484  1.0784
 6863SOL    HW232223   0.386   0.526   1.056 -0.1183  0.1138 -0.6035
 6864SOL     OW32224   3.371   2.763   3.294 -0.1497 -0.4586  0.0044
 6864SOL    HW132225   3.455   2.774   3.249  0.5440  2.4954  2.0794
 6864SOL    HW232226   3.404   2.753   3.384 -0.9515  0.4790  0.4003
 6865SOL     OW32227   0.650   0.262   2.217 -0.7647  0.3278 -0.2876
 6865SOL    HW132228   0.657   0.221   2.130 -0.6213  0.7463 -0.4747
 6865SOL    HW232229   0.615   0.349   2.197 -1.7651 -0.1957 -0.8391
 6866SOL     OW32230   1.510   2.647   7.814  0.9648  0.1022  0.3185
 6866SOL    HW132231   1.416   2.665   7.812  0.5687 -2.1791 -1.2961
 6866SOL    HW232232   1.533   2.644   7.721 -2.4938 -4.5843 -0.3851
 6867SOL     OW32233   3.958   3.190   1.252  0.0244  0.2859 -0.1052
 6867SOL    HW132234   3.923   3.112   1.296 -0.1672 -1.5865 -3.6261
 6867SOL    HW232235   3.962   3.242   1.333 -2.0281 -0.1486  0.2813
 6868SOL     OW32236   0.232   0.590   0.103 -0.2254  0.0696  0.2665
 6868SOL    HW132237   0.281   0.671   0.116 -2.2329  1.8306 -2.9534
 6868SOL    HW232238   0.219   0.588   0.008 -1.1144  0.6666  0.3670
 6869SOL     OW32239   0.348   0.572   9.833  0.1337  0.0264 -0.0976
 6869SOL    HW132240   0.343   0.522   9.915 -1.4978 -1.0295 -0.8408
 6869SOL    HW232241   0.285   0.642   9.843 -2.5076 -2.4960  0.8703
 6870SOL     OW32242   4.656   0.179  13.869 -0.4708 -0.0510  0.0085
 6870SOL    HW132243   4.630   0.145  13.783 -1.3840  1.1447 -0.1949
 6870SOL    HW232244   0.012   0.170  13.863 -0.6168 -0.2428 -1.9368
 6871SOL     OW32245   1.013   0.970   7.077  0.1847  0.9611 -0.4717
 6871SOL    HW132246   0.998   0.999   7.167 -0.8211 -1.6379  0.2209
 6871SOL    HW232247   1.098   1.008   7.054  1.0757 -0.7875 -0.0732
 6872SOL     OW32248   2.860   1.888   2.277 -0.0004  0.4782 -0.2465
 6872SOL    HW132249   2.882   1.814   2.221 -0.1708  0.0991  0.1835
 6872SOL    HW232250   2.951   1.905   2.302 -0.3191 -1.0442  2.0153
 6873SOL     OW32251   1.709   3.654   7.265 -0.1196 -0.1932 -0.3731
 6873SOL    HW132252   1.740   3.711   7.194  0.1945  0.1787  0.0662
 6873SOL    HW232253   1.664   3.582   7.221  1.1833 -2.2646  1.7088
 6874SOL     OW32254   2.498   2.930   3.661 -0.1239  0.0014 -0.9304
 6874SOL    HW132255   2.428   2.952   3.599 -0.1561 -0.6990 -1.1383
 6874SOL    HW232256   2.573   2.963   3.612 -0.5600 -1.1316 -2.3518
 6875SOL     OW32257   4.160   4.636   4.765 -0.3762  0.6563 -0.4812
 6875SOL    HW132258   4.160   4.637   4.861  1.2265  0.3093 -0.4788
 6875SOL    HW232259   4.174   4.729   4.745  0.0324  0.3311 -1.6735
 6876SOL     OW32260   1.689   1.349   6.831  0.3146  0.1111  0.2007
 6876SOL    HW132261   1.710   1.416   6.766  0.9655 -0.4218 -0.1450
 6876SOL    HW232262   1.646   1.407   6.893 -0.0661  1.4210 -1.2889
 6877SOL     OW32263   0.879   2.497   5.435 -0.1877  0.1866  0.4622
 6877SOL    HW132264   0.820   2.560   5.476 -1.6240  0.0504 -1.3852
 6877SOL    HW232265   0.836   2.413   5.449  1.1315 -0.8754 -1.7978
 6878SOL     OW32266   2.611   1.425   8.732  0.6168  0.1421  0.0841
 6878SOL    HW132267   2.583   1.333   8.729 -1.6211  0.8197  0.1868
 6878SOL    HW232268   2.574   1.450   8.817  0.0619  1.2631 -0.4873
 6879SOL     OW32269   2.796   3.167  13.914  0.4076 -0.2472 -0.1955
 6879SOL    HW132270   2.812   3.108  13.840  1.9488  1.1073 -0.9281
 6879SOL    HW232271   2.720   3.120  13.949 -0.6629  0.8201 -1.0757
 6880SOL     OW32272   1.613   2.251   8.441 -0.4014 -0.3403  1.0477
 6880SOL    HW132273   1.554   2.201   8.498 -2.4766  1.0044  0.0906
 6880SOL    HW232274   1.557   2.323   8.412 -1.0050 -0.7216  1.2690
 6881SOL     OW32275   0.990   3.664   7.112  0.2965  0.4869  0.4680
 6881SOL    HW132276   0.980   3.707   7.028 -0.2903  0.9003  0.7521
 6881SOL    HW232277   1.048   3.593   7.085  0.2254  0.3111  0.7806
 6882SOL     OW32278   2.227   2.843   2.177  0.0490 -0.4383 -0.1635
 6882SOL    HW132279   2.182   2.800   2.104 -0.2607 -0.0443 -0.2023
 6882SOL    HW232280   2.169   2.830   2.253 -0.7389 -0.9567 -0.8524
 6883SOL     OW32281   0.196   1.064   9.780 -0.5676  0.1033 -0.3523
 6883SOL    HW132282   0.139   1.140   9.794 -0.1694  0.3415 -0.0105
 6883SOL    HW232283   0.281   1.102   9.804 -0.3215 -0.9223  0.3813
 6884SOL     OW32284   2.626   0.264  12.572 -0.4457  0.2731  0.3917
 6884SOL    HW132285   2.694   0.214  12.528 -0.2247  1.3558 -0.4840
 6884SOL    HW232286   2.568   0.281  12.498  0.4407  0.6347 -0.2090
 6885SOL     OW32287   3.443   3.635   6.758  0.2164  0.8849 -0.4408
 6885SOL    HW132288   3.384   3.639   6.833 -1.9680 -0.7761 -2.0251
 6885SOL    HW232289   3.494   3.711   6.783  1.0887  0.2980 -0.4334
 6886SOL     OW32290   3.933   3.547   0.213 -0.4405  0.3019  0.2205
 6886SOL    HW132291   3.919   3.518   0.123 -2.2134 -0.4048  0.7124
 6886SOL    HW232292   3.997   3.617   0.206 -0.9651  0.7319 -0.3341
 6887SOL     OW32293   3.377   3.606  16.642  0.2627 -0.1309  0.2097
 6887SOL    HW132294   3.364   3.696  16.673 -0.5522 -0.6342  1.3556
 6887SOL    HW232295   3.468   3.590  16.671  0.6424 -0.0756 -0.9806
 6888SOL     OW32296   0.807   1.366   9.877  0.5029  0.2560  0.0703
 6888SOL    HW132297   0.801   1.285   9.826  2.8466  0.5603 -0.7087
 6888SOL    HW232298   0.875   1.335   9.936 -1.2506 -1.6489  1.0948
 6889SOL     OW32299   4.213   3.412   7.362  0.4855 -0.0324  0.1079
 6889SOL    HW132300   4.201   3.506   7.375 -0.0702  0.2706 -2.4438
 6889SOL    HW232301   4.204   3.396   7.268 -0.3536 -0.2710  0.2275
 6890SOL     OW32302   0.987   0.078   6.178  0.6770 -0.1931  0.2748
 6890SOL    HW132303   0.951   0.030   6.252  2.1943 -1.3154  0.2808
 6890SOL    HW232304   1.080   0.056   6.175  0.6835 -0.2936  1.2641
 6891SOL     OW32305   0.778   3.166  16.083  0.1055  0.3131 -0.1168
 6891SOL    HW132306   0.689   3.135  16.098 -0.3074  2.0136  0.9021
 6891SOL    HW232307   0.758   3.259  16.075 -1.6497  0.1158  2.0389
 6892SOL     OW32308   3.325   3.943  16.297  0.4801 -0.0060 -0.4817
 6892SOL    HW132309   3.369   3.859  16.282 -0.5899 -0.6772  0.1492
 6892SOL    HW232310   3.250   3.925  16.242 -0.6681  0.9602  0.7700
 6893SOL     OW32311   1.459   1.684   2.559 -0.2747  0.1425 -0.0189
 6893SOL    HW132312   1.381   1.726   2.595 -1.3944 -2.3940  0.5343
 6893SOL    HW232313   1.423   1.612   2.508  1.5241  0.4007 -1.6329
 6894SOL     OW32314   1.153   1.625  15.433  0.1531  0.3731 -0.6210
 6894SOL    HW132315   1.230   1.586  15.474 -1.2915  1.2717  3.0409
 6894SOL    HW232316   1.117   1.553  15.383 -1.3067 -1.2928  2.8071
 6895SOL     OW32317   0.223   3.781   7.517  0.7750 -0.0020 -0.4489
 6895SOL    HW132318   0.268   3.787   7.602  1.3308  1.3038 -0.8417
 6895SOL    HW232319   0.292   3.750   7.459  1.8788 -1.7134  1.8068
 6896SOL     OW32320   3.976   2.642   7.143 -0.2967  0.1801 -0.5465
 6896SOL    HW132321   3.889   2.629   7.180  0.4459 -0.3724  0.9779
 6896SOL    HW232322   3.979   2.585   7.066  3.1228 -2.4679  1.5352
 6897SOL     OW32323   3.909   1.284   7.673 -1.0123 -0.5356  0.4000
 6897SOL    HW132324   3.900   1.202   7.626  0.6902  0.8149 -2.2405
 6897SOL    HW232325   3.945   1.258   7.758 -0.6345 -0.3107  0.3069
 6898SOL     OW32326   0.349   1.812  13.303 -0.1100  0.2035 -0.1331
 6898SOL    HW132327   0.323   1.903  13.290 -1.0009  0.0102  0.2827
 6898SOL    HW232328   0.444   1.821  13.300 -0.2194  0.5031 -2.1975
 6899SOL     OW32329   3.757   2.733   5.457 -0.1679 -0.2620  0.8529
 6899SOL    HW132330   3.787   2.704   5.371 -0.7890 -0.8203  0.8202
 6899SOL    HW232331   3.685   2.788   5.427  0.9175 -0.2939 -1.8706
 6900SOL     OW32332   3.247   3.424   4.089  0.0743 -0.6916  0.6500
 6900SOL    HW132333   3.332   3.449   4.054 -0.9232  0.0291 -1.2483
 6900SOL    HW232334   3.231   3.335   4.056 -0.1606  0.0965 -1.3559
 6901SOL     OW32335   1.243   3.206  16.041  0.4876 -0.0885  0.2826
 6901SOL    HW132336   1.320   3.208  16.098  0.9082 -0.5276 -0.2705
 6901SOL    HW232337   1.232   3.114  16.018  1.1532 -0.0742 -0.1081
 6902SOL     OW32338   2.621   0.467  16.963  0.0713  0.0760 -0.0268
 6902SOL    HW132339   2.652   0.535  16.903  0.4554  0.0469  0.1382
 6902SOL    HW232340   2.529   0.462  16.939 -0.1383  0.2430  0.7319
 6903SOL     OW32341   1.705   1.585   5.558  0.6508  0.0346  0.2619
 6903SOL    HW132342   1.676   1.614   5.472 -0.1838  1.3493  0.9974
 6903SOL    HW232343   1.748   1.666   5.586  0.1200 -0.0940  1.4560
 6904SOL     OW32344   1.852   1.423   0.171 -0.4000  0.2960 -0.3879
 6904SOL    HW132345   1.834   1.492   0.107  1.2124  1.2116  0.1436
 6904SOL    HW232346   1.899   1.471   0.240  2.1380 -1.9661 -0.5433
 6905SOL     OW32347   0.598   0.559   3.155  0.4371  0.3919 -0.2354
 6905SOL    HW132348   0.631   0.558   3.245 -1.0010  1.2439  0.2948
 6905SOL    HW232349   0.591   0.654   3.144 -1.6351 -0.0912 -2.9084
 6906SOL     OW32350   1.997   0.022  11.749  0.1781 -0.3852  0.2446
 6906SOL    HW132351   2.051   4.688  11.718 -0.0652 -0.2750 -0.4479
 6906SOL    HW232352   1.994   0.085  11.677  0.1604 -0.3486  0.2777
 6907SOL     OW32353   4.000   1.095   1.894 -0.0132 -0.7526 -0.1245
 6907SOL    HW132354   3.999   1.089   1.989 -2.4607  1.1592 -0.0115
 6907SOL    HW232355   4.088   1.062   1.880  0.5252  1.1920 -1.4105
 6908SOL     OW32356   4.138   3.647   1.908 -0.1650  0.7091 -0.3138
 6908SOL    HW132357   4.123   3.701   1.985  1.5540 -1.6199  1.6250
 6908SOL    HW232358   4.063   3.588   1.903  0.0261  0.3448  1.2549
 6909SOL     OW32359   4.737   3.083   3.207  0.0969  0.1101 -0.2826
 6909SOL    HW132360   4.711   3.127   3.287  1.0575 -0.1649  0.1911
 6909SOL    HW232361   4.683   3.004   3.201 -2.0073  1.3653  2.6147
 6910SOL     OW32362   4.165   3.290  17.175 -0.1518 -0.3933  0.1040
 6910SOL    HW132363   4.110   3.213  17.192 -1.4082  0.4735 -0.0210
 6910SOL    HW232364   4.191   3.314  17.264 -2.1226 -1.3991  0.9611
 6911SOL     OW32365   0.165   1.651   3.322  1.0286  0.5631  0.8614
 6911SOL    HW132366   0.128   1.567   3.347  1.0593  0.0393 -0.8762
 6911SOL    HW232367   0.259   1.635   3.332  0.9260 -1.4212 -1.6764
 6912SOL     OW32368   1.659   4.012   7.934 -0.0775  0.1017  0.3904
 6912SOL    HW132369   1.566   3.992   7.918 -0.0464  0.3872 -0.1218
 6912SOL    HW232370   1.692   4.016   7.845  0.8266 -2.0654  0.6381
 6913SOL     OW32371   4.189   1.706  13.532  0.1651  0.6135  0.1608
 6913SOL    HW132372   4.280   1.713  13.561  0.6269  1.5330 -1.5048
 6913SOL    HW232373   4.139   1.719  13.612  1.0224 -3.3231  1.3505
 6914SOL     OW32374   2.337   2.950   2.766  0.3919 -0.0819 -0.1274
 6914SOL    HW132375   2.382   3.030   2.792  2.3143 -1.3136  0.3464
 6914SOL    HW232376   2.261   2.977   2.715 -0.4782 -1.3092  0.5202
 6915SOL     OW32377   1.183   1.118   8.577  0.7305  0.2882 -0.6918
 6915SOL    HW132378   1.088   1.113   8.565  0.3080  2.1804  2.0506
 6915SOL    HW232379   1.194   1.204   8.536 -2.1722  0.3653 -1.3055
 6916SOL     OW32380   0.898   1.484   2.216  0.0173 -0.8221  0.2487
 6916SOL    HW132381   0.812   1.523   2.203 -0.0450 -0.9966  0.1357
 6916SOL    HW232382   0.929   1.483   2.125  0.3524 -3.0388  0.3848
 6917SOL     OW32383   2.895   2.575   0.189 -0.6945  0.0200  0.3139
 6917SOL    HW132384   2.938   2.655   0.221  1.5949 -1.8716  1.9621
 6917SOL    HW232385   2.964   2.512   0.169 -1.8431 -2.3177  3.7302
 6918SOL     OW32386   0.141   3.469   5.099  0.3366  0.0419  0.3889
 6918SOL    HW132387   0.096   3.398   5.144  0.5589  0.2551  0.9539
 6918SOL    HW232388   0.217   3.427   5.059  1.4744  1.3687  1.1217
 6919SOL     OW32389   0.936   3.510  12.110  0.0260 -0.5033  0.2486
 6919SOL    HW132390   0.866   3.451  12.080  0.2036  0.4396 -1.9954
 6919SOL    HW232391   1.006   3.467  12.061  0.3901  1.8251 -1.2570
 6920SOL     OW32392   1.280   1.771  16.263 -0.0475 -0.5389  0.0647
 6920SOL    HW132393   1.211   1.771  16.330  1.3726  1.9726  1.5302
 6920SOL    HW232394   1.302   1.678  16.265 -1.0386 -0.7945 -0.7105
 6921SOL     OW32395   2.142   0.161   5.946  0.3223 -0.2126 -0.3381
 6921SOL    HW132396   2.051   0.190   5.947 -0.1960 -1.8977  0.6244
 6921SOL    HW232397   2.163   0.170   5.853  1.3463  1.6644  0.0754
 6922SOL     OW32398   1.042   1.879  12.561 -0.3552 -0.2541 -0.2899
 6922SOL    HW132399   0.953   1.913  12.566 -0.7967 -1.5620  0.6322
 6922SOL    HW232400   1.094   1.914  12.633  0.9082  0.8272 -1.7293
 6923SOL     OW32401   0.170   3.884   9.447 -0.7417  0.2065 -0.0910
 6923SOL    HW132402   0.167   3.792   9.421 -1.2650 -0.1042  1.0499
 6923SOL    HW232403   0.174   3.927   9.362  0.8008  0.1834 -0.0274
 6924SOL     OW32404   0.242   3.380  14.082 -0.0518 -0.3898 -0.2840
 6924SOL    HW132405   0.164   3.339  14.120 -0.1804 -0.6506 -0.8379
 6924SOL    HW232406   0.217   3.459  14.036  0.4545  0.0876  0.2590
 6925SOL     OW32407   4.133   3.634   7.988 -0.8420  0.1211  0.3774
 6925SOL    HW132408   4.076   3.557   7.991  0.6671 -0.9702  1.0588
 6925SOL    HW232409   4.122   3.660   7.896  2.1999 -4.4250 -1.2890
 6926SOL     OW32410   2.639   2.163   7.719  0.2870  0.3313  0.2766
 6926SOL    HW132411   2.597   2.246   7.695 -1.2295 -0.5209 -0.0524
 6926SOL    HW232412   2.698   2.196   7.787  1.0302 -0.2601 -0.0912
 6927SOL     OW32413   3.450   3.623   1.836  0.3565  0.3123  0.6775
 6927SOL    HW132414   3.450   3.595   1.745 -1.3653 -0.7277  0.9938
 6927SOL    HW232415   3.486   3.549   1.884 -0.7853  1.2251  2.9823
 6928SOL     OW32416   2.673   0.266   4.626  0.7117  0.0655  0.0501
 6928SOL    HW132417   2.664   0.182   4.581  0.3344  0.5094 -0.6953
 6928SOL    HW232418   2.639   0.246   4.713 -0.9516 -0.3534 -0.6955
 6929SOL     OW32419   4.002   3.126  12.471  0.1665  0.2899  0.6572
 6929SOL    HW132420   4.053   3.046  12.485  2.1282  1.3531 -0.4443
 6929SOL    HW232421   4.075   3.180  12.500 -0.2390  1.0122  0.3221
 6930SOL     OW32422   2.072   0.731   2.727 -0.7106  0.1405 -0.4280
 6930SOL    HW132423   2.048   0.727   2.819 -0.2027 -2.4054 -0.4100
 6930SOL    HW232424   2.164   0.750   2.742 -1.1866  1.2211  1.0452
 6931SOL     OW32425   0.336   2.859   4.781 -0.1014  0.0382  0.1272
 6931SOL    HW132426   0.353   2.778   4.828  0.0588 -0.8693 -1.5044
 6931SOL    HW232427   0.402   2.858   4.712  0.4421 -0.1665  0.6518
 6932SOL     OW32428   2.881   4.178   9.929 -0.1114  0.6907 -0.0836
 6932SOL    HW132429   2.878   4.237  10.004  2.1926 -0.3545  0.8280
 6932SOL    HW232430   2.972   4.166   9.905 -0.4735  0.0211 -1.1334
 6933SOL     OW32431   2.980   1.763   6.049  0.6738 -0.6806  0.2218
 6933SOL    HW132432   2.972   1.852   6.016 -1.4549 -0.5589  1.0572
 6933SOL    HW232433   3.073   1.759   6.072  0.3924 -0.8247  1.3774
 6934SOL     OW32434   2.859   3.529   7.174 -0.1108 -0.7687  0.5905
 6934SOL    HW132435   2.814   3.515   7.091  0.6902 -1.3979  0.2627
 6934SOL    HW232436   2.925   3.460   7.167  0.6314 -0.0357  0.3401
 6935SOL     OW32437   2.373   4.592  13.972  0.0489 -0.5827 -0.2536
 6935SOL    HW132438   2.395   4.543  14.051 -0.5730 -1.7285 -0.7885
 6935SOL    HW232439   2.299   4.643  14.006  0.7438  0.2988 -0.0847
 6936SOL     OW32440   2.004   3.135   4.077  0.3399 -0.0583  0.2230
 6936SOL    HW132441   2.061   3.161   4.005  0.9514 -1.5034  0.1671
 6936SOL    HW232442   1.920   3.156   4.036  0.1175 -0.0317  0.7023
 6937SOL     OW32443   3.435   4.308  11.914 -0.1151 -0.2838 -0.3868
 6937SOL    HW132444   3.506   4.313  11.850  0.4963 -0.1655  0.3011
 6937SOL    HW232445   3.376   4.381  11.894  1.2567 -0.1408 -3.8397
 6938SOL     OW32446   0.313   3.015   2.351 -0.2939  0.3296  0.2709
 6938SOL    HW132447   0.225   3.045   2.325 -0.8593 -0.6931  1.0151
 6938SOL    HW232448   0.341   3.092   2.400 -0.4276  0.5290  0.0396
 6939SOL     OW32449   2.097   3.060   8.183  0.5536 -0.4125 -0.3782
 6939SOL    HW132450   2.036   3.103   8.124 -0.7986 -1.0356  0.5386
 6939SOL    HW232451   2.062   3.101   8.262 -0.6778  0.7059 -1.5122
 6940SOL     OW32452   4.118   4.109   8.526 -0.5234  0.4665  0.2354
 6940SOL    HW132453   4.139   4.182   8.585 -0.8333  0.4280  0.3936
 6940SOL    HW232454   4.145   4.030   8.573  0.5213  0.5746 -0.1824
 6941SOL     OW32455   0.628   2.271   1.973 -0.0402  0.2278 -0.1822
 6941SOL    HW132456   0.584   2.203   2.025 -0.0039  0.6459  0.4022
 6941SOL    HW232457   0.570   2.346   1.989  1.1922  1.5835 -2.1821
 6942SOL     OW32458   3.922   3.256  15.490  0.4401  0.4400  0.2327
 6942SOL    HW132459   3.935   3.234  15.398 -1.7004  0.0896  0.0206
 6942SOL    HW232460   3.849   3.200  15.516  0.6025  1.1924  2.3043
 6943SOL     OW32461   4.094   3.931   8.834 -0.3532  0.5539 -0.2691
 6943SOL    HW132462   4.176   3.951   8.879 -0.4831 -0.1397  0.2713
 6943SOL    HW232463   4.029   3.893   8.893 -0.2389  0.4536 -0.2084
 6944SOL     OW32464   2.372   1.937   4.510  0.0417  0.5250  0.5593
 6944SOL    HW132465   2.452   1.884   4.508  0.9677  2.0152 -2.1073
 6944SOL    HW232466   2.385   1.979   4.595  2.2127 -1.5232  1.2303
 6945SOL     OW32467   0.610   4.693   2.730 -0.7243 -0.2728  0.0849
 6945SOL    HW132468   0.631   4.601   2.740  0.2613  0.0675  1.1811
 6945SOL    HW232469   0.657   4.728   2.806  1.0064 -0.4572 -0.9000
 6946SOL     OW32470   1.497   3.636   1.851 -0.3807  0.0062  0.1570
 6946SOL    HW132471   1.522   3.683   1.772  1.1327 -0.5893  0.2798
 6946SOL    HW232472   1.403   3.637   1.835 -0.6569 -1.4299  1.6938
 6947SOL     OW32473   0.388   1.731  10.198 -0.1324 -0.4487 -0.1632
 6947SOL    HW132474   0.461   1.671  10.185  0.9580  0.7043  0.6049
 6947SOL    HW232475   0.390   1.743  10.293 -1.0406  0.3532 -0.2441
 6948SOL     OW32476   4.479   4.320   2.103  0.0848  0.5287 -0.5232
 6948SOL    HW132477   4.450   4.279   2.185  1.0949  0.5404 -0.1557
 6948SOL    HW232478   4.418   4.393   2.102  1.4480  1.6771  0.6428
 6949SOL     OW32479   0.066   2.106   1.757  0.4210  0.6548  0.1320
 6949SOL    HW132480   0.091   2.192   1.723 -0.3661  0.2499 -1.4710
 6949SOL    HW232481   0.010   2.140   1.827 -0.8670  1.8888 -1.4840
 6950SOL     OW32482   0.712   3.783   8.520 -0.0415  0.0807  0.1564
 6950SOL    HW132483   0.758   3.847   8.575  0.3331  0.8500 -1.0646
 6950SOL    HW232484   0.623   3.785   8.557  0.0864 -2.2743  0.5773
 6951SOL     OW32485   0.094   1.318   3.206 -0.2510 -0.4601  0.1435
 6951SOL    HW132486   0.094   1.379   3.131 -0.4322 -0.7905 -0.1243
 6951SOL    HW232487   0.083   1.230   3.170  0.0779 -0.1338 -0.7562
 6952SOL     OW32488   0.850   4.223  16.138  0.3682  0.2934  0.3755
 6952SOL    HW132489   0.843   4.315  16.110 -1.0454  0.7116  2.1242
 6952SOL    HW232490   0.913   4.221  16.209 -1.5979  2.6615  2.1832
 6953SOL     OW32491   0.328   4.514   6.082 -0.4903 -0.2395  0.7563
 6953SOL    HW132492   0.303   4.604   6.059  0.1010  0.1400  1.6171
 6953SOL    HW232493   0.375   4.531   6.163  0.0207 -4.1796  1.2732
 6954SOL     OW32494   4.260   0.619  12.084  0.6095 -0.3510 -0.0403
 6954SOL    HW132495   4.243   0.575  12.167  0.2097  0.7724  0.4700
 6954SOL    HW232496   4.235   0.551  12.021 -2.4476  1.7998 -1.1822
 6955SOL     OW32497   3.643   2.083   4.038 -0.4834  0.1845  0.2140
 6955SOL    HW132498   3.595   2.085   3.955  0.3742  0.8420 -0.2694
 6955SOL    HW232499   3.735   2.102   4.022 -0.7425 -2.3865 -4.3214
 6956SOL     OW32500   0.857   1.479   3.339  0.2615 -0.1496  0.3591
 6956SOL    HW132501   0.924   1.438   3.284 -1.0494 -1.9658  0.1005
 6956SOL    HW232502   0.780   1.470   3.283  0.6278  1.4614 -0.3755
 6957SOL     OW32503   2.616   4.300  12.823  0.2387  0.7867  0.3738
 6957SOL    HW132504   2.691   4.351  12.854 -1.9424  2.7332  2.4526
 6957SOL    HW232505   2.641   4.257  12.741  1.1435  1.7817  0.1356
 6958SOL     OW32506   2.377   0.129   4.072 -0.6654  0.0144 -0.7378
 6958SOL    HW132507   2.415   0.048   4.107 -2.1273 -1.0637 -1.6970
 6958SOL    HW232508   2.449   0.187   4.100 -1.6732 -0.1490  2.2278
 6959SOL     OW32509   3.978   4.672  11.912  0.1595 -0.3903  0.2135
 6959SOL    HW132510   4.067   4.653  11.941 -0.1937 -0.1329  1.4732
 6959SOL    HW232511   3.928   4.605  11.958  0.8686 -1.0521  0.0231
 6960SOL     OW32512   3.790   4.627   8.842  0.4679 -0.2207  0.1046
 6960SOL    HW132513   3.850   4.559   8.810  2.1597  0.1118  2.6297
 6960SOL    HW232514   3.735   4.586   8.908  0.7087  1.8798  1.5980
 6961SOL     OW32515   3.254   1.764   1.678  0.0954 -0.5160  0.0191
 6961SOL    HW132516   3.336   1.799   1.712  0.3921 -2.8945  1.7396
 6961SOL    HW232517   3.265   1.763   1.583  0.2490  1.6971 -0.0022
 6962SOL     OW32518   4.277   1.584   5.725  0.3115  0.1839  0.4617
 6962SOL    HW132519   4.298   1.674   5.698 -0.5261 -0.1571 -1.3333
 6962SOL    HW232520   4.363   1.571   5.764 -0.8680 -2.2033  2.2240
 6963SOL     OW32521   4.565   2.550   5.963 -0.2744  0.3419 -0.2507
 6963SOL    HW132522   4.491   2.524   6.018 -0.1085  2.0350  0.7861
 6963SOL    HW232523   4.522   2.625   5.921 -2.8397 -1.2935 -0.5116
 6964SOL     OW32524   2.992   2.265   8.707 -0.1941 -0.3264 -0.4356
 6964SOL    HW132525   2.908   2.272   8.752 -1.0427 -1.3558 -1.8966
 6964SOL    HW232526   3.042   2.342   8.734  0.0564 -0.6787  0.1150
 6965SOL     OW32527   3.111   1.446  13.038  0.2196  0.1752  0.3521
 6965SOL    HW132528   3.162   1.468  13.116 -1.4198  1.2568  1.1345
 6965SOL    HW232529   3.081   1.537  13.029 -0.9513 -0.0527  1.8303
 6966SOL     OW32530   3.181   0.006   1.411  0.4026 -0.2690  0.0119
 6966SOL    HW132531   3.136   0.072   1.360 -0.5010 -0.3851  0.6392
 6966SOL    HW232532   3.198   4.673   1.350  1.6019  2.1238 -2.4617
 6967SOL     OW32533   2.161   0.644   9.995  0.4450  0.1156 -0.3930
 6967SOL    HW132534   2.069   0.661  10.018  1.1803 -1.1303  3.3777
 6967SOL    HW232535   2.201   0.701  10.060 -0.1848 -0.4635  0.4994
 6968SOL     OW32536   4.582   1.957   5.618 -0.5346  0.2040 -0.1082
 6968SOL    HW132537   4.648   1.888   5.615 -1.7546 -0.9071 -1.0689
 6968SOL    HW232538   4.638   2.035   5.613 -1.6294  0.9331 -1.1111
 6969SOL     OW32539   4.368   4.560   4.240 -0.4824 -0.0952 -0.2075
 6969SOL    HW132540   4.411   4.572   4.156  3.0935 -0.4517  1.5519
 6969SOL    HW232541   4.437   4.528   4.299 -0.1531 -0.1389 -0.6193
 6970SOL     OW32542   0.641   0.667   8.381  0.1962  0.1755  0.9490
 6970SOL    HW132543   0.604   0.754   8.396 -0.4626 -0.0217  0.4821
 6970SOL    HW232544   0.567   0.630   8.428  1.4700 -2.0632  1.1663
 6971SOL     OW32545   0.687   4.164   1.949  0.0101 -0.3872  0.4577
 6971SOL    HW132546   0.767   4.122   1.917  0.4981  0.6837  0.2622
 6971SOL    HW232547   0.699   4.251   1.911 -1.1501  0.0465  1.0954
 6972SOL     OW32548   4.358   4.639   4.580 -0.4889  0.3538  0.9167
 6972SOL    HW132549   4.377   4.725   4.619 -0.4352 -0.1445  1.9882
 6972SOL    HW232550   4.282   4.611   4.630 -0.5007 -0.8992  0.1739
 6973SOL     OW32551   3.559   3.165   0.628  0.2438  0.0004 -0.4213
 6973SOL    HW132552   3.635   3.108   0.617  1.0615  1.2290 -1.0949
 6973SOL    HW232553   3.533   3.189   0.539 -2.7159 -0.4057  0.3200
 6974SOL     OW32554   4.226   2.196   6.628  0.2558 -0.8597 -0.4144
 6974SOL    HW132555   4.154   2.204   6.692 -0.1860 -2.2379 -0.7548
 6974SOL    HW232556   4.205   2.282   6.591 -1.6266 -0.8196  0.7062
 6975SOL     OW32557   2.647   1.891   4.222 -0.2689 -0.5644 -0.0388
 6975SOL    HW132558   2.711   1.933   4.280 -3.5472  1.2327  2.2594
 6975SOL    HW232559   2.601   1.968   4.190  0.5691 -0.7165 -1.6013
 6976SOL     OW32560   1.965   1.499   6.845  0.0965 -0.1406 -0.7298
 6976SOL    HW132561   2.013   1.506   6.928 -3.5396  0.0965  1.3528
 6976SOL    HW232562   1.989   1.417   6.801  2.0028  2.2847 -4.2209
 6977SOL     OW32563   3.668   2.669   2.035 -0.5739  0.4062 -0.0268
 6977SOL    HW132564   3.738   2.631   1.982 -0.2850  0.0003  0.6372
 6977SOL    HW232565   3.685   2.641   2.125 -1.8683  0.6984  0.3046
 6978SOL     OW32566   0.901   1.188   5.072  0.2084  0.2699 -0.0825
 6978SOL    HW132567   0.994   1.208   5.081  1.0024 -2.3015 -2.5466
 6978SOL    HW232568   0.900   1.101   5.111 -1.5129 -0.2381 -1.2644
 6979SOL     OW32569   3.776   2.809   9.207  0.4615 -0.0111 -0.2693
 6979SOL    HW132570   3.705   2.753   9.238 -0.7962  3.3766  2.9500
 6979SOL    HW232571   3.733   2.867   9.144 -0.6860 -0.8841 -0.2775
 6980SOL     OW32572   1.284   2.025   5.075  0.2978 -0.2417 -0.7034
 6980SOL    HW132573   1.380   2.022   5.074  0.4565  4.8447  1.7213
 6980SOL    HW232574   1.271   2.070   5.159  0.2785  0.6431 -1.1833
 6981SOL     OW32575   2.972   1.263   7.499 -0.8603  0.1259  0.3699
 6981SOL    HW132576   2.959   1.339   7.443  1.6707  0.5065  0.2722
 6981SOL    HW232577   3.052   1.297   7.541  0.3781  0.3143 -2.1256
 6982SOL     OW32578   3.412   1.885   8.743  0.4046 -0.5938 -0.7531
 6982SOL    HW132579   3.341   1.945   8.765  0.2912 -1.2892  0.7711
 6982SOL    HW232580   3.479   1.920   8.802 -1.8122  1.5154  0.5028
 6983SOL     OW32581   0.976   4.028   9.720 -0.3006 -0.6241  0.1574
 6983SOL    HW132582   0.909   4.024   9.789 -0.9979 -1.9905 -0.6076
 6983SOL    HW232583   0.931   4.094   9.668 -0.1910  0.0578  0.9232
 6984SOL     OW32584   0.404   0.831  17.562  0.2286  0.2923  0.1416
 6984SOL    HW132585   0.430   0.845  17.471 -2.4539  1.4272 -0.4568
 6984SOL    HW232586   0.369   0.742  17.562 -3.1344  1.6103 -1.3896
 6985SOL     OW32587   2.542   4.636  17.124  0.8597  0.1619 -0.2130
 6985SOL    HW132588   2.604   4.668  17.059  0.3981 -1.6389 -1.5514
 6985SOL    HW232589   2.597   4.617  17.200  0.4927 -0.7887 -0.1798
 6986SOL     OW32590   1.812   3.412   4.271 -0.3426 -0.3090 -0.1087
 6986SOL    HW132591   1.834   3.343   4.209  0.6204  0.4939 -0.6567
 6986SOL    HW232592   1.787   3.484   4.212  0.7164 -0.5665 -0.8840
 6987SOL     OW32593   4.603   1.099   3.563 -0.1547 -0.2869 -0.0279
 6987SOL    HW132594   4.570   1.039   3.631 -0.0492  0.1990  0.4494
 6987SOL    HW232595   4.689   1.118   3.599 -0.5522 -0.2170  0.8957
 6988SOL     OW32596   3.499   1.526   6.709 -0.7253  0.1357 -0.2089
 6988SOL    HW132597   3.552   1.447   6.702  0.3083  0.8338 -0.3245
 6988SOL    HW232598   3.563   1.570   6.766 -0.4537  0.2396 -0.5938
 6989SOL     OW32599   4.051   4.729   3.254 -0.2559  0.4607  0.1684
 6989SOL    HW132600   4.002   0.067   3.282 -1.2618 -0.0444 -0.2136
 6989SOL    HW232601   4.113   0.001   3.326  0.6505 -0.1078 -0.5227
 6990SOL     OW32602   3.087   1.215  12.029 -0.5648 -0.7982 -0.3776
 6990SOL    HW132603   3.014   1.239  12.086  1.0775  0.5040  1.1446
 6990SOL    HW232604   3.133   1.155  12.088  1.8612 -0.8308 -2.3134
 6991SOL     OW32605   2.390   0.807   8.413 -0.6074  0.4393 -0.1486
 6991SOL    HW132606   2.397   0.858   8.493 -2.7264  1.2647 -0.4907
 6991SOL    HW232607   2.480   0.812   8.380  0.4568  1.2231  2.9221
 6992SOL     OW32608   3.992   4.415   6.653  0.2257  0.2909 -0.3640
 6992SOL    HW132609   4.013   4.322   6.645 -0.1479 -0.0598  2.8472
 6992SOL    HW232610   4.076   4.437   6.693 -0.0900 -0.0041  0.4444
 6993SOL     OW32611   2.131   1.982   2.474 -0.3701  0.7173  0.0873
 6993SOL    HW132612   2.070   1.965   2.402  0.4306  0.0083 -0.4313
 6993SOL    HW232613   2.211   1.946   2.435  0.3212  2.7386 -0.3413
 6994SOL     OW32614   1.793   1.070   3.632 -0.3351  0.1052  0.0376
 6994SOL    HW132615   1.812   0.996   3.576 -0.9974  0.6720 -0.9406
 6994SOL    HW232616   1.875   1.117   3.620  0.0949 -0.3213  1.2419
 6995SOL     OW32617   3.132   0.846   4.098  0.7607  0.2975 -0.8034
 6995SOL    HW132618   3.180   0.925   4.072  2.8570 -1.3943 -2.0939
 6995SOL    HW232619   3.185   0.800   4.163 -1.2933 -0.6523  0.2172
 6996SOL     OW32620   2.315   3.642  16.347  0.3707  0.5690  0.0025
 6996SOL    HW132621   2.390   3.699  16.331 -0.4313  0.7498 -3.1033
 6996SOL    HW232622   2.302   3.599  16.263 -3.3406 -2.5932  2.1824
 6997SOL     OW32623   0.512   1.448   2.866  0.4393 -0.4540  0.1111
 6997SOL    HW132624   0.605   1.434   2.852  0.7652  1.6417  0.1590
 6997SOL    HW232625   0.486   1.508   2.795  0.9579  1.3369  1.4435
 6998SOL     OW32626   4.708   4.512   1.550  0.2307 -0.3153 -0.0947
 6998SOL    HW132627   4.695   4.490   1.458 -2.1889 -0.5245  0.3082
 6998SOL    HW232628   0.034   4.582   1.544 -1.5603  1.1123 -2.5585
 6999SOL     OW32629   2.363   1.806  16.292 -0.2751 -0.1125 -0.0522
 6999SOL    HW132630   2.292   1.843  16.239 -0.3545  1.4235  1.1415
 6999SOL    HW232631   2.368   1.715  16.261  0.7636 -0.6429  1.6519
 7000SOL     OW32632   2.836   2.076  16.549  0.6015  0.0336  0.3106
 7000SOL    HW132633   2.857   2.052  16.639 -0.7971  0.3163  0.7184
 7000SOL    HW232634   2.916   2.126  16.533  2.2969 -2.4507  1.1168
 7001SOL     OW32635   2.996   3.728   7.404  0.3279 -0.1793 -0.2098
 7001SOL    HW132636   3.076   3.679   7.424 -0.3261 -0.9078  0.5717
 7001SOL    HW232637   2.974   3.775   7.484  2.7191 -0.8299  0.8246
 7002SOL     OW32638   4.108   1.431   4.935  0.5517 -0.2820  0.4084
 7002SOL    HW132639   4.049   1.357   4.922 -0.1321  0.3454 -0.1006
 7002SOL    HW232640   4.062   1.490   4.995 -1.9713 -0.9785 -0.8250
 7003SOL     OW32641   4.636   3.393   2.107 -0.4005 -0.8047  0.2340
 7003SOL    HW132642   4.613   3.485   2.122  2.1140 -0.2360  0.6905
 7003SOL    HW232643   4.727   3.408   2.080 -0.7315  5.6835  2.7202
 7004SOL     OW32644   2.145   4.278   7.462  0.4838 -0.1572  0.7983
 7004SOL    HW132645   2.131   4.266   7.368 -1.5978 -1.4954  1.2890
 7004SOL    HW232646   2.073   4.337   7.485  0.0186 -0.9098  1.2893
 7005SOL     OW32647   1.452   2.329  16.790  0.0908 -1.0051 -0.0854
 7005SOL    HW132648   1.531   2.328  16.735  0.2727  0.1793  0.1556
 7005SOL    HW232649   1.380   2.296  16.736 -2.2365  0.1400  2.3383
 7006SOL     OW32650   3.241   4.410  16.230 -0.7831  0.0318 -0.3116
 7006SOL    HW132651   3.311   4.417  16.166  0.6542  1.0592  1.3778
 7006SOL    HW232652   3.270   4.332  16.276  0.9737 -0.0071 -1.4992
 7007SOL     OW32653   0.202   1.491   5.836  0.3523  0.7040 -0.2009
 7007SOL    HW132654   0.231   1.404   5.865  0.0845  0.2558 -1.2882
 7007SOL    HW232655   0.137   1.458   5.774  2.2778 -4.3591  0.4404
 7008SOL     OW32656   2.395   0.077   2.364  0.3230  0.1775  0.2292
 7008SOL    HW132657   2.440   0.157   2.391  0.0975 -0.1284  1.5341
 7008SOL    HW232658   2.441   0.012   2.417 -0.5895 -0.5437  0.1504
 7009SOL     OW32659   1.350   4.250   6.755  0.2933 -0.2249  0.1021
 7009SOL    HW132660   1.257   4.263   6.738 -0.0526  0.1925  2.3353
 7009SOL    HW232661   1.338   4.228   6.847  0.0253  1.2968  0.4432
 7010SOL     OW32662   4.365   0.035   0.278 -0.2854 -0.3781  0.3378
 7010SOL    HW132663   4.308   0.095   0.326 -2.9179 -1.7880 -1.0043
 7010SOL    HW232664   4.388   4.710   0.346 -0.0273  0.8867  1.4432
 7011SOL     OW32665   1.719   0.520  13.839 -0.5142  0.1693 -0.3607
 7011SOL    HW132666   1.699   0.569  13.759  0.0125  1.0052  0.0108
 7011SOL    HW232667   1.736   0.600  13.890 -0.6029  0.3754 -0.6561
 7012SOL     OW32668   1.877   0.061   8.101  0.0809 -0.1811 -0.2593
 7012SOL    HW132669   1.850   0.097   8.016 -1.4118 -2.5996 -0.7947
 7012SOL    HW232670   1.931   4.729   8.068  0.2370  0.4819 -1.4382
 7013SOL     OW32671   2.610   0.729  10.383 -0.3219  0.2093 -0.6100
 7013SOL    HW132672   2.538   0.747  10.323 -0.6138  0.2920 -0.2299
 7013SOL    HW232673   2.676   0.688  10.327  1.0278 -1.2742  2.0360
 7014SOL     OW32674   0.284   0.079  17.653 -0.1447 -0.2093 -0.0142
 7014SOL    HW132675   0.352   0.030  17.697 -1.4802 -3.2426 -1.2878
 7014SOL    HW232676   0.212   0.044  17.706 -0.8064 -1.1236 -1.4861
 7015SOL     OW32677   1.073   0.625   6.043  0.4390 -0.1510 -0.0228
 7015SOL    HW132678   1.126   0.605   5.965  0.6745 -1.3726  0.4512
 7015SOL    HW232679   1.128   0.570   6.098 -0.1803 -0.0193  0.7242
 7016SOL     OW32680   2.710   2.662  13.215  0.2416 -0.4106 -0.1987
 7016SOL    HW132681   2.790   2.715  13.225  0.6310 -1.1164  0.4172
 7016SOL    HW232682   2.735   2.583  13.263 -2.3621 -0.8500  0.4122
 7017SOL     OW32683   2.232   0.932   5.683  0.0408 -0.2378  0.0921
 7017SOL    HW132684   2.243   0.903   5.592  0.0006 -0.3107  0.1108
 7017SOL    HW232685   2.166   1.000   5.669  1.3648  1.2312  0.9748
 7018SOL     OW32686   0.115   3.811   1.780  0.0049 -0.2606  0.2719
 7018SOL    HW132687   0.133   3.900   1.811  0.8110  0.0328 -1.0347
 7018SOL    HW232688   0.181   3.751   1.816 -1.3140 -0.7970  1.7875
 7019SOL     OW32689   0.305   1.535   9.122  0.0421 -0.5637  0.0838
 7019SOL    HW132690   0.280   1.590   9.196 -1.6079 -1.0020 -0.1560
 7019SOL    HW232691   0.384   1.500   9.164  1.8369  1.4736 -1.6442
 7020SOL     OW32692   0.372   3.048  12.860 -0.2733  0.8494  0.0685
 7020SOL    HW132693   0.277   3.038  12.851 -0.1871 -0.0750  0.1148
 7020SOL    HW232694   0.392   3.075  12.771 -1.5758 -0.5867 -0.6672
 7021SOL     OW32695   3.648   0.253   2.610 -0.1027 -0.2134 -0.2493
 7021SOL    HW132696   3.571   0.195   2.609 -0.0912 -0.2089 -1.4663
 7021SOL    HW232697   3.707   0.194   2.655 -1.4704  1.0454  3.1732
 7022SOL     OW32698   3.542   4.525   1.553  0.4904  0.6545 -0.2155
 7022SOL    HW132699   3.499   4.447   1.588  2.3439 -0.3177 -0.1402
 7022SOL    HW232700   3.538   4.599   1.614  0.7247 -0.0999  0.7189
 7023SOL     OW32701   0.642   1.880  10.694  0.0006 -0.7322  0.2390
 7023SOL    HW132702   0.656   1.876  10.789 -0.9424 -2.3831  0.3169
 7023SOL    HW232703   0.549   1.862  10.681 -0.3838  0.7546  0.9824
 7024SOL     OW32704   3.923   1.955   6.837 -0.0579 -0.7157  0.3528
 7024SOL    HW132705   3.870   1.975   6.914  0.2584 -2.7481  1.0882
 7024SOL    HW232706   3.967   1.880   6.877  2.0223 -0.6295 -1.8080
 7025SOL     OW32707   1.365   1.419  17.231  0.1880 -0.0518 -0.3898
 7025SOL    HW132708   1.384   1.513  17.223 -1.9437  0.3672 -0.4754
 7025SOL    HW232709   1.428   1.381  17.169  1.0270  1.1592 -0.2830
 7026SOL     OW32710   0.703   3.251   9.086  0.1191 -0.1311 -0.0444
 7026SOL    HW132711   0.744   3.303   9.155  2.3794 -0.6982 -0.9250
 7026SOL    HW232712   0.681   3.169   9.130  1.1228 -1.4404 -1.9157
 7027SOL     OW32713   0.765   3.522  16.288 -0.6000  0.1499 -0.7738
 7027SOL    HW132714   0.803   3.501  16.203 -0.4169  1.1935 -0.9485
 7027SOL    HW232715   0.822   3.469  16.344 -2.9171 -0.7352  0.7184
 7028SOL     OW32716   0.492   1.096   1.836 -0.3431  0.2322  0.4872
 7028SOL    HW132717   0.500   1.027   1.902 -0.2139 -0.1835  0.0361
 7028SOL    HW232718   0.397   1.109   1.835 -0.3988 -0.3205 -1.6424
 7029SOL     OW32719   3.459   4.297   2.965  0.3240  0.1652 -0.1583
 7029SOL    HW132720   3.538   4.248   2.989  0.1058  1.1026  2.5592
 7029SOL    HW232721   3.401   4.260   3.032 -0.4805 -1.3151 -1.6892
 7030SOL     OW32722   4.106   4.276   2.418  0.6281  0.1835 -0.5863
 7030SOL    HW132723   4.064   4.209   2.471  2.1190 -0.9673 -0.8365
 7030SOL    HW232724   4.158   4.226   2.354 -2.0457 -1.6190 -1.3400
 7031SOL     OW32725   0.736   3.635   5.518  1.1664 -0.3111  0.8194
 7031SOL    HW132726   0.702   3.562   5.467  2.9502 -0.4167 -0.2360
 7031SOL    HW232727   0.726   3.604   5.608  0.2032  0.4478  0.9757
 7032SOL     OW32728   2.233   1.860   7.893 -0.0436 -0.2553 -0.6882
 7032SOL    HW132729   2.264   1.780   7.936 -1.0911 -0.3938 -0.1804
 7032SOL    HW232730   2.265   1.929   7.953 -3.6560  0.6677  0.1725
 7033SOL     OW32731   0.675   4.530   2.954  0.5942  0.0975 -0.3686
 7033SOL    HW132732   0.687   4.470   3.028  0.4367  1.1351  0.5036
 7033SOL    HW232733   0.581   4.546   2.965  0.7220  1.8722 -1.8196
 7034SOL     OW32734   0.736   3.865   6.627  0.0716  0.1473  0.1556
 7034SOL    HW132735   0.663   3.802   6.630  0.8805 -0.8252 -1.0844
 7034SOL    HW232736   0.696   3.939   6.674  0.4215  0.3613  0.1105
 7035SOL     OW32737   0.189   3.451   7.254  0.1441 -0.3791 -0.4441
 7035SOL    HW132738   0.166   3.391   7.183 -3.4572 -1.0260  1.2529
 7035SOL    HW232739   0.105   3.474   7.295 -1.2720 -2.5690 -2.1255
 7036SOL     OW32740   3.305   0.568   3.768 -0.3342  0.7527  0.4526
 7036SOL    HW132741   3.253   0.516   3.707  1.4632 -1.9398  1.2169
 7036SOL    HW232742   3.240   0.630   3.803 -0.3693  1.6497 -1.2056
 7037SOL     OW32743   0.483   1.354   6.722 -0.0916  0.6301 -0.1760
 7037SOL    HW132744   0.431   1.273   6.720  3.4049 -1.5830 -1.4423
 7037SOL    HW232745   0.473   1.381   6.813 -0.3597  0.4120 -0.1403
 7038SOL     OW32746   3.134   2.945   8.612  0.8074  0.2764 -0.2070
 7038SOL    HW132747   3.121   2.876   8.677  0.7479  0.9695  0.5138
 7038SOL    HW232748   3.107   3.022   8.662  0.7056  0.2947 -0.2908
 7039SOL     OW32749   1.629   0.980   7.320 -0.4982 -0.2435  0.0475
 7039SOL    HW132750   1.622   1.074   7.338  0.9641 -0.2825  0.7648
 7039SOL    HW232751   1.582   0.974   7.237  2.2395 -1.5437 -1.4062
 7040SOL     OW32752   4.643   2.848   7.457 -0.6174 -0.5595  0.1705
 7040SOL    HW132753   4.675   2.758   7.460  1.8234  0.2971 -0.0501
 7040SOL    HW232754   4.560   2.832   7.501 -2.4205 -0.4218 -3.2097
 7041SOL     OW32755   2.812   3.284   8.758  0.2966  0.3172  0.1603
 7041SOL    HW132756   2.756   3.226   8.707  1.3135  0.1731 -0.7672
 7041SOL    HW232757   2.891   3.233   8.770 -0.6524 -1.3609 -0.7554
 7042SOL     OW32758   3.356   0.141   1.597 -0.5686 -0.2266  0.0638
 7042SOL    HW132759   3.351   0.093   1.680 -0.8883  0.9485  0.7396
 7042SOL    HW232760   3.335   0.081   1.526  1.8801 -0.0968 -0.7669
 7043SOL     OW32761   1.740   2.799   4.316  0.7390 -0.2689  0.8441
 7043SOL    HW132762   1.671   2.830   4.375 -0.2370 -1.7015  0.4446
 7043SOL    HW232763   1.792   2.878   4.298 -0.5260  0.2790 -0.3641
 7044SOL     OW32764   1.880   0.894   7.832 -0.5251  0.5091 -0.4595
 7044SOL    HW132765   1.871   0.912   7.739  0.6676  1.5259 -0.3722
 7044SOL    HW232766   1.806   0.931   7.880  1.2331  1.6150  1.3987
 7045SOL     OW32767   3.473   3.884   4.438 -0.6030 -0.5241  0.1431
 7045SOL    HW132768   3.526   3.955   4.476 -0.5271 -0.0266 -0.8938
 7045SOL    HW232769   3.533   3.814   4.413 -0.2579  1.0189 -3.3090
 7046SOL     OW32770   2.205   2.935   1.136  0.1069 -0.7067 -0.9836
 7046SOL    HW132771   2.230   2.871   1.203 -1.5093  0.3225  0.6129
 7046SOL    HW232772   2.118   2.901   1.118 -0.8324  1.2059 -0.1002
 7047SOL     OW32773   1.663   4.154   8.199  0.2262  0.4089  0.3512
 7047SOL    HW132774   1.690   4.091   8.132 -0.0630 -0.9457  1.4929
 7047SOL    HW232775   1.685   4.105   8.278 -0.4199 -2.8681 -1.5190
 7048SOL     OW32776   2.572   1.937   3.483 -0.0407  0.0605  0.4060
 7048SOL    HW132777   2.524   2.005   3.530 -1.8610 -0.5748 -0.5278
 7048SOL    HW232778   2.507   1.867   3.468  0.5397 -0.2574 -0.6684
 7049SOL     OW32779   0.668   1.676   2.114  0.8647  0.3479 -0.0677
 7049SOL    HW132780   0.592   1.621   2.101 -0.0983  1.9132 -1.0154
 7049SOL    HW232781   0.652   1.688   2.208 -1.2857  3.4677 -0.8470
 7050SOL     OW32782   3.841   1.985  14.785  0.2517  0.0311  0.7199
 7050SOL    HW132783   3.887   2.011  14.865  0.9512  0.3152  0.2229
 7050SOL    HW232784   3.857   2.056  14.723  0.0689 -0.2311  0.3765
 7051SOL     OW32785   2.216   4.452   9.220  0.1827  0.1718  0.0350
 7051SOL    HW132786   2.227   4.357   9.213 -0.3595  0.1551 -0.5705
 7051SOL    HW232787   2.146   4.462   9.284 -0.0855  0.4230 -0.2996
 7052SOL     OW32788   0.993   1.235  10.034  0.6657 -0.0037 -0.5409
 7052SOL    HW132789   1.039   1.166  10.082 -1.4604 -1.8833 -1.2005
 7052SOL    HW232790   1.070   1.273   9.993  1.9072 -0.8242  1.0334
 7053SOL     OW32791   2.882   1.119   2.536 -0.0044 -0.2083 -0.1265
 7053SOL    HW132792   2.891   1.050   2.602  2.0373  1.5568  1.4497
 7053SOL    HW232793   2.819   1.185   2.566  0.4630  1.0914 -1.9896
 7054SOL     OW32794   2.907   1.577  12.247  0.1150  0.4900 -0.0703
 7054SOL    HW132795   2.821   1.618  12.258  0.0932 -0.1166  2.2026
 7054SOL    HW232796   2.962   1.655  12.252  0.0680  0.3422  3.2971
 7055SOL     OW32797   0.420   1.207   7.546 -0.4289 -0.2637  0.4102
 7055SOL    HW132798   0.512   1.216   7.521 -0.2321 -2.6693  0.3162
 7055SOL    HW232799   0.394   1.243   7.461  1.4118  0.3839  0.1176
 7056SOL     OW32800   0.891   1.708  17.188 -0.1951  0.3616 -0.5473
 7056SOL    HW132801   0.960   1.774  17.194  1.3568 -1.2591 -0.4286
 7056SOL    HW232802   0.938   1.628  17.165 -0.3863  0.9114 -2.8697
 7057SOL     OW32803   3.087   1.565  16.447  0.2512  0.1802 -0.7066
 7057SOL    HW132804   3.150   1.495  16.459  0.1841  0.1566 -0.4812
 7057SOL    HW232805   3.021   1.542  16.513  0.8934 -1.6938 -0.7183
 7058SOL     OW32806   0.782   2.758   2.530  0.8612  0.5141  0.0555
 7058SOL    HW132807   0.720   2.778   2.461  0.0441  1.3880  1.0453
 7058SOL    HW232808   0.729   2.766   2.610  0.3782 -0.8632 -0.1178
 7059SOL     OW32809   2.460   3.116   8.099  0.1067  0.1836 -0.1386
 7059SOL    HW132810   2.538   3.129   8.044  0.5069 -1.8403 -0.0669
 7059SOL    HW232811   2.395   3.127   8.030 -0.1533 -1.4435 -0.1629
 7060SOL     OW32812   3.762   0.660   4.021  0.1251  0.0400  0.5155
 7060SOL    HW132813   3.684   0.648   3.968 -0.4005  2.5467  0.7266
 7060SOL    HW232814   3.821   0.703   3.959  0.1860  0.4991  0.8914
 7061SOL     OW32815   1.466   1.893  16.104 -0.3596 -0.4378 -0.3604
 7061SOL    HW132816   1.511   1.976  16.120 -0.1793 -0.8191  1.1172
 7061SOL    HW232817   1.413   1.868  16.179 -1.5924  0.5574 -0.8925
 7062SOL     OW32818   2.700   2.402   2.652  0.1329  0.6202 -0.4499
 7062SOL    HW132819   2.710   2.394   2.557 -0.0423  1.2309 -0.5215
 7062SOL    HW232820   2.610   2.369   2.661 -0.3038  1.5663 -1.3811
 7063SOL     OW32821   1.112   4.610   2.561  0.2436  0.3062 -0.2873
 7063SOL    HW132822   1.160   4.527   2.562 -1.2737 -0.5675 -0.0185
 7063SOL    HW232823   1.087   4.625   2.652 -0.8766  2.1275 -0.8798
 7064SOL     OW32824   1.662   3.572   4.735  0.0033 -0.2464 -0.0625
 7064SOL    HW132825   1.687   3.543   4.823 -1.5390 -2.1555 -0.2572
 7064SOL    HW232826   1.707   3.507   4.681  0.1079  1.2758 -1.7929
 7065SOL     OW32827   2.343   2.101   0.262  0.6318  0.1420  0.3532
 7065SOL    HW132828   2.303   2.185   0.282 -2.9743 -0.9251 -2.2256
 7065SOL    HW232829   2.318   2.053   0.341 -1.2098 -0.2798 -0.4918
 7066SOL     OW32830   2.781   2.534   1.714 -0.0498  0.3009  0.0015
 7066SOL    HW132831   2.704   2.577   1.751 -2.3739 -2.8648 -1.1371
 7066SOL    HW232832   2.791   2.574   1.627  1.2832 -0.3168 -0.1418
 7067SOL     OW32833   0.493   2.651   8.329 -0.1378 -0.5593 -0.8599
 7067SOL    HW132834   0.552   2.619   8.261 -0.6619 -0.6303 -1.2774
 7067SOL    HW232835   0.417   2.686   8.282  0.0117  0.0816 -0.6302
 7068SOL     OW32836   0.294   1.005   2.712  0.4262 -0.3496  0.3882
 7068SOL    HW132837   0.341   1.080   2.673  0.8550 -0.6118  0.3986
 7068SOL    HW232838   0.213   1.003   2.661  0.5620  0.8578  0.1097
 7069SOL     OW32839   2.709   2.659   5.798  0.5596  0.2257 -0.4035
 7069SOL    HW132840   2.713   2.572   5.760 -0.0100  0.9492 -2.1432
 7069SOL    HW232841   2.631   2.690   5.751  0.4920 -0.7991 -0.9754
 7070SOL     OW32842   1.478   3.485   6.549  0.1592  0.1075  0.0953
 7070SOL    HW132843   1.463   3.511   6.458 -2.3875  1.8230  1.0110
 7070SOL    HW232844   1.551   3.544   6.567  0.2489 -0.9877  3.3535
 7071SOL     OW32845   1.883   3.085   9.905  0.1605  0.4106 -0.2832
 7071SOL    HW132846   1.915   3.007   9.951 -0.6790  0.2658  0.0675
 7071SOL    HW232847   1.937   3.079   9.827  2.5377 -0.4285  1.4103
 7072SOL     OW32848   4.524   4.458   4.438 -0.1811 -0.1130  0.1267
 7072SOL    HW132849   4.462   4.508   4.493 -0.9862 -0.8043 -0.1519
 7072SOL    HW232850   4.555   4.391   4.499  0.4125  0.2743  0.2414
 7073SOL     OW32851   2.002   2.008   6.097  0.2721  0.0027 -0.0778
 7073SOL    HW132852   1.986   1.914   6.100  0.1278  0.0968  1.7989
 7073SOL    HW232853   1.918   2.042   6.127  0.7392 -0.5560  1.8194
 7074SOL     OW32854   4.410   2.270  16.836  0.3707  0.6778  0.0479
 7074SOL    HW132855   4.378   2.360  16.838  0.7198  0.7448  2.4886
 7074SOL    HW232856   4.458   2.259  16.918  1.6343  2.6310 -0.4311
 7075SOL     OW32857   1.478   4.319   1.455  0.3263 -0.1032 -0.1923
 7075SOL    HW132858   1.522   4.383   1.400 -1.0892 -0.9526 -2.2962
 7075SOL    HW232859   1.384   4.333   1.440  0.6395  0.8804 -1.2031
 7076SOL     OW32860   3.348   3.609   3.312 -0.1938 -0.2878  0.0778
 7076SOL    HW132861   3.433   3.589   3.353  0.6833  0.6274 -1.3115
 7076SOL    HW232862   3.366   3.584   3.221  1.9575 -1.2178  0.7508
 7077SOL     OW32863   0.394   0.990  17.103 -0.0051 -0.8026 -0.1155
 7077SOL    HW132864   0.338   0.955  17.173 -0.0633  0.5886  0.5316
 7077SOL    HW232865   0.411   0.905  17.062 -1.1634 -1.1076  0.0338
 7078SOL     OW32866   1.978   3.634  12.296 -0.2607  0.7157 -0.4163
 7078SOL    HW132867   1.898   3.636  12.349  0.3485 -0.6482  0.5409
 7078SOL    HW232868   2.045   3.594  12.351  0.0445 -0.1243 -1.4166
 7079SOL     OW32869   2.307   1.584   6.267  0.1603  0.3146 -0.5926
 7079SOL    HW132870   2.276   1.667   6.232  1.6925  0.1494 -2.3578
 7079SOL    HW232871   2.397   1.612   6.284  0.0008  0.1103  0.5937
 7080SOL     OW32872   3.285   3.331   3.056 -0.6163  0.2373 -0.1334
 7080SOL    HW132873   3.352   3.399   3.043  0.7414 -1.3100 -1.1670
 7080SOL    HW232874   3.271   3.339   3.150 -0.4450  2.1333 -0.2636
 7081SOL     OW32875   0.468   3.379  10.466 -0.1240 -0.2608 -0.1875
 7081SOL    HW132876   0.394   3.326  10.496  0.4991 -1.1603 -0.2390
 7081SOL    HW232877   0.477   3.335  10.381 -2.9412  0.6038 -0.9078
 7082SOL     OW32878   3.804   1.184   8.242  0.5101  0.5305 -0.7048
 7082SOL    HW132879   3.892   1.188   8.280  1.2650  0.5430 -2.4604
 7082SOL    HW232880   3.764   1.250   8.298 -1.4686 -0.2760 -1.1486
 7083SOL     OW32881   3.588   1.922   0.315 -0.0345 -0.2518 -0.4012
 7083SOL    HW132882   3.656   1.857   0.298  0.3816 -0.2208  1.1317
 7083SOL    HW232883   3.597   1.988   0.246 -0.1785 -1.8488 -1.9336
 7084SOL     OW32884   4.534   1.255   5.509 -0.1039 -0.0880 -0.0027
 7084SOL    HW132885   4.629   1.258   5.517 -0.3185  1.0567  2.0178
 7084SOL    HW232886   4.510   1.245   5.416 -1.6521 -1.5907  0.5548
 7085SOL     OW32887   4.720   1.321  10.680 -0.3928  0.5094  0.3931
 7085SOL    HW132888   4.644   1.378  10.691 -0.7584  0.2653 -0.9285
 7085SOL    HW232889   4.704   1.270  10.600  0.7894  0.3655  0.2555
 7086SOL     OW32890   3.006   4.611   1.026 -0.2466  0.0773 -0.2594
 7086SOL    HW132891   2.973   4.522   1.039 -2.2031  0.7522 -0.5625
 7086SOL    HW232892   2.954   4.659   1.090  1.5133  0.3463  0.9739
 7087SOL     OW32893   3.774   3.135   6.466 -0.2129 -0.0492  0.4497
 7087SOL    HW132894   3.788   3.100   6.378 -0.2891  1.4037 -0.1340
 7087SOL    HW232895   3.755   3.225   6.440 -2.6499 -1.6783 -3.3102
 7088SOL     OW32896   4.263   0.334   2.481  0.0754  0.5558  0.3011
 7088SOL    HW132897   4.251   0.243   2.454  1.2868 -0.1716  2.2105
 7088SOL    HW232898   4.357   0.344   2.466 -0.3243  1.9599 -1.2178
 7089SOL     OW32899   4.638   0.864   2.740  0.4282  0.6948  0.2905
 7089SOL    HW132900   4.686   0.855   2.657  2.3088 -0.0959  1.4815
 7089SOL    HW232901   4.599   0.778   2.755 -0.2820  0.8676 -0.5167
 7090SOL     OW32902   4.248   1.388   1.624  0.0561 -0.2576 -0.1221
 7090SOL    HW132903   4.166   1.411   1.579 -0.9619 -2.7843  0.4484
 7090SOL    HW232904   4.219   1.383   1.715  1.5777  0.6906  0.4172
 7091SOL     OW32905   2.688   2.503   5.132 -0.1089 -0.2838 -0.8487
 7091SOL    HW132906   2.772   2.510   5.086  1.2517  0.4855  1.7297
 7091SOL    HW232907   2.735   2.464   5.206  0.1922 -0.3160 -1.0541
 7092SOL     OW32908   2.853   4.337   8.840 -0.4856  0.3227  0.3329
 7092SOL    HW132909   2.858   4.432   8.830  0.8367  0.1024 -0.9492
 7092SOL    HW232910   2.934   4.324   8.889 -0.5305 -2.1156 -0.2188
 7093SOL     OW32911   2.384   0.609   3.495 -0.6864  0.6634 -0.0284
 7093SOL    HW132912   2.463   0.635   3.543  0.1206 -1.0975 -0.4140
 7093SOL    HW232913   2.321   0.661   3.544  1.4381  2.4711  0.7960
 7094SOL     OW32914   0.686   2.179   5.173 -0.5045  0.0314  0.7770
 7094SOL    HW132915   0.716   2.090   5.154 -2.6588 -0.4603 -0.2656
 7094SOL    HW232916   0.654   2.211   5.089 -2.2588 -0.4184  1.2731
 7095SOL     OW32917   2.584   3.090   7.853 -0.0145  0.5363  0.4471
 7095SOL    HW132918   2.614   3.028   7.786 -0.2678  0.7947  0.0962
 7095SOL    HW232919   2.513   3.123   7.798 -0.5240 -2.3459 -0.6276
 7096SOL     OW32920   3.907   2.528  12.838  0.8173  0.0264  0.3892
 7096SOL    HW132921   3.837   2.499  12.897  2.3527 -3.2425  0.5872
 7096SOL    HW232922   3.892   2.623  12.835 -0.9278 -0.3448 -2.8993
 7097SOL     OW32923   1.151   4.331   2.432 -0.0046  0.2534  0.6848
 7097SOL    HW132924   1.238   4.310   2.397 -0.8304  1.9845 -2.3965
 7097SOL    HW232925   1.101   4.306   2.354  1.3516  1.3028 -0.5137
 7098SOL     OW32926   1.517   2.209   7.954 -0.1441  0.6866 -0.0345
 7098SOL    HW132927   1.492   2.224   7.863  0.9677  1.5213 -0.2076
 7098SOL    HW232928   1.473   2.276   8.006 -0.5530 -0.2400  0.8197
 7099SOL     OW32929   0.459   4.131  11.900  0.4061  0.3144  0.3237
 7099SOL    HW132930   0.495   4.218  11.917 -0.5356  0.4863  1.4362
 7099SOL    HW232931   0.519   4.105  11.830  0.9290  2.8449 -0.1700
 7100SOL     OW32932   4.625   2.779   8.299 -0.1444  0.2421  0.4747
 7100SOL    HW132933   4.554   2.744   8.353 -0.1389 -0.7612 -0.1672
 7100SOL    HW232934   4.679   2.700   8.294 -1.1044 -0.1569 -3.4891
 7101SOL     OW32935   0.779   4.150   9.584  0.4279  0.0795 -0.2018
 7101SOL    HW132936   0.743   4.078   9.531  0.8580 -0.4211  0.1757
 7101SOL    HW232937   0.765   4.230   9.535  1.1343 -0.3578 -1.1135
 7102SOL     OW32938   3.570   3.124   4.498  0.6198 -0.3248  0.8859
 7102SOL    HW132939   3.605   3.052   4.445  0.9603  0.9780 -0.6709
 7102SOL    HW232940   3.558   3.196   4.436  1.6433 -0.6861  0.2632
 7103SOL     OW32941   2.176   1.140  10.224 -0.1973  0.2165  0.4503
 7103SOL    HW132942   2.164   1.223  10.178  1.8812  0.5953  0.6168
 7103SOL    HW232943   2.113   1.083  10.181 -0.4156  0.9524 -0.2043
 7104SOL     OW32944   3.700   0.533  14.368  0.5758 -0.2469  0.1841
 7104SOL    HW132945   3.777   0.479  14.354  1.6270  1.3544 -0.1186
 7104SOL    HW232946   3.636   0.490  14.311 -0.5447  0.3604  0.9669
 7105SOL     OW32947   2.150   2.058   5.841 -0.1516 -0.1405  0.1584
 7105SOL    HW132948   2.188   1.971   5.831 -1.5376 -0.7096 -0.1952
 7105SOL    HW232949   2.145   2.059   5.936  0.6984  0.2503  0.2010
 7106SOL     OW32950   2.747   4.170   1.490  0.2843  0.7136 -0.5766
 7106SOL    HW132951   2.781   4.153   1.578 -0.1345  0.6089 -0.4310
 7106SOL    HW232952   2.784   4.089   1.454 -2.8495 -1.6524  1.4724
 7107SOL     OW32953   4.631   4.312  11.046 -0.1907  0.1108 -0.2314
 7107SOL    HW132954   4.564   4.308  10.977 -0.8979 -0.8891  0.5170
 7107SOL    HW232955   4.617   4.402  11.072  0.2058  0.1034  0.0057
 7108SOL     OW32956   2.124   0.826   3.522  0.2641 -0.1925 -0.5805
 7108SOL    HW132957   2.049   0.883   3.535 -0.5034 -1.0738 -1.1413
 7108SOL    HW232958   2.125   0.789   3.610  1.2288  0.3906 -0.3450
 7109SOL     OW32959   1.591   3.827   3.606 -0.6935 -0.5225  0.3874
 7109SOL    HW132960   1.543   3.753   3.570  0.7625 -1.3984  0.2413
 7109SOL    HW232961   1.522   3.892   3.623  0.7354  1.4122 -1.1443
 7110SOL     OW32962   3.105   3.687   2.031  0.3678  0.1565  0.6015
 7110SOL    HW132963   3.016   3.652   2.022  0.4949  0.1520 -0.6414
 7110SOL    HW232964   3.145   3.607   2.066 -2.1232 -0.5245  1.9066
 7111SOL     OW32965   3.917   3.264   2.036 -0.2291 -0.7688 -0.6216
 7111SOL    HW132966   3.893   3.190   1.981  2.0788 -3.0486  1.4094
 7111SOL    HW232967   3.906   3.337   1.975 -0.8554 -0.9076 -0.6760
 7112SOL     OW32968   1.953   0.012   5.439  0.0070 -0.0649 -0.2378
 7112SOL    HW132969   1.914   4.664   5.427 -0.0439  0.0759 -1.0601
 7112SOL    HW232970   1.903   0.049   5.512  0.2691 -1.2448  0.5511
 7113SOL     OW32971   1.252   4.450   8.268 -0.3513  0.3537 -0.1414
 7113SOL    HW132972   1.326   4.407   8.310 -1.4367 -0.2086  1.2060
 7113SOL    HW232973   1.265   4.545   8.278  0.3523  0.3335 -0.9042
 7114SOL     OW32974   4.641   2.713   2.382  0.5864 -0.1045  0.3381
 7114SOL    HW132975   4.633   2.631   2.429  0.5104 -0.2403  0.0854
 7114SOL    HW232976   4.642   2.683   2.291 -0.9300 -0.3896  0.4288
 7115SOL     OW32977   2.192   3.166  17.459 -0.0112 -0.0874  0.0115
 7115SOL    HW132978   2.234   3.125  17.535 -1.3190  0.0386  0.8072
 7115SOL    HW232979   2.217   3.257  17.474  0.4350 -0.2673  0.3528
 7116SOL     OW32980   2.497   0.303   4.955  0.0263  0.0317  0.2967
 7116SOL    HW132981   2.569   0.366   4.956 -0.3508  0.4365  1.8119
 7116SOL    HW232982   2.556   0.228   4.948 -1.0368 -0.8165  0.3621
 7117SOL     OW32983   4.125   0.752   5.372  0.5890  0.2736 -0.3814
 7117SOL    HW132984   4.040   0.775   5.409  0.7530  0.3215 -0.0260
 7117SOL    HW232985   4.166   0.838   5.377 -0.3046  0.5653  2.1958
 7118SOL     OW32986   1.990   2.923   6.434  0.7858  0.7220  0.2835
 7118SOL    HW132987   1.903   2.956   6.455  1.3126  0.9249  2.0923
 7118SOL    HW232988   2.030   3.005   6.405  1.5928  0.0856 -0.3989
 7119SOL     OW32989   3.579   0.811   3.623 -0.1779 -0.2481 -0.3396
 7119SOL    HW132990   3.536   0.872   3.563 -1.6552 -1.4747 -0.5364
 7119SOL    HW232991   3.667   0.847   3.616  0.4099 -1.5014  0.5662
 7120SOL     OW32992   4.190   4.079   2.261  0.0692  0.6987 -0.0144
 7120SOL    HW132993   4.199   3.985   2.276  0.2674  1.3734  4.0529
 7120SOL    HW232994   4.193   4.087   2.165  0.2896 -0.3022 -0.0959
 7121SOL     OW32995   4.523   0.167   4.218  0.4595  0.6187 -0.1255
 7121SOL    HW132996   4.478   0.117   4.286  1.6711  1.0051  0.9696
 7121SOL    HW232997   4.453   0.230   4.197 -1.3179 -1.8504 -1.5804
 7122SOL     OW32998   2.090   4.162   4.198  0.1148  0.2111 -0.5153
 7122SOL    HW132999   2.016   4.222   4.185 -0.3122 -0.2371 -0.1574
 7122SOL    HW233000   2.113   4.140   4.107  0.0621 -1.1331 -0.1942
 7123SOL     OW33001   2.591   4.621   3.950  0.2846 -0.7007 -0.1097
 7123SOL    HW133002   2.546   4.582   3.876  1.6473  1.8704 -2.3204
 7123SOL    HW233003   2.565   4.712   3.937  1.1261 -0.6987 -1.7672
 7124SOL     OW33004   2.795   0.989   4.305 -0.1846 -0.3101 -0.3156
 7124SOL    HW133005   2.706   1.005   4.275  0.2623  0.7147 -1.1268
 7124SOL    HW233006   2.783   0.925   4.374  1.4773 -0.3278 -0.0503
 7125SOL     OW33007   3.817   4.504  15.628 -0.3876  0.7200 -0.1780
 7125SOL    HW133008   3.745   4.442  15.613 -0.6397  0.5341  1.9131
 7125SOL    HW233009   3.789   4.543  15.710 -2.4145  1.7588 -1.3472
 7126SOL     OW33010   0.126   2.871  17.447  0.0178  0.3418  0.0161
 7126SOL    HW133011   0.154   2.962  17.439  1.6499 -0.1064  0.5988
 7126SOL    HW233012   0.197   2.821  17.406 -1.2689  0.4690 -2.3371
 7127SOL     OW33013   0.926   0.817   8.002 -0.2713 -0.2987  0.1553
 7127SOL    HW133014   0.970   0.769   7.932 -1.0058  0.6623 -0.9659
 7127SOL    HW233015   0.977   0.791   8.079  0.4847  0.1089 -0.2144
 7128SOL     OW33016   2.665   0.154   2.122 -0.7572 -0.1373 -0.4726
 7128SOL    HW133017   2.634   0.188   2.206 -0.0434 -1.2142  0.2206
 7128SOL    HW233018   2.716   0.229   2.090  1.1578 -1.8084 -1.3543
 7129SOL     OW33019   4.070   2.051   4.212 -0.7782 -0.3743  0.1778
 7129SOL    HW133020   4.160   2.023   4.197 -0.6462  0.7387 -1.1394
 7129SOL    HW233021   4.053   2.010   4.297  1.2638 -0.1827  0.6778
 7130SOL     OW33022   0.450   1.532  13.133 -0.3801  0.3229  0.5272
 7130SOL    HW133023   0.396   1.510  13.209 -2.5263  3.1982 -0.1296
 7130SOL    HW233024   0.508   1.597  13.173  1.1787 -1.4937  1.1757
 7131SOL     OW33025   0.603   0.350  14.207 -0.0656  0.2298 -0.1192
 7131SOL    HW133026   0.665   0.278  14.197 -0.7387 -0.2246 -0.9650
 7131SOL    HW233027   0.534   0.318  14.265 -1.0579 -0.0673 -1.4819
 7132SOL     OW33028   1.353   0.683   2.687 -0.5121  0.5267 -0.3775
 7132SOL    HW133029   1.285   0.617   2.677  1.3465 -1.3998 -0.4714
 7132SOL    HW233030   1.425   0.635   2.730 -1.1292 -0.2659 -0.2392
 7133SOL     OW33031   4.703   0.311   3.140  0.0612  0.5198 -0.1392
 7133SOL    HW133032   0.033   0.281   3.200 -1.8267  0.4464  2.0325
 7133SOL    HW233033   4.630   0.337   3.196  0.4895  1.5535 -0.0633
 7134SOL     OW33034   2.278   3.488   5.852  0.1188  0.0880 -0.2824
 7134SOL    HW133035   2.218   3.559   5.876 -0.9278 -1.1987  0.9831
 7134SOL    HW233036   2.238   3.409   5.889 -0.0579  0.5454  0.5009
 7135SOL     OW33037   0.744   1.816  15.119 -0.3679  0.1881 -0.1045
 7135SOL    HW133038   0.821   1.760  15.108 -0.4217  0.3937 -1.4427
 7135SOL    HW233039   0.678   1.754  15.088  1.4458 -1.0255 -1.4969
 7136SOL     OW33040   2.868   3.741  15.696  0.8144 -0.4271  0.2028
 7136SOL    HW133041   2.942   3.803  15.692  0.1359  0.3218 -0.6775
 7136SOL    HW233042   2.836   3.738  15.606  1.9127 -0.0038 -0.2151
 7137SOL     OW33043   0.307   0.138   7.979  0.2644  0.2895  0.1480
 7137SOL    HW133044   0.296   0.173   7.890  0.3053  0.2078  0.1108
 7137SOL    HW233045   0.400   0.119   7.970  0.4301  2.6757 -3.3029
 7138SOL     OW33046   2.375   0.617   5.384 -0.3014 -0.5968  0.4664
 7138SOL    HW133047   2.363   0.707   5.414 -2.3804 -0.8124  0.2866
 7138SOL    HW233048   2.398   0.635   5.292 -1.1848  0.2691  0.4039
 7139SOL     OW33049   4.305   3.252   0.005 -0.0592 -0.5192  0.3894
 7139SOL    HW133050   4.338   3.233   0.093  1.4521  0.9801  0.1366
 7139SOL    HW233051   4.238   3.184  17.748 -1.3970  0.7636  0.5335
 7140SOL     OW33052   3.434   0.955   9.964  0.1453 -0.3383 -0.2583
 7140SOL    HW133053   3.514   1.007   9.959 -0.7969  1.0524 -1.4190
 7140SOL    HW233054   3.430   0.934  10.057 -0.5988  0.8963 -0.0011
 7141SOL     OW33055   4.596   1.847   5.162 -0.2459 -0.6474 -0.1360
 7141SOL    HW133056   4.658   1.797   5.109 -0.9878 -0.1902 -1.4156
 7141SOL    HW233057   4.598   1.804   5.248 -0.1076 -2.1863 -0.9157
 7142SOL     OW33058   2.576   3.327   0.276  0.2082  0.3928 -0.0989
 7142SOL    HW133059   2.507   3.270   0.311 -0.1607  0.8424 -0.0949
 7142SOL    HW233060   2.579   3.395   0.343 -0.0028  1.3502 -1.0598
 7143SOL     OW33061   2.434   4.469  13.723  0.1029  0.5921  0.2316
 7143SOL    HW133062   2.400   4.500  13.807  2.6960  2.5597  0.5354
 7143SOL    HW233063   2.495   4.407  13.763  0.8777  1.2283  0.0351
 7144SOL     OW33064   2.562   3.417   3.959  0.5485 -0.2688 -0.6928
 7144SOL    HW133065   2.582   3.504   3.925 -0.5039  0.9341  1.7471
 7144SOL    HW233066   2.561   3.374   3.874  0.4247  0.5628 -1.1174
 7145SOL     OW33067   3.001   2.678   3.137  0.2065  0.3665 -0.6758
 7145SOL    HW133068   2.963   2.715   3.058  2.2394 -1.4237 -2.5250
 7145SOL    HW233069   3.086   2.650   3.103  1.4557  2.9162  0.3781
 7146SOL     OW33070   2.906   0.084  14.836  0.1665  0.2234  1.0408
 7146SOL    HW133071   2.886   0.161  14.783 -1.5511 -0.6182  0.4766
 7146SOL    HW233072   2.828   0.037  14.805  0.7246 -0.4110  0.5878
 7147SOL     OW33073   2.167   2.446   5.856  0.5428 -0.3407  0.3750
 7147SOL    HW133074   2.250   2.437   5.810 -0.7481  0.1310 -2.0568
 7147SOL    HW233075   2.193   2.476   5.943 -1.1426 -2.3590  1.5562
 7148SOL     OW33076   3.915   2.283   1.879  0.1117  0.1136 -0.2300
 7148SOL    HW133077   3.923   2.236   1.795  3.5365 -0.2253  0.2747
 7148SOL    HW233078   3.984   2.348   1.871  0.9164 -0.9992 -2.6605
 7149SOL     OW33079   2.425   3.587   4.788  0.0920 -0.2891  0.5411
 7149SOL    HW133080   2.381   3.633   4.717  0.9999 -0.6689 -0.2760
 7149SOL    HW233081   2.506   3.568   4.741  0.0566 -1.9044  1.1459
 7150SOL     OW33082   4.079   0.001  14.049  0.6383 -0.3883  0.3712
 7150SOL    HW133083   4.112   4.662  14.093  0.4737 -0.3487  0.5629
 7150SOL    HW233084   3.997   4.700  14.019  1.2606  0.0986 -2.0462
 7151SOL     OW33085   0.796   4.505  12.997 -0.4552 -0.3490  0.2298
 7151SOL    HW133086   0.865   4.570  13.012 -0.2853 -0.2210 -1.0619
 7151SOL    HW233087   0.798   4.463  13.083 -0.2339 -2.1340 -0.6522
 7152SOL     OW33088   3.061   3.120   3.747  0.1946  0.1289  0.0765
 7152SOL    HW133089   2.968   3.100   3.755  0.2082  0.8747  2.1285
 7152SOL    HW233090   3.075   3.084   3.659  1.4360  2.3351 -0.6422
 7153SOL     OW33091   0.978   3.543   1.565  0.7066 -0.1527  0.2246
 7153SOL    HW133092   1.014   3.566   1.651 -2.9206 -0.1148  1.7450
 7153SOL    HW233093   1.063   3.544   1.521  0.5145 -1.2493 -0.1649
 7154SOL     OW33094   2.694   0.339  16.574 -0.2101 -0.2267  0.1972
 7154SOL    HW133095   2.771   0.396  16.587 -1.7169  1.8366  0.1543
 7154SOL    HW233096   2.620   0.395  16.596  0.5893  0.4766  1.1054
 7155SOL     OW33097   2.406   1.400   3.604 -0.2270  0.1868  0.4865
 7155SOL    HW133098   2.467   1.472   3.587  0.1699  0.0947  1.5156
 7155SOL    HW233099   2.321   1.445   3.599 -1.0351 -1.6252 -2.2721
 7156SOL     OW33100   2.786   4.495  12.584  0.6290  0.5517  0.6034
 7156SOL    HW133101   2.811   4.488  12.676 -0.4177 -1.6874  0.7198
 7156SOL    HW233102   2.736   4.414  12.575 -1.2096  1.7590 -0.1599
 7157SOL     OW33103   4.156   4.197   4.302  0.2197  0.2939 -0.1963
 7157SOL    HW133104   4.124   4.112   4.272  2.5386  0.1109 -2.2642
 7157SOL    HW233105   4.234   4.180   4.355  0.5107  3.6459  0.4678
 7158SOL     OW33106   2.347   3.368   9.289 -0.6394  0.3397  0.4443
 7158SOL    HW133107   2.359   3.285   9.243 -1.1587  0.4260  0.1588
 7158SOL    HW233108   2.394   3.428   9.232  0.1329  2.8114  3.6720
 7159SOL     OW33109   0.718   3.516   5.769 -0.6595 -0.2095 -0.6330
 7159SOL    HW133110   0.672   3.459   5.830 -1.9804  0.6587 -0.8416
 7159SOL    HW233111   0.741   3.591   5.824  1.6008 -0.3153 -1.4200
 7160SOL     OW33112   3.799   3.904   5.338  0.0459  0.0905  0.0340
 7160SOL    HW133113   3.817   3.831   5.397  0.8817 -1.0143 -1.5889
 7160SOL    HW233114   3.767   3.975   5.394  2.2622  1.6857 -0.6913
 7161SOL     OW33115   1.774   2.283  15.502 -0.0045 -0.1907  0.0853
 7161SOL    HW133116   1.838   2.232  15.452 -0.9942 -1.3879  0.0328
 7161SOL    HW233117   1.829   2.345  15.552  0.7980 -1.2921  0.5808
 7162SOL     OW33118   0.549   4.196   7.102 -0.4669  0.1086  0.0054
 7162SOL    HW133119   0.534   4.143   7.180  0.6184 -0.5071 -0.2059
 7162SOL    HW233120   0.470   4.220   7.053 -0.4873  0.2215  0.0937
 7163SOL     OW33121   1.256   3.542   8.010  0.5242  0.1531  0.6859
 7163SOL    HW133122   1.202   3.602   8.062  2.5832  3.9058 -1.5071
 7163SOL    HW233123   1.280   3.473   8.072  1.7312 -0.7017 -0.7325
 7164SOL     OW33124   3.927   4.501   3.598  0.5977 -0.1149 -0.7610
 7164SOL    HW133125   3.963   4.412   3.593 -1.4363 -0.7662 -4.3059
 7164SOL    HW233126   4.000   4.553   3.631  0.1344 -0.8549  1.4051
 7165SOL     OW33127   4.109   0.083   2.277 -0.1682  0.1722 -0.4987
 7165SOL    HW133128   4.204   0.079   2.261  0.0025 -0.4736  0.6877
 7165SOL    HW233129   4.091   4.738   2.319  1.2126  0.6088  0.9923
 7166SOL     OW33130   0.722   3.937   7.813 -0.3704 -0.0440  0.1598
 7166SOL    HW133131   0.798   3.985   7.846 -0.6389  0.1923  0.4356
 7166SOL    HW233132   0.670   3.917   7.890 -0.1766  0.9463  0.5527
 7167SOL     OW33133   1.376   1.944   7.217  0.2350  0.4520  0.1984
 7167SOL    HW133134   1.432   1.963   7.142  0.3943  0.4994  0.3296
 7167SOL    HW233135   1.299   1.958   7.162  0.1492  1.0953  0.4780
 7168SOL     OW33136   4.555   3.044   5.855 -0.6035 -0.0466  0.1835
 7168SOL    HW133137   4.475   3.027   5.905  0.6609 -2.0196  1.5315
 7168SOL    HW233138   4.616   3.064   5.926 -0.6003 -0.1814  0.2180
 7169SOL     OW33139   3.433   0.609   2.702  0.1784 -0.7787  0.1666
 7169SOL    HW133140   3.397   0.645   2.621 -1.3700  0.9244  1.6109
 7169SOL    HW233141   3.360   0.616   2.764 -1.1924  1.8344 -1.7288
 7170SOL     OW33142   4.553   3.612  10.500  0.2815 -0.1961 -0.3253
 7170SOL    HW133143   4.630   3.613  10.443 -1.1188 -2.2354 -2.2599
 7170SOL    HW233144   4.506   3.539  10.459 -1.3883  1.0041 -0.5079
 7171SOL     OW33145   2.854   2.562   7.312 -0.4167 -0.0456  0.3142
 7171SOL    HW133146   2.782   2.501   7.292 -1.9453  1.9343 -0.2622
 7171SOL    HW233147   2.874   2.581   7.220 -0.7835  0.2905  0.3039
 7172SOL     OW33148   3.311   3.866   6.445  0.1861  0.5387  0.3701
 7172SOL    HW133149   3.216   3.875   6.458  0.0773 -0.8191  0.4859
 7172SOL    HW233150   3.335   3.959   6.440 -0.2150  0.5949 -0.4432
 7173SOL     OW33151   0.820   2.396   3.135  0.3594 -0.4674  0.8597
 7173SOL    HW133152   0.896   2.365   3.086  0.5123  0.5460  0.4367
 7173SOL    HW233153   0.855   2.484   3.152 -2.9099  1.0589 -0.3967
 7174SOL     OW33154   1.188   3.787   1.899  0.2816  0.7854 -0.2676
 7174SOL    HW133155   1.274   3.830   1.891  0.4462  1.0437  2.9243
 7174SOL    HW233156   1.158   3.830   1.979 -1.4437  0.2800 -0.6536
 7175SOL     OW33157   4.337   3.687   0.511 -0.1647  0.0492  0.0659
 7175SOL    HW133158   4.284   3.699   0.590  2.4481  2.4563  1.4661
 7175SOL    HW233159   4.334   3.766   0.456  0.4033  1.0397  1.4594
 7176SOL     OW33160   4.271   1.949   7.392  0.3897  0.4864  0.0277
 7176SOL    HW133161   4.262   2.034   7.348 -2.6947 -0.3062 -0.8090
 7176SOL    HW233162   4.187   1.910   7.369  3.0602 -4.2299 -1.6046
 7177SOL     OW33163   0.517   2.945   5.186  0.2032 -0.0698  0.7418
 7177SOL    HW133164   0.563   2.863   5.203  0.1426 -0.3200 -0.3212
 7177SOL    HW233165   0.587   3.003   5.157 -1.1079  1.3464  0.3788
 7178SOL     OW33166   2.694   4.640   6.422  0.0933 -0.0421  0.1160
 7178SOL    HW133167   2.689   4.618   6.329  1.2711 -2.5629  0.6620
 7178SOL    HW233168   2.680   4.558   6.469  0.6838 -1.8250 -2.8053
 7179SOL     OW33169   0.824   1.343  17.073  0.0156  1.3427 -0.1076
 7179SOL    HW133170   0.775   1.388  17.142 -1.3914 -1.2212  0.5843
 7179SOL    HW233171   0.786   1.385  16.996  0.8091 -1.0973 -1.8385
 7180SOL     OW33172   3.774   1.659  16.119 -0.6767  0.2273 -0.2886
 7180SOL    HW133173   3.706   1.725  16.133 -2.4693 -1.6819  0.0079
 7180SOL    HW233174   3.805   1.680  16.031 -2.7165 -1.4964 -1.4093
 7181SOL     OW33175   4.688   2.078  10.622  0.5640 -0.0048  0.1843
 7181SOL    HW133176   4.640   2.161  10.621 -1.7156 -1.2767  2.4288
 7181SOL    HW233177   0.003   2.093  10.544  0.6259 -1.1924  0.0001
 7182SOL     OW33178   4.725   4.383  16.319  0.3431  0.2366 -0.3391
 7182SOL    HW133179   0.025   4.409  16.235  0.1306  3.0453  0.4289
 7182SOL    HW233180   4.631   4.399  16.305  0.8157  1.0070 -2.7191
 7183SOL     OW33181   3.283   3.941   3.193 -0.0700  0.1353 -0.7477
 7183SOL    HW133182   3.317   3.940   3.283 -2.4363  0.7786  0.1380
 7183SOL    HW233183   3.204   3.888   3.196 -0.7604  1.2847  1.0032
 7184SOL     OW33184   0.843   3.971  10.719  0.1783  0.5673  0.5140
 7184SOL    HW133185   0.851   3.998  10.628 -0.4081  1.9493  0.8788
 7184SOL    HW233186   0.756   3.931  10.721 -0.2699  1.5229  0.3231
 7185SOL     OW33187   4.102   3.325   3.807  0.9224  0.6709  0.3973
 7185SOL    HW133188   4.069   3.276   3.732 -0.7195 -1.8014  2.7324
 7185SOL    HW233189   4.035   3.307   3.873  1.0870 -0.7529  0.1631
 7186SOL     OW33190   0.204   2.203   8.131 -0.2230 -0.1605 -0.1423
 7186SOL    HW133191   0.285   2.191   8.181 -0.1508  0.7325 -0.0390
 7186SOL    HW233192   0.232   2.190   8.041  1.6745  1.2334  0.2577
 7187SOL     OW33193   0.590   0.510   7.209  0.0642  0.0244  0.3064
 7187SOL    HW133194   0.570   0.594   7.249  3.1549  1.5906 -1.4313
 7187SOL    HW233195   0.528   0.455   7.255 -0.0886  0.8763  1.1119
 7188SOL     OW33196   0.820   4.056   8.142 -0.3463  0.0744 -1.0824
 7188SOL    HW133197   0.726   4.052   8.162 -0.4028 -0.0968 -1.3786
 7188SOL    HW233198   0.844   3.963   8.139 -2.5738 -0.6601  2.8399
 7189SOL     OW33199   3.174   4.012  14.007 -0.9115  0.1475  0.7078
 7189SOL    HW133200   3.084   3.997  13.975 -0.4214 -0.2233 -0.5032
 7189SOL    HW233201   3.182   3.936  14.066  1.7703 -1.7023 -2.0705
 7190SOL     OW33202   1.509   2.633   7.551 -0.6326  0.0990 -0.0818
 7190SOL    HW133203   1.578   2.603   7.492  0.9127  0.7341  1.4086
 7190SOL    HW233204   1.439   2.573   7.524  0.3611 -1.0956  0.0028
 7191SOL     OW33205   1.727   2.573  10.294  0.2806  1.0838  0.1915
 7191SOL    HW133206   1.732   2.504  10.227  2.1338  0.9462  0.4884
 7191SOL    HW233207   1.765   2.539  10.375 -0.2262  2.1286  0.8590
 7192SOL     OW33208   1.565   3.289   5.141  0.2087  0.3351 -0.4084
 7192SOL    HW133209   1.531   3.279   5.230 -2.5658 -2.4950 -1.7909
 7192SOL    HW233210   1.659   3.295   5.160 -0.1817 -1.5890  2.0776
 7193SOL     OW33211   3.528   2.891   4.029 -0.1579 -0.4733  0.0885
 7193SOL    HW133212   3.520   2.903   4.124  0.8178  0.5225  0.0441
 7193SOL    HW233213   3.506   2.798   4.019 -0.0875 -0.3700 -0.9390
 7194SOL     OW33214   1.395   2.004   4.431 -0.2375 -0.6011  0.3152
 7194SOL    HW133215   1.364   1.914   4.417  1.0987 -0.8613 -0.9752
 7194SOL    HW233216   1.459   1.996   4.503  1.3853 -2.0297 -1.2808
 7195SOL     OW33217   4.076   2.156   3.817  1.0260  0.0392  0.1578
 7195SOL    HW133218   4.160   2.111   3.823  0.9947  0.0168  0.4126
 7195SOL    HW233219   4.091   2.238   3.771  0.2874  0.1682  0.1494
 7196SOL     OW33220   0.981   2.636   3.155 -0.4605 -0.0052  0.0111
 7196SOL    HW133221   0.927   2.713   3.170 -0.8560 -0.4857  1.0808
 7196SOL    HW233222   1.021   2.645   3.068  0.8123  0.2018  0.6069
 7197SOL     OW33223   3.166   2.243  13.819 -0.4210  0.0976 -0.5163
 7197SOL    HW133224   3.086   2.274  13.862 -0.7607 -1.0608 -0.3000
 7197SOL    HW233225   3.141   2.197  13.739 -0.9995 -2.1062  0.9306
 7198SOL     OW33226   4.411   3.588   1.926  0.1421 -0.7692  0.5594
 7198SOL    HW133227   4.403   3.493   1.929 -1.1684 -0.6556  0.5179
 7198SOL    HW233228   4.328   3.594   1.880  1.8083  0.6383 -2.2351
 7199SOL     OW33229   4.569   2.483   7.485  0.0861 -0.5757  0.7904
 7199SOL    HW133230   4.521   2.484   7.402 -0.5338 -1.2942  1.1373
 7199SOL    HW233231   4.660   2.490   7.458 -0.4548  0.0958 -0.8590
 7200SOL     OW33232   2.238   2.675   6.829  0.4622 -0.0934 -0.2600
 7200SOL    HW133233   2.275   2.693   6.742  2.5123  1.2916  0.9065
 7200SOL    HW233234   2.146   2.689   6.808  0.1511  1.3772  2.1716
 7201SOL     OW33235   3.715   2.307   7.237  0.3444  0.3228  0.5577
 7201SOL    HW133236   3.648   2.303   7.306  0.8167 -1.6614  0.9067
 7201SOL    HW233237   3.699   2.394   7.200  0.0738  0.2263  0.4421
 7202SOL     OW33238   0.360   3.064   8.099 -0.2823 -0.1573  0.1042
 7202SOL    HW133239   0.315   2.990   8.059 -0.2684 -0.3521  0.4429
 7202SOL    HW233240   0.296   3.072   8.170  2.1392 -0.0225  2.2624
 7203SOL     OW33241   3.333   0.010   1.853  0.1280  0.5114 -0.2110
 7203SOL    HW133242   3.240   4.727   1.851  0.5006 -0.8625 -2.3949
 7203SOL    HW233243   3.359   4.711   1.937  1.9172  0.1099 -0.9571
 7204SOL     OW33244   1.162   4.240   4.931  0.1547 -0.5570  0.4388
 7204SOL    HW133245   1.183   4.330   4.954 -2.4392  0.7170 -2.1714
 7204SOL    HW233246   1.086   4.225   4.989 -0.6332  1.2809 -0.1277
 7205SOL     OW33247   3.791   4.715   6.352 -0.4652 -0.1862 -0.5538
 7205SOL    HW133248   3.763   4.625   6.363  0.2370 -0.3900 -0.4038
 7205SOL    HW233249   3.884   4.698   6.332 -0.3505 -1.3835  1.0644
 7206SOL     OW33250   4.479   4.502   7.991  0.0212  0.0607 -0.0680
 7206SOL    HW133251   4.563   4.485   8.034 -0.0665 -0.2360 -0.0149
 7206SOL    HW233252   4.423   4.485   8.067  0.3672  0.2990  0.2431
 7207SOL     OW33253   3.707   0.953   9.609  0.3258 -0.1642  0.2118
 7207SOL    HW133254   3.769   0.880   9.603  0.8000  0.3386 -0.9144
 7207SOL    HW233255   3.625   0.912   9.581  0.1085  0.4960 -0.1259
 7208SOL     OW33256   2.638   2.244  16.503  0.0625  0.5372  0.5155
 7208SOL    HW133257   2.662   2.304  16.432  1.3078 -0.6344 -0.0602
 7208SOL    HW233258   2.705   2.176  16.497 -1.6836 -1.0707 -0.9451
 7209SOL     OW33259   2.905   0.120   8.026  0.6895  0.1599 -0.4918
 7209SOL    HW133260   2.833   0.057   8.024  0.3065  0.4958  2.6174
 7209SOL    HW233261   2.933   0.110   7.935 -1.3923  0.8095 -1.2227
 7210SOL     OW33262   3.272   1.191  17.589 -0.3621  0.3985 -0.4076
 7210SOL    HW133263   3.289   1.137  17.512  2.5040  1.7158 -0.6961
 7210SOL    HW233264   3.194   1.152  17.628 -0.9877  2.7220  0.6788
 7211SOL     OW33265   3.998   1.066   4.600  0.4439  0.2271 -0.1145
 7211SOL    HW133266   3.953   1.142   4.638 -0.6152  0.3932 -1.6869
 7211SOL    HW233267   4.091   1.076   4.617  0.6511 -0.8209 -0.6193
 7212SOL     OW33268   0.539   2.022   2.086  0.8511  0.1087  0.3289
 7212SOL    HW133269   0.450   2.033   2.119  1.2348  0.9432  1.0872
 7212SOL    HW233270   0.590   2.033   2.166 -0.7908  1.5914  1.1766
 7213SOL     OW33271   4.039   0.700   1.295  0.7554 -0.5094  0.2725
 7213SOL    HW133272   4.068   0.614   1.263 -0.7727 -0.1731 -1.9793
 7213SOL    HW233273   3.947   0.683   1.312  0.2692  0.5148 -1.4044
 7214SOL     OW33274   4.402   3.515   3.540  0.0355 -0.2608  0.1582
 7214SOL    HW133275   4.410   3.468   3.623 -0.0771  1.6122  1.2139
 7214SOL    HW233276   4.317   3.558   3.550  0.8610  1.1959  0.8380
 7215SOL     OW33277   3.492   1.388  14.223 -0.2671 -0.1484  0.1230
 7215SOL    HW133278   3.421   1.357  14.279 -2.3229  0.2454 -2.2876
 7215SOL    HW233279   3.453   1.464  14.181 -2.9502 -1.3581  0.4502
 7216SOL     OW33280   2.246   3.685   1.023  0.2065  0.4440 -0.4762
 7216SOL    HW133281   2.272   3.777   1.033  1.4083  0.1048 -0.5131
 7216SOL    HW233282   2.313   3.669   0.956 -2.1467  0.2025 -2.8065
 7217SOL     OW33283   4.142   1.374   2.952  0.7470 -0.2978  0.0792
 7217SOL    HW133284   4.180   1.325   3.025 -0.3216 -0.4270  0.5601
 7217SOL    HW233285   4.218   1.366   2.895  0.8810  1.1892  0.0480
 7218SOL     OW33286   1.058   1.511  10.467 -0.5677 -0.4210 -0.2265
 7218SOL    HW133287   1.121   1.582  10.473  0.4121 -1.3670  0.8147
 7218SOL    HW233288   1.124   1.442  10.479  3.1416  3.1223 -0.5018
 7219SOL     OW33289   3.232   4.181   1.337  0.8380  0.1374  0.2348
 7219SOL    HW133290   3.280   4.232   1.271 -0.2401  2.7507  1.4888
 7219SOL    HW233291   3.311   4.145   1.378 -0.3883 -0.9648  1.6332
 7220SOL     OW33292   2.532   1.813  16.895 -0.2151  0.1018 -0.0241
 7220SOL    HW133293   2.496   1.901  16.900 -1.1847 -0.4664  2.4744
 7220SOL    HW233294   2.456   1.759  16.873  0.7900 -2.0366  1.8435
 7221SOL     OW33295   4.626   1.400  10.300 -0.3701 -0.6137  0.3066
 7221SOL    HW133296   4.537   1.381  10.270 -0.8840  3.0277 -0.4718
 7221SOL    HW233297   4.612   1.493  10.321  0.3196 -0.7959  1.5765
 7222SOL     OW33298   1.336   0.699  12.980  0.2973 -0.4893  0.3388
 7222SOL    HW133299   1.402   0.699  12.910 -0.5858 -0.9168 -0.5002
 7222SOL    HW233300   1.388   0.677  13.057 -1.2744 -1.1687  1.1948
 7223SOL     OW33301   4.151   2.105   3.454  0.0201 -0.1688  0.1651
 7223SOL    HW133302   4.213   2.137   3.520 -1.1989 -0.1468  1.2990
 7223SOL    HW233303   4.118   2.022   3.489  3.3900 -1.0917  1.1573
 7224SOL     OW33304   3.033   1.205  14.596 -0.2741 -0.1006  0.1214
 7224SOL    HW133305   3.120   1.190  14.634 -1.5198 -2.3992  2.0852
 7224SOL    HW233306   3.043   1.286  14.547  1.6219 -0.1193  0.4949
 7225SOL     OW33307   3.025   3.499   0.092 -0.5055 -0.1616 -0.2776
 7225SOL    HW133308   2.997   3.458   0.174  3.0500 -0.1163  0.9767
 7225SOL    HW233309   2.942   3.487   0.046 -0.7738 -0.8042  0.3759
 7226SOL     OW33310   2.018   1.027  11.120  0.4187 -0.3924  0.3047
 7226SOL    HW133311   2.061   0.947  11.089 -0.5554 -0.2829 -1.3082
 7226SOL    HW233312   2.006   1.017  11.215  0.0922  2.7420  0.6039
 7227SOL     OW33313   3.601   3.082   3.045 -0.5130 -0.2056  0.2674
 7227SOL    HW133314   3.625   3.076   2.953 -1.3555  0.5844 -0.0019
 7227SOL    HW233315   3.560   2.995   3.045  0.8493 -0.8495  0.1916
 7228SOL     OW33316   4.001   3.551   6.675 -0.4634  0.5776 -0.1630
 7228SOL    HW133317   3.990   3.461   6.645  0.0566  0.4379  0.0532
 7228SOL    HW233318   3.941   3.590   6.611  1.1438  0.7960 -1.5515
 7229SOL     OW33319   3.533   3.249   0.386  0.0703 -0.4975 -0.7622
 7229SOL    HW133320   3.478   3.293   0.321 -2.4792 -1.0296  0.9878
 7229SOL    HW233321   3.618   3.258   0.345  0.4219 -2.4995 -0.4747
 7230SOL     OW33322   4.392   4.507   8.274  0.7590 -0.0546 -0.0170
 7230SOL    HW133323   4.427   4.573   8.333 -0.4623  0.0106  0.6246
 7230SOL    HW233324   4.331   4.459   8.330  1.7747 -0.0036  1.1246
 7231SOL     OW33325   3.600   2.492  11.936 -0.3341 -0.2231 -0.2079
 7231SOL    HW133326   3.623   2.585  11.943 -1.4092 -0.0317  0.8818
 7231SOL    HW233327   3.650   2.473  11.857 -0.4583 -0.6250 -0.1912
 7232SOL     OW33328   1.917   1.183   5.392 -0.1361 -0.4619 -0.5794
 7232SOL    HW133329   1.867   1.146   5.319  0.8303  0.3464 -1.6510
 7232SOL    HW233330   1.847   1.217   5.448  1.1080  0.0432  0.6895
 7233SOL     OW33331   3.354   1.859  15.973 -0.2746 -0.0471  0.7200
 7233SOL    HW133332   3.428   1.909  16.006 -0.0976  0.2979 -0.1842
 7233SOL    HW233333   3.405   1.808  15.910  1.2393  0.8749  1.2194
 7234SOL     OW33334   4.561   2.428   9.193  0.0015 -0.3705 -0.1354
 7234SOL    HW133335   4.627   2.496   9.211 -1.2979  1.0693 -0.8018
 7234SOL    HW233336   4.489   2.455   9.249  0.2605 -0.4153  0.2189
 7235SOL     OW33337   4.047   3.333   4.201  0.6088 -0.3218  0.6063
 7235SOL    HW133338   4.131   3.375   4.219  0.1097  1.6731 -1.7820
 7235SOL    HW233339   4.058   3.261   4.139  0.9618 -0.1210  0.4360
 7236SOL     OW33340   1.173   3.885  17.468 -0.2673  0.0075  0.0309
 7236SOL    HW133341   1.160   3.821  17.538 -0.4180 -0.0153 -0.0181
 7236SOL    HW233342   1.262   3.857  17.448 -0.8883 -2.6005  0.8321
 7237SOL     OW33343   4.451   4.047   7.602 -0.3709  0.1351  0.5462
 7237SOL    HW133344   4.462   3.982   7.533 -0.1940  0.9936 -0.2325
 7237SOL    HW233345   4.498   4.120   7.561  1.1057  0.5693  3.0342
 7238SOL     OW33346   1.462   4.554   6.492  0.3576 -0.4068  0.6799
 7238SOL    HW133347   1.533   4.615   6.510 -2.1748  2.9299 -0.5169
 7238SOL    HW233348   1.468   4.529   6.400 -1.3994  1.0903  0.1678
 7239SOL     OW33349   3.001   3.662  16.828 -0.4979  0.5636 -0.3489
 7239SOL    HW133350   2.928   3.625  16.779  1.7205 -1.9706 -1.7368
 7239SOL    HW233351   3.010   3.590  16.889  0.4290 -1.4570 -2.8612
 7240SOL     OW33352   3.090   2.786   6.236 -0.2987  0.0220 -0.2541
 7240SOL    HW133353   3.064   2.796   6.145  2.0235  2.0903 -0.6701
 7240SOL    HW233354   3.031   2.713   6.254  0.9701 -0.9782 -0.1848
 7241SOL     OW33355   2.748   1.207   6.866 -0.1137  0.5886  0.3921
 7241SOL    HW133356   2.740   1.289   6.817 -1.1450  1.8898  2.7367
 7241SOL    HW233357   2.657   1.177   6.870 -0.4298  1.2877 -1.6178
 7242SOL     OW33358   0.335   0.240   7.519 -0.7232  0.0250 -0.4239
 7242SOL    HW133359   0.347   0.258   7.612 -0.8979  0.9363 -0.5802
 7242SOL    HW233360   0.256   0.185   7.517  0.1728 -1.2505 -0.5674
 7243SOL     OW33361   2.887   0.036  10.116  0.0366  0.2903 -0.9495
 7243SOL    HW133362   2.887   0.018  10.210  0.6596  0.8747 -0.8384
 7243SOL    HW233363   2.976   0.065  10.096  0.3385 -0.2489 -0.4039
 7244SOL     OW33364   2.356   1.304   7.772 -0.5590 -0.1453  0.4765
 7244SOL    HW133365   2.383   1.239   7.707 -0.0785  1.2644 -0.7361
 7244SOL    HW233366   2.340   1.250   7.849  0.0982  1.8814  2.0419
 7245SOL     OW33367   0.503   3.920   4.362 -0.4154 -0.2327 -0.4446
 7245SOL    HW133368   0.591   3.914   4.326 -0.8394  1.3466 -1.7164
 7245SOL    HW233369   0.522   3.974   4.439 -0.7899 -0.4531 -0.1935
 7246SOL     OW33370   3.450   1.896   4.149  0.5274 -0.1264 -1.0523
 7246SOL    HW133371   3.407   1.834   4.090 -1.3120 -1.2005  1.4091
 7246SOL    HW233372   3.531   1.916   4.101  1.2747  0.9012  0.6361
 7247SOL     OW33373   4.714   3.273   5.217 -0.3499  0.0247  0.2060
 7247SOL    HW133374   4.622   3.251   5.230 -0.2500 -1.0476 -0.8909
 7247SOL    HW233375   4.737   3.185   5.186 -3.0911 -1.6423  2.8355
 7248SOL     OW33376   1.494   1.228   9.322  0.0128  0.1364  0.9418
 7248SOL    HW133377   1.409   1.253   9.286  0.9790  1.8524 -0.1518
 7248SOL    HW233378   1.539   1.196   9.243 -0.0817 -3.0640  2.1852
 7249SOL     OW33379   2.729   3.301   9.636  0.2465  0.8312 -0.5235
 7249SOL    HW133380   2.742   3.328   9.545  3.4480 -0.1036 -0.3178
 7249SOL    HW233381   2.676   3.373   9.670  0.6784  0.4088  1.0185
 7250SOL     OW33382   4.020   1.981   2.964  0.2278 -0.0119 -0.0516
 7250SOL    HW133383   4.068   2.032   3.028  0.4354  0.5747 -0.6732
 7250SOL    HW233384   3.936   2.028   2.964 -0.4032 -1.1374  1.0158
 7251SOL     OW33385   4.188   1.650   1.129 -0.1410  0.4251 -0.0694
 7251SOL    HW133386   4.270   1.680   1.089  0.6481 -1.3657  0.2169
 7251SOL    HW233387   4.153   1.596   1.058 -2.2830  3.7809 -1.5539
 7252SOL     OW33388   1.876   2.541  14.305 -0.0707 -0.1266  0.2242
 7252SOL    HW133389   1.872   2.461  14.253 -0.8942 -0.5491  0.9370
 7252SOL    HW233390   1.815   2.524  14.377  2.6895 -1.7750  2.1956
 7253SOL     OW33391   1.548   3.308  15.501 -0.2933 -0.1797 -0.3430
 7253SOL    HW133392   1.483   3.278  15.564 -2.5620 -0.4458 -2.7814
 7253SOL    HW233393   1.496   3.355  15.436 -1.4649 -0.0517  0.6997
 7254SOL     OW33394   1.000   2.053  12.337  0.4178 -0.0354 -0.8123
 7254SOL    HW133395   1.064   1.996  12.379  0.2785 -0.1734 -0.7890
 7254SOL    HW233396   1.055   2.073  12.260  0.7781  0.5826 -0.3953
 7255SOL     OW33397   0.020   0.034   3.451 -0.4316 -0.1727  0.6041
 7255SOL    HW133398   0.048   4.687   3.421  2.5024  0.9853 -0.0273
 7255SOL    HW233399   0.076   0.099   3.408  0.1754 -3.2964 -3.2780
 7256SOL     OW33400   3.058   4.386   1.389  0.0997 -0.2873  0.2611
 7256SOL    HW133401   2.990   4.340   1.339  1.3356 -0.0659 -1.6084
 7256SOL    HW233402   3.123   4.316   1.394 -0.3049 -0.5407  1.8896
 7257SOL     OW33403   3.401   4.223   4.919 -0.6035 -0.0528 -0.0866
 7257SOL    HW133404   3.375   4.136   4.890  0.2927 -0.4429  0.2772
 7257SOL    HW233405   3.334   4.228   4.987  0.3088 -1.1412  0.8928
 7258SOL     OW33406   2.178   3.753   5.295 -0.6201  0.4504 -0.2213
 7258SOL    HW133407   2.122   3.686   5.255  0.2082 -0.1472 -0.4010
 7258SOL    HW233408   2.230   3.787   5.221  0.6301 -1.4026 -0.1928
 7259SOL     OW33409   3.867   1.140   6.483  0.4308  0.0061 -0.0977
 7259SOL    HW133410   3.953   1.163   6.448 -0.3740 -1.2505 -2.8762
 7259SOL    HW233411   3.831   1.096   6.406  1.3423 -0.5121 -0.2278
 7260SOL     OW33412   0.771   0.822   7.031  0.3958 -0.1710 -0.2893
 7260SOL    HW133413   0.812   0.894   6.983  1.4487 -1.6248 -1.5601
 7260SOL    HW233414   0.803   0.840   7.120 -1.3031  1.5693 -0.0379
 7261SOL     OW33415   4.295   0.536  17.253  0.1182 -0.0653 -0.0082
 7261SOL    HW133416   4.348   0.456  17.250 -3.4435 -2.4545  1.0000
 7261SOL    HW233417   4.208   0.496  17.263  0.0019 -0.3800 -2.3048
 7262SOL     OW33418   3.591   2.126  12.617  0.6349 -0.0183 -0.1917
 7262SOL    HW133419   3.645   2.061  12.572  0.5099 -1.5109  1.8257
 7262SOL    HW233420   3.667   2.175  12.648 -0.0186 -0.1530  1.6241
 7263SOL     OW33421   1.901   4.409   4.736  0.2217  0.3155  0.1689
 7263SOL    HW133422   1.952   4.481   4.699  0.7365 -0.4243 -0.5560
 7263SOL    HW233423   1.952   4.333   4.707 -0.3211  0.9379 -2.4425
 7264SOL     OW33424   4.399   3.625   2.949  0.0834  0.4334 -0.1247
 7264SOL    HW133425   4.361   3.700   2.994 -0.1168 -1.6580  3.2129
 7264SOL    HW233426   4.432   3.671   2.872  2.3171  0.6965  0.9993
 7265SOL     OW33427   2.158   1.606   4.048 -0.4375 -0.2318 -0.2313
 7265SOL    HW133428   2.119   1.544   3.987  1.1224 -1.4640  0.0119
 7265SOL    HW233429   2.123   1.575   4.132 -0.7896  0.7506 -0.0126
 7266SOL     OW33430   3.781   4.720   7.886  0.1993 -0.0390  0.6052
 7266SOL    HW133431   3.773   4.637   7.934 -0.1300  1.4872  3.1432
 7266SOL    HW233432   3.747   0.041   7.952  0.6659 -0.4998  1.2681
 7267SOL     OW33433   1.084   1.343   4.774  0.4090 -0.0775 -0.1352
 7267SOL    HW133434   1.131   1.372   4.696 -0.7498  2.1080 -0.0088
 7267SOL    HW233435   1.042   1.267   4.733  0.1122 -0.0974  0.2076
 7268SOL     OW33436   1.089   2.492   6.574  0.3176 -0.0104 -0.3369
 7268SOL    HW133437   1.106   2.586   6.587 -0.2264  0.1323 -0.6653
 7268SOL    HW233438   1.074   2.475   6.667  0.6901 -0.8417 -0.4349
 7269SOL     OW33439   1.408   3.199   6.450  0.2996  0.1569  0.0881
 7269SOL    HW133440   1.449   3.128   6.401  0.0134  0.3940 -0.4851
 7269SOL    HW233441   1.329   3.212   6.399  1.3109 -0.5172 -1.6483
 7270SOL     OW33442   1.105   3.306  16.264 -0.2324  0.3158  0.6963
 7270SOL    HW133443   1.134   3.390  16.228 -1.5934  0.2013 -0.7150
 7270SOL    HW233444   1.124   3.265  16.179 -0.3591 -0.9156  1.2589
 7271SOL     OW33445   3.795   0.744   3.361  0.0686 -0.5432 -0.6695
 7271SOL    HW133446   3.803   0.821   3.417 -0.7272 -0.6821 -0.3645
 7271SOL    HW233447   3.813   0.786   3.277  1.8743 -0.1961 -0.1081
 7272SOL     OW33448   3.448   2.616  17.259  0.0248 -0.0732  0.3587
 7272SOL    HW133449   3.526   2.648  17.213  0.1869 -1.3390 -0.2650
 7272SOL    HW233450   3.380   2.676  17.229 -1.5881 -1.2244  1.7007
 7273SOL     OW33451   4.513   2.123  17.070 -0.3232 -0.1046 -0.0798
 7273SOL    HW133452   4.519   2.028  17.085  0.3993  0.1342  1.1422
 7273SOL    HW233453   4.596   2.152  17.108 -0.4588  0.5689 -0.2912
 7274SOL     OW33454   2.235   3.523   6.686 -0.7041  0.1444 -0.4162
 7274SOL    HW133455   2.187   3.560   6.612  1.0170  1.3393 -0.9419
 7274SOL    HW233456   2.209   3.585   6.754 -0.2748 -0.0878 -0.0388
 7275SOL     OW33457   0.380   3.505   7.863 -0.1582 -0.5412  0.4183
 7275SOL    HW133458   0.399   3.461   7.946  0.3561  0.1062  0.6409
 7275SOL    HW233459   0.408   3.436   7.802  2.0123 -0.8272  1.7722
 7276SOL     OW33460   1.388   0.079   7.067 -0.1742 -0.0617  0.2406
 7276SOL    HW133461   1.477   0.113   7.077 -0.4211  0.1340  1.8908
 7276SOL    HW233462   1.369   0.108   6.978 -0.0756 -0.8270 -0.0269
 7277SOL     OW33463   0.103   1.466   3.900  0.9471  0.5136 -0.1522
 7277SOL    HW133464   0.186   1.498   3.865  0.1023  1.8436 -0.9207
 7277SOL    HW233465   0.135   1.385   3.941 -1.3027 -0.3432 -0.1140
 7278SOL     OW33466   3.686   4.238   4.290  0.1162 -0.6230 -0.6461
 7278SOL    HW133467   3.655   4.213   4.377 -1.9786 -2.2353 -1.8393
 7278SOL    HW233468   3.774   4.269   4.312  0.0039  0.9249 -2.3625
 7279SOL     OW33469   1.253   0.926   8.281 -0.1597  0.4074  0.0234
 7279SOL    HW133470   1.314   0.999   8.295  1.8612 -1.2766  0.0125
 7279SOL    HW233471   1.308   0.849   8.297 -1.2083 -0.4765 -0.6696
 7280SOL     OW33472   3.457   2.719   7.474 -0.1297  0.4882  0.2573
 7280SOL    HW133473   3.536   2.764   7.504 -0.1812  0.2182  0.7956
 7280SOL    HW233474   3.389   2.783   7.497 -1.7416 -1.4567  0.8857
 7281SOL     OW33475   4.102   0.208  14.275 -0.7432  0.7335 -0.5274
 7281SOL    HW133476   4.094   0.130  14.221 -3.7070 -0.9317  2.3269
 7281SOL    HW233477   4.198   0.218  14.272 -0.9406  2.8900 -0.0647
 7282SOL     OW33478   4.190   1.132   8.083 -0.1478  0.8875  0.2866
 7282SOL    HW133479   4.234   1.048   8.078  1.0225  1.5056  0.1007
 7282SOL    HW233480   4.257   1.201   8.081  1.2690 -0.4987  0.8208
 7283SOL     OW33481   1.206   3.475   4.175 -0.1196 -0.0803  0.2090
 7283SOL    HW133482   1.255   3.465   4.093 -0.2888 -0.8279  0.1992
 7283SOL    HW233483   1.128   3.512   4.135  1.0416  1.8087 -0.3522
 7284SOL     OW33484   0.331   2.855   9.753  0.1261 -0.4746 -0.1154
 7284SOL    HW133485   0.267   2.925   9.740  0.0304 -0.1110  2.3335
 7284SOL    HW233486   0.338   2.828   9.662 -0.3456 -1.9094  0.2543
 7285SOL     OW33487   0.588   1.376   8.116 -0.2882 -0.1445 -0.4081
 7285SOL    HW133488   0.559   1.438   8.183  1.6119  0.6613 -0.3131
 7285SOL    HW233489   0.592   1.293   8.162  1.3076 -1.4447 -2.8654
 7286SOL     OW33490   3.153   3.151   3.279 -0.3453 -0.0962  0.0449
 7286SOL    HW133491   3.066   3.186   3.257  0.1178  0.7712 -0.4198
 7286SOL    HW233492   3.150   3.066   3.237 -1.3847 -0.2298  0.3772
 7287SOL     OW33493   2.249   4.500   7.843 -0.5292  0.1425 -0.3150
 7287SOL    HW133494   2.252   4.594   7.862 -1.5182 -0.2014  1.5231
 7287SOL    HW233495   2.156   4.491   7.862 -0.6667 -1.9237 -1.9439
 7288SOL     OW33496   4.448   0.187   6.006 -0.2034 -0.5952 -0.4273
 7288SOL    HW133497   4.537   0.212   5.979 -0.4608  0.2357 -0.5140
 7288SOL    HW233498   4.408   0.264   6.047 -0.7951 -0.2010 -1.7583
 7289SOL     OW33499   3.154   1.346   6.809  0.2892  0.0841 -0.5201
 7289SOL    HW133500   3.238   1.325   6.768  2.1427 -0.0910  3.4233
 7289SOL    HW233501   3.161   1.275   6.873  1.7321  1.8038  1.2325
 7290SOL     OW33502   4.697   0.411  15.453 -0.1467 -0.5121  0.4780
 7290SOL    HW133503   4.608   0.419  15.487 -1.0289 -3.3500 -1.2272
 7290SOL    HW233504   4.706   0.499  15.417 -0.3272 -0.5443  0.3526
 7291SOL     OW33505   1.041   0.725   1.933  0.1447  0.0105  0.4337
 7291SOL    HW133506   0.997   0.706   1.850  0.8512 -0.1706  0.0933
 7291SOL    HW233507   0.968   0.763   1.981  1.1489 -0.3076  2.2212
 7292SOL     OW33508   0.387   1.277   5.955  0.2527  0.4741  0.6436
 7292SOL    HW133509   0.421   1.328   6.028  1.2693  2.9849 -1.5852
 7292SOL    HW233510   0.437   1.195   5.954 -0.5218 -0.0102  2.3012
 7293SOL     OW33511   2.574   0.342   8.689  0.1024  0.0965 -0.0087
 7293SOL    HW133512   2.598   0.324   8.598 -0.6468  1.2712 -0.4352
 7293SOL    HW233513   2.654   0.390   8.713  0.6395  0.3558 -2.3500
 7294SOL     OW33514   3.674   3.299  10.870 -0.0752 -0.1218  0.3111
 7294SOL    HW133515   3.587   3.260  10.869 -0.5402  0.8334  2.9919
 7294SOL    HW233516   3.654   3.393  10.868  0.4637 -0.0137 -0.0133
 7295SOL     OW33517   0.971   4.282  12.572  0.2545  0.2558  0.8123
 7295SOL    HW133518   0.940   4.264  12.483  1.7811  1.4393  0.0388
 7295SOL    HW233519   0.901   4.343  12.594  0.9421  0.4217  2.5638
 7296SOL     OW33520   3.068   4.695   7.724 -0.2479  0.2627  0.3722
 7296SOL    HW133521   3.123   0.016   7.775 -0.1140  0.5568 -0.1131
 7296SOL    HW233522   2.986   0.005   7.714 -0.6432 -0.8108 -1.6487
 7297SOL     OW33523   3.215   3.882  11.502 -0.2279 -0.0160 -0.0566
 7297SOL    HW133524   3.285   3.889  11.568 -0.8490 -2.4049  0.8301
 7297SOL    HW233525   3.243   3.816  11.439  0.1166 -0.0259  0.1032
 7298SOL     OW33526   0.937   4.555   3.135 -0.1966 -0.3551 -0.2040
 7298SOL    HW133527   0.859   4.516   3.174 -0.0687 -0.0564  0.3573
 7298SOL    HW233528   0.904   4.576   3.048 -0.2987  3.7696  0.8376
 7299SOL     OW33529   1.342   0.611   5.561 -0.2756  0.4330  1.0107
 7299SOL    HW133530   1.248   0.620   5.543  0.1277  0.8986 -0.9359
 7299SOL    HW233531   1.349   0.632   5.654 -1.1755  2.6368  0.5676
 7300SOL     OW33532   4.593   3.948   8.287  0.5324  0.3005 -0.4139
 7300SOL    HW133533   4.498   3.941   8.293  0.4817  1.2841 -0.1096
 7300SOL    HW233534   4.619   4.031   8.248 -0.6247 -0.0078 -1.8660
 7301SOL     OW33535   3.163   0.115   2.736  0.0625 -0.7412  0.2381
 7301SOL    HW133536   3.252   0.103   2.701 -1.2181 -2.0183 -2.5322
 7301SOL    HW233537   3.123   0.034   2.705 -0.2988  0.1414 -1.5677
 7302SOL     OW33538   3.791   1.769   3.186  0.0266 -0.1077  0.2184
 7302SOL    HW133539   3.842   1.756   3.106 -2.2635 -2.2572 -0.8954
 7302SOL    HW233540   3.837   1.706   3.242  0.6317 -0.4518 -0.6644
 7303SOL     OW33541   0.517   2.767   9.150  0.3818  0.5188  0.0446
 7303SOL    HW133542   0.601   2.747   9.190  0.0398 -2.2887 -0.6393
 7303SOL    HW233543   0.542   2.750   9.059 -1.4708  1.2406 -0.6068
 7304SOL     OW33544   0.774   0.894  15.470 -0.1256 -0.0921 -0.1465
 7304SOL    HW133545   0.683   0.867  15.479  0.6947 -2.3688  1.2430
 7304SOL    HW233546   0.769   0.986  15.443  2.4358  0.4606  1.2546
 7305SOL     OW33547   4.682   1.755   8.990 -0.0404 -0.4102 -0.1388
 7305SOL    HW133548   0.004   1.828   8.992 -0.2423 -0.1921 -1.7843
 7305SOL    HW233549   4.618   1.794   9.048  0.0078 -2.7699  1.4931
 7306SOL     OW33550   0.472   3.620   9.428  0.7290  0.1477 -0.1557
 7306SOL    HW133551   0.480   3.622   9.333 -0.9250 -0.5391 -0.3137
 7306SOL    HW233552   0.512   3.536   9.453  0.8646  0.6962  1.4922
 7307SOL     OW33553   3.857   3.663   7.798  0.4519  0.0554 -0.2047
 7307SOL    HW133554   3.792   3.723   7.761 -1.2527 -1.9484 -0.4087
 7307SOL    HW233555   3.930   3.724   7.790  0.4049  0.0337 -0.8158
 7308SOL     OW33556   1.257   1.355   2.001  0.1831  0.1487 -0.1972
 7308SOL    HW133557   1.351   1.363   1.986  0.0487  0.0441 -1.1219
 7308SOL    HW233558   1.237   1.276   1.950  2.0900  0.1571 -0.9614
 7309SOL     OW33559   0.479   0.018   3.239 -0.0657  0.0195 -0.0027
 7309SOL    HW133560   0.455   4.674   3.280 -0.5486 -0.0179 -0.3499
 7309SOL    HW233561   0.560   0.046   3.282 -0.4727 -0.2714  0.9577
 7310SOL     OW33562   4.728   3.672   7.148 -0.8071  0.3011 -0.3572
 7310SOL    HW133563   4.696   3.590   7.186  2.3710  0.5649  2.9444
 7310SOL    HW233564   4.693   3.645   7.064 -2.1762  0.1569  0.2654
 7311SOL     OW33565   3.506   4.134  13.441  0.4062 -0.1203  0.1178
 7311SOL    HW133566   3.491   4.145  13.348  0.5119  1.5560  0.2961
 7311SOL    HW233567   3.423   4.163  13.478 -0.5235 -2.2384 -0.3347
 7312SOL     OW33568   3.056   0.264   1.633 -0.1564  0.1290  0.4527
 7312SOL    HW133569   3.051   0.288   1.540 -2.4617 -0.7879  0.3323
 7312SOL    HW233570   3.151   0.250   1.632 -0.1253  0.3124  1.0233
 7313SOL     OW33571   1.822   3.639  11.984  0.1675 -0.3054 -0.1775
 7313SOL    HW133572   1.751   3.685  12.027 -0.2589 -2.3095  1.2461
 7313SOL    HW233573   1.835   3.564  12.042  0.1087  0.8568  1.3261
 7314SOL     OW33574   1.955   0.929   2.132 -0.6977 -0.6098  0.3457
 7314SOL    HW133575   2.024   0.886   2.182 -0.0678  0.7927  0.6742
 7314SOL    HW233576   1.895   0.856   2.113 -0.2667 -0.7584 -0.4574
 7315SOL     OW33577   4.482   1.659   8.066  0.1747  0.0669 -0.2708
 7315SOL    HW133578   4.559   1.633   8.116  0.2843  1.3370  0.2251
 7315SOL    HW233579   4.419   1.634   8.133  0.0202 -0.9426 -0.7893
 7316SOL     OW33580   1.850   3.287   7.771 -0.2285  0.1224 -0.3549
 7316SOL    HW133581   1.811   3.347   7.707 -1.1494  1.0365  1.0530
 7316SOL    HW233582   1.779   3.223   7.777 -0.0991  0.3114  3.0741
 7317SOL     OW33583   4.512   3.802   2.751 -0.4123  0.5912  0.4413
 7317SOL    HW133584   4.553   3.888   2.737 -2.7305  1.3305 -1.7306
 7317SOL    HW233585   4.551   3.753   2.678 -0.0296  1.4936  0.0351
 7318SOL     OW33586   3.554   0.149  16.682  0.6005  0.0492 -0.1235
 7318SOL    HW133587   3.646   0.125  16.671 -0.1798 -3.0612  0.0358
 7318SOL    HW233588   3.531   0.172  16.592  0.4440  1.1070  0.1871
 7319SOL     OW33589   4.077   4.203  16.466 -0.6261 -0.0227 -0.4261
 7319SOL    HW133590   4.128   4.261  16.410  0.5208 -0.1060  0.5464
 7319SOL    HW233591   4.049   4.141  16.398 -0.0459  0.3482 -1.0024
 7320SOL     OW33592   2.580   3.037   8.821  0.4034  0.7299  0.3194
 7320SOL    HW133593   2.504   3.092   8.806  1.0259  1.7389  0.8964
 7320SOL    HW233594   2.636   3.061   8.747  2.8005  2.5033  2.6944
 7321SOL     OW33595   0.537   1.163   6.320  0.1313 -0.0648  0.0791
 7321SOL    HW133596   0.448   1.160   6.355 -0.3343 -0.2686 -1.1068
 7321SOL    HW233597   0.575   1.076   6.337  1.0921  0.5503  1.0414
 7322SOL     OW33598   3.799   4.104  14.299 -0.1614 -0.2543  0.2165
 7322SOL    HW133599   3.820   4.121  14.207 -2.3484  0.8621 -0.0976
 7322SOL    HW233600   3.709   4.072  14.289  0.6288 -2.9853  2.0009
 7323SOL     OW33601   1.261   2.400   2.736  0.1719  0.0103 -0.0556
 7323SOL    HW133602   1.296   2.438   2.655  0.0986  1.9251  0.8265
 7323SOL    HW233603   1.221   2.477   2.775  0.9047 -0.6846  2.0748
 7324SOL     OW33604   2.135   3.869   6.349  0.9232  0.2632  0.0259
 7324SOL    HW133605   2.096   3.889   6.264  0.6753 -0.2355  0.0189
 7324SOL    HW233606   2.065   3.889   6.411  0.7805 -2.0626  0.6324
 7325SOL     OW33607   0.768   1.574  10.762 -0.7796 -0.2788  0.0052
 7325SOL    HW133608   0.752   1.638  10.832 -0.9692 -0.8559  0.4978
 7325SOL    HW233609   0.843   1.612  10.717 -0.6009 -1.1615 -0.4496
 7326SOL     OW33610   2.909   3.824   4.423  0.0588  0.0591 -0.0382
 7326SOL    HW133611   2.959   3.873   4.359 -0.5742 -2.6300 -2.5970
 7326SOL    HW233612   2.958   3.842   4.503 -0.1687 -0.1060  0.1403
 7327SOL     OW33613   3.502   3.143  10.641  0.5156 -0.1955 -0.3703
 7327SOL    HW133614   3.585   3.116  10.681 -1.8299 -2.3187  3.1258
 7327SOL    HW233615   3.448   3.064  10.643  0.9154 -0.4524  0.7411
 7328SOL     OW33616   3.086   2.587   4.882  0.2945 -0.2174 -0.3172
 7328SOL    HW133617   3.095   2.681   4.899 -0.8321 -0.3907  1.2385
 7328SOL    HW233618   3.048   2.592   4.794  2.2692  0.3745 -1.1181
 7329SOL     OW33619   2.407   1.887   4.978  0.1659 -0.2294  0.3384
 7329SOL    HW133620   2.475   1.853   5.036  2.7578  0.2157 -2.4242
 7329SOL    HW233621   2.368   1.811   4.935  2.2403 -1.4183  0.5601
 7330SOL     OW33622   0.215   4.519  16.177  0.1532 -0.1042 -0.6347
 7330SOL    HW133623   0.207   4.567  16.095 -1.9522  2.3312  0.9816
 7330SOL    HW233624   0.297   4.557  16.208  0.0000  0.1843 -0.5826
 7331SOL     OW33625   3.389   3.340  17.030  0.0943 -0.0969 -0.1000
 7331SOL    HW133626   3.415   3.318  16.941 -0.1821  0.1152 -0.2323
 7331SOL    HW233627   3.303   3.381  17.020 -0.3961 -0.8645  1.0152
 7332SOL     OW33628   2.124   0.368  13.907 -0.4813  0.0220  0.0385
 7332SOL    HW133629   2.190   0.353  13.839  0.4881 -0.2178  1.0423
 7332SOL    HW233630   2.177   0.349  13.984 -0.0138 -1.1709 -0.5690
 7333SOL     OW33631   1.579   4.438   8.064 -0.5245 -0.0536  0.9221
 7333SOL    HW133632   1.532   4.495   8.004  1.1547  1.2497  0.8565
 7333SOL    HW233633   1.591   4.500   8.136 -1.4143  1.0321  0.1434
 7334SOL     OW33634   0.876   2.970   9.636  0.4486  0.1657 -0.6308
 7334SOL    HW133635   0.868   3.056   9.595  0.1631  0.7599  0.6711
 7334SOL    HW233636   0.968   2.966   9.662 -0.1364 -2.1899  1.1344
 7335SOL     OW33637   0.080   4.313  15.851 -0.9913  0.1194 -0.5154
 7335SOL    HW133638   0.020   4.370  15.898 -0.2613  1.3555 -1.0882
 7335SOL    HW233639   0.139   4.285  15.922  0.5845 -0.2545 -1.9876
 7336SOL     OW33640   1.209   1.148   7.993  0.0254 -0.0415  0.3324
 7336SOL    HW133641   1.187   1.211   8.062 -0.7331  0.3041 -0.2299
 7336SOL    HW233642   1.121   1.147   7.956  1.7281  2.2438 -3.8410
 7337SOL     OW33643   1.310   2.143   8.967  0.6192 -0.0069  0.1919
 7337SOL    HW133644   1.250   2.081   8.925  2.4491 -2.3695  1.0868
 7337SOL    HW233645   1.351   2.089   9.034  2.0053  1.3006  0.4106
 7338SOL     OW33646   0.004   4.538  13.815  0.0744 -0.2810 -0.5480
 7338SOL    HW133647   0.005   4.582  13.900  0.3609 -0.1012 -0.6440
 7338SOL    HW233648   0.094   4.560  13.791  0.6319  1.2200  2.9820
 7339SOL     OW33649   0.498   0.675   8.901  0.1196 -0.4893 -0.5075
 7339SOL    HW133650   0.518   0.754   8.951  1.6563 -1.8888  1.1053
 7339SOL    HW233651   0.588   0.648   8.880  0.9250  1.1826  0.7000
 7340SOL     OW33652   3.242   3.013   1.663  0.2813  0.1764 -0.2713
 7340SOL    HW133653   3.233   3.047   1.752 -0.7153 -1.8233  0.3965
 7340SOL    HW233654   3.338   3.003   1.665  0.2825  0.4120  0.9919
 7341SOL     OW33655   0.243   0.473   4.291  0.0502  0.0694  0.2214
 7341SOL    HW133656   0.158   0.433   4.275 -0.5287  1.2044  0.4093
 7341SOL    HW233657   0.242   0.520   4.207  0.8848  1.5076  1.0086
 7342SOL     OW33658   3.824   3.821   3.426  0.6339 -0.0345  0.5664
 7342SOL    HW133659   3.879   3.764   3.373 -0.3930  0.4684 -1.0379
 7342SOL    HW233660   3.888   3.828   3.497 -0.3102 -0.4893  1.4715
 7343SOL     OW33661   3.291   1.315  14.392 -0.7104  0.3085  0.4523
 7343SOL    HW133662   3.256   1.226  14.382  0.2093  0.0828 -0.7318
 7343SOL    HW233663   3.217   1.374  14.404 -0.4237  0.1144  3.1592
 7344SOL     OW33664   0.955   4.460   7.265  0.1615  0.0041 -0.2792
 7344SOL    HW133665   0.925   4.546   7.292  0.4931  1.1360 -3.5038
 7344SOL    HW233666   0.880   4.421   7.221  1.1740 -1.4891 -0.6861
 7345SOL     OW33667   3.677   3.727   4.171  0.0731  0.2537 -0.1721
 7345SOL    HW133668   3.651   3.685   4.253  0.5352  1.0719  0.3888
 7345SOL    HW233669   3.728   3.804   4.196 -1.3494  0.3356  2.5350
 7346SOL     OW33670   0.756   3.792   7.483  0.6917  1.0403 -0.3834
 7346SOL    HW133671   0.829   3.741   7.447 -0.9932 -0.1431 -2.1159
 7346SOL    HW233672   0.788   3.785   7.573 -0.0985  0.5717 -0.1344
 7347SOL     OW33673   3.064   0.974  17.359 -0.1515  0.0103 -0.0707
 7347SOL    HW133674   3.093   1.027  17.285 -0.8087  1.1427  0.4813
 7347SOL    HW233675   2.985   1.023  17.382 -1.5699 -1.9894 -0.6269
 7348SOL     OW33676   0.995   4.573  14.021  0.5910 -0.1601  0.5732
 7348SOL    HW133677   0.975   4.636  14.090 -0.3521  1.9828 -1.6304
 7348SOL    HW233678   1.078   4.535  14.049 -0.1534 -1.9229  0.3537
 7349SOL     OW33679   3.264   3.328  12.187  0.5843  0.0508  0.2118
 7349SOL    HW133680   3.214   3.301  12.110 -0.8547 -0.4801  1.3204
 7349SOL    HW233681   3.231   3.271  12.257 -2.2210  0.5652 -0.6783
 7350SOL     OW33682   2.327   4.247   5.262  0.1735 -0.2508 -0.0006
 7350SOL    HW133683   2.393   4.199   5.213 -0.5309  0.1758 -1.3574
 7350SOL    HW233684   2.296   4.183   5.326  0.2233 -1.7647 -1.4978
 7351SOL     OW33685   2.047   0.135   8.902 -0.0242 -0.1870 -0.6628
 7351SOL    HW133686   1.990   0.202   8.940  0.6929  0.5046 -0.8056
 7351SOL    HW233687   2.120   0.190   8.875 -2.4376  3.7815  0.9601
 7352SOL     OW33688   1.373   2.582  12.525  0.5771  0.0869 -0.5542
 7352SOL    HW133689   1.377   2.658  12.467 -1.1473  0.9037  0.4053
 7352SOL    HW233690   1.372   2.512  12.459 -1.4328 -0.3426 -0.0755
 7353SOL     OW33691   2.689   0.727   5.543  0.2954  0.4472  0.5379
 7353SOL    HW133692   2.643   0.716   5.626  1.6451 -0.4219  1.1716
 7353SOL    HW233693   2.670   0.821   5.539 -1.4632  0.0177 -1.2309
 7354SOL     OW33694   2.177   3.288   8.596 -0.1203 -0.9244  0.0425
 7354SOL    HW133695   2.224   3.359   8.552 -0.3393 -2.6686 -2.9895
 7354SOL    HW233696   2.117   3.260   8.526  2.0078 -0.4771 -1.9758
 7355SOL     OW33697   2.604   0.929   2.312 -0.1490  0.1093  0.7510
 7355SOL    HW133698   2.566   0.934   2.224  0.7006 -1.2654  0.2933
 7355SOL    HW233699   2.691   0.915   2.275 -0.5437  0.5521 -0.3658
 7356SOL     OW33700   2.282   1.668   2.137 -0.2692  0.2111 -0.3294
 7356SOL    HW133701   2.243   1.707   2.059 -1.2066 -0.2729 -0.1052
 7356SOL    HW233702   2.227   1.590   2.132 -2.3014  1.5746  0.8628
 7357SOL     OW33703   1.788   2.615   9.811  0.0140 -0.4658 -0.4004
 7357SOL    HW133704   1.790   2.682   9.879  2.3803 -1.2283  0.3067
 7357SOL    HW233705   1.710   2.562   9.826 -2.3126  3.2114  0.4164
 7358SOL     OW33706   2.988   3.943   6.560 -0.0450  0.1399  0.0692
 7358SOL    HW133707   2.906   3.916   6.602  0.2692 -2.4656 -1.0367
 7358SOL    HW233708   2.954   4.026   6.526 -1.5054  0.4714  2.3108
 7359SOL     OW33709   3.900   3.327   4.933  0.2313 -0.3601  0.5463
 7359SOL    HW133710   3.885   3.345   4.840  1.8173 -0.0774  0.3366
 7359SOL    HW233711   3.807   3.335   4.954 -0.1445 -2.5209 -0.2816
 7360SOL     OW33712   2.060   0.916   7.352 -0.2667  0.6937 -0.3970
 7360SOL    HW133713   2.145   0.921   7.309  0.0450  0.7109  0.2170
 7360SOL    HW233714   2.029   0.838   7.306 -1.2840  1.6912 -1.3802
 7361SOL     OW33715   2.467   1.543  13.499  0.3580  0.0091  0.2966
 7361SOL    HW133716   2.432   1.548  13.588 -2.3788  0.2841 -0.7773
 7361SOL    HW233717   2.513   1.459  13.501  0.2668 -0.0012  1.7991
 7362SOL     OW33718   1.040   3.116   7.443 -0.6010 -0.5422  0.0652
 7362SOL    HW133719   0.976   3.116   7.372  1.8159  0.5655 -2.0942
 7362SOL    HW233720   0.993   3.135   7.524  0.4749 -1.5923  0.9555
 7363SOL     OW33721   3.756   0.478  16.375 -0.5831  0.1639 -0.2205
 7363SOL    HW133722   3.677   0.511  16.333 -1.0872  0.6775  1.1271
 7363SOL    HW233723   3.762   0.390  16.337 -1.0597  0.5894 -1.2666
 7364SOL     OW33724   1.432   2.921   7.505 -0.2782  0.8888 -0.3331
 7364SOL    HW133725   1.452   2.852   7.569 -0.7365 -0.6506 -1.8525
 7364SOL    HW233726   1.344   2.897   7.478  0.2745 -0.7551 -0.6490
 7365SOL     OW33727   2.730   2.642   4.789  0.7080  0.5115  0.1359
 7365SOL    HW133728   2.783   2.714   4.822  0.4172  1.6096 -1.8141
 7365SOL    HW233729   2.788   2.600   4.725 -0.6779  1.3680 -1.6635
 7366SOL     OW33730   3.288   4.181   7.429  0.2076  0.3232 -0.0835
 7366SOL    HW133731   3.319   4.126   7.356 -3.2015 -0.7522 -0.7412
 7366SOL    HW233732   3.214   4.218   7.381  0.4674  0.5719 -0.2978
 7367SOL     OW33733   2.891   3.225   6.892 -0.0389 -0.0253  0.2196
 7367SOL    HW133734   2.924   3.191   6.809  1.4011 -2.0014  1.5984
 7367SOL    HW233735   2.842   3.304   6.872  0.9584  0.8466  1.2074
 7368SOL     OW33736   1.021   1.536   4.337  0.3565  0.0394 -0.1165
 7368SOL    HW133737   1.071   1.578   4.267  1.7373 -2.3140 -0.5401
 7368SOL    HW233738   0.998   1.613   4.390  2.8397  0.2779  0.6397
 7369SOL     OW33739   2.314   2.971   8.608 -0.1089 -0.5908  0.1462
 7369SOL    HW133740   2.346   2.965   8.518 -0.2251  2.0408 -0.0645
 7369SOL    HW233741   2.351   3.058   8.623 -0.9193 -0.2411  0.1171
 7370SOL     OW33742   1.399   2.637   4.576 -0.2787 -0.3815  0.1957
 7370SOL    HW133743   1.423   2.702   4.510 -0.8202 -0.7945 -0.4103
 7370SOL    HW233744   1.485   2.628   4.617  0.3651  0.0625 -1.0743
 7371SOL     OW33745   3.419   3.786  14.282 -0.3547  0.8506  0.1022
 7371SOL    HW133746   3.324   3.793  14.278 -0.5657 -0.5240  2.5269
 7371SOL    HW233747   3.443   3.878  14.270 -0.6057  1.0924  1.4367
 7372SOL     OW33748   0.188   2.057  16.139 -0.5605  0.1689 -0.4388
 7372SOL    HW133749   0.266   2.005  16.156  0.0363 -0.0583 -3.8290
 7372SOL    HW233750   0.146   2.014  16.065  0.3383 -0.2133 -0.7344
 7373SOL     OW33751   0.513   2.424   8.921 -0.2677 -0.0677  0.1760
 7373SOL    HW133752   0.553   2.510   8.911 -0.4512  0.0098  0.0952
 7373SOL    HW233753   0.488   2.423   9.013 -1.0417 -0.4088 -0.0385
 7374SOL     OW33754   2.983   0.359   8.127  0.0701 -0.4894  0.2217
 7374SOL    HW133755   2.967   0.264   8.122 -1.2478 -0.2617  0.0172
 7374SOL    HW233756   3.045   0.373   8.198 -1.1782  1.3229  0.9359
 7375SOL     OW33757   1.339   4.348   5.259  0.2470 -0.4305  0.5019
 7375SOL    HW133758   1.260   4.294   5.256 -1.2184  1.7689 -0.7335
 7375SOL    HW233759   1.382   4.333   5.174  0.3625 -0.8933  0.6421
 7376SOL     OW33760   1.649   1.633   0.503 -0.2899 -0.2878  0.4091
 7376SOL    HW133761   1.636   1.669   0.415  1.7917 -1.8213 -0.5373
 7376SOL    HW233762   1.574   1.574   0.501  0.0637 -0.6291 -2.4270
 7377SOL     OW33763   2.556   3.523   5.767 -0.0257  0.0896 -0.3138
 7377SOL    HW133764   2.553   3.453   5.832 -0.0143  0.9975  0.6675
 7377SOL    HW233765   2.463   3.546   5.765 -0.6607 -2.5762 -0.7392
 7378SOL     OW33766   4.473   3.829   7.108  0.1975 -0.0496  0.3576
 7378SOL    HW133767   4.531   3.765   7.150 -0.5775 -2.0636 -1.6803
 7378SOL    HW233768   4.404   3.767   7.086 -1.2817  1.8548 -0.3304
 7379SOL     OW33769   2.492   3.516   6.542  0.0167 -0.0966 -0.6600
 7379SOL    HW133770   2.571   3.547   6.588 -0.3854 -1.5046  0.9870
 7379SOL    HW233771   2.427   3.515   6.612  1.2595 -0.8174  0.4827
 7380SOL     OW33772   0.993   0.624  11.673 -0.1804 -0.2299 -0.0275
 7380SOL    HW133773   0.992   0.591  11.584 -1.3539 -0.4784  0.0785
 7380SOL    HW233774   0.971   0.542  11.717 -1.7589 -1.7589 -3.7159
 7381SOL     OW33775   0.787   2.242  15.036  0.0801 -0.2243  0.1324
 7381SOL    HW133776   0.878   2.255  15.061 -0.1499  0.8935  0.3744
 7381SOL    HW233777   0.740   2.285  15.107  0.6475 -2.2320  1.7250
 7382SOL     OW33778   0.652   4.196  11.184 -0.2538 -0.6637 -0.1632
 7382SOL    HW133779   0.632   4.127  11.121  1.2938 -0.0775 -1.2752
 7382SOL    HW233780   0.587   4.257  11.148 -0.2578 -0.0804  0.8241
 7383SOL     OW33781   1.205   0.249  14.475  0.3767 -0.2913  0.2177
 7383SOL    HW133782   1.189   0.218  14.386 -0.0738 -1.6732  0.7705
 7383SOL    HW233783   1.291   0.211  14.495  0.6288  0.1928  0.0413
 7384SOL     OW33784   2.200   0.894   1.876 -0.6275 -0.4989 -0.2390
 7384SOL    HW133785   2.107   0.906   1.894 -0.3954  0.3303  0.3864
 7384SOL    HW233786   2.216   0.972   1.825 -0.1680 -0.8463 -0.6282
 7385SOL     OW33787   2.762   3.661  13.444  0.6249 -0.2704 -0.2558
 7385SOL    HW133788   2.813   3.582  13.423 -1.1298 -1.8101  1.3105
 7385SOL    HW233789   2.737   3.637  13.533 -0.4547  0.0960 -0.4686
 7386SOL     OW33790   0.957   3.290  16.815 -0.3183 -0.4257 -0.3809
 7386SOL    HW133791   0.876   3.264  16.773 -0.5553  0.5745 -0.5381
 7386SOL    HW233792   1.019   3.223  16.785 -0.0012  0.7916 -2.4178
 7387SOL     OW33793   1.024   0.740   2.481 -0.2262 -0.4857 -0.8315
 7387SOL    HW133794   1.063   0.695   2.556 -0.9329 -0.0576 -0.2070
 7387SOL    HW233795   1.107   0.779   2.453 -0.3889 -1.2049 -2.3169
 7388SOL     OW33796   2.675   1.084  10.875 -0.2486 -0.8972 -0.1263
 7388SOL    HW133797   2.688   1.118  10.964 -0.4232 -0.5177 -0.2482
 7388SOL    HW233798   2.692   0.992  10.895  0.2822  0.0322  3.8144
 7389SOL     OW33799   3.111   4.239   3.698  0.3082  0.1285  0.6677
 7389SOL    HW133800   3.062   4.286   3.765 -0.5148 -0.8841  0.7764
 7389SOL    HW233801   3.043   4.215   3.636  0.5644  2.9527 -0.7186
 7390SOL     OW33802   1.435   1.738  11.740  0.2928  0.4999  0.6204
 7390SOL    HW133803   1.469   1.748  11.829 -1.0948 -0.3342  1.2447
 7390SOL    HW233804   1.384   1.658  11.751 -0.5223  1.1299  1.4439
 7391SOL     OW33805   4.279   3.949   5.963  0.0480  0.1251 -0.1830
 7391SOL    HW133806   4.253   3.871   6.013  0.6626 -0.0080 -0.0675
 7391SOL    HW233807   4.325   3.994   6.034  1.7415 -0.8158 -0.6794
 7392SOL     OW33808   4.034   0.315   5.701  0.2407  1.5056 -0.3085
 7392SOL    HW133809   4.072   0.316   5.613  1.6461 -2.3965  0.2902
 7392SOL    HW233810   4.029   0.220   5.697  2.8597  1.4025 -0.9333
 7393SOL     OW33811   3.519   3.128   5.476 -0.0764  0.9242  0.5652
 7393SOL    HW133812   3.443   3.112   5.532 -1.2926 -1.7050 -1.8426
 7393SOL    HW233813   3.499   3.218   5.448  0.6389  0.2992 -1.9869
 7394SOL     OW33814   0.472   3.773   3.454  0.3433  0.3075 -0.1079
 7394SOL    HW133815   0.428   3.813   3.379 -0.5935 -1.2748 -0.3934
 7394SOL    HW233816   0.414   3.703   3.485  0.5113  0.3803  0.3658
 7395SOL     OW33817   1.911   0.300   5.972  0.4002  0.6694  0.6501
 7395SOL    HW133818   1.854   0.327   5.900 -0.0286 -1.3360  0.2470
 7395SOL    HW233819   1.857   0.232   6.011  2.7812 -0.3375  2.1936
 7396SOL     OW33820   0.405   2.763   0.272  0.2440  0.7638 -0.0140
 7396SOL    HW133821   0.434   2.830   0.209  0.2542  0.8130  0.0438
 7396SOL    HW233822   0.472   2.772   0.339 -0.3585  0.5034  0.6178
 7397SOL     OW33823   4.096   4.182  11.660 -0.4724  0.0130 -0.1355
 7397SOL    HW133824   4.003   4.174  11.637 -0.8744 -1.8849  2.2260
 7397SOL    HW233825   4.122   4.254  11.602  2.0125 -0.6083  0.2121
 7398SOL     OW33826   3.617   1.184   4.912  0.0134  0.2990  0.2782
 7398SOL    HW133827   3.614   1.181   5.008 -1.3125 -2.5695  0.1270
 7398SOL    HW233828   3.667   1.266   4.909  0.2632  0.0969 -1.0227
 7399SOL     OW33829   3.971   4.626   8.540  0.0986  0.2805 -0.8239
 7399SOL    HW133830   3.897   4.669   8.497 -0.0304  0.4920 -0.3957
 7399SOL    HW233831   3.937   4.568   8.609 -0.2483  0.3985 -0.8946
 7400SOL     OW33832   1.062   1.845  12.061 -0.4020  0.8438 -0.5345
 7400SOL    HW133833   1.024   1.866  11.976 -1.4329 -0.5818 -0.4143
 7400SOL    HW233834   0.985   1.809  12.105  0.4123  0.1238  0.3041
 7401SOL     OW33835   0.034   0.973   2.157 -0.2270 -0.1283 -0.2451
 7401SOL    HW133836   0.094   1.037   2.195  1.3996 -0.1697 -2.7126
 7401SOL    HW233837   4.695   1.019   2.126  0.0979  0.7161  0.2087
 7402SOL     OW33838   3.761   3.433   7.688  0.2107 -0.1262 -0.7215
 7402SOL    HW133839   3.835   3.441   7.628  0.6541 -1.8631 -0.3854
 7402SOL    HW233840   3.779   3.512   7.740  1.5588  0.4890 -2.1320
 7403SOL     OW33841   0.750   0.398   4.745 -0.1127 -0.0957 -0.1251
 7403SOL    HW133842   0.805   0.440   4.678 -1.6428 -0.1000 -1.3942
 7403SOL    HW233843   0.813   0.334   4.777 -2.3077 -2.1029  0.1830
 7404SOL     OW33844   3.380   4.122   3.731  0.2904  0.2865 -0.5026
 7404SOL    HW133845   3.307   4.182   3.741  2.4232  3.0798 -1.4950
 7404SOL    HW233846   3.396   4.095   3.821 -0.1346 -3.4331 -1.5633
 7405SOL     OW33847   3.551   0.840  15.695  0.2989  0.3119  0.1245
 7405SOL    HW133848   3.526   0.916  15.747 -4.2877 -0.0179 -1.6039
 7405SOL    HW233849   3.638   0.868  15.666  1.1026 -3.1777 -0.8951
 7406SOL     OW33850   1.380   1.496  10.013  0.1002 -1.0480  0.2904
 7406SOL    HW133851   1.417   1.517   9.928  1.4525 -1.8444  0.6925
 7406SOL    HW233852   1.422   1.557  10.074  0.4335  0.3386 -1.3369
 7407SOL     OW33853   0.801   0.627  14.362 -0.1950 -0.1449  0.2040
 7407SOL    HW133854   0.721   0.577  14.348  1.4662 -2.3089 -1.7015
 7407SOL    HW233855   0.849   0.557  14.407  0.8454 -0.0222 -0.7120
 7408SOL     OW33856   4.366   3.559   8.866  0.0236  0.0695 -0.3844
 7408SOL    HW133857   4.306   3.569   8.792  1.8992  1.1682 -1.7769
 7408SOL    HW233858   4.376   3.464   8.864  1.9399  0.2716 -0.6003
 7409SOL     OW33859   3.686   0.073   9.360  0.0204  0.3040 -0.1800
 7409SOL    HW133860   3.762   0.118   9.398  1.4388 -0.3394 -2.2901
 7409SOL    HW233861   3.724   4.728   9.334  1.0278  0.9358 -0.7699
 7410SOL     OW33862   1.804   0.442   2.561 -0.0439 -0.1254  0.4544
 7410SOL    HW133863   1.754   0.517   2.531 -1.9912 -1.2500  0.8626
 7410SOL    HW233864   1.745   0.368   2.543 -0.3060  0.2564 -0.2318
 7411SOL     OW33865   4.175   4.441   9.479 -0.0317  0.4479 -0.0127
 7411SOL    HW133866   4.137   4.381   9.544 -0.8213  1.1491  0.1626
 7411SOL    HW233867   4.119   4.515   9.501 -0.8282 -0.4102  0.9066
 7412SOL     OW33868   0.034   3.554   4.883  0.2411  0.1748 -0.2947
 7412SOL    HW133869   0.080   3.515   4.958  0.5470  0.1999 -0.4686
 7412SOL    HW233870   4.690   3.580   4.924 -0.5143 -1.5872 -0.7079
 7413SOL     OW33871   3.662   2.020   3.269 -0.0249 -0.0085 -0.1873
 7413SOL    HW133872   3.573   1.992   3.250  0.3499 -1.5296  0.3270
 7413SOL    HW233873   3.705   1.939   3.243  1.9591  1.0696 -0.2240
 7414SOL     OW33874   2.964   1.183   5.866 -0.0418  0.6502  0.0579
 7414SOL    HW133875   3.005   1.156   5.948  2.5129  2.3625 -0.6839
 7414SOL    HW233876   3.001   1.270   5.855  1.9569 -0.4243 -1.7977
 7415SOL     OW33877   0.637   0.179   7.512 -0.5119  0.0021  0.2929
 7415SOL    HW133878   0.607   0.116   7.447  1.6955 -1.7618  0.9775
 7415SOL    HW233879   0.553   0.212   7.542 -0.6032  0.3271 -0.3210
 7416SOL     OW33880   3.423   4.664  11.152  0.4965  0.4569 -0.1473
 7416SOL    HW133881   3.466   0.006  11.179 -2.2356  1.6926  0.5341
 7416SOL    HW233882   3.497   4.604  11.155  0.8769  1.0159  1.5070
 7417SOL     OW33883   0.506   0.289   4.217 -0.5255 -0.4081 -0.4385
 7417SOL    HW133884   0.521   0.215   4.159  1.5480  0.7039 -1.3327
 7417SOL    HW233885   0.415   0.315   4.207 -0.4910 -0.3850 -0.6912
 7418SOL     OW33886   4.002   4.699   2.759 -0.3813  0.0722 -0.3923
 7418SOL    HW133887   4.027   4.621   2.808  1.9557  0.2360 -1.3225
 7418SOL    HW233888   3.956   4.664   2.682  0.0979  0.4332 -0.8467
 7419SOL     OW33889   2.919   3.705  13.948 -0.3838 -0.3739 -0.0077
 7419SOL    HW133890   2.890   3.613  13.945  1.3582 -0.8934 -1.2657
 7419SOL    HW233891   3.004   3.686  13.907  0.1967  0.3889  0.8527
 7420SOL     OW33892   3.411   2.585   4.758 -0.1916 -0.0380 -1.0344
 7420SOL    HW133893   3.392   2.509   4.813 -0.5572  0.4336 -0.5024
 7420SOL    HW233894   3.324   2.589   4.718  0.1184 -0.0048 -1.7031
 7421SOL     OW33895   4.500   1.220  14.353  0.2883 -0.0012 -0.1112
 7421SOL    HW133896   4.530   1.301  14.310  0.6185 -0.3893 -0.6061
 7421SOL    HW233897   4.578   1.179  14.388  1.6591  2.9975  0.3671
 7422SOL     OW33898   4.611   0.122  16.366 -0.0790  0.3482  0.1522
 7422SOL    HW133899   4.547   0.067  16.320  0.6120  0.1766 -0.6077
 7422SOL    HW233900   4.671   0.055  16.396 -1.0954 -0.7374 -0.2351
 7423SOL     OW33901   0.211   3.190   5.663 -0.0337 -0.0708  0.2595
 7423SOL    HW133902   0.222   3.284   5.645 -0.2454 -0.1207 -0.1224
 7423SOL    HW233903   0.214   3.190   5.759  0.2957 -1.4586  0.2446
 7424SOL     OW33904   0.001   0.525   6.887 -0.0099 -0.3656 -0.1781
 7424SOL    HW133905   4.685   0.450   6.911 -0.8328  0.1564 -0.4287
 7424SOL    HW233906   0.019   0.563   6.974 -2.5086 -0.5783  0.4370
 7425SOL     OW33907   1.623   2.293   2.587 -0.2287  0.1194  0.3531
 7425SOL    HW133908   1.710   2.331   2.594 -0.0452 -0.3179  0.4365
 7425SOL    HW233909   1.591   2.350   2.518 -0.2113 -1.0833 -0.6487
 7426SOL     OW33910   1.581   4.076   4.836 -0.0394 -0.5506  0.9163
 7426SOL    HW133911   1.673   4.091   4.860  0.0346  0.6291 -0.1420
 7426SOL    HW233912   1.582   4.114   4.749 -0.1059 -0.9149  0.7561
 7427SOL     OW33913   4.611   1.964   9.198  0.5926 -0.0266 -0.4433
 7427SOL    HW133914   4.661   2.045   9.191  0.2475  0.3807  1.7267
 7427SOL    HW233915   4.522   1.991   9.175  0.5822 -1.4456 -2.0830
 7428SOL     OW33916   2.582   3.704   2.240 -0.3708  0.4961  0.0324
 7428SOL    HW133917   2.491   3.707   2.210 -0.1124 -0.3369 -0.8405
 7428SOL    HW233918   2.604   3.796   2.234 -0.2193  0.4366 -0.3004
 7429SOL     OW33919   2.283   1.332   9.394 -0.4564  0.4646  0.2961
 7429SOL    HW133920   2.331   1.389   9.453  1.6742  1.8283 -2.7300
 7429SOL    HW233921   2.289   1.243   9.429 -2.2223  0.3606  0.2928
 7430SOL     OW33922   3.616   0.541   6.101  0.5831  0.0355 -0.1466
 7430SOL    HW133923   3.623   0.552   6.006 -0.2126 -0.1624 -0.2300
 7430SOL    HW233924   3.562   0.462   6.100 -2.1092  1.7974  4.7411
 7431SOL     OW33925   0.197   2.123   5.377  0.0140  0.2380  0.3317
 7431SOL    HW133926   0.285   2.154   5.399 -0.9792  2.6507  0.9653
 7431SOL    HW233927   0.215   2.035   5.345  3.5221  0.9605  0.3356
 7432SOL     OW33928   2.142   3.437   4.827 -0.3417  0.2782 -0.0511
 7432SOL    HW133929   2.094   3.477   4.900  0.4514 -1.1743  1.2641
 7432SOL    HW233930   2.225   3.485   4.824  0.1480 -0.5681  0.0034
 7433SOL     OW33931   0.668   4.114  11.448 -0.3085  0.3474 -0.0505
 7433SOL    HW133932   0.760   4.119  11.423 -0.7333 -1.9386 -2.0628
 7433SOL    HW233933   0.619   4.152  11.376 -0.5960  0.8638  0.4141
 7434SOL     OW33934   1.634   3.470   3.134 -0.7953 -0.2080 -0.0548
 7434SOL    HW133935   1.667   3.552   3.097 -0.9810 -0.3247 -0.4852
 7434SOL    HW233936   1.548   3.469   3.092 -1.1737 -1.8844  0.7714
 7435SOL     OW33937   0.078   2.796   5.187  0.1394  0.0307 -0.6129
 7435SOL    HW133938   0.152   2.849   5.158  0.2726 -1.1216 -2.3513
 7435SOL    HW233939   0.113   2.712   5.160 -0.3696 -0.5559  0.5486
 7436SOL     OW33940   2.061   3.618   7.036  0.0188 -0.1614  0.2737
 7436SOL    HW133941   2.013   3.546   7.078 -1.1649 -0.6272 -1.8602
 7436SOL    HW233942   2.007   3.628   6.957 -0.1251 -2.0402  0.1348
 7437SOL     OW33943   0.593   0.682   9.693  0.0206  0.0923  0.0602
 7437SOL    HW133944   0.596   0.774   9.717 -1.5784 -0.1151  1.0301
 7437SOL    HW233945   0.551   0.645   9.770  0.6495  0.1958  0.4507
 7438SOL     OW33946   3.113   0.681   8.543 -0.0834 -0.3183 -0.7234
 7438SOL    HW133947   3.163   0.606   8.576 -0.0923 -0.1355 -0.2885
 7438SOL    HW233948   3.079   0.707   8.628  1.2265 -0.7232 -0.0690
 7439SOL     OW33949   0.799   0.530  12.724 -0.5462 -0.3521 -0.2237
 7439SOL    HW133950   0.884   0.530  12.680 -0.9418 -2.4935 -0.9855
 7439SOL    HW233951   0.782   0.437  12.741  0.4395 -0.6456 -0.8553
 7440SOL     OW33952   3.803   3.740   5.859 -0.4996  0.3492  0.4414
 7440SOL    HW133953   3.758   3.746   5.944 -0.5437  0.3338  0.4187
 7440SOL    HW233954   3.888   3.705   5.887 -1.0909 -1.6277 -0.1916
 7441SOL     OW33955   4.326   3.495  17.658 -0.5060  0.5492 -0.1831
 7441SOL    HW133956   4.308   3.412  17.702 -0.5169 -1.0652 -3.2583
 7441SOL    HW233957   4.290   3.560  17.719 -0.7739  0.1718  0.0618
 7442SOL     OW33958   2.216   4.656   5.371  0.0385  0.1516  0.3896
 7442SOL    HW133959   2.270   4.708   5.430 -0.2699 -0.8499  1.5586
 7442SOL    HW233960   2.127   4.685   5.391 -0.7002 -3.4043  2.3274
 7443SOL     OW33961   1.202   2.371   5.796  0.5475  0.2108 -0.3548
 7443SOL    HW133962   1.127   2.311   5.788 -0.5104  1.6816 -1.3781
 7443SOL    HW233963   1.240   2.378   5.709 -1.7354 -2.1809 -1.5711
 7444SOL     OW33964   3.926   0.628   4.242 -0.0065 -0.5537  0.3166
 7444SOL    HW133965   3.919   0.541   4.282 -0.2370 -0.6164  0.1429
 7444SOL    HW233966   3.859   0.627   4.174 -1.7141 -1.8904  2.0112
 7445SOL     OW33967   3.543   1.256   3.022  0.1672 -0.2468 -0.0265
 7445SOL    HW133968   3.513   1.340   2.989 -0.5301  0.6051  2.8120
 7445SOL    HW233969   3.458   1.223   3.050 -0.5138  0.7268 -0.9676
 7446SOL     OW33970   0.393   0.099   9.482  0.2624 -0.2748  0.6107
 7446SOL    HW133971   0.324   0.049   9.526  1.8746 -1.9546  1.2008
 7446SOL    HW233972   0.378   0.186   9.520 -2.0918 -0.3363 -0.1773
 7447SOL     OW33973   1.317   2.341   8.093 -0.0394  0.0652  0.0131
 7447SOL    HW133974   1.360   2.427   8.090 -0.5172  0.4209  3.4752
 7447SOL    HW233975   1.235   2.351   8.044 -0.7940  2.5087  1.7498
 7448SOL     OW33976   0.335   0.760   2.359  0.3112  0.5636  0.0640
 7448SOL    HW133977   0.332   0.856   2.359  0.9105  0.5749 -0.4162
 7448SOL    HW233978   0.334   0.745   2.454 -1.1581  1.8722  0.2533
 7449SOL     OW33979   3.565   2.553   4.280 -0.6091  0.6564 -0.9159
 7449SOL    HW133980   3.601   2.508   4.204  0.1517  0.8971 -0.6987
 7449SOL    HW233981   3.645   2.580   4.325 -0.4135 -1.6397  0.0936
 7450SOL     OW33982   4.640   1.871   7.168 -0.0504  0.5135 -0.3428
 7450SOL    HW133983   4.561   1.840   7.212 -0.2988  0.7384 -0.6265
 7450SOL    HW233984   4.601   1.910   7.089 -0.4552 -0.8210 -0.7985
 7451SOL     OW33985   0.472   3.018   2.090  0.2261 -0.1471  0.1903
 7451SOL    HW133986   0.497   3.092   2.035 -0.8867  0.2145  0.1885
 7451SOL    HW233987   0.521   3.040   2.170  0.5713 -0.5586  0.0877
 7452SOL     OW33988   2.591   4.312   1.135  0.5147  0.2943 -0.8763
 7452SOL    HW133989   2.510   4.363   1.133 -1.2412 -2.4365  1.4069
 7452SOL    HW233990   2.565   4.222   1.115 -0.0153 -0.1752  2.0393
 7453SOL     OW33991   3.818   3.099   5.223 -0.8444 -0.2686  0.0903
 7453SOL    HW133992   3.830   3.194   5.218  0.2607 -0.4179 -0.0926
 7453SOL    HW233993   3.907   3.073   5.246 -1.6169 -2.9385  0.0119
 7454SOL     OW33994   0.300   0.784   5.916  0.4346 -0.2478 -0.0189
 7454SOL    HW133995   0.269   0.730   5.843 -0.1394  2.3597 -1.7087
 7454SOL    HW233996   0.365   0.728   5.958  0.7099  0.2548  0.2380
 7455SOL     OW33997   4.174   2.085   8.256 -0.2229 -0.2422 -0.7092
 7455SOL    HW133998   4.260   2.122   8.235 -0.2888 -0.9096 -2.1337
 7455SOL    HW233999   4.111   2.145   8.217  0.5074  1.6765  1.0559
 7456SOL     OW34000   4.356   0.395   6.177 -0.3607 -0.1819 -0.6307
 7456SOL    HW134001   4.274   0.351   6.156 -0.5947 -0.2545  0.4092
 7456SOL    HW234002   4.344   0.444   6.259  0.6520 -2.0971  0.6631
 7457SOL     OW34003   0.371   2.860  13.097 -0.0446  0.2497 -0.0544
 7457SOL    HW134004   0.374   2.888  13.005 -3.6784 -1.1817 -0.5921
 7457SOL    HW234005   0.454   2.812  13.105 -0.0302  0.5519  1.5781
 7458SOL     OW34006   2.922   4.143  11.281 -0.9017  0.4181 -0.1061
 7458SOL    HW134007   2.831   4.117  11.296 -0.8698  2.1372  2.9819
 7458SOL    HW234008   2.963   4.070  11.328 -1.1680 -0.6406 -1.4949
 7459SOL     OW34009   0.724   1.046  10.973  0.6587  0.4689  0.0589
 7459SOL    HW134010   0.812   1.084  10.965  0.1317  1.8258  0.7603
 7459SOL    HW234011   0.720   1.008  11.061 -2.2290 -0.7672 -0.6321
 7460SOL     OW34012   1.585   2.657   2.094 -0.0924 -0.5154 -0.2068
 7460SOL    HW134013   1.503   2.692   2.128 -0.5681 -2.2757  0.4675
 7460SOL    HW234014   1.555   2.597   2.026 -0.1712 -0.5398 -0.1508
 7461SOL     OW34015   1.973   0.544   8.604 -0.1627  0.2429 -0.2105
 7461SOL    HW134016   1.941   0.458   8.577  1.8806 -0.4427 -0.4227
 7461SOL    HW234017   2.031   0.551   8.528 -0.0028 -1.2931 -0.2252
 7462SOL     OW34018   0.993   1.278   1.373  0.2822  0.1142  0.1696
 7462SOL    HW134019   1.051   1.329   1.429 -1.5793  3.6700 -1.1875
 7462SOL    HW234020   0.906   1.302   1.406 -0.1890 -1.8810  0.4344
 7463SOL     OW34021   1.552   3.073   8.837  0.4079 -0.1573  0.6414
 7463SOL    HW134022   1.498   3.151   8.818  2.3007  0.4039 -2.4949
 7463SOL    HW234023   1.633   3.089   8.789 -0.1240 -1.3786 -0.6665
 7464SOL     OW34024   1.538   0.707  16.838 -0.0955 -0.0934  0.3037
 7464SOL    HW134025   1.557   0.761  16.914  1.2876  1.0974 -0.8816
 7464SOL    HW234026   1.443   0.705  16.838 -0.0661 -1.5439  0.7215
 7465SOL     OW34027   3.442   3.375   0.772 -0.2415  0.2170 -0.1590
 7465SOL    HW134028   3.468   3.299   0.720  1.2663  0.4987  0.2094
 7465SOL    HW234029   3.380   3.423   0.717  1.1424  4.0635  1.6397
 7466SOL     OW34030   3.420   3.188   9.513 -0.4360  0.5913 -0.5416
 7466SOL    HW134031   3.388   3.272   9.546  0.5100  0.5114  0.5955
 7466SOL    HW234032   3.362   3.122   9.552 -2.0460  0.7869 -2.6231
 7467SOL     OW34033   1.102   1.637   2.295 -0.3132  0.0742  0.1445
 7467SOL    HW134034   1.021   1.588   2.282 -2.1477  3.4578 -0.9936
 7467SOL    HW234035   1.077   1.725   2.268  1.7703  0.7886  0.5509
 7468SOL     OW34036   0.079   4.059  16.188  0.5626  0.1056  0.3909
 7468SOL    HW134037   0.115   4.142  16.156  0.0827 -0.0469 -0.5357
 7468SOL    HW234038   0.104   4.061  16.280  1.1592  0.9793  0.2189
 7469SOL     OW34039   1.639   0.896  13.022 -0.4585  0.4076  0.6000
 7469SOL    HW134040   1.607   0.967  13.077  0.0325  0.9446  0.1958
 7469SOL    HW234041   1.707   0.856  13.077 -1.8295  1.0306  2.7443
 7470SOL     OW34042   1.003   1.757  16.682  0.0320 -0.4566 -0.0339
 7470SOL    HW134043   1.006   1.664  16.704  0.6821 -0.2125  0.8982
 7470SOL    HW234044   0.934   1.792  16.739  0.7059  0.7132  0.0743
 7471SOL     OW34045   4.271   2.710   7.024 -0.8398 -0.1610 -0.3969
 7471SOL    HW134046   4.222   2.660   7.089  0.6892 -1.8423 -0.5185
 7471SOL    HW234047   4.204   2.775   7.006  2.3867  3.3831  0.4463
 7472SOL     OW34048   0.488   1.591   8.259  0.5489  0.0288  0.4051
 7472SOL    HW134049   0.577   1.621   8.238  1.2316 -1.7685  0.7673
 7472SOL    HW234050   0.480   1.633   8.344  0.9469  3.1963 -1.1175
 7473SOL     OW34051   2.198   0.349   9.999 -0.8907 -0.1731  0.4242
 7473SOL    HW134052   2.143   0.307  10.065 -1.9937  0.9009  0.2060
 7473SOL    HW234053   2.205   0.433  10.045  0.8522 -0.1577  0.1233
 7474SOL     OW34054   2.909   3.385  17.105 -0.4177 -0.4513  0.0674
 7474SOL    HW134055   2.878   3.299  17.077  0.3951 -0.6324 -0.2842
 7474SOL    HW234056   2.857   3.399  17.184  0.7774  0.2514  0.7398
 7475SOL     OW34057   2.481   1.785   5.686  0.4083 -0.1956 -0.4516
 7475SOL    HW134058   2.573   1.771   5.660  0.4111 -1.4938  0.2623
 7475SOL    HW234059   2.498   1.767   5.778 -0.1528 -3.0399 -0.9071
 7476SOL     OW34060   3.480   3.167   7.746  0.5216 -0.1601  0.6409
 7476SOL    HW134061   3.388   3.168   7.774  0.8354 -3.8122  1.8678
 7476SOL    HW234062   3.480   3.239   7.683  1.2229 -1.4541 -0.8196
 7477SOL     OW34063   4.373   3.401  13.187 -0.4988 -0.4313  0.1603
 7477SOL    HW134064   4.434   3.327  13.191 -0.9693 -0.8529 -0.4118
 7477SOL    HW234065   4.300   3.358  13.143  0.6547  0.0883 -2.3124
 7478SOL     OW34066   0.464   3.266  11.784 -0.3703  0.6792  0.4587
 7478SOL    HW134067   0.426   3.297  11.702  1.5626  0.4196 -0.5358
 7478SOL    HW234068   0.557   3.288  11.782 -0.4262  0.9963  1.1423
 7479SOL     OW34069   4.682   2.779  14.629 -0.4338 -0.0323  0.0951
 7479SOL    HW134070   4.655   2.870  14.618  1.5562  0.3394 -1.7117
 7479SOL    HW234071   4.650   2.748  14.544  1.5388 -0.8229 -0.3540
 7480SOL     OW34072   0.781   0.010  10.433  0.3793  0.1464  0.0006
 7480SOL    HW134073   0.824   4.682  10.486  0.7505  1.2326  1.0625
 7480SOL    HW234074   0.747   0.059  10.507  1.9445 -2.3807  2.3907
 7481SOL     OW34075   4.218   2.802   7.703 -0.3183  0.3193 -0.0802
 7481SOL    HW134076   4.286   2.858   7.663  0.4652 -0.2521  0.4540
 7481SOL    HW234077   4.267   2.729   7.741  0.8136 -1.1021 -4.2792
 7482SOL     OW34078   3.632   0.455   2.359  0.5295 -0.0658 -0.6962
 7482SOL    HW134079   3.598   0.525   2.416  0.8499 -0.9315  0.5626
 7482SOL    HW234080   3.647   0.510   2.282  2.1903 -0.7290 -0.8343
 7483SOL     OW34081   3.490   0.187  10.559  0.3917  0.9110  0.1281
 7483SOL    HW134082   3.449   0.175  10.644  1.1727 -0.0511  0.3641
 7483SOL    HW234083   3.527   0.271  10.587 -3.9875  2.2721  1.8372
 7484SOL     OW34084   0.924   4.024   6.246  0.3570 -0.0474 -0.6089
 7484SOL    HW134085   0.975   4.018   6.166  0.0844 -1.9134 -0.6359
 7484SOL    HW234086   0.974   4.094   6.289  0.7785 -0.0303 -1.1335
 7485SOL     OW34087   1.240   4.607   3.690  0.1983 -0.1005 -0.4386
 7485SOL    HW134088   1.153   4.626   3.655 -0.8103 -0.4023  1.9133
 7485SOL    HW234089   1.253   4.529   3.635  1.6595 -0.9095  1.0456
 7486SOL     OW34090   4.497   3.620   5.005  0.1530  0.2491 -0.5006
 7486SOL    HW134091   4.459   3.549   5.057 -1.2801  0.4623 -1.2686
 7486SOL    HW234092   4.426   3.629   4.942  1.0745  1.4565 -1.3740
 7487SOL     OW34093   2.829   1.971   7.282 -0.2130 -0.0416 -0.3980
 7487SOL    HW134094   2.798   1.886   7.313 -0.9783  0.2237 -0.4194
 7487SOL    HW234095   2.773   2.028   7.334  1.6122 -0.8354  2.4009
 7488SOL     OW34096   2.384   3.756   2.935 -0.5828  0.0667  0.0946
 7488SOL    HW134097   2.290   3.757   2.955 -0.2573 -1.3964  1.6856
 7488SOL    HW234098   2.407   3.843   2.967 -2.6497  0.9432 -0.8429
 7489SOL     OW34099   0.817   3.369   5.075 -0.2321  0.2331 -0.0041
 7489SOL    HW134100   0.860   3.390   4.992  0.5974  0.4873  0.4904
 7489SOL    HW234101   0.780   3.453   5.100 -1.7771  0.3973 -2.8351
 7490SOL     OW34102   4.578   4.257   7.871 -0.4131 -0.5280  0.1945
 7490SOL    HW134103   4.665   4.295   7.861 -0.7673 -0.0218 -0.9999
 7490SOL    HW234104   4.591   4.198   7.945  1.0036 -0.7785 -0.2467
 7491SOL     OW34105   1.176   4.721   2.912 -0.2490  0.0204 -0.0053
 7491SOL    HW134106   1.210   0.013   2.996  1.6548  0.2012 -0.8240
 7491SOL    HW234107   1.225   4.641   2.892  0.2997  0.7304 -1.5523
 7492SOL     OW34108   3.853   3.567  17.683 -0.5309  0.4653 -0.1304
 7492SOL    HW134109   3.921   3.562  17.616  0.2441  0.6315  0.6599
 7492SOL    HW234110   3.844   3.662  17.675 -2.8642  0.3747  1.5363
 7493SOL     OW34111   4.352   3.794  13.419  0.0886  0.4527  0.1808
 7493SOL    HW134112   4.403   3.864  13.378  1.8099 -1.2901 -0.6897
 7493SOL    HW234113   4.269   3.784  13.373  0.1198  2.2079 -0.2560
 7494SOL     OW34114   3.353   2.876   4.689  0.0900  0.2850  0.0585
 7494SOL    HW134115   3.384   2.963   4.717  1.3301 -0.0226 -0.3588
 7494SOL    HW234116   3.361   2.818   4.765 -0.2963 -0.1155 -0.2054
 7495SOL     OW34117   2.545   1.767   6.333  0.1711 -0.1018  0.1756
 7495SOL    HW134118   2.588   1.790   6.251  0.3275  0.5847  0.4508
 7495SOL    HW234119   2.608   1.808   6.392  0.8418  0.7478 -1.1195
 7496SOL     OW34120   0.584   2.271   7.681  0.6063 -0.5255  0.0782
 7496SOL    HW134121   0.591   2.226   7.597 -2.2086 -0.7913 -0.0004
 7496SOL    HW234122   0.502   2.318   7.666 -0.0652 -1.9664 -0.7723
 7497SOL     OW34123   2.372   1.107   7.574 -0.2168  0.4006  0.1512
 7497SOL    HW134124   2.379   1.120   7.479  1.1822  1.7184  0.4360
 7497SOL    HW234125   2.278   1.113   7.592 -0.4615 -0.9860 -0.6448
 7498SOL     OW34126   2.891   1.284   7.893 -0.8506 -0.0981 -0.5048
 7498SOL    HW134127   2.843   1.202   7.891 -1.7433  0.4175  0.2861
 7498SOL    HW234128   2.848   1.342   7.830  0.2751  3.2551  1.8191
 7499SOL     OW34129   0.124   2.726   5.995  0.2779  0.4161  0.2032
 7499SOL    HW134130   0.086   2.761   5.915  3.2098  1.1044 -0.8944
 7499SOL    HW234131   0.216   2.746   5.978  0.4330  0.4599  1.0909
 7500SOL     OW34132   2.945   1.317  12.240 -0.1109 -0.0629  0.3063
 7500SOL    HW134133   2.934   1.412  12.236  1.1446  0.0811  0.1519
 7500SOL    HW234134   2.947   1.319  12.336  2.2939 -0.9714  0.2698
 7501SOL     OW34135   0.842   2.595  14.171 -0.0115 -0.1456 -0.2848
 7501SOL    HW134136   0.800   2.512  14.150  0.2900  0.4673 -3.3186
 7501SOL    HW234137   0.770   2.654  14.150 -1.2820 -1.9491 -0.9411
 7502SOL     OW34138   4.163   3.804   1.685 -0.1878 -0.7581  0.2940
 7502SOL    HW134139   4.158   3.889   1.730 -0.0187  0.4080 -1.8975
 7502SOL    HW234140   4.172   3.747   1.762 -2.0281 -0.0190  1.0585
 7503SOL     OW34141   4.177   1.243   5.604 -0.1690 -1.1736  0.0105
 7503SOL    HW134142   4.156   1.152   5.622  3.0848 -1.9985 -0.2933
 7503SOL    HW234143   4.258   1.259   5.653  1.3835 -1.4031 -2.5397
 7504SOL     OW34144   3.824   0.520   8.353 -0.4023 -0.0132 -0.4741
 7504SOL    HW134145   3.897   0.568   8.392 -1.7987  0.8642  1.0767
 7504SOL    HW234146   3.759   0.589   8.339 -2.0430 -1.1478  1.5553
 7505SOL     OW34147   1.223   1.163   7.092 -0.0812 -0.5981 -0.0056
 7505SOL    HW134148   1.265   1.192   7.173 -0.7440  0.4353 -0.0379
 7505SOL    HW234149   1.277   1.203   7.023 -1.1518  1.0947  0.1545
 7506SOL     OW34150   0.129   1.538   6.841  0.3417 -0.3950  0.5124
 7506SOL    HW134151   0.042   1.579   6.836  0.2475 -0.1958  3.6320
 7506SOL    HW234152   0.102   1.449   6.861 -0.8655 -0.1548 -0.0445
 7507SOL     OW34153   4.498   1.190  12.868  0.0554 -0.1816  0.8079
 7507SOL    HW134154   4.449   1.109  12.878  0.3016 -0.4948 -0.6044
 7507SOL    HW234155   4.554   1.177  12.945 -0.8738 -2.0899  1.1660
 7508SOL     OW34156   2.221   1.788   6.780 -0.0926 -0.4191  0.0440
 7508SOL    HW134157   2.299   1.744   6.746 -0.0797  0.0272 -0.5091
 7508SOL    HW234158   2.147   1.746   6.735 -0.1460  0.3058 -0.5374
 7509SOL     OW34159   4.547   4.285  14.774 -0.0155  0.2426 -0.0778
 7509SOL    HW134160   4.529   4.242  14.857  1.3063 -2.1908 -1.0600
 7509SOL    HW234161   4.500   4.368  14.767 -1.5519 -0.5358  1.0018
 7510SOL     OW34162   1.049   1.682   8.312  0.2816 -0.1196 -0.0229
 7510SOL    HW134163   1.063   1.768   8.271  0.0351  0.3627  0.8966
 7510SOL    HW234164   1.131   1.633   8.311  0.5778  0.3860 -0.5716
 7511SOL     OW34165   1.262   3.829   6.915 -0.2690  0.1458 -0.1077
 7511SOL    HW134166   1.226   3.843   7.003  3.2749 -0.6084  1.4644
 7511SOL    HW234167   1.243   3.917   6.881 -1.7314 -1.1024 -2.5116
 7512SOL     OW34168   2.116   4.043  15.947 -0.3752 -0.0951  0.6276
 7512SOL    HW134169   2.144   4.055  15.856  0.6716 -0.7718  0.8587
 7512SOL    HW234170   2.135   4.130  15.981 -0.5097 -1.5093  4.2835
 7513SOL     OW34171   0.120   3.168  11.792  0.4711  0.2189  0.1043
 7513SOL    HW134172   0.205   3.206  11.771  0.3179 -0.2912 -1.4774
 7513SOL    HW234173   0.085   3.205  11.873 -1.8016 -4.2645  1.1817
 7514SOL     OW34174   3.847   3.059   1.878 -0.2053  0.0603 -0.1825
 7514SOL    HW134175   3.765   3.104   1.856  0.3003 -0.1787 -2.5548
 7514SOL    HW234176   3.820   2.971   1.852 -1.7769 -0.4937  3.2665
 7515SOL     OW34177   2.830   4.066  11.866 -0.0819  0.0017 -0.1276
 7515SOL    HW134178   2.781   4.061  11.948  2.5329  0.8866  1.4634
 7515SOL    HW234179   2.770   4.019  11.807 -0.2978  3.1144 -2.3776
 7516SOL     OW34180   1.327   0.992   5.085  0.3588 -0.4059 -0.0112
 7516SOL    HW134181   1.415   0.997   5.123 -0.1742  1.2646  0.9731
 7516SOL    HW234182   1.343   0.929   5.015 -0.0720 -1.2364  0.6421
 7517SOL     OW34183   0.086   1.026   2.551  0.1756  0.3032 -0.4255
 7517SOL    HW134184   0.078   1.079   2.473  0.1704  1.4603  0.3627
 7517SOL    HW234185   0.060   0.940   2.516 -0.4693 -0.2067  1.2909
 7518SOL     OW34186   0.865   0.078   2.851  1.0395 -0.5828  0.0385
 7518SOL    HW134187   0.802   0.098   2.920 -0.3463  0.1263 -1.4463
 7518SOL    HW234188   0.954   0.088   2.886  0.8019 -0.8323  0.7088
 7519SOL     OW34189   3.526   4.224   7.144  0.0632  0.4091  0.4815
 7519SOL    HW134190   3.612   4.187   7.163 -0.4232 -0.7652  0.3554
 7519SOL    HW234191   3.466   4.152   7.159  0.4281 -0.6140 -2.8395
 7520SOL     OW34192   0.634   0.636  13.380  0.5932  0.0490  0.2772
 7520SOL    HW134193   0.610   0.673  13.295 -1.1352  0.3703  0.9140
 7520SOL    HW234194   0.596   0.707  13.433 -0.1336 -1.5762  1.9276
 7521SOL     OW34195   2.429   2.272   1.542  1.1995  0.0028 -0.1501
 7521SOL    HW134196   2.412   2.212   1.615 -1.2423 -1.2180 -1.7235
 7521SOL    HW234197   2.429   2.354   1.593  0.4177  0.2150 -0.4796
 7522SOL     OW34198   4.507   0.336   5.350 -0.1091  0.5432  0.4458
 7522SOL    HW134199   4.527   0.413   5.297 -2.9439  0.2823 -1.0496
 7522SOL    HW234200   4.491   0.262   5.290  0.0834  0.5809  0.3494
 7523SOL     OW34201   1.527   4.052  14.238 -0.3417 -0.5493  0.2999
 7523SOL    HW134202   1.530   4.110  14.162  1.0595 -0.0475  0.7388
 7523SOL    HW234203   1.478   3.978  14.200 -1.5982 -0.4282  1.7204
 7524SOL     OW34204   0.275   0.644   5.693  0.1353 -0.2497 -0.0619
 7524SOL    HW134205   0.306   0.554   5.681 -0.9510 -0.5391 -0.6973
 7524SOL    HW234206   0.320   0.682   5.618 -1.2463  0.9194 -0.2948
 7525SOL     OW34207   0.133   1.621   1.385  0.1050 -0.6257 -0.3452
 7525SOL    HW134208   0.157   1.538   1.344  1.5872 -0.3014 -0.1482
 7525SOL    HW234209   0.040   1.624   1.408 -0.0480  0.7614 -1.1288
 7526SOL     OW34210   3.093   4.626   1.829 -0.2070  0.2703  0.0952
 7526SOL    HW134211   3.050   4.609   1.746  2.6860  2.1363 -1.7670
 7526SOL    HW234212   3.059   4.549   1.875  1.0559 -0.1410  0.3433
 7527SOL     OW34213   2.645   2.540   5.561  0.1094  0.4177  0.6078
 7527SOL    HW134214   2.583   2.482   5.517  0.1054  0.9646 -0.1095
 7527SOL    HW234215   2.711   2.531   5.492 -0.3737  1.4096  0.0227
 7528SOL     OW34216   1.271   3.153   3.887 -0.6536  0.0347  0.2127
 7528SOL    HW134217   1.187   3.130   3.929  0.8859  0.1279  3.3544
 7528SOL    HW234218   1.261   3.104   3.806 -0.6700  0.0754  0.1900
 7529SOL     OW34219   2.994   3.157   8.328 -0.0782 -0.2031 -0.2273
 7529SOL    HW134220   3.001   3.199   8.414 -0.1600  1.4007 -1.0221
 7529SOL    HW234221   3.071   3.103   8.342 -1.6871 -3.0119 -2.1758
 7530SOL     OW34222   3.755   4.071   6.438  0.0274  0.5440  0.1424
 7530SOL    HW134223   3.849   4.083   6.427 -0.0154  1.1319  0.4448
 7530SOL    HW234224   3.733   4.107   6.524  0.3986 -1.2564  0.9830
 7531SOL     OW34225   4.582   4.528   3.981 -0.2419  0.3416 -0.5821
 7531SOL    HW134226   4.632   4.458   3.939 -2.3329 -1.6356  0.2017
 7531SOL    HW234227   4.560   4.573   3.900  0.2057  3.6505  1.1441
 7532SOL     OW34228   3.098   2.271   3.181  0.7007  0.0827  0.0843
 7532SOL    HW134229   3.134   2.220   3.108 -0.4676 -0.5950 -0.0053
 7532SOL    HW234230   3.177   2.271   3.236  0.9197 -1.0116 -0.2213
 7533SOL     OW34231   2.512   1.877   5.253 -0.0549 -0.3602 -0.0304
 7533SOL    HW134232   2.590   1.826   5.277 -0.0466 -0.7832 -0.9584
 7533SOL    HW234233   2.474   1.897   5.339  0.6614 -1.1684  0.4762
 7534SOL     OW34234   3.641   1.055   7.567  0.4640 -0.1698 -0.2772
 7534SOL    HW134235   3.574   1.074   7.500 -2.0641 -0.8661  2.0629
 7534SOL    HW234236   3.653   1.139   7.611 -0.3957 -1.3233  2.1655
 7535SOL     OW34237   4.276   4.032   4.715  0.9746 -0.0777 -0.2138
 7535SOL    HW134238   4.314   4.000   4.797  0.2350  2.4890  1.1309
 7535SOL    HW234239   4.204   4.083   4.752  2.5323  1.8497  0.2245
 7536SOL     OW34240   4.021   3.830   5.531  0.1893  0.0573 -0.7061
 7536SOL    HW134241   4.091   3.876   5.484  0.7642 -0.7048 -0.5853
 7536SOL    HW234242   4.070   3.763   5.578 -1.2872 -0.1474  0.5284
 7537SOL     OW34243   0.802   0.328   5.611 -0.2546 -0.5537 -0.2731
 7537SOL    HW134244   0.781   0.277   5.532  0.2941  0.5626 -1.1451
 7537SOL    HW234245   0.767   0.410   5.576  3.6050  0.8289 -0.8882
 7538SOL     OW34246   4.150   3.617  12.963  0.5059  0.2142 -0.0425
 7538SOL    HW134247   4.082   3.556  12.991  0.4511  0.2694 -0.0556
 7538SOL    HW234248   4.132   3.629  12.870  0.0189 -0.8904 -0.0922
 7539SOL     OW34249   4.728   0.368   9.716 -0.4569 -0.2013  0.0278
 7539SOL    HW134250   4.715   0.456   9.750  0.3598  0.4832 -1.4515
 7539SOL    HW234251   0.018   0.324   9.796 -1.0351  1.4785  1.1626
 7540SOL     OW34252   1.686   4.467   0.239 -0.2300  0.5533 -0.1421
 7540SOL    HW134253   1.615   4.449   0.301  1.2834 -0.4235  1.3168
 7540SOL    HW234254   1.759   4.425   0.284  1.0013  0.2881 -2.4156
 7541SOL     OW34255   0.674   1.391   7.846 -0.1878  0.4343 -0.0604
 7541SOL    HW134256   0.679   1.302   7.810 -1.1290 -0.2615  1.4990
 7541SOL    HW234257   0.642   1.377   7.935  1.0206  3.6161  0.8857
 7542SOL     OW34258   1.400   2.617   0.216 -0.4045  0.7394  0.2013
 7542SOL    HW134259   1.329   2.676   0.241 -0.7475  0.2343  0.4209
 7542SOL    HW234260   1.459   2.618   0.292  0.8591  1.4362 -0.7976
 7543SOL     OW34261   4.069   3.873   7.458  0.2936 -0.0389 -0.5833
 7543SOL    HW134262   3.993   3.931   7.450  0.9171  0.3894 -3.4678
 7543SOL    HW234263   4.124   3.932   7.511 -1.9314  1.3961  0.1190
 7544SOL     OW34264   4.273   3.741   4.758 -0.8055 -0.0695 -0.2590
 7544SOL    HW134265   4.187   3.735   4.799  0.4558  0.8438  2.5384
 7544SOL    HW234266   4.271   3.825   4.711 -0.6828  1.0523  1.7431
 7545SOL     OW34267   3.530   0.186  11.750 -0.6309  0.1181 -0.5364
 7545SOL    HW134268   3.552   0.270  11.790  0.5845 -0.3379 -0.2664
 7545SOL    HW234269   3.444   0.168  11.789 -0.6321  0.8619 -0.1970
 7546SOL     OW34270   3.830   2.828   8.672  0.6336  0.4841  0.2813
 7546SOL    HW134271   3.778   2.892   8.623  0.7779  1.0642  0.8919
 7546SOL    HW234272   3.856   2.765   8.604  0.9080  0.4430  0.4249
 7547SOL     OW34273   4.027   4.619   3.944 -0.3816 -0.0193  0.5693
 7547SOL    HW134274   3.935   4.646   3.938  0.3464  1.9000 -1.9736
 7547SOL    HW234275   4.047   4.658   4.029 -1.3575  0.8048  0.4290
 7548SOL     OW34276   0.012   0.554   8.832  0.1349 -0.0423 -0.4863
 7548SOL    HW134277   0.060   0.579   8.911  0.8447  0.5006 -1.0918
 7548SOL    HW234278   4.675   0.509   8.869 -0.1103 -1.1906 -2.3431
 7549SOL     OW34279   1.635   1.027  16.907 -0.0074 -0.3654  0.2893
 7549SOL    HW134280   1.596   1.058  16.825  1.0817 -1.1832 -0.5353
 7549SOL    HW234281   1.729   1.024  16.889  0.3648  0.7619  2.0482
 7550SOL     OW34282   2.516   2.648   7.251 -0.0983 -0.2399  0.7619
 7550SOL    HW134283   2.560   2.731   7.232 -3.8923  1.7937  0.7996
 7550SOL    HW234284   2.464   2.673   7.327  1.6119 -1.1241  2.2072
 7551SOL     OW34285   3.196   3.990   9.314 -0.0890 -0.1146 -0.3047
 7551SOL    HW134286   3.206   4.079   9.349  0.1171 -1.3601  2.8174
 7551SOL    HW234287   3.143   3.942   9.377 -0.6544  2.0936  0.9101
 7552SOL     OW34288   0.622   1.018   7.247  0.3380  0.2372 -0.6607
 7552SOL    HW134289   0.556   0.953   7.224 -0.6493  0.5164  1.3575
 7552SOL    HW234290   0.673   0.959   7.303 -1.0381  1.9134  2.3251
 7553SOL     OW34291   1.388   0.292  10.135 -0.2860 -0.5218 -0.5342
 7553SOL    HW134292   1.383   0.374  10.184  0.9622 -1.0165  0.4045
 7553SOL    HW234293   1.324   0.301  10.064 -0.5725 -0.0548 -0.2114
 7554SOL     OW34294   3.262   2.083   4.386 -0.0546 -0.0063 -0.1791
 7554SOL    HW134295   3.257   1.987   4.390  1.3318 -0.0539  0.3546
 7554SOL    HW234296   3.206   2.097   4.462 -0.0190 -1.4451  0.1135
 7555SOL     OW34297   3.966   0.992   0.274  0.2090 -0.0272 -0.2572
 7555SOL    HW134298   3.918   1.062   0.230  2.9060  1.4242 -0.8586
 7555SOL    HW234299   4.035   1.042   0.316 -1.7510  0.4595  2.4595
 7556SOL     OW34300   0.025   0.769   5.263 -0.3999 -0.5607 -0.4567
 7556SOL    HW134301   0.103   0.787   5.210 -1.1658 -0.8036 -1.6739
 7556SOL    HW234302   4.720   0.853   5.264  2.1292  0.7793 -0.7942
 7557SOL     OW34303   2.751   3.803   5.135 -0.3844  0.6820  0.2957
 7557SOL    HW134304   2.842   3.784   5.158 -0.6930 -0.4008  0.6196
 7557SOL    HW234305   2.737   3.756   5.054  1.1208  3.1619 -1.4051
 7558SOL     OW34306   1.936   3.509   3.165 -0.2622  0.4960  0.4555
 7558SOL    HW134307   1.913   3.460   3.085 -1.2125 -0.7003  1.4574
 7558SOL    HW234308   2.031   3.496   3.173 -0.1606 -0.7737 -2.6883
 7559SOL     OW34309   3.077   1.988   3.948  0.0667  0.0510 -0.2308
 7559SOL    HW134310   3.010   2.006   3.882  0.9977 -0.7577 -1.3855
 7559SOL    HW234311   3.126   2.071   3.945  1.5358 -0.8006  0.4630
 7560SOL     OW34312   4.482   3.688   9.645 -0.0313  0.0450 -0.5686
 7560SOL    HW134313   4.544   3.632   9.691 -1.0780 -0.0387  0.7373
 7560SOL    HW234314   4.531   3.763   9.610  1.9092  0.1023  2.2609
 7561SOL     OW34315   0.395   4.668  16.353 -0.0684 -0.0356 -0.5019
 7561SOL    HW134316   0.403   0.024  16.356  1.8392 -0.2706  1.7792
 7561SOL    HW234317   0.482   4.641  16.382  0.4099 -0.4230 -2.2825
 7562SOL     OW34318   1.448   2.045   2.173  0.0656 -0.1795 -0.0702
 7562SOL    HW134319   1.354   2.057   2.184  0.0397  2.6630 -3.2027
 7562SOL    HW234320   1.455   1.961   2.128 -1.4845 -0.1719 -0.3174
 7563SOL     OW34321   4.304   3.775  15.910 -0.2128  0.5997  0.1951
 7563SOL    HW134322   4.306   3.869  15.890 -0.9393  0.1965 -1.7790
 7563SOL    HW234323   4.392   3.742  15.892  0.0720  1.6455 -0.3323
 7564SOL     OW34324   3.162   0.156   7.077 -1.0453 -0.1386  1.1428
 7564SOL    HW134325   3.088   0.149   7.136  0.5069  2.3307  3.3748
 7564SOL    HW234326   3.242   0.142   7.127  0.1445 -0.8629 -0.9538
 7565SOL     OW34327   0.212   1.464   6.141  0.3280  0.2477 -0.1486
 7565SOL    HW134328   0.223   1.396   6.075 -0.6594  0.7370 -0.8144
 7565SOL    HW234329   0.301   1.499   6.138  0.6501 -0.5189  0.5170
 7566SOL     OW34330   1.929   4.575   5.940 -0.1567  0.0893  0.2405
 7566SOL    HW134331   1.967   4.626   5.868  0.2419  0.2481  0.5608
 7566SOL    HW234332   2.014   4.542   5.970  0.2161 -0.0969 -1.0275
 7567SOL     OW34333   0.608   1.462   4.720 -0.1536  0.2392 -0.0673
 7567SOL    HW134334   0.642   1.407   4.649  0.8312  0.6778  0.0571
 7567SOL    HW234335   0.673   1.462   4.790  0.8380  2.0735 -0.9720
 7568SOL     OW34336   0.793   3.239   4.431 -0.3393  0.4056 -0.8578
 7568SOL    HW134337   0.698   3.227   4.440 -0.1656 -1.0053 -1.0564
 7568SOL    HW234338   0.809   3.307   4.498 -3.4654 -0.5409  0.8830
 7569SOL     OW34339   4.117   1.040  16.322 -0.5066  0.6261  0.2542
 7569SOL    HW134340   4.040   0.999  16.283  1.2673 -1.8053 -0.6556
 7569SOL    HW234341   4.096   1.043  16.416  0.6985  2.2626  0.4648
 7570SOL     OW34342   3.756   1.181   1.789 -0.2163 -0.1257  0.0295
 7570SOL    HW134343   3.687   1.132   1.833 -0.0102 -0.0498  0.4379
 7570SOL    HW234344   3.836   1.148   1.830 -2.7785 -3.5048  2.2958
 7571SOL     OW34345   2.349   1.947   9.643  0.0187  0.0756  0.2914
 7571SOL    HW134346   2.444   1.937   9.647  0.1216  0.9173  0.0358
 7571SOL    HW234347   2.336   2.023   9.700  1.1702  0.5507 -0.0848
 7572SOL     OW34348   3.047   1.233  15.930 -0.7213  0.4206 -0.1894
 7572SOL    HW134349   2.964   1.222  15.884 -0.6500 -0.2966 -0.1441
 7572SOL    HW234350   3.054   1.327  15.944  1.5526 -0.1673  2.7218
 7573SOL     OW34351   3.868   0.433   5.895  0.1500  0.3326  0.3341
 7573SOL    HW134352   3.784   0.447   5.852  0.1702 -0.1031  0.1489
 7573SOL    HW234353   3.916   0.400   5.819 -2.7605  1.3817 -1.9601
 7574SOL     OW34354   3.206   4.436  11.664 -0.0369 -0.3474  0.0981
 7574SOL    HW134355   3.278   4.438  11.601  0.5592  0.4170  0.8099
 7574SOL    HW234356   3.176   4.345  11.667  2.1558 -1.0007  2.1415
 7575SOL     OW34357   3.666   3.007   2.743  0.3803  0.0297  0.5298
 7575SOL    HW134358   3.702   2.929   2.783 -0.7965 -0.6895  0.1740
 7575SOL    HW234359   3.689   2.996   2.650  0.7658  3.0847  0.2609
 7576SOL     OW34360   0.171   2.101  10.837 -0.0957 -0.0222  0.1727
 7576SOL    HW134361   0.095   2.073  10.786  0.5102 -0.5810 -0.4275
 7576SOL    HW234362   0.176   2.191  10.805 -2.4336  0.2450  0.4964
 7577SOL     OW34363   2.858   2.472   5.370  0.0359  0.3850 -0.1107
 7577SOL    HW134364   2.889   2.406   5.432  0.3390  0.7153  0.0841
 7577SOL    HW234365   2.906   2.553   5.382 -0.8713  0.7401  1.0274
 7578SOL     OW34366   0.213   2.345  14.961 -0.5819 -0.1837  0.3629
 7578SOL    HW134367   0.297   2.308  14.934 -0.3176 -0.8758  2.1384
 7578SOL    HW234368   0.154   2.344  14.885 -1.6850 -1.3270  1.2270
 7579SOL     OW34369   1.047   1.875   2.090 -0.4022 -0.3355  0.4522
 7579SOL    HW134370   0.973   1.878   2.030  1.6741 -0.1915 -2.0587
 7579SOL    HW234371   1.053   1.963   2.127  0.1729 -0.0501 -0.3214
 7580SOL     OW34372   0.980   1.725   9.289 -0.0935  0.3250 -0.0889
 7580SOL    HW134373   1.000   1.652   9.230  0.6120  1.0014 -0.6724
 7580SOL    HW234374   1.004   1.797   9.231  3.1657  0.7029  1.7006
 7581SOL     OW34375   0.792   3.438   2.465 -0.2118  0.1875  0.2423
 7581SOL    HW134376   0.847   3.447   2.543 -0.1820  2.9202 -0.1263
 7581SOL    HW234377   0.848   3.468   2.394  2.0913  0.4330  2.1677
 7582SOL     OW34378   3.492   3.652   8.464 -0.3433  0.2359  0.1323
 7582SOL    HW134379   3.507   3.666   8.371  1.2657  1.0599  0.5087
 7582SOL    HW234380   3.546   3.573   8.472 -0.4212  0.1139 -0.6006
 7583SOL     OW34381   0.167   2.071   4.236  0.2075 -0.3816 -0.5987
 7583SOL    HW134382   0.109   2.139   4.271 -0.3893 -0.9823 -0.4165
 7583SOL    HW234383   0.240   2.077   4.298 -0.1075  1.4906 -0.4237
 7584SOL     OW34384   1.067   3.906   8.477  0.0299 -0.2690 -0.2350
 7584SOL    HW134385   1.061   3.940   8.566  1.2773 -2.2320  0.6046
 7584SOL    HW234386   1.029   3.986   8.442 -0.3371 -0.8338 -1.1380
 7585SOL     OW34387   1.448   3.643   6.318  0.4977  0.1530 -0.3315
 7585SOL    HW134388   1.512   3.609   6.255  0.2445 -0.3895 -0.2964
 7585SOL    HW234389   1.440   3.737   6.308  3.3965  0.5302  0.9293
 7586SOL     OW34390   3.586   4.460   7.351  0.1134  0.0615 -0.0831
 7586SOL    HW134391   3.519   4.475   7.284 -0.1254 -0.7164 -0.0242
 7586SOL    HW234392   3.608   4.367   7.340 -0.1999  0.1269 -1.2783
 7587SOL     OW34393   4.509   0.689   4.676 -0.6375  0.4085  0.7572
 7587SOL    HW134394   4.515   0.612   4.619  0.7394  2.1786 -1.5168
 7587SOL    HW234395   4.595   0.677   4.716 -0.2772  0.6062  0.0468
 7588SOL     OW34396   1.631   1.039   9.625 -0.6525 -0.4237 -0.1582
 7588SOL    HW134397   1.554   1.068   9.675  0.9659  0.5212  1.8202
 7588SOL    HW234398   1.693   1.105   9.658 -1.0244  0.3285 -0.9709
 7589SOL     OW34399   0.672   4.529   9.032 -0.3511  0.5710 -0.2368
 7589SOL    HW134400   0.617   4.462   9.072 -2.2460  1.4691 -1.3095
 7589SOL    HW234401   0.743   4.539   9.095  0.2477  0.2856 -0.8714
 7590SOL     OW34402   3.613   4.222   3.297  0.3400  0.3679  0.0021
 7590SOL    HW134403   3.607   4.315   3.274 -0.6316  0.3029 -0.0211
 7590SOL    HW234404   3.573   4.235   3.383  0.3735  2.5132 -0.2927
 7591SOL     OW34405   0.511   3.038   5.662  0.2313 -0.1729 -0.2163
 7591SOL    HW134406   0.418   3.021   5.646 -0.1101  0.0761  1.4055
 7591SOL    HW234407   0.523   3.120   5.614 -2.0776 -0.6596 -1.6289
 7592SOL     OW34408   0.308   1.037  13.048  0.4608  0.2139  1.1479
 7592SOL    HW134409   0.329   0.955  13.003 -2.4248 -0.6474  1.3872
 7592SOL    HW234410   0.388   1.089  13.035  0.7203 -0.1059  1.4392
 7593SOL     OW34411   4.260   2.511   2.533  0.3133 -0.4353 -0.0689
 7593SOL    HW134412   4.171   2.501   2.565  0.0745  2.4362  0.2018
 7593SOL    HW234413   4.257   2.596   2.489 -0.4136  0.0988  1.0296
 7594SOL     OW34414   2.479   4.504   1.622 -0.2761 -0.3154 -0.4836
 7594SOL    HW134415   2.543   4.570   1.647 -1.0566  0.3533 -0.2548
 7594SOL    HW234416   2.398   4.555   1.615 -0.9015 -1.0291  1.4905
 7595SOL     OW34417   2.982   4.658  16.003 -0.1538 -0.4566 -0.1425
 7595SOL    HW134418   2.985   4.608  16.084 -1.9183  2.5406  1.7443
 7595SOL    HW234419   2.891   4.637  15.981 -0.1078 -0.6677 -0.1310
 7596SOL     OW34420   2.693   3.413   8.959  0.2335 -0.1258 -0.5052
 7596SOL    HW134421   2.734   3.496   8.935 -2.5950  1.4716  0.2727
 7596SOL    HW234422   2.729   3.368   8.883  1.6658 -0.5929  0.4425
 7597SOL     OW34423   0.938   3.316   6.975 -0.2045 -0.0986  0.0137
 7597SOL    HW134424   0.950   3.266   6.894  0.1142  0.6632 -0.4085
 7597SOL    HW234425   0.916   3.398   6.930  1.3105 -0.1222 -0.7531
 7598SOL     OW34426   1.696   1.227   6.278  0.0092 -0.4188  0.4619
 7598SOL    HW134427   1.650   1.268   6.204 -0.6669  0.3080  1.2721
 7598SOL    HW234428   1.748   1.170   6.223 -0.6243  1.4786 -2.1117
 7599SOL     OW34429   1.144   4.448  15.921 -0.3802  0.2861 -0.1673
 7599SOL    HW134430   1.064   4.445  15.972 -0.4239 -2.0263 -0.3601
 7599SOL    HW234431   1.215   4.432  15.984  0.9043  1.5517 -1.2635
 7600SOL     OW34432   2.077   4.716   9.554 -0.2393  0.4552 -0.5061
 7600SOL    HW134433   2.161   4.703   9.509 -0.3673 -0.9973 -0.3108
 7600SOL    HW234434   2.064   4.639   9.608 -0.3710  0.8260 -0.0067
 7601SOL     OW34435   2.862   3.992   8.958 -0.5759  0.2229 -0.0021
 7601SOL    HW134436   2.827   4.017   9.043  0.3709 -0.8822  0.7016
 7601SOL    HW234437   2.954   3.986   8.986 -1.5260  1.9830  3.4838
 7602SOL     OW34438   2.033   3.756  11.787  0.5017 -0.4729 -0.6373
 7602SOL    HW134439   1.968   3.745  11.857  1.5245  1.2865  0.5916
 7602SOL    HW234440   1.987   3.736  11.706 -0.2158 -0.5071 -0.2203
 7603SOL     OW34441   2.512   1.528  11.408  0.0477 -0.0369 -0.2263
 7603SOL    HW134442   2.480   1.460  11.467  0.4168  0.9075  1.0701
 7603SOL    HW234443   2.455   1.517  11.332  0.9172  1.5736 -1.1204
 7604SOL     OW34444   1.297   0.149   0.426 -0.2642 -0.0307 -0.3702
 7604SOL    HW134445   1.261   0.234   0.451 -1.1262 -0.8306  1.1101
 7604SOL    HW234446   1.216   0.101   0.406  0.6393 -1.2286 -1.1518
 7605SOL     OW34447   1.975   4.299  10.357 -0.1817  0.6051 -0.7719
 7605SOL    HW134448   1.952   4.229  10.296  1.0408  0.9155 -1.5979
 7605SOL    HW234449   1.968   4.378  10.303  1.0682  0.9251 -0.4508
 7606SOL     OW34450   3.831   2.238   7.758  0.6355  0.7420  0.1825
 7606SOL    HW134451   3.776   2.184   7.700  0.2494  2.4156 -0.9900
 7606SOL    HW234452   3.829   2.184   7.837 -2.3656 -0.5415 -0.7594
 7607SOL     OW34453   2.639   0.597   7.949 -0.5491 -0.1061  0.2164
 7607SOL    HW134454   2.699   0.588   8.024  0.9761 -1.1498 -1.1328
 7607SOL    HW234455   2.594   0.675   7.982 -1.5543 -0.1838 -0.9832
 7608SOL     OW34456   2.515   3.694   5.309  0.2084 -0.2343  0.6161
 7608SOL    HW134457   2.519   3.729   5.219 -2.7102 -0.1751  0.5052
 7608SOL    HW234458   2.502   3.600   5.294  0.9468  0.0534 -1.8609
 7609SOL     OW34459   3.268   4.030   5.314 -0.3453  0.1677  0.0071
 7609SOL    HW134460   3.253   4.108   5.260  0.7603  1.1650  1.1232
 7609SOL    HW234461   3.181   4.020   5.353 -0.5070  0.0999 -0.3714
 7610SOL     OW34462   0.758   4.620   5.307  0.5727 -0.7556  0.1359
 7610SOL    HW134463   0.681   4.661   5.347  1.8425 -0.5423  2.3645
 7610SOL    HW234464   0.819   4.629   5.381  0.3919 -0.7851  0.2906
 7611SOL     OW34465   3.671   3.892   7.100  0.5465 -0.2052  0.4497
 7611SOL    HW134466   3.725   3.814   7.113 -0.1374 -1.1652 -2.4725
 7611SOL    HW234467   3.731   3.950   7.148  0.6461  0.1481 -0.0991
 7612SOL     OW34468   0.240   3.521   6.279 -0.0076 -0.2496  0.2414
 7612SOL    HW134469   0.278   3.438   6.307 -0.3889 -0.6655 -0.4646
 7612SOL    HW234470   0.251   3.583   6.351  0.0210  0.3932 -0.3153
 7613SOL     OW34471   1.905   2.242   8.625 -0.0967 -0.2762  0.7701
 7613SOL    HW134472   1.877   2.151   8.638 -1.2257 -0.3005 -1.6981
 7613SOL    HW234473   1.848   2.288   8.687  1.3392 -0.0763  1.9205
 7614SOL     OW34474   1.079   4.509   8.728 -0.7718 -0.7342  0.6282
 7614SOL    HW134475   1.033   4.584   8.690  1.9645  1.0239  0.7973
 7614SOL    HW234476   1.163   4.508   8.682 -0.5458 -1.6672  1.0576
 7615SOL     OW34477   3.270   4.306  17.284  0.4314  0.2804  0.2290
 7615SOL    HW134478   3.337   4.264  17.338 -0.1896 -1.4089 -0.3280
 7615SOL    HW234479   3.188   4.273  17.321  0.1565 -0.5182 -1.1349
 7616SOL     OW34480   4.315   2.486  10.970 -0.6181  0.1251 -0.6542
 7616SOL    HW134481   4.223   2.485  10.944 -0.6896 -0.9254 -0.3908
 7616SOL    HW234482   4.303   2.471  11.064 -0.9887  0.5553 -0.6317
 7617SOL     OW34483   3.370   1.457  16.947  0.4609 -0.3069  0.3296
 7617SOL    HW134484   3.392   1.488  16.858  1.6136 -0.1150  0.6714
 7617SOL    HW234485   3.430   1.509  17.001 -0.3588 -0.0302  0.9631
 7618SOL     OW34486   2.950   3.329   0.307  0.0174 -0.1596  0.3835
 7618SOL    HW134487   3.032   3.285   0.329  0.2424  0.3877  0.6243
 7618SOL    HW234488   2.883   3.264   0.284 -0.3671  1.0606 -1.9062
 7619SOL     OW34489   2.847   3.588   2.253 -0.1703 -0.0125 -0.3164
 7619SOL    HW134490   2.892   3.523   2.199 -0.4820 -0.5327  0.0531
 7619SOL    HW234491   2.813   3.648   2.187 -0.8662 -1.5660 -1.3714
 7620SOL     OW34492   0.302   1.747  15.081  0.7261 -0.0735 -0.7913
 7620SOL    HW134493   0.255   1.816  15.035  0.6445  0.0629 -0.5028
 7620SOL    HW234494   0.229   1.695  15.116 -0.0226  1.9473  0.5921
 7621SOL     OW34495   3.620   3.621   2.379  0.7051 -0.2811 -0.5829
 7621SOL    HW134496   3.599   3.537   2.337 -2.2989  0.5120 -0.6900
 7621SOL    HW234497   3.715   3.621   2.370  0.9294  0.2370  1.9555
 7622SOL     OW34498   3.868   1.537   1.108 -0.4221  0.5193  0.3595
 7622SOL    HW134499   3.882   1.504   1.197  0.3042 -2.1116 -0.7527
 7622SOL    HW234500   3.774   1.549   1.117 -0.1265  2.3691  1.0542
 7623SOL     OW34501   0.713   2.194   7.933  0.3131 -0.7657 -0.8824
 7623SOL    HW134502   0.748   2.265   7.987  1.2950 -2.1271  0.2690
 7623SOL    HW234503   0.685   2.227   7.848  1.4444 -1.1292 -1.3939
 7624SOL     OW34504   3.710   0.780   1.973  0.0124 -0.4374  0.1342
 7624SOL    HW134505   3.806   0.784   1.981  0.0085 -1.3105  0.5369
 7624SOL    HW234506   3.708   0.712   1.905  0.7801 -0.3272 -0.0033
 7625SOL     OW34507   4.037   2.517   6.853 -0.3511  0.2279  0.0456
 7625SOL    HW134508   3.963   2.577   6.848 -1.1271 -0.6790  0.7342
 7625SOL    HW234509   4.036   2.455   6.780  0.3116  1.3624 -0.9200
 7626SOL     OW34510   1.514   1.819  15.048 -0.1279  0.0975  0.4844
 7626SOL    HW134511   1.563   1.901  15.058  0.2962  0.0060 -0.8883
 7626SOL    HW234512   1.429   1.859  15.034  0.5473  1.5851  0.5854
 7627SOL     OW34513   4.538   1.158   3.275 -0.2204 -0.6827 -0.4275
 7627SOL    HW134514   4.570   1.151   3.366  1.6148  0.1463 -1.0040
 7627SOL    HW234515   4.563   1.072   3.241  2.7230 -0.4812  1.2098
 7628SOL     OW34516   4.103   2.042  13.094 -0.7009 -0.7206 -0.2362
 7628SOL    HW134517   4.054   2.018  13.015  1.8101 -1.1122 -1.6808
 7628SOL    HW234518   4.051   2.115  13.127  0.9393  0.6516 -0.6597
 7629SOL     OW34519   2.781   2.451   7.731  1.0925 -0.0334  0.1480
 7629SOL    HW134520   2.787   2.538   7.770 -0.7590  0.7449 -1.3107
 7629SOL    HW234521   2.733   2.460   7.649 -0.0577 -1.1772  0.6874
 7630SOL     OW34522   4.664   4.675  11.463 -0.3638 -0.0707  0.3092
 7630SOL    HW134523   4.682   4.582  11.452  0.8868  0.2983 -0.8515
 7630SOL    HW234524   0.013   4.697  11.493  0.9535 -0.9060 -2.9375
 7631SOL     OW34525   1.916   4.647  16.036 -0.0627  0.0267  0.1445
 7631SOL    HW134526   1.882   4.724  15.990 -0.4786  0.9962  2.0537
 7631SOL    HW234527   1.915   4.580  15.969  0.9807  0.6671 -0.5124
 7632SOL     OW34528   0.294   1.727  16.776 -0.0892 -0.1094  0.2797
 7632SOL    HW134529   0.204   1.733  16.809  0.1487 -1.7875  1.2561
 7632SOL    HW234530   0.270   1.717  16.683  0.0547  1.4371  0.0799
 7633SOL     OW34531   3.335   3.532  17.544  0.3233 -0.0759  0.5040
 7633SOL    HW134532   3.375   3.480  17.475 -1.7948 -1.0083 -0.0128
 7633SOL    HW234533   3.323   3.622  17.512 -1.1705 -0.3122  0.4178
 7634SOL     OW34534   1.841   1.790   2.084 -0.3257  0.3331 -0.1425
 7634SOL    HW134535   1.832   1.835   2.000  1.7602 -0.1122 -0.6209
 7634SOL    HW234536   1.757   1.745   2.094 -0.5702  0.2987 -2.4749
 7635SOL     OW34537   2.588   3.541   0.468  0.1613 -0.2478  0.0901
 7635SOL    HW134538   2.650   3.568   0.536  0.4512 -0.5974 -0.0396
 7635SOL    HW234539   2.575   3.623   0.421 -0.3249 -0.8891 -0.8806
 7636SOL     OW34540   3.271   0.660   6.160 -0.3064  0.3324 -0.1475
 7636SOL    HW134541   3.266   0.648   6.065 -1.2852  0.4775 -0.1110
 7636SOL    HW234542   3.319   0.580   6.181  1.6151  1.1743 -1.2325
 7637SOL     OW34543   3.165   2.727   7.360 -0.0475  0.0944 -0.3769
 7637SOL    HW134544   3.098   2.740   7.294 -2.8985  1.1821  2.7686
 7637SOL    HW234545   3.134   2.653   7.413  0.8089 -0.9255 -1.2872
 7638SOL     OW34546   1.816   0.860   8.944  0.3905  0.3826 -0.0560
 7638SOL    HW134547   1.724   0.873   8.922  0.0478  1.6612  2.1389
 7638SOL    HW234548   1.866   0.835   8.866 -2.3085 -0.9806 -1.3564
 7639SOL     OW34549   2.873   2.109   6.330  0.4247 -0.4067  0.2445
 7639SOL    HW134550   2.961   2.081   6.306  0.1964  0.3966 -1.5050
 7639SOL    HW234551   2.840   2.107   6.240 -1.3020  2.7475  0.7994
 7640SOL     OW34552   2.890   0.089  12.136 -0.5560 -0.1301 -0.3555
 7640SOL    HW134553   2.822   0.154  12.116  2.1643  2.6514 -0.7170
 7640SOL    HW234554   2.874   0.028  12.065 -0.2636 -0.5946 -0.0175
 7641SOL     OW34555   1.612   0.731   1.368 -0.2511 -0.0951  0.0462
 7641SOL    HW134556   1.597   0.645   1.408  2.0955 -0.3106  0.4436
 7641SOL    HW234557   1.646   0.703   1.283 -0.4684  1.2426 -0.4777
 7642SOL     OW34558   0.566   0.056   4.081  0.4856  0.1344  0.5348
 7642SOL    HW134559   0.542   0.007   4.159 -0.4849 -0.3221 -0.0529
 7642SOL    HW234560   0.581   4.727   4.016 -1.9299  0.4010 -0.3115
 7643SOL     OW34561   1.055   3.175   5.570  0.3601  0.5728 -0.0967
 7643SOL    HW134562   1.062   3.271   5.575 -0.7973  0.6348  0.4225
 7643SOL    HW234563   0.983   3.171   5.507  0.1976  0.1710  0.1187
 7644SOL     OW34564   0.230   4.264   5.220 -0.5859 -0.2428 -0.1566
 7644SOL    HW134565   0.145   4.307   5.230 -0.4654  0.2956 -1.4607
 7644SOL    HW234566   0.255   4.238   5.309 -0.1707 -0.8310 -0.4452
 7645SOL     OW34567   3.682   3.045   5.934 -0.0512 -0.3242 -0.7219
 7645SOL    HW134568   3.743   3.083   5.871 -0.0262 -2.8053 -2.1669
 7645SOL    HW234569   3.601   3.057   5.884 -0.1767 -0.0910 -0.4651
 7646SOL     OW34570   1.576   3.974   6.124  0.4413  0.6109  0.1981
 7646SOL    HW134571   1.647   4.030   6.154  0.3009 -0.4709  2.5103
 7646SOL    HW234572   1.599   3.947   6.035  0.7903  0.1659  0.4255
 7647SOL     OW34573   0.962   1.834   6.187 -0.2842 -0.0469  0.0650
 7647SOL    HW134574   0.892   1.798   6.132 -0.3196 -2.1588  1.5193
 7647SOL    HW234575   0.923   1.851   6.273 -0.3780 -0.5890  0.1302
 7648SOL     OW34576   2.342   1.661   8.041 -0.4337  0.3163  0.1194
 7648SOL    HW134577   2.380   1.738   8.084 -0.2870  0.1174  0.3445
 7648SOL    HW234578   2.286   1.622   8.108  1.2115 -0.4674  1.0569
 7649SOL     OW34579   4.525   4.232   3.380 -0.8087  0.5908  0.1900
 7649SOL    HW134580   4.582   4.256   3.453 -3.9412  2.0099  2.1518
 7649SOL    HW234581   4.482   4.156   3.419  1.1336  0.6269  2.4284
 7650SOL     OW34582   3.540   4.091   9.079 -0.1720 -0.0312  0.0815
 7650SOL    HW134583   3.488   4.166   9.049  0.8077 -0.2927 -2.3292
 7650SOL    HW234584   3.614   4.098   9.018  0.5752  0.3784  1.0404
 7651SOL     OW34585   1.759   2.794  10.837  0.2610  0.3649 -0.4552
 7651SOL    HW134586   1.827   2.761  10.778 -0.6874 -0.8888 -0.8534
 7651SOL    HW234587   1.775   2.888  10.830 -1.0102  0.6798  0.9049
 7652SOL     OW34588   0.783   1.503  13.336 -0.4652  0.1921  0.4165
 7652SOL    HW134589   0.752   1.551  13.413  0.7463  0.2996  0.8362
 7652SOL    HW234590   0.874   1.488  13.362 -0.2512  1.3808  0.3175
 7653SOL     OW34591   0.764   2.902   4.290 -0.0422  0.5669 -0.2722
 7653SOL    HW134592   0.710   2.855   4.226  0.3826 -0.2949 -0.0050
 7653SOL    HW234593   0.697   2.953   4.336 -1.3243 -0.7101 -0.6905
 7654SOL     OW34594   3.685   1.773   4.750 -0.6037 -0.0509  0.4633
 7654SOL    HW134595   3.764   1.743   4.705 -1.2603  0.0450 -0.7362
 7654SOL    HW234596   3.728   1.834   4.810  1.3008 -0.2116 -0.7436
 7655SOL     OW34597   1.274   0.508  17.319 -0.1684  0.1884 -0.1034
 7655SOL    HW134598   1.362   0.532  17.289 -0.3618  0.0878 -0.7514
 7655SOL    HW234599   1.222   0.537  17.244 -0.3656  0.6534  0.2162
 7656SOL     OW34600   1.546   2.333   3.317  0.4799  0.7773  0.3919
 7656SOL    HW134601   1.625   2.323   3.370  0.4004  1.5320  0.6523
 7656SOL    HW234602   1.585   2.301   3.236  1.2735 -0.4006  1.2347
 7657SOL     OW34603   2.011   3.949   1.623 -0.3446  0.3399  0.3608
 7657SOL    HW134604   2.008   3.860   1.657 -0.7496 -0.2532 -1.2118
 7657SOL    HW234605   2.107   3.959   1.622 -0.3503  0.4235  2.2047
 7658SOL     OW34606   0.471   3.687   5.847  0.5719  0.2663  0.0126
 7658SOL    HW134607   0.425   3.621   5.899  1.3849  0.2096  0.6567
 7658SOL    HW234608   0.561   3.669   5.875 -0.3752 -2.3313  1.3708
 7659SOL     OW34609   0.694   1.672  10.482  0.0911  0.0580  0.7786
 7659SOL    HW134610   0.702   1.686  10.576  1.5619  0.1402  0.6407
 7659SOL    HW234611   0.781   1.694  10.448 -0.0467 -0.1289  0.3004
 7660SOL     OW34612   3.384   0.313   7.975 -0.3429  0.2234 -0.4103
 7660SOL    HW134613   3.434   0.273   8.046 -1.2969  0.6124  0.4820
 7660SOL    HW234614   3.446   0.384   7.955 -2.1209  2.3124  1.4978
 7661SOL     OW34615   0.362   3.891   6.104  0.0307 -0.2594  0.3912
 7661SOL    HW134616   0.376   3.982   6.128 -2.7958  0.4522 -0.7076
 7661SOL    HW234617   0.438   3.848   6.143 -0.2575 -0.9449  0.1965
 7662SOL     OW34618   0.195   0.151  12.347 -0.3379 -0.0111  0.2350
 7662SOL    HW134619   0.125   0.164  12.283 -0.6080 -2.5963  0.0018
 7662SOL    HW234620   0.175   0.218  12.413  0.2244  0.4745 -0.0913
 7663SOL     OW34621   4.197   1.394   7.008 -0.5694  0.0126  0.0041
 7663SOL    HW134622   4.284   1.433   6.999 -1.0311  1.0440  0.0059
 7663SOL    HW234623   4.196   1.348   6.923 -2.1443 -0.7575  0.4294
 7664SOL     OW34624   1.884   2.338   7.133  0.1893  0.1064 -0.0181
 7664SOL    HW134625   1.847   2.397   7.066  1.5572  1.6492  0.5805
 7664SOL    HW234626   1.935   2.399   7.187 -0.1790  0.1095  0.3233
 7665SOL     OW34627   1.571   2.702   5.737 -0.0800 -0.5624  0.0686
 7665SOL    HW134628   1.568   2.635   5.806 -0.7911  0.7428  1.3044
 7665SOL    HW234629   1.476   2.707   5.724 -0.3299 -1.1615  1.6321
 7666SOL     OW34630   1.959   1.894   7.112  0.2283  0.1193 -0.2543
 7666SOL    HW134631   1.957   1.924   7.021  0.4475  0.0665 -0.2782
 7666SOL    HW234632   1.926   1.806   7.093  3.0872 -0.4731 -2.6164
 7667SOL     OW34633   1.523   2.246   1.210 -0.0240  0.6940  0.4908
 7667SOL    HW134634   1.603   2.198   1.227 -0.8423 -0.2204  1.7383
 7667SOL    HW234635   1.485   2.213   1.129  0.1229 -0.6623  0.9786
 7668SOL     OW34636   1.841   0.865   5.432  0.6484 -0.4563  0.0275
 7668SOL    HW134637   1.915   0.846   5.374 -0.4939  2.1927 -2.3010
 7668SOL    HW234638   1.778   0.895   5.366  0.4097  1.0474  0.9321
 7669SOL     OW34639   3.637   1.813   6.493  0.5583  0.0595  0.2122
 7669SOL    HW134640   3.684   1.762   6.427 -0.3969 -1.8783  1.0081
 7669SOL    HW234641   3.559   1.838   6.443  2.8844  0.0543 -3.4676
 7670SOL     OW34642   4.187   4.111   7.601  0.1510  0.0298  0.0995
 7670SOL    HW134643   4.203   4.173   7.673  1.9669  1.6113 -1.6453
 7670SOL    HW234644   4.278   4.096   7.574 -0.6552 -0.5453 -2.2767
 7671SOL     OW34645   3.569   0.251   2.895  0.1464  0.1711 -0.7591
 7671SOL    HW134646   3.654   0.234   2.934  0.2897  4.2203  0.6528
 7671SOL    HW234647   3.547   0.333   2.940 -1.5401 -0.0197 -1.2319
 7672SOL     OW34648   2.067   0.105  14.284 -0.7620  0.0350  0.7730
 7672SOL    HW134649   2.152   0.063  14.298  0.6757  2.7157  0.1055
 7672SOL    HW234650   2.064   0.086  14.190 -0.0481 -0.2911  0.8124
 7673SOL     OW34651   4.202   3.892   6.450 -0.3375 -0.4096  0.1187
 7673SOL    HW134652   4.132   3.923   6.393  1.0095 -1.0726 -1.8942
 7673SOL    HW234653   4.276   3.947   6.428 -0.2769 -1.5646 -2.6038
 7674SOL     OW34654   2.630   1.000   5.523 -0.6150 -0.3655 -0.1659
 7674SOL    HW134655   2.654   1.020   5.432  0.0539 -3.7539 -0.7404
 7674SOL    HW234656   2.661   1.079   5.566 -2.0932  0.5997 -0.8669
 7675SOL     OW34657   3.437   3.666   5.705  0.3767  0.2707  0.7060
 7675SOL    HW134658   3.500   3.738   5.705  0.0286  0.5749 -0.4324
 7675SOL    HW234659   3.441   3.653   5.800  1.4767  0.0621  0.6247
 7676SOL     OW34660   1.793   3.417   3.393  0.6245 -0.3954 -0.2092
 7676SOL    HW134661   1.861   3.351   3.405  0.6395 -0.6447 -1.6444
 7676SOL    HW234662   1.799   3.438   3.299 -0.6563  0.6836 -0.0436
 7677SOL     OW34663   2.458   0.875   8.998  0.6322  0.4595 -0.0024
 7677SOL    HW134664   2.425   0.950   8.949 -0.0244  1.0900  1.3905
 7677SOL    HW234665   2.426   0.888   9.087 -0.0705 -0.4909 -0.1160
 7678SOL     OW34666   3.026   0.055   3.628  0.7641  0.2070  0.2817
 7678SOL    HW134667   3.015   0.023   3.538  3.7797  0.1486 -0.0814
 7678SOL    HW234668   3.101   0.002   3.655 -1.6636 -1.4978  3.7355
 7679SOL     OW34669   4.364   1.715   4.546 -0.0450 -0.2409  0.1936
 7679SOL    HW134670   4.317   1.795   4.569 -0.3581  0.2435 -2.0734
 7679SOL    HW234671   4.342   1.712   4.453 -0.7730  1.0467  0.3148
 7680SOL     OW34672   2.009   1.336   9.386 -0.4488  0.4080 -0.0022
 7680SOL    HW134673   1.996   1.356   9.479 -1.4799  2.6863 -0.6386
 7680SOL    HW234674   2.105   1.333   9.385 -0.4500 -0.1530  1.8181
 7681SOL     OW34675   4.111   0.366   3.313  0.9580 -0.0558  0.1920
 7681SOL    HW134676   4.064   0.373   3.230  1.2894 -0.9834 -0.0776
 7681SOL    HW234677   4.055   0.419   3.370  1.8156  0.5719  0.4482
 7682SOL     OW34678   3.818   4.221   5.723 -0.2457  0.1476 -0.2741
 7682SOL    HW134679   3.893   4.186   5.772 -2.4028 -2.1561  1.3834
 7682SOL    HW234680   3.864   4.281   5.665 -0.4390 -2.4047 -3.0950
 7683SOL     OW34681   1.362   3.774  10.341  0.9051  0.1722  0.6413
 7683SOL    HW134682   1.416   3.699  10.364  0.8409  0.2003  0.8782
 7683SOL    HW234683   1.414   3.790  10.262 -2.6405  0.6367 -1.6271
 7684SOL     OW34684   3.294   0.622  15.688  0.0263  0.3898  0.2930
 7684SOL    HW134685   3.271   0.713  15.672  0.4970  0.7374  1.5960
 7684SOL    HW234686   3.267   0.619  15.780 -0.3559 -0.1379  0.1642
 7685SOL     OW34687   2.274   0.157  14.513  0.0749 -0.3881  0.1882
 7685SOL    HW134688   2.310   0.100  14.445 -0.8078 -2.2080  1.2337
 7685SOL    HW234689   2.223   0.220  14.463  0.6464  0.7839  1.0916
 7686SOL     OW34690   0.665   3.083   2.272  0.1321  1.0062  0.0858
 7686SOL    HW134691   0.634   3.130   2.350 -1.3657  0.2536 -0.0581
 7686SOL    HW234692   0.724   3.150   2.237  0.3979  0.8611  0.2579
 7687SOL     OW34693   1.845   2.179   8.266  0.1613 -0.3402 -0.0321
 7687SOL    HW134694   1.910   2.228   8.316  0.1158  0.5148 -0.7944
 7687SOL    HW234695   1.761   2.205   8.305 -0.3061 -1.6238 -0.1921
 7688SOL     OW34696   1.255   3.740   4.549 -0.3046 -0.3603  0.1164
 7688SOL    HW134697   1.317   3.783   4.608  0.5951 -2.1925  0.4984
 7688SOL    HW234698   1.313   3.700   4.485 -1.6292 -2.1556  0.0476
 7689SOL     OW34699   0.580   2.903   4.636 -0.0087  0.0473 -0.5051
 7689SOL    HW134700   0.605   2.907   4.544  2.5727  1.3031  0.2217
 7689SOL    HW234701   0.655   2.953   4.670  0.1206  0.1821 -0.9888
 7690SOL     OW34702   3.188   3.335   1.855 -0.5641  0.0908 -0.0403
 7690SOL    HW134703   3.168   3.370   1.942  0.6521  0.7933 -0.0484
 7690SOL    HW234704   3.165   3.242   1.860 -1.8053  0.4220  0.5580
 7691SOL     OW34705   0.599   0.076   7.944 -0.4615  0.1003 -0.0815
 7691SOL    HW134706   0.606   4.725   7.913 -1.8759 -0.0980  0.1630
 7691SOL    HW234707   0.586   0.070   8.039  2.2515 -0.4946  0.2319
 7692SOL     OW34708   0.929   1.733   5.583  0.3601 -0.2506  0.3235
 7692SOL    HW134709   0.980   1.677   5.642 -0.0675 -1.2724 -0.2642
 7692SOL    HW234710   1.005   1.746   5.528 -0.2049  2.9804  0.3399
 7693SOL     OW34711   2.925   1.320   3.040 -0.1110 -0.0960 -0.3891
 7693SOL    HW134712   2.831   1.303   3.036 -0.4087  1.5050 -0.1303
 7693SOL    HW234713   2.966   1.234   3.031  0.8722  0.4498 -1.1854
 7694SOL     OW34714   4.136   0.097   4.465 -0.0944 -0.2248 -0.0452
 7694SOL    HW134715   4.165   0.059   4.383  1.9978 -0.0498  0.6248
 7694SOL    HW234716   4.212   0.149   4.490  0.5726 -2.4407  2.5386
 7695SOL     OW34717   2.595   1.287   6.229 -0.4133 -0.0859  0.0238
 7695SOL    HW134718   2.557   1.348   6.292  3.0456  1.1319  0.9391
 7695SOL    HW234719   2.685   1.277   6.261 -0.7123  2.1003  1.5325
 7696SOL     OW34720   2.339   3.299   9.607 -0.0327  0.6096  0.2257
 7696SOL    HW134721   2.284   3.301   9.529  0.7023  1.2772 -0.2687
 7696SOL    HW234722   2.420   3.254   9.584  0.7355  2.2231 -0.2187
 7697SOL     OW34723   0.897   1.014   7.813  0.8872  0.0549  0.4530
 7697SOL    HW134724   0.906   0.952   7.886 -0.1766  0.3471  0.8290
 7697SOL    HW234725   0.935   0.953   7.749  0.8726  0.3055  0.2081
 7698SOL     OW34726   1.729   3.753   8.592 -0.4814 -0.8498 -0.3221
 7698SOL    HW134727   1.801   3.701   8.628 -0.7277 -1.6784 -1.0284
 7698SOL    HW234728   1.728   3.820   8.659  0.2303 -1.0246 -0.1386
 7699SOL     OW34729   3.967   2.895   5.589  0.1665 -0.4481  0.2960
 7699SOL    HW134730   3.898   2.832   5.565 -0.6754  1.2976 -1.8124
 7699SOL    HW234731   3.928   2.979   5.567  0.4681  0.0333  1.6153
 7700SOL     OW34732   4.513   2.899   0.516 -0.0767 -0.0997  0.2056
 7700SOL    HW134733   4.451   2.860   0.454 -2.0635  0.7022  1.6897
 7700SOL    HW234734   4.592   2.847   0.507 -0.1503 -0.0062 -0.9903
 7701SOL     OW34735   3.617   3.225   2.452  0.0229 -0.4038  0.2272
 7701SOL    HW134736   3.706   3.209   2.421 -0.3484 -0.1395 -0.9627
 7701SOL    HW234737   3.635   3.250   2.543  1.6674  1.6412 -0.6723
 7702SOL     OW34738   1.210   4.092  15.055 -0.0798  0.0982  0.2778
 7702SOL    HW134739   1.302   4.088  15.028 -0.0375  0.9778  0.2859
 7702SOL    HW234740   1.170   4.038  14.987 -1.6527  2.3993 -0.6111
 7703SOL     OW34741   2.122   4.628   3.939  0.6525 -0.1507  0.2134
 7703SOL    HW134742   2.215   4.604   3.941  0.9354  0.8795 -0.6065
 7703SOL    HW234743   2.085   4.548   3.903 -1.0841  1.4515 -1.5845
 7704SOL     OW34744   1.850   1.642   7.040  0.1252 -0.0719 -0.0712
 7704SOL    HW134745   1.925   1.588   7.066  0.3824 -0.1260 -0.9220
 7704SOL    HW234746   1.851   1.634   6.944 -1.8353 -0.3385 -0.0672
 7705SOL     OW34747   1.894   1.766  12.398 -0.1707 -0.2192 -0.1634
 7705SOL    HW134748   1.973   1.722  12.366  0.8575 -1.2576  3.7148
 7705SOL    HW234749   1.820   1.705  12.387 -1.3942  1.6411 -2.0794
 7706SOL     OW34750   2.958   3.234   2.192  0.4346  0.0344 -0.4221
 7706SOL    HW134751   2.875   3.210   2.234 -0.5865  2.5547 -1.0234
 7706SOL    HW234752   2.947   3.176   2.117  1.7069  0.0870 -0.6549
 7707SOL     OW34753   0.323   3.392   5.396 -0.0494 -0.2873  0.7970
 7707SOL    HW134754   0.361   3.475   5.366 -0.7053 -0.4978 -0.6298
 7707SOL    HW234755   0.379   3.381   5.473 -0.1522 -2.0300  0.6244
 7708SOL     OW34756   4.122   0.803   4.325  0.0194 -0.0608  0.2412
 7708SOL    HW134757   4.043   0.750   4.336  0.4505 -0.8014 -0.2596
 7708SOL    HW234758   4.145   0.795   4.418 -0.4710  0.1023  0.3765
 7709SOL     OW34759   0.400   0.280   3.335  0.5040 -0.0791 -0.9551
 7709SOL    HW134760   0.469   0.283   3.402 -2.2809  3.4054  1.7852
 7709SOL    HW234761   0.414   0.192   3.300  0.9416 -0.6587  0.6527
 7710SOL     OW34762   1.955   3.135   7.158 -0.8581  0.3568  0.1260
 7710SOL    HW134763   1.860   3.121   7.158 -0.7105 -0.6403  0.6062
 7710SOL    HW234764   1.969   3.072   7.087  1.1997  0.7034  0.2310
 7711SOL     OW34765   2.185   1.743   5.283  1.1702  0.4427 -0.7467
 7711SOL    HW134766   2.109   1.686   5.290  0.1793  1.8615 -0.0015
 7711SOL    HW234767   2.220   1.716   5.368 -0.6646 -1.6131 -0.6428
 7712SOL     OW34768   0.338   3.025  11.617  0.4861 -0.5715  0.3326
 7712SOL    HW134769   0.371   3.086  11.551  0.7973  1.1160  2.0361
 7712SOL    HW234770   0.381   3.046  11.699 -0.5743  1.0331  0.4738
 7713SOL     OW34771   0.883   0.404   6.545 -0.3618  0.1533  0.9510
 7713SOL    HW134772   0.862   0.497   6.533 -0.3460  0.1310  0.7419
 7713SOL    HW234773   0.819   0.382   6.613 -2.1618 -0.2268 -0.8804
 7714SOL     OW34774   3.235   4.000   4.361 -0.0672  0.4879  0.6738
 7714SOL    HW134775   3.316   3.951   4.345  0.4691  0.4755  3.3912
 7714SOL    HW234776   3.184   3.952   4.296  2.3493  1.3093 -1.8320
 7715SOL     OW34777   1.822   3.820   5.512  0.1763  0.1710 -0.0563
 7715SOL    HW134778   1.753   3.880   5.483  0.3973  0.4108 -0.0832
 7715SOL    HW234779   1.881   3.805   5.439 -0.2924 -2.3496  0.0604
 7716SOL     OW34780   4.091   3.816   8.570 -0.0763  0.1523  0.1401
 7716SOL    HW134781   4.020   3.811   8.505  0.8090 -0.0007 -0.8207
 7716SOL    HW234782   4.047   3.861   8.641  2.0570 -0.4935  1.8583
 7717SOL     OW34783   2.481   3.287  10.229 -0.2058  0.3593 -0.4225
 7717SOL    HW134784   2.547   3.323  10.170  1.1882  1.4836  1.8531
 7717SOL    HW234785   2.435   3.226  10.171 -0.6512  0.6294 -0.3604
 7718SOL     OW34786   1.820   2.279  14.209 -0.1138 -0.2188  0.1276
 7718SOL    HW134787   1.797   2.193  14.245  2.4824 -1.0019 -0.1250
 7718SOL    HW234788   1.791   2.267  14.119  2.6798 -0.0826 -0.7613
 7719SOL     OW34789   4.513   2.603  10.821 -0.8378 -0.6273  0.1159
 7719SOL    HW134790   4.455   2.531  10.845 -0.2677 -0.9502  0.5244
 7719SOL    HW234791   4.484   2.677  10.874  1.6277  1.2001 -1.1352
 7720SOL     OW34792   3.870   3.513   6.224  0.0813 -0.3073 -0.3788
 7720SOL    HW134793   3.818   3.435   6.204  0.1617 -0.7983  1.3020
 7720SOL    HW234794   3.811   3.557   6.285  0.0668 -0.5049 -0.2500
 7721SOL     OW34795   4.640   3.125   9.749  0.2319  0.0663  0.5585
 7721SOL    HW134796   4.578   3.115   9.821 -0.1950 -3.1900 -0.2761
 7721SOL    HW234797   4.597   3.084   9.674  0.2657  0.0904  0.5259
 7722SOL     OW34798   4.501   2.886   9.649 -0.3178 -0.2579  0.1907
 7722SOL    HW134799   4.478   2.896   9.742  0.8364  0.9717  0.3579
 7722SOL    HW234800   4.447   2.954   9.608  1.6479  0.8223 -0.5956
 7723SOL     OW34801   1.930   3.058   3.300  0.1730 -0.5061 -0.0744
 7723SOL    HW134802   1.971   3.138   3.333 -0.7844 -0.0962  0.1243
 7723SOL    HW234803   1.871   3.087   3.230  1.2842  1.9243  0.0155
 7724SOL     OW34804   1.273   2.219   8.333 -0.0054  0.5813  0.4632
 7724SOL    HW134805   1.325   2.241   8.256 -1.3668 -3.2086 -1.5240
 7724SOL    HW234806   1.192   2.193   8.289  1.2941 -3.3223  0.3439
 7725SOL     OW34807   2.221   4.052   3.968  0.4662  0.7891  0.4234
 7725SOL    HW134808   2.247   4.027   3.879 -3.0748 -2.2630  0.2743
 7725SOL    HW234809   2.207   3.966   4.008  1.6391  0.6581  0.5504
 7726SOL     OW34810   1.490   3.696   5.524  0.6250  0.0437 -0.6886
 7726SOL    HW134811   1.535   3.765   5.475 -0.6761  1.7034  0.4906
 7726SOL    HW234812   1.444   3.644   5.458  0.9936  0.7420 -1.4971
 7727SOL     OW34813   4.125   4.494   6.029  0.3522  0.0566 -0.0757
 7727SOL    HW134814   4.214   4.466   6.005  0.5424 -0.9406  1.7919
 7727SOL    HW234815   4.135   4.563   6.094 -0.4932 -1.1316  1.3127
 7728SOL     OW34816   0.414   0.579   9.147 -0.3771  0.1266  0.6693
 7728SOL    HW134817   0.455   0.652   9.191  0.5682 -0.8232  1.3626
 7728SOL    HW234818   0.460   0.577   9.063 -0.0450 -1.0835  0.8783
 7729SOL     OW34819   3.197   3.341  15.885  0.1056 -0.4895  0.1011
 7729SOL    HW134820   3.234   3.317  15.801 -1.0000 -0.0370 -0.5185
 7729SOL    HW234821   3.143   3.265  15.906 -4.2512  2.5251 -0.1604
 7730SOL     OW34822   4.119   0.291   6.125  0.7007  0.4146  0.3139
 7730SOL    HW134823   4.085   0.226   6.064  0.0940 -1.6272  2.8391
 7730SOL    HW234824   4.054   0.360   6.115 -0.2635 -0.7875 -1.7173
 7731SOL     OW34825   0.619   2.197   3.156 -0.1939 -0.0069  0.2752
 7731SOL    HW134826   0.556   2.224   3.089 -1.6944 -3.0592  0.4668
 7731SOL    HW234827   0.693   2.256   3.141  1.0837 -1.8651 -0.6886
 7732SOL     OW34828   4.020   3.058  17.264  0.1690 -0.2407  0.3648
 7732SOL    HW134829   3.929   3.026  17.268  0.0390  0.1893  0.8599
 7732SOL    HW234830   4.058   2.971  17.250 -0.0988 -0.1587 -0.8954
 7733SOL     OW34831   1.776   4.020   9.494  0.7110  0.1586  0.3347
 7733SOL    HW134832   1.803   3.943   9.445  0.9685 -0.0159  0.7475
 7733SOL    HW234833   1.819   4.081   9.434 -0.3466  1.6412  1.0794
 7734SOL     OW34834   1.825   4.728   4.738  0.4553 -0.0704  0.5356
 7734SOL    HW134835   1.813   0.058   4.673  0.0815  0.7644  1.4798
 7734SOL    HW234836   1.903   4.680   4.713 -0.6558 -1.2430 -0.6845
 7735SOL     OW34837   3.520   3.102   3.625  0.4281 -0.0786  0.8445
 7735SOL    HW134838   3.453   3.167   3.647  1.3491  1.3671 -0.6681
 7735SOL    HW234839   3.466   3.023   3.626  0.8303 -0.3560  0.3385
 7736SOL     OW34840   1.170   0.670   9.067  0.0788  0.5549  0.8087
 7736SOL    HW134841   1.166   0.639   9.158 -1.0218  1.2675  0.9912
 7736SOL    HW234842   1.263   0.671   9.044 -0.1316 -2.0601 -0.1295
 7737SOL     OW34843   3.895   2.093   4.652 -0.3616  0.2671  0.3330
 7737SOL    HW134844   3.943   2.166   4.691  0.7555  0.8381 -2.1651
 7737SOL    HW234845   3.858   2.050   4.730 -0.1009  0.0928  0.3588
 7738SOL     OW34846   2.795   1.042   6.474  0.6370  0.2878 -0.0968
 7738SOL    HW134847   2.814   0.969   6.534 -0.2400 -1.2084 -1.6239
 7738SOL    HW234848   2.710   1.072   6.504  0.6163  1.2521 -1.1389
 7739SOL     OW34849   1.779   2.522   4.198 -0.4217  0.1869 -0.3182
 7739SOL    HW134850   1.773   2.616   4.183  0.8939 -0.1144 -2.7085
 7739SOL    HW234851   1.853   2.514   4.259 -0.3582  0.2205 -0.3912
 7740SOL     OW34852   0.188   1.623   4.760  0.2131 -0.2735  0.1085
 7740SOL    HW134853   0.118   1.624   4.825 -0.8123  1.9108 -1.0392
 7740SOL    HW234854   0.217   1.535   4.782 -2.2845 -0.5812  2.1580
 7741SOL     OW34855   3.609   3.566   8.003 -0.1933 -0.4191 -0.1606
 7741SOL    HW134856   3.676   3.634   7.995 -0.5306 -0.2437 -1.5185
 7741SOL    HW234857   3.541   3.608   8.056  1.9127  1.6675  0.8790
 7742SOL     OW34858   0.109   2.292   2.128  0.1776  0.2277  0.5770
 7742SOL    HW134859   0.098   2.387   2.135  1.6549  0.5374 -1.2111
 7742SOL    HW234860   0.046   2.270   2.059  0.1984  2.2112 -0.0946
 7743SOL     OW34861   3.119   1.251   2.515 -0.4518 -0.1636 -0.2920
 7743SOL    HW134862   3.179   1.179   2.534  0.1376  0.4092 -0.0085
 7743SOL    HW234863   3.036   1.211   2.541 -0.5644  0.8318  0.8588
 7744SOL     OW34864   2.119   0.301  16.838  0.0403 -0.2852  0.1868
 7744SOL    HW134865   2.130   0.272  16.748  1.4803  3.3987 -0.8149
 7744SOL    HW234866   2.026   0.324  16.834 -0.5337 -2.0932  2.7009
 7745SOL     OW34867   2.648   3.838   4.593  0.0308 -0.8591 -0.0298
 7745SOL    HW134868   2.744   3.840   4.594  0.0519 -1.2544 -1.2738
 7745SOL    HW234869   2.623   3.831   4.501  2.7545 -0.7639 -0.7746
 7746SOL     OW34870   3.514   1.990  14.810  0.5266  0.3768 -0.5909
 7746SOL    HW134871   3.492   2.025  14.896  2.7918 -0.1396  0.2094
 7746SOL    HW234872   3.573   2.056  14.776  1.3443 -0.2708 -0.4295
 7747SOL     OW34873   3.728   0.150   3.107  0.5275 -0.0279  0.5396
 7747SOL    HW134874   3.637   0.144   3.135  0.0103 -1.3333 -1.3916
 7747SOL    HW234875   3.751   0.059   3.091 -1.1848  0.1958 -3.3073
 7748SOL     OW34876   0.059   3.459   5.464  0.2625  0.1472 -0.4387
 7748SOL    HW134877   0.022   3.385   5.415 -0.7703 -0.2325  0.8972
 7748SOL    HW234878   0.150   3.458   5.436  0.8129  0.1518  1.3781
 7749SOL     OW34879   3.042   2.214   9.392 -0.3751  0.5205 -1.0185
 7749SOL    HW134880   2.987   2.286   9.360 -1.1147  0.5483  0.3467
 7749SOL    HW234881   3.092   2.254   9.463 -0.8591  0.7156 -0.7883
 7750SOL     OW34882   2.684   1.782   1.806  0.1088  0.2962  0.2985
 7750SOL    HW134883   2.725   1.695   1.807 -1.6588 -0.5333  0.4096
 7750SOL    HW234884   2.739   1.832   1.866  0.6597 -0.2207  0.2348
 7751SOL     OW34885   3.411   2.218   6.319  0.0358  0.8611 -0.0550
 7751SOL    HW134886   3.390   2.166   6.396  1.3148 -2.5490 -2.0034
 7751SOL    HW234887   3.371   2.302   6.342 -1.5433  0.0039  0.3124
 7752SOL     OW34888   4.075   0.408   4.535  0.6782 -0.2851  0.2515
 7752SOL    HW134889   4.110   0.385   4.621  0.6302  0.4623  0.4721
 7752SOL    HW234890   4.107   0.498   4.530 -1.3120  0.3584 -1.1536
 7753SOL     OW34891   3.576   2.498   6.197 -0.1581  0.6358 -0.3853
 7753SOL    HW134892   3.495   2.485   6.248  0.0472  0.7471 -0.0299
 7753SOL    HW234893   3.552   2.495   6.104  1.6631  1.4043 -0.8730
 7754SOL     OW34894   4.159   2.016  13.616 -0.1393  0.5548 -0.5453
 7754SOL    HW134895   4.066   2.039  13.626 -0.3404 -0.6972  0.5045
 7754SOL    HW234896   4.164   1.940  13.558  1.8371 -1.4854  2.2870
 7755SOL     OW34897   1.036   2.058   1.621 -0.2386 -0.2382  0.4663
 7755SOL    HW134898   0.951   2.031   1.658 -0.0208 -0.3954  0.8580
 7755SOL    HW234899   1.006   2.127   1.562  0.3130 -0.0193  0.4375
 7756SOL     OW34900   2.453   4.471   6.312  0.2630  0.2589  0.1414
 7756SOL    HW134901   2.364   4.438   6.322 -1.4054  4.2657 -1.4547
 7756SOL    HW234902   2.437   4.564   6.297  0.6952  0.3588  0.2884
 7757SOL     OW34903   4.261   0.379   4.773  0.1561 -0.0086 -0.5087
 7757SOL    HW134904   4.205   0.353   4.847  1.2828 -2.3011 -0.4405
 7757SOL    HW234905   4.260   0.473   4.788  1.7224 -0.0981  0.1910
 7758SOL     OW34906   1.055   2.453   6.845 -0.2229 -0.4931 -0.5910
 7758SOL    HW134907   0.984   2.392   6.864  0.7087 -1.8958 -1.6058
 7758SOL    HW234908   1.011   2.538   6.849  0.5736 -0.1631  1.3465
 7759SOL     OW34909   4.288   2.277  15.530 -0.5415 -0.6537  0.1339
 7759SOL    HW134910   4.356   2.271  15.597 -1.9813 -1.2102  1.5625
 7759SOL    HW234911   4.318   2.207  15.473 -0.9122 -0.6485 -0.0662
 7760SOL     OW34912   0.546   1.518   7.319  0.0079 -1.1025 -0.4593
 7760SOL    HW134913   0.522   1.426   7.329 -0.4630 -0.8398  0.8792
 7760SOL    HW234914   0.577   1.535   7.230  0.6434 -1.9751 -0.4084
 7761SOL     OW34915   2.664   2.914   6.223 -0.5211 -0.1015  0.0102
 7761SOL    HW134916   2.728   2.882   6.159  0.1717 -2.6210  1.9756
 7761SOL    HW234917   2.695   2.865   6.298 -1.3747 -0.8225 -0.1081
 7762SOL     OW34918   0.869   1.265   2.370 -0.5621 -0.5601  0.1554
 7762SOL    HW134919   0.899   1.305   2.451  5.3977 -3.1669 -0.7624
 7762SOL    HW234920   0.853   1.332   2.304  0.3464 -0.1749  0.3381
 7763SOL     OW34921   0.714   4.726   4.855 -0.2463  0.0935 -0.3268
 7763SOL    HW134922   0.695   4.690   4.768  0.7599 -0.2749 -0.4026
 7763SOL    HW234923   0.742   0.075   4.830  2.9448 -0.5080  1.0908
 7764SOL     OW34924   4.165   4.013  16.627  0.3921 -0.5263 -0.2638
 7764SOL    HW134925   4.104   4.061  16.571  1.6911  1.0241 -0.3526
 7764SOL    HW234926   4.221   4.085  16.654  0.9169 -0.7012 -0.8728
 7765SOL     OW34927   1.161   2.363   9.188  0.0322 -0.2197  0.0211
 7765SOL    HW134928   1.114   2.281   9.170 -2.0069 -0.0583  4.4350
 7765SOL    HW234929   1.172   2.354   9.283 -1.0204 -0.1557  0.1567
 7766SOL     OW34930   1.392   4.149   6.443 -0.4374  0.3110  0.3605
 7766SOL    HW134931   1.363   4.167   6.533  2.0468  2.7334  0.6732
 7766SOL    HW234932   1.340   4.209   6.388  0.6896 -0.0880 -1.1359
 7767SOL     OW34933   0.605   0.057  14.820  0.5323  0.0175 -0.3740
 7767SOL    HW134934   0.628   0.098  14.903  0.5378 -1.0361  0.1542
 7767SOL    HW234935   0.679   4.735  14.813  2.0460  1.7725  0.2712
 7768SOL     OW34936   4.287   0.976   5.080  0.4076 -0.2999  0.0527
 7768SOL    HW134937   4.226   0.915   5.039 -0.2431  1.2902 -1.3519
 7768SOL    HW234938   4.367   0.926   5.091  0.3325 -0.3479  0.3720
 7769SOL     OW34939   2.772   0.021   2.865 -0.2662 -0.1870  0.2590
 7769SOL    HW134940   2.679   0.016   2.840 -0.3551 -1.9068  0.9237
 7769SOL    HW234941   2.809   0.040   2.779 -0.4613  0.4596  0.3171
 7770SOL     OW34942   0.988   1.296   6.240  0.1494  0.1580  0.3115
 7770SOL    HW134943   1.010   1.216   6.193  2.8481  0.9337  0.2227
 7770SOL    HW234944   0.898   1.306   6.211  0.1607  1.6744  0.7740
 7771SOL     OW34945   4.458   4.662   7.099 -0.2783 -0.1888 -0.5430
 7771SOL    HW134946   4.397   4.734   7.084  1.7940  1.4196 -1.2552
 7771SOL    HW234947   4.414   4.620   7.173 -1.3061  0.6142 -0.7004
 7772SOL     OW34948   3.751   2.137   3.002 -0.5824 -0.2624 -0.1556
 7772SOL    HW134949   3.711   2.117   2.917  1.2963  1.3355 -1.4215
 7772SOL    HW234950   3.680   2.113   3.062 -0.5987  2.6159  0.9861
 7773SOL     OW34951   4.720   1.343   6.407  0.2555  0.5920  0.0759
 7773SOL    HW134952   4.691   1.273   6.349  0.5988 -0.4081  1.1067
 7773SOL    HW234953   4.719   1.313   6.498  1.6910  1.0003  0.2363
 7774SOL     OW34954   1.281   3.684   3.844 -0.0139  0.6317 -0.0337
 7774SOL    HW134955   1.195   3.670   3.803  0.9917 -1.2482 -1.5170
 7774SOL    HW234956   1.300   3.593   3.870  0.7652  0.4757 -1.1395
 7775SOL     OW34957   0.168   1.390  10.886  0.6795 -0.3080 -0.1517
 7775SOL    HW134958   0.111   1.329  10.933  0.9067 -0.4235 -0.0268
 7775SOL    HW234959   0.177   1.355  10.798 -1.9273  0.4412 -0.7127
 7776SOL     OW34960   4.213   0.773   7.312  0.2349  0.0292  0.4260
 7776SOL    HW134961   4.172   0.689   7.288 -1.2113 -0.3237  4.0820
 7776SOL    HW234962   4.142   0.837   7.325 -0.4568 -0.7058  0.3048
 7777SOL     OW34963   2.259   3.762   8.085 -0.2863 -0.3630 -0.1541
 7777SOL    HW134964   2.334   3.816   8.109 -1.2165  0.9900 -0.3100
 7777SOL    HW234965   2.210   3.825   8.034 -2.1365 -1.3465  0.4075
 7778SOL     OW34966   3.633   3.414  17.750 -0.6818  0.2475 -0.1940
 7778SOL    HW134967   3.643   3.333  17.699 -4.3372  0.1239 -0.7858
 7778SOL    HW234968   3.707   3.469  17.726  1.3126 -2.1007  0.5748
 7779SOL     OW34969   3.145   0.809   6.367  0.0372  0.5749  0.0466
 7779SOL    HW134970   3.189   0.758   6.298  1.5115  1.0471  0.6340
 7779SOL    HW234971   3.070   0.825   6.310 -0.6969 -0.3218  0.7648
 7780SOL     OW34972   3.763   1.130   9.370  1.3020  0.1660  0.0549
 7780SOL    HW134973   3.677   1.148   9.331  1.1806  2.8045  1.5291
 7780SOL    HW234974   3.742   1.059   9.432 -3.0067  2.1523  0.8843
 7781SOL     OW34975   4.037   3.431   9.533  0.6234  0.6061 -0.1678
 7781SOL    HW134976   4.123   3.459   9.567 -0.1506  2.0577  0.6051
 7781SOL    HW234977   4.030   3.337   9.546 -1.3569  0.5086 -2.0696
 7782SOL     OW34978   2.242   4.192   9.252  0.4388  0.0050  0.1409
 7782SOL    HW134979   2.287   4.131   9.193 -1.3450 -0.2802 -0.9072
 7782SOL    HW234980   2.292   4.182   9.333 -2.6030 -0.6751  1.9345
 7783SOL     OW34981   1.488   1.251   5.608  0.5025 -0.1460  0.1575
 7783SOL    HW134982   1.424   1.194   5.565  0.3634 -0.1835  0.4153
 7783SOL    HW234983   1.439   1.332   5.624 -0.6287 -1.0389  1.2275
 7784SOL     OW34984   0.158   0.999   5.842  0.1504 -0.1881  0.1219
 7784SOL    HW134985   0.170   1.054   5.919  1.1602 -2.6964  1.7233
 7784SOL    HW234986   0.230   0.937   5.851  3.5110  3.7442  0.3003
 7785SOL     OW34987   2.227   2.387   8.989  0.3019  0.2019 -0.0207
 7785SOL    HW134988   2.174   2.326   9.041  2.8213  0.2782  2.6629
 7785SOL    HW234989   2.159   2.415   8.929 -1.1989 -3.0885  0.1480
 7786SOL     OW34990   2.632   1.472  13.872 -0.7862  0.3773  0.0961
 7786SOL    HW134991   2.642   1.487  13.966 -0.4044 -0.1291  0.1319
 7786SOL    HW234992   2.635   1.377  13.869  2.5132  0.4838 -0.5055
 7787SOL     OW34993   3.791   4.203  12.309  0.0271  0.2738 -0.5639
 7787SOL    HW134994   3.760   4.262  12.241 -2.4600 -1.7710 -1.2130
 7787SOL    HW234995   3.759   4.258  12.381  0.1386  2.4985 -2.2486
 7788SOL     OW34996   3.319   2.336  16.933  0.2046 -0.1094  0.0568
 7788SOL    HW134997   3.273   2.419  16.952 -0.1560  0.1524 -1.9633
 7788SOL    HW234998   3.411   2.362  16.931  0.5956 -1.5005  0.7436
 7789SOL     OW34999   3.177   4.441   9.229  0.0552  0.0798 -0.2324
 7789SOL    HW135000   3.214   4.505   9.289 -1.1843  2.1255 -1.6760
 7789SOL    HW235001   3.096   4.410   9.268 -0.1584  1.7925  0.6708
 7790SOL     OW35002   2.841   4.269   4.880 -0.1591  0.1502  0.2492
 7790SOL    HW135003   2.768   4.304   4.829 -2.3324 -0.0381  3.1993
 7790SOL    HW235004   2.833   4.177   4.854  0.7344  0.0698  0.2445
 7791SOL     OW35005   2.709   1.951  14.589  0.9052 -0.2086  0.1441
 7791SOL    HW135006   2.730   1.862  14.618  2.2221 -0.0107 -0.2055
 7791SOL    HW235007   2.630   1.963  14.640  1.1622  0.4543  0.3765
 7792SOL     OW35008   1.921   2.500   5.409 -0.3215  0.9006 -0.3452
 7792SOL    HW135009   1.877   2.508   5.494 -0.3120  2.5269 -0.4978
 7792SOL    HW235010   1.894   2.413   5.381 -0.4950  1.0932 -0.7712
 7793SOL     OW35011   1.435   4.465  14.415 -0.1770 -0.1290 -0.4037
 7793SOL    HW135012   1.357   4.506  14.452 -0.4972 -0.3049 -0.8865
 7793SOL    HW235013   1.426   4.374  14.442 -2.2586 -0.0884 -1.0276
 7794SOL     OW35014   0.402   4.653   7.350 -0.1859 -0.1901  0.0491
 7794SOL    HW135015   0.461   4.613   7.415  0.5422 -2.3408 -1.9418
 7794SOL    HW235016   0.314   4.619   7.366 -0.8052  1.2619 -0.3007
 7795SOL     OW35017   0.067   1.114   9.028 -0.0737  0.1397 -0.2606
 7795SOL    HW135018   0.043   1.066   9.107  0.0123  0.6449  0.0734
 7795SOL    HW235019   0.038   1.047   8.966  2.0843 -1.3409  0.3177
 7796SOL     OW35020   0.091   4.133   9.543 -0.0010 -0.1027 -0.5784
 7796SOL    HW135021   0.085   4.110   9.636  0.4300 -2.0895 -1.0589
 7796SOL    HW235022   0.136   4.057   9.508  0.9498  0.4938 -0.6517
 7797SOL     OW35023   3.117   0.870   5.053 -0.3208  0.4700 -0.0929
 7797SOL    HW135024   3.059   0.795   5.062  0.7725 -0.6383 -2.3959
 7797SOL    HW235025   3.137   0.884   5.146  0.6727  0.3550 -0.2828
 7798SOL     OW35026   1.612   1.709   0.256 -0.2825 -0.4736  0.0450
 7798SOL    HW135027   1.648   1.703   0.167  0.1182 -1.1747  0.2610
 7798SOL    HW235028   1.518   1.698   0.239  0.1152 -2.6942 -0.6875
 7799SOL     OW35029   2.454   0.629   2.019 -0.1949  0.3261  0.4602
 7799SOL    HW135030   2.425   0.659   1.932 -0.8624 -0.2688  0.4784
 7799SOL    HW235031   2.539   0.672   2.031 -0.1020  0.6360 -1.1655
 7800SOL     OW35032   2.974   0.738   5.480  0.4751  0.2969 -0.1142
 7800SOL    HW135033   2.999   0.802   5.547 -1.9716  0.3653  0.7109
 7800SOL    HW235034   2.882   0.724   5.501  0.6348 -0.3705  0.1244
 7801SOL     OW35035   0.716   2.896  11.186 -0.1844  0.3206 -0.1420
 7801SOL    HW135036   0.808   2.918  11.170 -0.2296  0.6580  0.0701
 7801SOL    HW235037   0.683   2.913  11.098 -1.1851 -0.7170  0.0383
 7802SOL     OW35038   2.760   3.100   3.035  0.2540  0.0404 -0.0526
 7802SOL    HW135039   2.735   3.187   3.004  1.3646  0.3198 -0.1447
 7802SOL    HW235040   2.798   3.065   2.954  1.1771  3.1193 -0.9751
 7803SOL     OW35041   2.985   1.132   1.566  0.3656 -0.1038  0.1492
 7803SOL    HW135042   3.058   1.193   1.577  0.8010 -0.5939 -0.0797
 7803SOL    HW235043   2.960   1.151   1.476 -0.6831  2.4898  0.9784
 7804SOL     OW35044   1.942   2.392  15.721 -0.2330 -0.1839  0.2120
 7804SOL    HW135045   2.027   2.349  15.733 -0.4203 -0.4896  0.4566
 7804SOL    HW235046   1.884   2.363  15.791 -1.1863 -0.7597 -0.8234
 7805SOL     OW35047   2.530   1.632   3.586 -0.3724 -0.4274  0.1002
 7805SOL    HW135048   2.539   1.682   3.668 -2.2722 -0.4111  0.3038
 7805SOL    HW235049   2.450   1.670   3.548 -0.1845 -0.8614 -0.7228
 7806SOL     OW35050   4.658   4.263  14.060  0.1148 -0.6342  0.1926
 7806SOL    HW135051   4.565   4.285  14.051  0.3608  0.5148  0.4787
 7806SOL    HW235052   4.685   4.311  13.981 -1.0281 -0.7358 -0.2595
 7807SOL     OW35053   0.376   3.698   7.252  0.0315  0.1368  0.1091
 7807SOL    HW135054   0.328   3.618   7.231 -0.1236  0.7662 -1.9469
 7807SOL    HW235055   0.468   3.674   7.243 -0.0274  0.0814 -0.3602
 7808SOL     OW35056   1.865   2.663   1.920  0.2910  0.6390 -0.9452
 7808SOL    HW135057   1.902   2.613   1.993 -0.5302  0.0812 -0.9098
 7808SOL    HW235058   1.830   2.587   1.873  2.2102 -0.2480 -0.9551
 7809SOL     OW35059   2.860   1.193   2.272  0.3637 -0.6851 -0.0516
 7809SOL    HW135060   2.863   1.159   2.361 -0.8335 -0.5575  0.0433
 7809SOL    HW235061   2.780   1.246   2.280  1.5068  0.9927  0.3211
 7810SOL     OW35062   4.654   0.581  15.835  0.2095 -0.0489  0.3365
 7810SOL    HW135063   4.693   0.510  15.887 -0.5248 -0.7879 -0.1369
 7810SOL    HW235064   4.571   0.583  15.883 -0.7051  0.1569 -1.2813
 7811SOL     OW35065   4.386   1.124   3.900 -0.3138  0.3982 -0.1058
 7811SOL    HW135066   4.364   1.147   3.810 -0.8036 -2.9687 -0.8580
 7811SOL    HW235067   4.479   1.148   3.901 -0.4334  0.8263  0.4579
 7812SOL     OW35068   0.645   4.554   7.524  0.0985  0.3322 -0.2426
 7812SOL    HW135069   0.736   4.571   7.501  0.8412 -2.6938  0.4850
 7812SOL    HW235070   0.636   4.461   7.503  2.4043  0.2256 -0.7020
 7813SOL     OW35071   4.155   3.878   7.002 -0.0168 -0.2771  0.0272
 7813SOL    HW135072   4.135   3.785   6.990 -3.2268  0.6714 -1.9451
 7813SOL    HW235073   4.172   3.907   6.913 -0.9273  0.7379  0.1828
 7814SOL     OW35074   3.341   1.324   4.748 -0.2573 -0.1323  0.4284
 7814SOL    HW135075   3.354   1.232   4.722 -0.6253 -0.1635  0.3478
 7814SOL    HW235076   3.425   1.362   4.721 -0.4978 -0.9721 -1.5381
 7815SOL     OW35077   2.174   0.915  12.226 -1.0412  0.1150  0.0936
 7815SOL    HW135078   2.226   0.914  12.306  0.6815  0.3664 -1.0448
 7815SOL    HW235079   2.206   0.989  12.175 -0.1755  0.8979  1.7561
 7816SOL     OW35080   3.286   2.766   2.243 -0.1229  0.1137  0.0742
 7816SOL    HW135081   3.314   2.697   2.183 -1.9808  0.7929 -1.5828
 7816SOL    HW235082   3.233   2.714   2.304  0.3585 -0.3575  0.0907
 7817SOL     OW35083   3.997   1.214   2.694 -0.2181 -0.4533  0.1966
 7817SOL    HW135084   4.051   1.254   2.762  0.0580 -1.3591  0.5159
 7817SOL    HW235085   3.925   1.175   2.744 -1.0763  0.0090 -0.6857
 7818SOL     OW35086   0.076   3.045   2.207 -0.1205 -0.6864  0.3659
 7818SOL    HW135087   0.084   3.141   2.204  0.9746 -0.7827  0.4113
 7818SOL    HW235088   4.719   3.041   2.198 -0.1447 -1.7230  1.0958
 7819SOL     OW35089   0.864   3.361   3.659  0.2979 -0.0931  0.1838
 7819SOL    HW135090   0.885   3.318   3.576  0.6211  0.7419 -0.1654
 7819SOL    HW235091   0.787   3.308   3.678  0.1486  0.3675  0.8560
 7820SOL     OW35092   4.234   1.970   6.931 -0.2665 -0.2724 -0.6561
 7820SOL    HW135093   4.211   2.039   6.868  2.8052 -0.2879 -1.8013
 7820SOL    HW235094   4.180   1.996   7.006  0.7299  0.4271 -0.1727
 7821SOL     OW35095   0.936   4.295  11.164 -0.0042 -0.2058 -0.4269
 7821SOL    HW135096   0.947   4.261  11.076  0.4236  3.0714 -1.6624
 7821SOL    HW235097   0.841   4.282  11.170  0.5474 -3.2247  1.5597
 7822SOL     OW35098   3.513   4.188   6.426  0.4106 -0.2451  0.5614
 7822SOL    HW135099   3.603   4.157   6.416 -0.5608 -2.2967 -2.2565
 7822SOL    HW235100   3.487   4.176   6.517  1.0629  0.3281  0.8178
 7823SOL     OW35101   0.300   1.453   5.289  0.2748 -0.2415 -0.2925
 7823SOL    HW135102   0.295   1.358   5.284  0.4804 -0.1752 -1.7867
 7823SOL    HW235103   0.272   1.488   5.204 -1.6131  0.3146  0.5748
 7824SOL     OW35104   2.593   3.071   9.705  0.1373  0.0853  0.2879
 7824SOL    HW135105   2.625   3.160   9.693  0.2055 -0.2607 -2.1028
 7824SOL    HW235106   2.615   3.037   9.618  2.5873 -0.5748  1.1717
 7825SOL     OW35107   3.810   4.150  17.187 -0.1308  0.0651 -0.1180
 7825SOL    HW135108   3.768   4.204  17.253  1.6687 -0.6061  1.5915
 7825SOL    HW235109   3.870   4.203  17.135 -0.3693  0.1311 -0.3265
 7826SOL     OW35110   2.747   3.594   6.618  0.4091  0.0575  0.1129
 7826SOL    HW135111   2.758   3.682   6.583  0.5157 -0.6164 -1.5515
 7826SOL    HW235112   2.832   3.570   6.582  1.1813  3.4853 -0.3381
 7827SOL     OW35113   3.113   3.621  10.648 -0.1694 -0.3986  0.4309
 7827SOL    HW135114   3.106   3.706  10.604 -2.6685 -2.0317 -2.2471
 7827SOL    HW235115   3.208   3.613  10.652 -0.0772  0.4678  0.0892
 7828SOL     OW35116   3.457   1.761   9.517  0.0323 -0.1586  0.1180
 7828SOL    HW135117   3.485   1.779   9.607  0.7104  0.0220 -0.1298
 7828SOL    HW235118   3.421   1.842   9.483  1.9785  0.7081  0.1736
 7829SOL     OW35119   2.067   3.513   1.140  0.1157  0.6700 -0.0620
 7829SOL    HW135120   2.048   3.558   1.222  2.1852  1.0960  0.1878
 7829SOL    HW235121   2.143   3.559   1.105  1.5190 -1.5601  0.0400
 7830SOL     OW35122   2.551   2.682   6.777  0.0566 -0.2335 -0.1896
 7830SOL    HW135123   2.499   2.690   6.697 -2.2191  0.5244  1.3499
 7830SOL    HW235124   2.530   2.589   6.784  0.6037 -0.3693 -0.3832
 7831SOL     OW35125   4.432   2.110  12.170 -0.5990 -0.6297 -0.2457
 7831SOL    HW135126   4.342   2.137  12.150 -0.3801  2.5856  3.1754
 7831SOL    HW235127   4.442   2.177  12.237  0.3188 -1.0585  0.0494
 7832SOL     OW35128   1.118   4.514   4.932 -0.1195  0.0031 -0.3580
 7832SOL    HW135129   1.057   4.542   5.001  2.1230  0.3959  1.4775
 7832SOL    HW235130   1.144   4.605   4.914  1.0009 -0.5655 -1.5827
 7833SOL     OW35131   3.243   3.483   8.138  0.6384  0.7766  0.4779
 7833SOL    HW135132   3.271   3.446   8.221 -1.1301 -1.6535  0.0051
 7833SOL    HW235133   3.155   3.447   8.141  1.1075 -0.8285 -3.9931
 7834SOL     OW35134   3.145   1.791   3.480 -0.2396 -0.2654 -0.4087
 7834SOL    HW135135   3.196   1.775   3.401  0.0428  0.3080 -0.3393
 7834SOL    HW235136   3.135   1.886   3.473 -0.9073 -0.3469 -0.4929
 7835SOL     OW35137   2.077   3.826  17.614 -0.0357  0.5088  0.4110
 7835SOL    HW135138   1.996   3.873  17.593 -1.3587 -1.7141  0.4894
 7835SOL    HW235139   2.082   3.768  17.538  0.1866  2.5666 -1.1397
 7836SOL     OW35140   3.687   0.689   5.023  0.3960 -0.1225 -0.0315
 7836SOL    HW135141   3.616   0.702   5.086  0.2556  2.5164 -0.7596
 7836SOL    HW235142   3.695   0.778   4.990 -0.8497 -1.1694 -3.2089
 7837SOL     OW35143   3.921   3.359  10.969  0.4162  0.5989  0.1353
 7837SOL    HW135144   3.882   3.295  11.027  2.3620 -0.3758  0.3867
 7837SOL    HW235145   3.854   3.357  10.901  0.3767  1.6486  0.1525
 7838SOL     OW35146   1.154   3.354   3.498 -0.8507 -0.2268 -0.5068
 7838SOL    HW135147   1.238   3.353   3.544 -0.3968 -0.0844 -1.3492
 7838SOL    HW235148   1.092   3.337   3.569  0.1569 -2.6067 -0.1691
 7839SOL     OW35149   3.688   2.338   2.621  0.5815 -0.4571 -0.0403
 7839SOL    HW135150   3.623   2.403   2.647  0.4336 -0.2855 -0.8339
 7839SOL    HW235151   3.673   2.253   2.661 -1.8130 -0.6601 -1.3490
 7840SOL     OW35152   1.024   3.054   1.372 -0.4021 -0.0858  0.7272
 7840SOL    HW135153   1.062   2.972   1.404 -0.3105 -0.2142  0.3029
 7840SOL    HW235154   0.931   3.033   1.380 -0.3370 -1.1056 -1.0639
 7841SOL     OW35155   4.175   0.449   6.850  0.0055  0.0098 -0.2773
 7841SOL    HW135156   4.096   0.503   6.845  0.8312  1.1383 -1.0738
 7841SOL    HW235157   4.203   0.481   6.936  1.2503 -0.8328 -0.3731
 7842SOL     OW35158   1.658   0.211  14.550  0.3136  0.3556  0.4821
 7842SOL    HW135159   1.690   0.294  14.584  0.8758  0.2365  0.2587
 7842SOL    HW235160   1.744   0.168  14.559  0.2929  0.1234 -0.4217
 7843SOL     OW35161   3.480   1.678  11.193  0.1247  0.1126  0.3214
 7843SOL    HW135162   3.562   1.630  11.198 -1.2973 -2.0085  3.5808
 7843SOL    HW235163   3.517   1.766  11.195  2.5222 -0.8480 -3.0282
 7844SOL     OW35164   1.452   2.247   7.702  0.3297 -0.1199 -0.0793
 7844SOL    HW135165   1.455   2.160   7.663 -2.0616 -0.1114 -0.2557
 7844SOL    HW235166   1.397   2.304   7.648  1.6829  1.5668  0.3377
 7845SOL     OW35167   4.098   2.742  16.280  0.3505  0.0024 -0.3616
 7845SOL    HW135168   4.090   2.827  16.236  1.2085  0.6312  0.7284
 7845SOL    HW235169   4.099   2.768  16.372 -0.1849 -0.2778 -0.2761
 7846SOL     OW35170   1.474   4.666   0.365  0.2751 -0.0799  0.3589
 7846SOL    HW135171   1.524   4.726   0.309  0.9611 -1.1145 -0.1431
 7846SOL    HW235172   1.427   4.731   0.418  0.2447  1.3617 -1.4223
 7847SOL     OW35173   2.225   3.025   9.210  0.6327 -0.7286 -0.1289
 7847SOL    HW135174   2.232   2.934   9.182 -1.0325 -0.3558 -1.6895
 7847SOL    HW235175   2.138   3.040   9.247  0.9166  3.6530 -1.2535
 7848SOL     OW35176   0.876   3.548   3.419  0.1744  0.0614 -0.2232
 7848SOL    HW135177   0.966   3.517   3.409  0.3531  0.9892 -1.5132
 7848SOL    HW235178   0.860   3.554   3.513  1.2680  0.8137 -0.0866
 7849SOL     OW35179   0.297   2.525  15.933 -0.2890 -0.0092  0.0632
 7849SOL    HW135180   0.275   2.434  15.957 -0.9640 -0.3916 -1.9189
 7849SOL    HW235181   0.240   2.571  15.994 -0.0817  1.0047 -0.5250
 7850SOL     OW35182   1.437   4.327   1.992  0.1697  0.1240 -0.4468
 7850SOL    HW135183   1.511   4.385   2.010  0.5830 -0.0536 -1.6141
 7850SOL    HW235184   1.429   4.356   1.901  0.9538  0.5441 -0.3858
 7851SOL     OW35185   3.971   3.628  11.190 -0.1916  0.6715 -0.0902
 7851SOL    HW135186   4.059   3.662  11.204 -0.8399  2.9934 -1.6544
 7851SOL    HW235187   3.953   3.581  11.272 -0.1562  2.6548  1.0514
 7852SOL     OW35188   4.696   2.834   9.148  0.3624 -0.4419  0.2929
 7852SOL    HW135189   4.623   2.887   9.115  0.1116 -0.7982  0.2673
 7852SOL    HW235190   0.017   2.815   9.076  0.9484  2.3219  0.0598
 7853SOL     OW35191   3.346   2.916  10.663 -0.0907  0.2695 -0.4445
 7853SOL    HW135192   3.321   2.909  10.755  1.1023  1.2879 -0.0429
 7853SOL    HW235193   3.426   2.863  10.660 -0.6856 -0.5893 -1.3533
 7854SOL     OW35194   1.353   3.085   8.039 -0.4257 -0.5611 -0.7115
 7854SOL    HW135195   1.273   3.033   8.052 -0.9698  0.1794 -1.0721
 7854SOL    HW235196   1.357   3.073   7.945 -2.9969 -1.3545 -0.7234
 7855SOL     OW35197   0.495   0.811  16.921 -0.4517  0.4653  0.0129
 7855SOL    HW135198   0.569   0.819  16.861 -0.4145  0.8303  0.1052
 7855SOL    HW235199   0.491   0.718  16.942  0.7206  0.4281  0.0850
 7856SOL     OW35200   1.717   4.632  16.668  0.1301  0.3741  0.4667
 7856SOL    HW135201   1.748   4.550  16.631 -0.4456 -0.8672  2.7085
 7856SOL    HW235202   1.793   4.689  16.657  1.2040 -0.7024  2.2267
 7857SOL     OW35203   3.686   3.835   0.383 -0.3961 -0.6986  0.1743
 7857SOL    HW135204   3.701   3.741   0.379 -1.4239 -0.9005  1.0799
 7857SOL    HW235205   3.620   3.864   0.320  0.0240  1.0593  0.5320
 7858SOL     OW35206   2.957   3.876   7.640  0.5173 -0.0605  0.1392
 7858SOL    HW135207   3.005   3.947   7.597 -1.3352  0.9312 -0.2708
 7858SOL    HW235208   2.976   3.905   7.729  1.1959  0.2807 -0.1150
 7859SOL     OW35209   3.886   0.109   3.667  0.1597 -0.0873  0.3888
 7859SOL    HW135210   3.961   0.159   3.635 -0.4838  0.8778  0.4026
 7859SOL    HW235211   3.817   0.133   3.605 -1.4464  1.4768  2.7911
 7860SOL     OW35212   3.095   1.951  17.188  0.7645 -0.1465  0.2291
 7860SOL    HW135213   3.126   2.038  17.214  1.9380 -1.0552  1.9067
 7860SOL    HW235214   3.169   1.920  17.135  1.1378  0.3000  0.4800
 7861SOL     OW35215   2.726   2.954  14.991 -0.2173 -0.0836  0.4431
 7861SOL    HW135216   2.749   2.996  14.908  0.2575 -1.8556 -0.3231
 7861SOL    HW235217   2.725   3.035  15.042 -2.0490 -0.1735  0.5740
 7862SOL     OW35218   3.057   4.189   6.193  0.0211  0.0569  0.3762
 7862SOL    HW135219   3.059   4.210   6.287  1.6543 -0.4170  0.4362
 7862SOL    HW235220   3.095   4.101   6.196 -1.4901 -0.6319 -0.5261
 7863SOL     OW35221   1.118   2.313   1.896 -0.2494  0.0524 -0.4030
 7863SOL    HW135222   1.070   2.374   1.840 -2.0576 -0.1726  0.8898
 7863SOL    HW235223   1.047   2.251   1.913 -0.6956  0.7121  0.1657
 7864SOL     OW35224   2.840   4.181   6.479  0.6351  0.2459 -0.2302
 7864SOL    HW135225   2.771   4.233   6.519 -0.7352 -1.6252 -0.1568
 7864SOL    HW235226   2.788   4.146   6.406 -0.3121 -0.3541  0.7258
 7865SOL     OW35227   2.393   0.922  14.780  0.0102 -0.0810 -0.3612
 7865SOL    HW135228   2.448   0.994  14.811 -0.1261 -0.0366 -0.2274
 7865SOL    HW235229   2.388   0.873  14.862  1.4184  2.2328  1.0858
 7866SOL     OW35230   0.240   3.907   7.048  0.3713  0.2879 -0.8157
 7866SOL    HW135231   0.221   3.865   7.131 -1.3006 -0.6186 -1.6602
 7866SOL    HW235232   0.272   3.831   6.999 -0.0869 -0.1850 -0.3821
 7867SOL     OW35233   1.209   2.869  17.482 -0.9034  0.3580  0.5478
 7867SOL    HW135234   1.204   2.794  17.542 -1.2904  0.1385  0.2369
 7867SOL    HW235235   1.131   2.923  17.488 -2.3470 -1.5920 -0.9696
 7868SOL     OW35236   1.645   4.086   5.646  0.4545  0.6175 -0.2595
 7868SOL    HW135237   1.589   4.074   5.570  2.5924 -0.4384 -1.6794
 7868SOL    HW235238   1.604   4.159   5.692  0.4129  0.6154 -0.2939
 7869SOL     OW35239   1.954   4.288   1.640  0.5565  0.4847  0.4391
 7869SOL    HW135240   1.942   4.371   1.686  1.2375  1.3274 -0.9145
 7869SOL    HW235241   2.041   4.259   1.668  0.8367  1.3888  0.5238
 7870SOL     OW35242   1.863   3.046   1.643  0.0801  0.7142  0.4923
 7870SOL    HW135243   1.870   3.017   1.552  0.8303  3.7021 -0.4375
 7870SOL    HW235244   1.910   3.130   1.640  1.5774 -0.1677 -0.4937
 7871SOL     OW35245   3.559   4.455   8.330  0.4616 -0.7804  0.7610
 7871SOL    HW135246   3.619   4.403   8.276  1.2074  0.7086  0.1720
 7871SOL    HW235247   3.473   4.414   8.315 -0.1921  0.1768  1.9398
 7872SOL     OW35248   2.710   1.307   4.412  0.0802 -0.2000 -0.5662
 7872SOL    HW135249   2.719   1.303   4.317  1.6950  0.0265 -0.4206
 7872SOL    HW235250   2.798   1.279   4.439  0.0478  0.2202 -0.0360
 7873SOL     OW35251   3.992   3.828   2.967  0.2462  0.0401  0.2828
 7873SOL    HW135252   3.921   3.828   3.032  0.4771  0.1730  0.5393
 7873SOL    HW235253   3.958   3.769   2.900 -0.8205  1.7635 -0.7213
 7874SOL     OW35254   1.225   0.056   1.981  0.2998 -0.0385  0.0770
 7874SOL    HW135255   1.242   0.007   2.062  1.5403  0.1436 -0.0773
 7874SOL    HW235256   1.146   0.010   1.951  0.1433  1.3236 -1.5384
 7875SOL     OW35257   1.891   0.662  17.354 -0.2646 -0.2442  0.3156
 7875SOL    HW135258   1.821   0.628  17.410 -1.7592 -0.6424 -1.7919
 7875SOL    HW235259   1.855   0.741  17.314  0.3376  0.2323  0.7160
 7876SOL     OW35260   2.169   0.211  10.474  0.1446 -0.1615 -1.1118
 7876SOL    HW135261   2.165   0.305  10.489 -0.0384 -0.8427  2.9458
 7876SOL    HW235262   2.261   0.191  10.495 -0.4365  0.7272  2.1046
 7877SOL     OW35263   1.963   4.003   6.132  0.0169  0.2738  0.3003
 7877SOL    HW135264   2.013   3.984   6.053  0.1668  3.7721 -0.4186
 7877SOL    HW235265   1.972   4.098   6.133 -1.2928  0.3779  2.0093
 7878SOL     OW35266   0.838   2.251   1.827 -0.1898  0.0020 -0.0591
 7878SOL    HW135267   0.814   2.166   1.791  2.4756 -0.1093 -1.5665
 7878SOL    HW235268   0.758   2.256   1.879  0.0895 -0.4335  0.4083
 7879SOL     OW35269   0.625   4.515   2.363  0.0932  0.6518 -0.2433
 7879SOL    HW135270   0.716   4.498   2.386  0.7817  0.3648 -3.1477
 7879SOL    HW235271   0.591   4.425   2.359 -1.9974  1.3201  2.6921
 7880SOL     OW35272   2.833   3.730   0.998 -0.4623  0.5785 -0.3350
 7880SOL    HW135273   2.774   3.723   1.073 -2.1194 -3.3619 -2.0393
 7880SOL    HW235274   2.829   3.639   0.969  0.0530  0.1441  0.9388
 7881SOL     OW35275   0.606   1.091   2.949  0.0387 -0.3636 -0.5286
 7881SOL    HW135276   0.660   1.040   2.888 -1.4178 -1.0200 -1.2746
 7881SOL    HW235277   0.519   1.050   2.947 -0.1436  0.0763 -1.8233
 7882SOL     OW35278   3.968   1.615   2.798 -0.1345 -0.1769 -0.2997
 7882SOL    HW135279   4.014   1.655   2.872 -0.3376 -1.0689  0.3074
 7882SOL    HW235280   4.038   1.595   2.737  0.6001 -0.2367  0.5626
 7883SOL     OW35281   0.402   4.376   4.133 -0.0127  0.2790 -0.6089
 7883SOL    HW135282   0.307   4.379   4.130 -0.0580 -1.3745 -0.8509
 7883SOL    HW235283   0.417   4.295   4.183  0.2156  0.0620 -1.0312
 7884SOL     OW35284   3.275   2.708   8.791  0.0441  0.0964 -0.4929
 7884SOL    HW135285   3.328   2.751   8.723 -0.7237  0.7880 -0.6474
 7884SOL    HW235286   3.347   2.702   8.854 -0.7237  2.3536  0.6105
 7885SOL     OW35287   1.786   0.307   8.288  0.2517  0.3379 -0.2100
 7885SOL    HW135288   1.700   0.294   8.248  1.0573  0.2079 -1.8812
 7885SOL    HW235289   1.833   0.230   8.254 -0.7084 -0.2978 -0.0974
 7886SOL     OW35290   3.535   3.988   2.227  1.0112  0.6994 -0.0145
 7886SOL    HW135291   3.457   3.971   2.280  0.3407  0.4283 -1.0799
 7886SOL    HW235292   3.513   4.074   2.191  3.9627  0.8158 -1.4861
 7887SOL     OW35293   1.631   2.278   6.622 -0.2224  0.5304 -0.0878
 7887SOL    HW135294   1.712   2.297   6.670 -1.1458 -0.4565  1.8496
 7887SOL    HW235295   1.654   2.312   6.535 -0.0031 -1.3041 -0.7545
 7888SOL     OW35296   1.174   4.496   7.992  0.1433  0.3247  0.3460
 7888SOL    HW135297   1.081   4.508   7.975  0.3712 -0.9864 -1.7572
 7888SOL    HW235298   1.191   4.482   8.086  1.3204  0.4964  0.1569
 7889SOL     OW35299   1.181   4.483  14.189 -0.2019  0.4273  0.7195
 7889SOL    HW135300   1.199   4.395  14.222  3.1276  0.7053 -0.3779
 7889SOL    HW235301   1.215   4.539  14.258  0.4043 -0.1539  0.8946
 7890SOL     OW35302   2.667   0.888   8.371  0.2026 -0.0857 -0.4098
 7890SOL    HW135303   2.694   0.883   8.279 -1.0647  0.7908 -0.8245
 7890SOL    HW235304   2.747   0.855   8.413 -0.8580  0.9718  2.4221
 7891SOL     OW35305   1.723   1.242   8.368 -0.1823 -0.0343  0.0205
 7891SOL    HW135306   1.802   1.187   8.370 -0.4025 -0.3386  0.4173
 7891SOL    HW235307   1.725   1.280   8.456  0.4854 -0.1990  0.0763
 7892SOL     OW35308   4.323   0.183   6.976  0.0464  0.0910 -0.3714
 7892SOL    HW135309   4.333   0.192   6.881 -1.0624 -0.0035 -0.4980
 7892SOL    HW235310   4.228   0.180   6.985  0.1843 -0.0621  0.9923
 7893SOL     OW35311   1.245   1.155   6.621  0.3740 -0.1464 -0.0694
 7893SOL    HW135312   1.272   1.102   6.696 -1.3595  0.3929  0.9148
 7893SOL    HW235313   1.328   1.159   6.572  0.8474 -0.2426  0.7191
 7894SOL     OW35314   2.002   1.892  10.293  0.2767 -0.2016 -0.5887
 7894SOL    HW135315   2.067   1.944  10.339  1.2950 -0.7016 -1.4591
 7894SOL    HW235316   2.058   1.819  10.266  1.2241  0.6866 -1.0231
 7895SOL     OW35317   3.801   2.447   2.317  0.4377  0.3005 -0.5338
 7895SOL    HW135318   3.776   2.407   2.234  1.8212  0.5339 -1.0589
 7895SOL    HW235319   3.784   2.378   2.381  0.9439  0.3086 -0.3970
 7896SOL     OW35320   1.050   2.644   2.279 -0.5881  0.4953 -0.5471
 7896SOL    HW135321   0.967   2.596   2.273 -1.0963  1.5929 -2.2586
 7896SOL    HW235322   1.069   2.647   2.373  1.2332  0.3082 -0.9022
 7897SOL     OW35323   1.977   4.730  16.651 -0.2419 -0.6432 -0.2880
 7897SOL    HW135324   2.032   4.713  16.728 -0.9659 -0.1781  0.3357
 7897SOL    HW235325   2.032   4.702  16.578  0.3776 -1.3596  0.4524
 7898SOL     OW35326   1.676   0.110   6.820  0.1089 -0.0823 -0.2161
 7898SOL    HW135327   1.661   0.078   6.909  0.6272 -1.6764 -0.7004
 7898SOL    HW235328   1.600   0.168   6.823 -0.1727 -0.3784 -1.5136
 7899SOL     OW35329   2.471   3.270   3.686  0.1780 -0.0438  0.7998
 7899SOL    HW135330   2.393   3.253   3.739 -1.5833  0.3014 -1.6743
 7899SOL    HW235331   2.437   3.240   3.602 -0.3941 -0.1379  1.0651
 7900SOL     OW35332   4.340   4.710   7.821 -0.6147 -0.1717  0.1378
 7900SOL    HW135333   4.382   4.653   7.884 -2.3660 -1.3660  0.2388
 7900SOL    HW235334   4.350   4.660   7.740  2.9163  0.4792  0.1652
 7901SOL     OW35335   4.719   4.088   2.149 -0.1608  0.8123  0.0759
 7901SOL    HW135336   0.005   4.176   2.119  0.6397  0.2356 -0.9535
 7901SOL    HW235337   4.631   4.089   2.111  0.0102  1.6915 -0.2988
 7902SOL     OW35338   3.668   4.136   4.778  0.3104 -0.2434  0.7542
 7902SOL    HW135339   3.703   4.223   4.795 -3.7707  1.7493 -0.9980
 7902SOL    HW235340   3.595   4.130   4.839  0.0196 -3.3478  0.1226
 7903SOL     OW35341   3.863   1.221  13.121 -0.0412  0.6375 -0.9592
 7903SOL    HW135342   3.944   1.180  13.151 -0.6830 -2.0000 -2.7652
 7903SOL    HW235343   3.803   1.162  13.167  0.5225 -0.3096 -1.4231
 7904SOL     OW35344   1.661   1.415   4.255  0.1095 -1.3835  0.3461
 7904SOL    HW135345   1.568   1.401   4.237 -0.0619 -0.8007  0.7789
 7904SOL    HW235346   1.649   1.490   4.313  0.8555 -0.3092 -0.9022
 7905SOL     OW35347   0.891   2.053   7.284 -0.2519 -0.6072  0.2129
 7905SOL    HW135348   0.839   1.985   7.327 -0.6027 -0.1970  0.4391
 7905SOL    HW235349   0.936   2.089   7.361 -2.8292  0.5889  1.1620
 7906SOL     OW35350   0.965   3.018   2.556  0.4901  0.5857  0.2330
 7906SOL    HW135351   0.909   2.943   2.576  3.0950 -1.5998 -0.6699
 7906SOL    HW235352   0.924   3.085   2.502  1.3761 -0.4908 -1.7919
 7907SOL     OW35353   4.247   2.609   6.659  0.2034  0.3742  0.4180
 7907SOL    HW135354   4.179   2.578   6.718 -0.6494  1.9548  0.2518
 7907SOL    HW235355   4.228   2.702   6.651  0.3792  0.2953 -1.0789
 7908SOL     OW35356   2.986   2.626   4.628 -0.5699  0.3351  0.1550
 7908SOL    HW135357   3.060   2.581   4.587 -1.0337 -0.0054 -0.3104
 7908SOL    HW235358   2.996   2.712   4.586  2.1790  0.1429  0.3963
 7909SOL     OW35359   4.083   0.660  10.597  0.2205 -0.5271 -0.0717
 7909SOL    HW135360   4.087   0.751  10.625  1.9912 -0.0636 -1.8756
 7909SOL    HW235361   4.170   0.625  10.614  0.6037  0.2090 -0.5347
 7910SOL     OW35362   1.144   3.353   8.739 -0.3270 -0.7643 -0.1504
 7910SOL    HW135363   1.082   3.343   8.811 -1.1126  0.2173 -0.6929
 7910SOL    HW235364   1.182   3.265   8.738 -1.9497 -1.4774  0.7654
 7911SOL     OW35365   2.673   2.263   4.179 -0.3322  0.5041 -0.1047
 7911SOL    HW135366   2.602   2.310   4.135 -0.5441  0.3292  0.0515
 7911SOL    HW235367   2.626   2.203   4.237 -0.5852  0.4845 -0.3292
 7912SOL     OW35368   3.854   3.614   7.027 -0.7641  0.2252  0.1951
 7912SOL    HW135369   3.831   3.609   7.120 -0.3795  2.1387  0.3874
 7912SOL    HW235370   3.784   3.562   6.988  0.0375 -0.5556 -0.2040
 7913SOL     OW35371   3.596   2.737   7.904  0.1776 -0.0219 -0.4819
 7913SOL    HW135372   3.611   2.667   7.841 -0.1647 -1.4640  1.0335
 7913SOL    HW235373   3.551   2.697   7.978 -1.6403  0.2096 -1.4574
 7914SOL     OW35374   3.174   2.457   1.302  0.1255 -0.1301 -0.4908
 7914SOL    HW135375   3.170   2.490   1.212 -2.7184  0.5641 -0.1237
 7914SOL    HW235376   3.167   2.538   1.353  0.3252  0.6998 -1.7903
 7915SOL     OW35377   3.540   3.339   5.259  0.4834 -0.0381  0.2145
 7915SOL    HW135378   3.457   3.348   5.307  0.2486 -1.7317  0.1200
 7915SOL    HW235379   3.577   3.426   5.266 -0.9736  0.7126 -1.3509
 7916SOL     OW35380   3.850   2.983   2.521  0.3570  0.9702 -0.4907
 7916SOL    HW135381   3.802   2.932   2.454  0.9444 -1.4034  0.9003
 7916SOL    HW235382   3.930   3.009   2.475  1.1815  1.0349  1.0177
 7917SOL     OW35383   3.671   4.371  17.352  0.3346 -0.1809 -0.2923
 7917SOL    HW135384   3.735   4.424  17.304 -1.1638  1.1922 -0.7883
 7917SOL    HW235385   3.636   4.441  17.407 -0.6748 -0.0432 -1.1038
 7918SOL     OW35386   3.845   3.272  12.746 -0.0575 -0.0840  0.2700
 7918SOL    HW135387   3.902   3.346  12.727 -1.7213  1.2540  0.4657
 7918SOL    HW235388   3.780   3.328  12.789 -0.9191 -1.4071  0.7038
 7919SOL     OW35389   3.743   1.866  12.564  0.1668  0.3148  0.7447
 7919SOL    HW135390   3.734   1.782  12.520  1.4947  0.8688 -0.6072
 7919SOL    HW235391   3.838   1.867  12.578 -0.3334 -0.7931  4.0144
 7920SOL     OW35392   1.384   1.339   6.903  0.7142 -1.4127 -0.0974
 7920SOL    HW135393   1.370   1.409   6.840  2.1475  0.2471  1.4387
 7920SOL    HW235394   1.449   1.372   6.965 -0.0259 -0.3574  0.1116
 7921SOL     OW35395   1.240   3.686   4.858 -0.1431 -0.2659 -0.7279
 7921SOL    HW135396   1.263   3.626   4.787 -0.1173  2.4415 -3.0121
 7921SOL    HW235397   1.321   3.735   4.871 -0.5713 -0.1809  1.6502
 7922SOL     OW35398   4.535   3.765   3.348 -0.5053 -0.1772  0.1674
 7922SOL    HW135399   4.515   3.807   3.265  1.7754  0.5510 -0.0177
 7922SOL    HW235400   4.449   3.749   3.388 -1.2960 -1.2648 -1.9780
 7923SOL     OW35401   2.404   3.620   9.494 -0.5325 -0.7642 -0.2745
 7923SOL    HW135402   2.330   3.567   9.466  0.9035 -2.4107 -1.0290
 7923SOL    HW235403   2.395   3.705   9.453  2.5500 -0.5219 -0.4923
 7924SOL     OW35404   2.717   4.721  16.914 -0.0703 -0.6734  0.2558
 7924SOL    HW135405   2.660   0.052  16.881  1.7850  0.2036 -1.0891
 7924SOL    HW235406   2.786   0.032  16.958 -0.4970 -0.6973  0.9557
 7925SOL     OW35407   0.228   4.321   6.453  0.5284 -0.2486  0.0752
 7925SOL    HW135408   0.262   4.337   6.541  1.2430 -0.0877 -0.2290
 7925SOL    HW235409   0.291   4.254   6.427 -1.2108 -2.4317  1.4366
 7926SOL     OW35410   0.120   0.295   7.161 -0.1315  0.5287 -0.0717
 7926SOL    HW135411   0.084   0.218   7.205  2.1088 -0.8092 -0.5940
 7926SOL    HW235412   0.108   0.280   7.067 -0.8309  3.9000 -0.5374
 7927SOL     OW35413   3.500   0.444  16.760 -0.3268 -0.4162 -0.5448
 7927SOL    HW135414   3.480   0.367  16.707  0.1919 -0.1674 -1.1171
 7927SOL    HW235415   3.478   0.522  16.708  0.4962  0.7891  0.9079
 7928SOL     OW35416   1.715   1.132  17.335  0.6366  0.0487  0.5564
 7928SOL    HW135417   1.676   1.216  17.309 -0.1981 -0.1087  1.2977
 7928SOL    HW235418   1.803   1.144  17.299  1.1618 -0.3671  1.6882
 7929SOL     OW35419   0.960   1.395   2.584 -0.5642 -0.3641 -0.2914
 7929SOL    HW135420   1.050   1.424   2.568 -0.2138 -0.9976  0.5227
 7929SOL    HW235421   0.964   1.361   2.674 -0.9062 -0.6815 -0.3965
 7930SOL     OW35422   0.386   0.275  14.394  0.5021  0.1630  0.2604
 7930SOL    HW135423   0.397   0.185  14.424  1.1078  0.0151 -0.4350
 7930SOL    HW235424   0.355   0.310  14.478 -1.8246 -2.7635  0.6323
 7931SOL     OW35425   1.609   3.428  16.513 -0.0987  0.1491 -0.6466
 7931SOL    HW135426   1.601   3.441  16.418  1.7412 -1.5826 -1.0422
 7931SOL    HW235427   1.704   3.418  16.527 -0.5104 -0.4520  1.7149
 7932SOL     OW35428   3.046   2.807  11.107 -0.2384  0.0851  0.0949
 7932SOL    HW135429   2.963   2.816  11.061 -1.4897 -0.6755  2.2291
 7932SOL    HW235430   3.021   2.842  11.192 -0.6717 -2.0657  0.8539
 7933SOL     OW35431   0.016   0.725   4.819  0.0258  0.2267  0.5387
 7933SOL    HW135432   0.082   0.695   4.757 -0.1197  0.9533  0.0252
 7933SOL    HW235433   0.050   0.693   4.902 -0.5487 -1.0122  0.2907
 7934SOL     OW35434   3.591   1.554   1.080 -0.1314  0.3999  0.5781
 7934SOL    HW135435   3.547   1.478   1.118 -1.5949  1.0603  0.2109
 7934SOL    HW235436   3.539   1.622   1.123 -0.5513  0.0191  0.6763
 7935SOL     OW35437   3.388   1.549   5.934 -0.0567  0.2666  0.6039
 7935SOL    HW135438   3.445   1.497   5.991 -0.1215 -1.3996 -0.8503
 7935SOL    HW235439   3.398   1.509   5.848  0.1456  1.0063  0.2858
 7936SOL     OW35440   3.592   1.023   1.958 -0.1678 -0.4099  0.2432
 7936SOL    HW135441   3.635   1.042   2.042  1.5026  1.4957 -1.0608
 7936SOL    HW235442   3.640   0.941   1.950 -1.7329 -1.1545 -1.6819
 7937SOL     OW35443   2.671   2.074  15.880  0.7295  0.2450 -0.0950
 7937SOL    HW135444   2.761   2.083  15.848  0.5448 -0.7741 -0.9270
 7937SOL    HW235445   2.688   2.059  15.973  1.0446  0.9342 -0.0462
 7938SOL     OW35446   2.476   0.744   1.133  0.2539 -0.3588 -0.2953
 7938SOL    HW135447   2.422   0.664   1.137 -0.2488 -0.0403 -0.6420
 7938SOL    HW235448   2.450   0.779   1.047 -1.9372 -1.1400  0.0269
 7939SOL     OW35449   1.513   3.532   7.945  0.0494 -0.2757  0.0445
 7939SOL    HW135450   1.527   3.537   7.850  0.8093 -3.3476  0.0286
 7939SOL    HW235451   1.418   3.519   7.945  0.4511 -2.9988  1.9170
 7940SOL     OW35452   4.093   2.585   3.731 -0.1122 -0.2647  0.0601
 7940SOL    HW135453   4.139   2.624   3.656  1.2636 -1.3323  0.3473
 7940SOL    HW235454   4.079   2.498   3.695  0.8987 -0.0339 -0.8961
 7941SOL     OW35455   3.945   2.203  14.031  0.3102  0.0460 -0.3465
 7941SOL    HW135456   3.912   2.125  13.986  1.3502 -0.8900  0.5232
 7941SOL    HW235457   4.006   2.242  13.969  0.8102 -1.2587 -0.6600
 7942SOL     OW35458   3.939   1.998   7.491  0.2909 -0.4484  0.5489
 7942SOL    HW135459   3.955   2.073   7.434  3.4161  0.4176  2.5485
 7942SOL    HW235460   4.000   2.021   7.561  1.3693  0.8308 -0.8088
 7943SOL     OW35461   3.904   4.118   0.642  0.3010  0.1020  0.1019
 7943SOL    HW135462   3.906   4.025   0.622  2.4094  0.3041 -0.6615
 7943SOL    HW235463   3.910   4.164   0.558  0.5338 -0.2192 -0.0547
 7944SOL     OW35464   3.680   2.848   4.343  0.3460  0.1540  0.0953
 7944SOL    HW135465   3.753   2.789   4.359  0.7332  0.3005 -1.2017
 7944SOL    HW235466   3.620   2.806   4.406  0.2522 -0.6361 -0.5139
 7945SOL     OW35467   4.652   3.509   3.403  0.6283  0.0135 -0.3852
 7945SOL    HW135468   4.571   3.518   3.455  0.4090  1.0258 -0.9140
 7945SOL    HW235469   4.642   3.585   3.346 -0.1722 -1.4401 -2.1893
 7946SOL     OW35470   2.573   4.164  11.245 -0.1556  0.0161  0.2758
 7946SOL    HW135471   2.590   4.117  11.328  2.2143 -0.5400 -0.5300
 7946SOL    HW235472   2.534   4.239  11.290 -1.1669 -0.9768  1.0668
 7947SOL     OW35473   2.218   1.799  17.282  0.2222 -0.0952 -0.0987
 7947SOL    HW135474   2.251   1.762  17.364 -0.8969  0.6473  0.6775
 7947SOL    HW235475   2.186   1.883  17.312 -0.2692 -0.9381  1.7070
 7948SOL     OW35476   4.175   2.521  15.449 -0.2006  0.2701  0.2050
 7948SOL    HW135477   4.228   2.450  15.484 -0.0294 -0.5495 -1.6781
 7948SOL    HW235478   4.224   2.546  15.371  0.5965  2.6074  1.4699
 7949SOL     OW35479   1.071   3.846   4.324 -0.0807  0.0376 -0.3546
 7949SOL    HW135480   1.075   3.845   4.420  1.0085 -0.9236 -0.4142
 7949SOL    HW235481   1.161   3.846   4.293  0.5289  1.7939  1.3514
 7950SOL     OW35482   1.335   1.553   2.872  0.3222 -0.4890  0.3053
 7950SOL    HW135483   1.256   1.567   2.821 -0.3848 -0.2529  1.4634
 7950SOL    HW235484   1.347   1.458   2.870  0.0702 -0.4722 -1.5603
 7951SOL     OW35485   2.393   1.584   5.183  0.6841 -0.3247 -0.4951
 7951SOL    HW135486   2.450   1.660   5.192 -0.4382  0.4493  0.1248
 7951SOL    HW235487   2.302   1.613   5.192  1.2246  0.9531  1.0018
 7952SOL     OW35488   3.188   3.199   4.898 -0.4096 -0.0335 -0.3795
 7952SOL    HW135489   3.266   3.151   4.872 -0.5311  1.2265 -3.0055
 7952SOL    HW235490   3.220   3.285   4.870 -2.0349  0.5609 -0.4404
 7953SOL     OW35491   0.940   3.646   7.692 -0.3851  0.0965  0.4859
 7953SOL    HW135492   0.928   3.595   7.772  1.3194 -3.6125 -1.6561
 7953SOL    HW235493   1.015   3.599   7.658 -0.5095 -0.5663  1.1182
 7954SOL     OW35494   2.592   3.976   7.220 -0.0558  0.6720  0.0196
 7954SOL    HW135495   2.544   3.997   7.300  2.1012  1.0216  1.2461
 7954SOL    HW235496   2.678   3.947   7.252 -0.4393 -0.6546 -0.1530
 7955SOL     OW35497   2.061   3.079   1.943 -1.0136 -0.4039 -0.0486
 7955SOL    HW135498   1.998   3.018   1.904 -1.9506 -0.7380  2.0209
 7955SOL    HW235499   2.115   3.104   1.868  0.9842  0.1616  1.5673
 7956SOL     OW35500   2.120   0.269   5.133 -0.4298 -0.2799 -0.5391
 7956SOL    HW135501   2.046   0.282   5.192  0.8058 -0.7526  1.0934
 7956SOL    HW235502   2.076   0.210   5.071 -1.0114  1.6710 -1.9868
 7957SOL     OW35503   1.359   2.605   9.146 -0.1152  0.0910 -0.1234
 7957SOL    HW135504   1.301   2.673   9.110 -3.0194 -2.2707  0.0860
 7957SOL    HW235505   1.307   2.528   9.125 -2.6313  1.5907  0.5845
 7958SOL     OW35506   1.655   1.568   1.410 -0.1983 -0.2355 -0.6544
 7958SOL    HW135507   1.723   1.632   1.432  0.6324 -1.3455 -0.0159
 7958SOL    HW235508   1.712   1.507   1.364  0.5542 -1.0297  1.3494
 7959SOL     OW35509   0.129   2.836  10.787  0.5100 -0.3672  0.0364
 7959SOL    HW135510   0.108   2.752  10.828  0.8847 -0.1951  0.5725
 7959SOL    HW235511   0.045   2.881  10.799 -0.1473 -1.8627  1.0442
 7960SOL     OW35512   1.936   0.218  11.361  0.0399 -0.1453  0.0710
 7960SOL    HW135513   2.002   0.217  11.292  0.6913 -0.5990  0.7028
 7960SOL    HW235514   1.860   0.169  11.330 -1.1519  2.0041 -0.4403
 7961SOL     OW35515   2.356   4.435   5.449 -0.5498  0.1099 -0.0215
 7961SOL    HW135516   2.301   4.509   5.424  0.4470  0.5038 -1.0747
 7961SOL    HW235517   2.353   4.367   5.381 -0.5612 -1.4400  1.5341
 7962SOL     OW35518   1.841   3.898  14.523  0.1237  0.0144 -0.2125
 7962SOL    HW135519   1.918   3.891  14.579  0.8550  2.1368 -0.9577
 7962SOL    HW235520   1.773   3.926  14.584  0.2391 -0.7004  0.2419
 7963SOL     OW35521   0.038   0.261   3.895 -0.1981  0.1226 -0.2992
 7963SOL    HW135522   0.024   0.178   3.940 -2.4678 -0.1709 -1.5487
 7963SOL    HW235523   0.063   0.231   3.807  0.2972 -1.5987  0.4517
 7964SOL     OW35524   3.375   2.490   6.388 -0.2435  0.3646 -0.3701
 7964SOL    HW135525   3.350   2.497   6.481  2.6527  0.0533  0.4242
 7964SOL    HW235526   3.337   2.573   6.360 -2.3193 -0.5738 -0.3793
 7965SOL     OW35527   2.039   0.876   8.625  0.0162  0.0031  0.3854
 7965SOL    HW135528   2.069   0.828   8.548 -1.3781 -2.0857  1.1487
 7965SOL    HW235529   1.945   0.883   8.606  0.0952 -1.7115 -0.6838
 7966SOL     OW35530   0.600   4.281   7.490  0.4051  0.5837 -0.4965
 7966SOL    HW135531   0.663   4.209   7.498 -2.0472 -1.4976 -0.1435
 7966SOL    HW235532   0.527   4.221   7.475  0.3037  0.9510 -1.4950
 7967SOL     OW35533   0.243   0.628  14.876  0.5147  0.2977  0.1491
 7967SOL    HW135534   0.203   0.579  14.948 -3.1692  1.4249 -1.1036
 7967SOL    HW235535   0.332   0.594  14.869  0.8525  1.3754 -0.8360
 7968SOL     OW35536   4.021   4.137   3.820 -0.0700  0.3948  0.5647
 7968SOL    HW135537   4.096   4.102   3.869  0.7162  0.5272 -0.5341
 7968SOL    HW235538   4.028   4.222   3.863  1.3510 -0.0480  1.2376
 7969SOL     OW35539   3.155   0.253   5.005  0.1675  0.4060  0.3027
 7969SOL    HW135540   3.224   0.216   4.950 -0.4357 -1.4781  0.8180
 7969SOL    HW235541   3.169   0.212   5.090  1.1035  0.6720  0.2783
 7970SOL     OW35542   0.062   3.171  13.118  0.0877 -0.5817 -0.6779
 7970SOL    HW135543   0.125   3.129  13.176 -1.2747  0.0788  1.2856
 7970SOL    HW235544   0.093   3.260  13.098 -1.9670  0.0551 -1.0327
 7971SOL     OW35545   1.762   2.610   1.179  0.3828 -0.3474  0.2630
 7971SOL    HW135546   1.697   2.577   1.241  0.3990  0.3839  0.6795
 7971SOL    HW235547   1.732   2.567   1.099  2.1674  2.7642 -2.0906
 7972SOL     OW35548   1.691   2.301   9.477  0.1232 -0.1965 -0.7036
 7972SOL    HW135549   1.687   2.296   9.572 -1.4698  1.0553 -0.6952
 7972SOL    HW235550   1.785   2.305   9.459 -0.0760  0.5953 -1.5610
 7973SOL     OW35551   3.820   2.618   5.693  0.9236  0.0178 -0.1279
 7973SOL    HW135552   3.913   2.641   5.699  1.4123 -2.1710  0.5897
 7973SOL    HW235553   3.792   2.644   5.606 -1.6235 -0.0634  0.6736
 7974SOL     OW35554   4.703   3.898   4.190 -0.4470  0.3464  0.0683
 7974SOL    HW135555   4.624   3.891   4.243 -0.6794  0.4440 -0.2680
 7974SOL    HW235556   4.666   3.935   4.110 -1.9113  0.5669  0.8566
 7975SOL     OW35557   0.499   1.715   7.875  0.3925  0.0998  0.2024
 7975SOL    HW135558   0.437   1.655   7.833  1.3405 -1.9399  1.6688
 7975SOL    HW235559   0.501   1.781   7.806 -0.9861  1.5304  1.5421
 7976SOL     OW35560   2.587   0.394   3.368 -0.9529 -0.5896  0.1166
 7976SOL    HW135561   2.570   0.428   3.456  0.7765  0.6141 -0.0270
 7976SOL    HW235562   2.518   0.436   3.317  0.4010  1.9386  0.3775
 7977SOL     OW35563   4.494   2.670   3.533 -0.3441 -0.3424  0.8715
 7977SOL    HW135564   4.547   2.664   3.612 -0.0377  0.3707  0.7195
 7977SOL    HW235565   4.503   2.578   3.508  0.9119  0.6329 -2.2615
 7978SOL     OW35566   3.881   0.809   7.632 -0.6296  0.0697  0.4513
 7978SOL    HW135567   3.887   0.889   7.580  0.4939 -0.3229 -0.0265
 7978SOL    HW235568   3.953   0.824   7.693 -1.6295 -1.8615  2.0936
 7979SOL     OW35569   4.725   0.809   3.025  0.0665  0.5662  1.0517
 7979SOL    HW135570   4.711   0.834   2.933 -1.4814  1.0253  1.4163
 7979SOL    HW235571   4.716   0.714   3.029  1.3090  0.4244  0.6159
 7980SOL     OW35572   0.174   3.135  17.433  0.1182 -0.0472  0.1486
 7980SOL    HW135573   0.079   3.141  17.436  0.1654  1.3502 -1.3203
 7980SOL    HW235574   0.204   3.213  17.479  0.6759  0.1881 -0.6058
 7981SOL     OW35575   1.432   0.595   4.879 -0.0983  0.5285 -0.5190
 7981SOL    HW135576   1.432   0.689   4.866  0.5655  0.3668 -1.6696
 7981SOL    HW235577   1.484   0.563   4.805  0.3040  0.5761 -0.2583
 7982SOL     OW35578   0.738   1.463  14.098  0.7291  0.2703  0.0593
 7982SOL    HW135579   0.757   1.380  14.054  0.0646  0.6465 -0.9619
 7982SOL    HW235580   0.801   1.470  14.170  1.7170  1.9855 -0.9492
 7983SOL     OW35581   1.294   2.950   1.112  0.1904  0.3484 -0.4052
 7983SOL    HW135582   1.334   2.946   1.199  1.2049  0.1505 -0.8802
 7983SOL    HW235583   1.252   2.865   1.108  0.8245  0.0558 -0.7958
 7984SOL     OW35584   3.424   4.119  15.577  0.5601  0.7643 -1.1050
 7984SOL    HW135585   3.398   4.054  15.511  0.6749  0.9598 -1.3452
 7984SOL    HW235586   3.447   4.201  15.534 -0.6452  1.0595 -1.1793
 7985SOL     OW35587   4.584   3.474   9.788  0.0859  1.1130  0.0645
 7985SOL    HW135588   4.546   3.468   9.875 -2.9726 -2.3637 -1.5138
 7985SOL    HW235589   4.568   3.387   9.751 -1.7275  1.6742 -0.4717
 7986SOL     OW35590   1.777   1.063   6.663  0.3122 -0.2400  0.2478
 7986SOL    HW135591   1.796   1.032   6.751 -0.5802 -1.5402 -0.0217
 7986SOL    HW235592   1.824   1.146   6.653 -1.6081  0.9574  1.0758
 7987SOL     OW35593   4.385   3.542  15.372 -0.0512  0.1639  0.4387
 7987SOL    HW135594   4.291   3.529  15.361  0.0623 -1.6216  1.4156
 7987SOL    HW235595   4.376   3.610  15.438 -2.6706 -2.1249  2.4668
 7988SOL     OW35596   3.321   3.939   9.583 -0.1056 -0.8797 -0.2534
 7988SOL    HW135597   3.308   3.928   9.678 -0.2878 -1.7137 -0.3730
 7988SOL    HW235598   3.317   3.848   9.552  1.5334 -1.2725  0.6181
 7989SOL     OW35599   3.282   1.336  17.328 -0.1587 -0.1557 -0.3807
 7989SOL    HW135600   3.292   1.343  17.423  3.3086  0.6118 -0.7998
 7989SOL    HW235601   3.294   1.430  17.311 -0.1230  0.1039  1.0510
 7990SOL     OW35602   0.594   2.498   4.992 -0.2898  0.6396  0.0116
 7990SOL    HW135603   0.689   2.498   5.002 -0.3823  1.0238  0.8750
 7990SOL    HW235604   0.577   2.424   4.934 -1.9858  0.4451  0.7549
 7991SOL     OW35605   2.711   0.238   1.529 -0.5419 -0.7273  0.2881
 7991SOL    HW135606   2.754   0.223   1.613 -0.1422  2.1358  0.5909
 7991SOL    HW235607   2.781   0.260   1.467 -0.3923 -0.5223  0.5293
 7992SOL     OW35608   3.238   0.226  10.028  0.0100  0.6905 -0.1894
 7992SOL    HW135609   3.290   0.190   9.956 -0.9882  1.2046 -1.1683
 7992SOL    HW235610   3.254   0.320  10.017 -0.6908  0.8237 -0.0903
 7993SOL     OW35611   2.354   3.520   8.740 -0.2755 -0.0878  0.2376
 7993SOL    HW135612   2.387   3.541   8.653  0.1801  2.7936  1.1222
 7993SOL    HW235613   2.276   3.575   8.741  0.9685  1.6814 -0.9219
 7994SOL     OW35614   2.948   0.661   3.007  0.3876 -0.0948  0.5202
 7994SOL    HW135615   2.905   0.678   3.091 -1.1149  1.2091 -0.5143
 7994SOL    HW235616   2.888   0.714   2.954 -0.3063 -1.3512  0.0750
 7995SOL     OW35617   1.536   3.270   0.194  0.5577 -0.2592 -0.9426
 7995SOL    HW135618   1.531   3.181   0.159  0.2029 -0.5071 -0.2739
 7995SOL    HW235619   1.601   3.308   0.135  0.2713  1.8269  0.0854
 7996SOL     OW35620   2.468   1.328   2.708 -0.3410 -0.1755 -1.4713
 7996SOL    HW135621   2.372   1.329   2.715 -0.1980  0.1285  0.4278
 7996SOL    HW235622   2.482   1.400   2.770 -1.1808 -1.1719 -0.1219
 7997SOL     OW35623   0.483   0.666   7.000  0.0376 -0.1561  0.0683
 7997SOL    HW135624   0.541   0.590   6.999  1.2449  0.8158 -2.8617
 7997SOL    HW235625   0.503   0.715   7.079 -0.7919 -0.1499  0.2674
 7998SOL     OW35626   2.462   2.785   7.531 -0.5117 -0.0004 -0.2082
 7998SOL    HW135627   2.376   2.808   7.567 -1.2403  0.6648 -2.3978
 7998SOL    HW235628   2.467   2.700   7.573 -2.2492  0.2532  0.4983
 7999SOL     OW35629   3.934   3.672   2.710 -0.4917  0.2871  0.4144
 7999SOL    HW135630   4.026   3.695   2.718 -0.1841 -0.5875 -0.7423
 7999SOL    HW235631   3.899   3.743   2.655 -1.9855  0.9558  2.2189
 8000SOL     OW35632   3.113   0.603  13.984  0.6784  0.1593 -0.5012
 8000SOL    HW135633   3.139   0.673  13.925 -0.1315  1.4040  0.6215
 8000SOL    HW235634   3.114   0.531  13.921  0.6120  1.5305 -2.0433
 8001SOL     OW35635   4.617   1.341   9.421 -0.6715 -0.3293  0.8165
 8001SOL    HW135636   4.674   1.390   9.362 -1.5235  0.5358  0.6992
 8001SOL    HW235637   4.584   1.419   9.467 -1.6110 -0.1028 -0.2496
 8002SOL     OW35638   0.274   2.389   5.593 -0.4504  0.3699  0.1381
 8002SOL    HW135639   0.266   2.482   5.614  1.1576  0.9146 -1.6035
 8002SOL    HW235640   0.269   2.384   5.498 -2.2776  2.0653  0.1674
 8003SOL     OW35641   0.657   0.793   5.089  0.4000  0.5991 -0.2012
 8003SOL    HW135642   0.657   0.705   5.052  1.1536  0.5194 -0.0045
 8003SOL    HW235643   0.638   0.840   5.007 -0.0225 -1.5156 -1.3278
 8004SOL     OW35644   2.089   2.731   7.429 -0.1047 -0.7624 -0.2016
 8004SOL    HW135645   2.130   2.799   7.376 -0.2440 -1.3461 -1.0532
 8004SOL    HW235646   2.116   2.762   7.516  1.0633 -0.8165 -0.5460
 8005SOL     OW35647   4.300   0.727   3.467  0.5783 -0.1914 -0.6537
 8005SOL    HW135648   4.242   0.752   3.395 -0.2466 -3.3706 -1.1009
 8005SOL    HW235649   4.369   0.676   3.424 -0.2660 -0.7769 -1.3356
 8006SOL     OW35650   2.808   0.824   2.135 -0.6060  0.4161  0.0405
 8006SOL    HW135651   2.899   0.807   2.113 -1.6611 -2.6260 -1.9028
 8006SOL    HW235652   2.771   0.791   2.053  0.9291 -3.1843  0.8008
 8007SOL     OW35653   0.386   3.400   2.519  1.5590  0.5115  0.0837
 8007SOL    HW135654   0.351   3.360   2.598  0.6215  1.6468  0.2408
 8007SOL    HW235655   0.469   3.352   2.518  2.6022  2.3790 -2.5249
 8008SOL     OW35656   3.288   3.486   0.599  0.0072 -0.0353  0.0478
 8008SOL    HW135657   3.199   3.455   0.583 -0.6077  2.0645 -0.6445
 8008SOL    HW235658   3.315   3.519   0.514 -1.2674 -1.9915 -1.1233
 8009SOL     OW35659   0.755   1.863   8.675 -0.3971  0.7274 -0.5607
 8009SOL    HW135660   0.690   1.795   8.660  0.1534 -0.3030  1.7356
 8009SOL    HW235661   0.695   1.927   8.714  1.2976  3.8125 -2.9992
 8010SOL     OW35662   3.550   1.584   2.433  0.0311  0.5241  0.2502
 8010SOL    HW135663   3.484   1.565   2.499  0.5036 -1.6765  0.0908
 8010SOL    HW235664   3.618   1.614   2.493  1.5658  1.7322 -2.0865
 8011SOL     OW35665   2.728   3.797   1.715  0.2654 -0.6244 -0.3233
 8011SOL    HW135666   2.819   3.786   1.746  0.2531 -0.2433 -0.1502
 8011SOL    HW235667   2.707   3.705   1.729  2.8400 -0.9934  1.1130
 8012SOL     OW35668   0.794   4.294   5.750 -0.1959 -0.6413  0.1463
 8012SOL    HW135669   0.763   4.315   5.838 -1.6759 -3.7070  0.3458
 8012SOL    HW235670   0.746   4.213   5.730  1.6775 -2.1968  1.9782
 8013SOL     OW35671   3.757   2.129   9.704  0.3089 -0.1544 -0.1472
 8013SOL    HW135672   3.751   2.158   9.795 -0.1770  1.8200 -0.8178
 8013SOL    HW235673   3.802   2.045   9.713 -1.6190 -1.1507  0.1946
 8014SOL     OW35674   2.234   3.756  10.406  0.2642  0.3923 -0.2725
 8014SOL    HW135675   2.199   3.843  10.423  1.0827  0.7036 -0.1734
 8014SOL    HW235676   2.313   3.776  10.356 -0.5550 -1.3817 -2.2919
 8015SOL     OW35677   0.119   1.876   1.475 -0.2228 -0.2834 -0.3856
 8015SOL    HW135678   0.122   1.781   1.468 -2.3588 -0.3234 -0.7526
 8015SOL    HW235679   0.131   1.884   1.569 -0.6338 -0.7474 -0.2938
 8016SOL     OW35680   4.710   3.781   1.549 -0.6062  0.1750  0.2440
 8016SOL    HW135681   0.032   3.797   1.621 -1.6928 -0.1772  1.2425
 8016SOL    HW235682   4.654   3.715   1.591  1.8157 -2.4644 -0.7088
 8017SOL     OW35683   2.681   0.271   0.904  0.6142  0.2110  0.4216
 8017SOL    HW135684   2.715   0.193   0.861  0.2288  0.8483 -1.0575
 8017SOL    HW235685   2.601   0.278   0.851  0.7289 -0.6848  0.1416
 8018SOL     OW35686   3.745   1.172   9.764 -0.0065  0.4934 -0.1461
 8018SOL    HW135687   3.726   1.102   9.702  0.7196 -1.1204  1.4428
 8018SOL    HW235688   3.804   1.224   9.709  0.8154 -0.0516  0.2081
 8019SOL     OW35689   0.765   3.920   3.150  0.6889 -0.3476 -0.1938
 8019SOL    HW135690   0.784   4.014   3.149  2.9576 -0.8134  0.1198
 8019SOL    HW235691   0.765   3.903   3.244  2.5163  1.9630  0.2278
 8020SOL     OW35692   1.648   0.216   3.461  0.0962  0.2397  0.2886
 8020SOL    HW135693   1.657   0.162   3.540  1.4069  1.1016  0.7316
 8020SOL    HW235694   1.738   0.249   3.463 -0.3925  1.5935  0.3144
 8021SOL     OW35695   0.040   4.621   6.533 -0.7690 -0.2595  0.6880
 8021SOL    HW135696   4.731   4.542   6.506  0.0906 -0.1362 -1.1413
 8021SOL    HW235697   0.043   4.665   6.448 -1.3438  1.5872  1.6285
 8022SOL     OW35698   1.031   4.644   1.873  0.5226  0.2932 -0.1485
 8022SOL    HW135699   1.073   4.564   1.904  0.4540  0.4968  0.4686
 8022SOL    HW235700   0.980   4.616   1.797 -0.9677  1.3600  0.4569
 8023SOL     OW35701   3.990   3.629   6.011  0.0393  0.1968  0.3849
 8023SOL    HW135702   4.047   3.662   6.081  0.4382  0.4819 -0.0789
 8023SOL    HW235703   3.939   3.568   6.065  0.4431 -1.8038 -1.4856
 8024SOL     OW35704   3.521   1.620  17.107  0.5681 -0.6545  0.1374
 8024SOL    HW135705   3.496   1.625  17.199 -1.5282  0.2872 -0.4589
 8024SOL    HW235706   3.577   1.697  17.095 -2.4617  1.8054  1.5986
 8025SOL     OW35707   2.853   4.220   8.407 -0.6237 -0.0790  0.3170
 8025SOL    HW135708   2.771   4.205   8.454 -1.3733  0.9104 -0.6706
 8025SOL    HW235709   2.865   4.315   8.414  1.2529 -0.2751 -0.2315
 8026SOL     OW35710   3.228   1.336  16.520 -0.5224 -0.1404 -0.4591
 8026SOL    HW135711   3.291   1.282  16.474 -0.1424  1.0088 -1.2863
 8026SOL    HW235712   3.211   1.283  16.598 -2.4207  1.9456  0.5791
 8027SOL     OW35713   3.393   1.199   1.934 -0.6073  0.0627  0.1779
 8027SOL    HW135714   3.325   1.132   1.923 -0.5077  0.2924 -1.7027
 8027SOL    HW235715   3.478   1.160   1.955 -1.6030 -1.9105  0.6418
 8028SOL     OW35716   3.336   4.200  16.365  0.3171 -0.9483  0.4013
 8028SOL    HW135717   3.333   4.106  16.348 -1.9857 -0.8391  0.2009
 8028SOL    HW235718   3.327   4.202  16.460  0.8118  0.2016  0.4209
 8029SOL     OW35719   4.022   4.451   2.149  0.6056 -0.2047  0.6186
 8029SOL    HW135720   3.946   4.463   2.093  0.1898  1.2687  1.5204
 8029SOL    HW235721   4.021   4.357   2.167 -0.0004 -0.7050 -2.1451
 8030SOL     OW35722   1.654   4.662   4.151 -0.8541 -0.2767  0.2123
 8030SOL    HW135723   1.747   4.685   4.147 -0.7317 -0.6177  0.9606
 8030SOL    HW235724   1.642   4.603   4.077  1.9583 -1.3917  0.6256
 8031SOL     OW35725   4.482   2.423   0.978  0.5491 -0.1975  0.0828
 8031SOL    HW135726   4.482   2.518   0.992  0.2790 -0.2063  0.1331
 8031SOL    HW235727   4.412   2.412   0.915  1.4568 -2.1435 -0.5769
 8032SOL     OW35728   1.290   0.284   9.092  0.0168  0.0991  0.0575
 8032SOL    HW135729   1.304   0.343   9.166 -3.2165  0.2852  0.5217
 8032SOL    HW235730   1.218   0.228   9.121 -0.1454 -0.9173 -2.3054
 8033SOL     OW35731   2.216   1.559   1.269  0.2961  0.2377  0.0187
 8033SOL    HW135732   2.268   1.541   1.347 -1.7406 -0.2451  1.2681
 8033SOL    HW235733   2.155   1.486   1.277 -0.3124  0.8382  0.8163
 8034SOL     OW35734   1.201   4.157   4.327  0.2129  0.5785  0.8947
 8034SOL    HW135735   1.115   4.124   4.353  0.9674 -1.2311  1.1371
 8034SOL    HW235736   1.247   4.080   4.291 -0.8236  1.3159 -2.0042
 8035SOL     OW35737   2.525   0.931   7.827 -0.1710 -0.1899  0.0244
 8035SOL    HW135738   2.490   0.847   7.798  1.5352 -0.2956 -1.7278
 8035SOL    HW235739   2.446   0.980   7.806 -0.8534 -1.3827 -0.1712
 8036SOL     OW35740   1.455   0.012   3.728  0.4929 -0.0684  0.2766
 8036SOL    HW135741   1.376   4.700   3.712  1.0526 -0.5776 -0.8461
 8036SOL    HW235742   1.430   0.051   3.812  1.0645  1.3420 -0.2110
 8037SOL     OW35743   3.542   1.499   4.657  0.5557 -0.1606 -0.1443
 8037SOL    HW135744   3.618   1.490   4.716  0.4027 -0.6444 -0.0173
 8037SOL    HW235745   3.534   1.593   4.645 -0.3219 -0.6703 -3.5795
 8038SOL     OW35746   0.584   1.414  10.439  0.5577  0.2899 -0.3594
 8038SOL    HW135747   0.556   1.410  10.530 -0.0266 -0.6590 -0.5747
 8038SOL    HW235748   0.633   1.496  10.440  3.1945 -1.2770 -0.2657
 8039SOL     OW35749   3.772   3.291   0.272  0.1177  0.3143  0.5305
 8039SOL    HW135750   3.828   3.353   0.226 -0.2673  0.8291  0.7477
 8039SOL    HW235751   3.829   3.215   0.273 -0.2382  0.0428 -0.0228
 8040SOL     OW35752   3.054   2.977  13.496 -0.1027 -0.5987 -0.1425
 8040SOL    HW135753   2.994   2.990  13.570  0.7044 -0.5565  0.5063
 8040SOL    HW235754   3.045   2.882  13.492  0.3053 -0.7137  1.3878
 8041SOL     OW35755   2.080   1.210   0.334 -0.5630 -0.4787  0.3398
 8041SOL    HW135756   2.018   1.282   0.329 -0.6386 -0.8087 -3.5251
 8041SOL    HW235757   2.078   1.162   0.252  0.7863  0.1649 -0.0665
 8042SOL     OW35758   3.554   1.038   3.191  0.2345 -0.4213  0.5415
 8042SOL    HW135759   3.598   1.121   3.173  1.7554 -1.1346  0.9676
 8042SOL    HW235760   3.553   0.996   3.105 -2.6866 -0.6773  0.7160
 8043SOL     OW35761   3.973   1.604   8.686  0.3198  0.2161 -0.0530
 8043SOL    HW135762   3.915   1.566   8.752 -1.6677 -0.2969 -2.1121
 8043SOL    HW235763   4.015   1.527   8.647 -1.3626 -1.1598  0.8548
 8044SOL     OW35764   2.993   2.721  13.599  0.8464  0.2276 -0.2616
 8044SOL    HW135765   2.942   2.647  13.566  2.2131  0.0194 -1.9172
 8044SOL    HW235766   3.071   2.671  13.623 -0.1467 -1.9078 -1.4546
 8045SOL     OW35767   0.188   2.722   3.652  0.1405 -0.2275  0.1083
 8045SOL    HW135768   0.093   2.719   3.667 -0.0953 -2.0228 -1.6651
 8045SOL    HW235769   0.215   2.649   3.707  1.5097  0.8382  0.8427
 8046SOL     OW35770   3.342   0.161   3.054 -0.5345 -0.0173  0.2819
 8046SOL    HW135771   3.326   0.081   3.004 -0.4895  0.4385 -0.4606
 8046SOL    HW235772   3.391   0.201   2.982  0.4421 -0.5398  0.6558
 8047SOL     OW35773   3.696   0.462   1.865 -0.1888 -0.6395  0.3034
 8047SOL    HW135774   3.723   0.421   1.947  0.2801  1.4538  1.1836
 8047SOL    HW235775   3.602   0.447   1.874 -0.0224 -0.8619  1.5471
 8048SOL     OW35776   2.888   0.053   9.313 -0.4921  0.2789  0.0294
 8048SOL    HW135777   2.887   4.738   9.233 -0.0306  2.2474 -1.2918
 8048SOL    HW235778   2.973   0.097   9.312  0.0703 -0.8284 -1.1557
 8049SOL     OW35779   3.353   2.996   2.111  0.7296  0.1657  0.0323
 8049SOL    HW135780   3.333   2.917   2.161  2.0685 -0.1083  0.1389
 8049SOL    HW235781   3.448   2.988   2.100  0.1608 -3.0708 -2.1232
 8050SOL     OW35782   1.871   1.039  16.746 -0.3222 -0.1164 -0.4389
 8050SOL    HW135783   1.873   1.093  16.668 -1.4477 -1.3740 -1.3447
 8050SOL    HW235784   1.887   0.955  16.702 -0.0589 -1.4499  2.1646
 8051SOL     OW35785   3.473   2.087   5.284 -0.1611  0.2182  0.5119
 8051SOL    HW135786   3.458   2.085   5.189  0.3503  1.7653  0.3951
 8051SOL    HW235787   3.486   2.181   5.294  0.1430  0.2230  0.0825
 8052SOL     OW35788   4.182   0.224  13.651  0.1341  0.0442  0.2001
 8052SOL    HW135789   4.190   0.205  13.745 -0.9267 -2.9283 -0.2881
 8052SOL    HW235790   4.202   0.138  13.614  1.9075  1.1679 -1.4438
 8053SOL     OW35791   2.639   3.254  17.393 -0.4425 -0.0141  0.4399
 8053SOL    HW135792   2.611   3.316  17.325  0.1416 -0.0043  0.2088
 8053SOL    HW235793   2.662   3.175  17.345 -0.6993 -0.2601  0.7239
 8054SOL     OW35794   1.898   4.260   5.582 -0.0728  0.4339  0.3770
 8054SOL    HW135795   1.934   4.317   5.650  2.0302 -0.7883  0.3044
 8054SOL    HW235796   1.855   4.189   5.630 -2.5349  1.4302 -0.3680
 8055SOL     OW35797   2.928   0.057  10.395 -0.4916  0.7784  0.5502
 8055SOL    HW135798   2.904   0.118  10.465  0.9184  0.5037  1.2802
 8055SOL    HW235799   3.007   0.101  10.363  0.0013 -0.9948 -0.6923
 8056SOL     OW35800   2.656   0.246   7.692  0.5833  1.1490 -1.4094
 8056SOL    HW135801   2.642   0.192   7.769 -0.6205  2.5650 -0.6272
 8056SOL    HW235802   2.634   0.332   7.728 -0.9926  0.1958 -0.1176
 8057SOL     OW35803   2.408   0.464   8.875 -0.3229  0.7618 -0.6938
 8057SOL    HW135804   2.457   0.411   8.812 -0.1270  0.5579 -0.3779
 8057SOL    HW235805   2.368   0.524   8.813  0.3938  0.0838 -1.8279
 8058SOL     OW35806   0.047   0.053   7.339  0.0214  0.5220  0.3571
 8058SOL    HW135807   4.693   0.046   7.360 -0.2543  2.7295 -0.1405
 8058SOL    HW235808   0.087   0.073   7.424  0.6073  2.4391 -0.3705
 8059SOL     OW35809   0.373   2.658   7.436  0.6905  0.3426 -0.5403
 8059SOL    HW135810   0.443   2.642   7.372 -0.3937 -1.6669 -1.2230
 8059SOL    HW235811   0.354   2.748   7.407 -0.7522  0.6757  1.4445
 8060SOL     OW35812   2.426   1.764  11.337 -0.0886 -0.1155 -0.2292
 8060SOL    HW135813   2.338   1.790  11.364  0.0672 -0.8588  1.0169
 8060SOL    HW235814   2.435   1.675  11.371  0.9011 -0.3546 -1.1065
 8061SOL     OW35815   1.599   0.328   9.237  0.2137  1.1799  0.0296
 8061SOL    HW135816   1.521   0.384   9.244 -0.7577 -0.1996  0.1065
 8061SOL    HW235817   1.674   0.383   9.259  1.5471 -0.8162  0.4596
 8062SOL     OW35818   3.241   4.186   7.825 -0.6010  0.9956  0.4214
 8062SOL    HW135819   3.311   4.204   7.763 -0.0671  0.5610  0.8975
 8062SOL    HW235820   3.211   4.271   7.855  0.8881  1.8635 -0.5802
 8063SOL     OW35821   1.013   1.116  13.298 -0.1981  0.0768 -0.0255
 8063SOL    HW135822   1.017   1.207  13.329  0.1186 -0.4848  1.5644
 8063SOL    HW235823   1.038   1.073  13.379  2.7798 -3.1140 -2.6421
 8064SOL     OW35824   0.049   0.096   6.937  0.4263  0.7478  0.4165
 8064SOL    HW135825   0.046   0.100   6.841 -0.4699  0.7788  0.4429
 8064SOL    HW235826   4.695   0.083   6.957  0.3864 -0.0284 -0.2361
 8065SOL     OW35827   3.781   4.572   1.417  0.2368  0.3825  1.0514
 8065SOL    HW135828   3.694   4.571   1.455 -0.8981 -1.1597 -1.5823
 8065SOL    HW235829   3.800   4.665   1.425  0.8318  0.5898 -2.6554
 8066SOL     OW35830   0.804   1.949   5.098  0.3814 -0.0948 -0.7360
 8066SOL    HW135831   0.891   1.911   5.085  0.2447 -0.5452 -0.3510
 8066SOL    HW235832   0.763   1.907   5.023  1.0042 -0.7199 -0.7307
 8067SOL     OW35833   2.301   1.057   2.332 -0.1303  0.3544  0.0102
 8067SOL    HW135834   2.345   0.991   2.278  0.4136 -0.8375  1.9320
 8067SOL    HW235835   2.233   0.998   2.365  1.9847 -1.4845  1.0367
 8068SOL     OW35836   2.300   4.220   3.111 -0.1741  0.4027 -0.0252
 8068SOL    HW135837   2.205   4.230   3.098 -0.2694  0.1210  0.4551
 8068SOL    HW235838   2.300   4.143   3.168 -1.8501 -0.3431 -1.0182
 8069SOL     OW35839   4.716   3.344   7.597  0.7321  0.2940 -0.4126
 8069SOL    HW135840   4.677   3.432   7.591  0.1904  0.0083 -1.0989
 8069SOL    HW235841   4.700   3.300   7.513  0.7020  0.3388 -0.4304
 8070SOL     OW35842   3.448   2.881   6.816 -0.0399  0.2419 -0.9156
 8070SOL    HW135843   3.487   2.968   6.811 -1.2416  0.7739 -1.0745
 8070SOL    HW235844   3.515   2.822   6.850  0.0031  0.1999 -1.0752
 8071SOL     OW35845   0.336   1.915   6.379  0.0140 -0.0356 -0.4338
 8071SOL    HW135846   0.407   1.976   6.360  1.0744 -0.6970  1.4362
 8071SOL    HW235847   0.348   1.926   6.473 -2.6396  0.2010 -0.1167
 8072SOL     OW35848   2.512   3.267   5.896  0.5484  0.7885  0.4553
 8072SOL    HW135849   2.496   3.200   5.829 -1.5609  0.6996  1.0330
 8072SOL    HW235850   2.437   3.247   5.952  0.2500 -1.7002 -0.7959
 8073SOL     OW35851   0.576   3.347   3.539 -0.0409 -0.1530 -0.3670
 8073SOL    HW135852   0.508   3.283   3.560  1.3945 -1.9038 -0.9954
 8073SOL    HW235853   0.536   3.384   3.460  2.5976 -0.5400 -1.8778
 8074SOL     OW35854   4.448   1.413   7.043 -0.0786  0.4707  0.4584
 8074SOL    HW135855   4.476   1.441   7.130 -0.9282  1.6870  0.3308
 8074SOL    HW235856   4.502   1.334   7.032  0.7104  1.3549 -1.8793
 8075SOL     OW35857   0.326   1.187   9.030 -0.2196  0.2951 -0.2298
 8075SOL    HW135858   0.305   1.268   8.983 -1.0161 -1.0179 -2.1255
 8075SOL    HW235859   0.242   1.140   9.029 -0.8747  1.4196  1.4771
 8076SOL     OW35860   1.820   1.084   5.766  0.1542  0.1563 -0.4760
 8076SOL    HW135861   1.788   1.158   5.713 -0.7064  0.4799  0.4901
 8076SOL    HW235862   1.904   1.075   5.722  1.8063 -0.0305  2.7627
 8077SOL     OW35863   0.914   0.883  10.282  0.4840  0.3455 -0.2008
 8077SOL    HW135864   0.975   0.952  10.255  0.0732  1.0773  0.7815
 8077SOL    HW235865   0.892   0.839  10.200 -2.3770 -2.1523  1.9136
 8078SOL     OW35866   3.735   3.169   7.557  0.1258  0.3171  0.2136
 8078SOL    HW135867   3.709   3.259   7.579 -0.8043  0.1239 -0.1137
 8078SOL    HW235868   3.729   3.114   7.635 -0.0378 -0.1320 -0.1189
 8079SOL     OW35869   1.009   2.713   6.971  0.5815  0.2651 -0.0671
 8079SOL    HW135870   1.104   2.709   6.977  0.4515 -1.3058  1.0309
 8079SOL    HW235871   0.991   2.800   6.937 -2.4980 -0.8653 -1.4012
 8080SOL     OW35872   0.302   4.413  14.249  0.4326  0.2175 -0.4997
 8080SOL    HW135873   0.216   4.448  14.225  0.0219 -2.3191 -2.7181
 8080SOL    HW235874   0.286   4.319  14.253  1.1387  0.0948 -0.6015
 8081SOL     OW35875   2.790   1.229  15.829 -0.0715 -0.6446  0.5246
 8081SOL    HW135876   2.732   1.209  15.902 -0.5442 -2.0103 -0.2367
 8081SOL    HW235877   2.769   1.320  15.808  1.7691 -0.2235  0.4583
 8082SOL     OW35878   3.020   2.754   5.690  0.5733 -0.3514 -0.5092
 8082SOL    HW135879   2.933   2.788   5.673  0.0022 -0.8722  1.3367
 8082SOL    HW235880   3.049   2.778   5.603 -1.3512  0.4654 -0.9117
 8083SOL     OW35881   4.033   0.726   0.227 -0.1104  0.4712  0.7741
 8083SOL    HW135882   4.106   0.710   0.287 -0.3600 -0.9752  0.7059
 8083SOL    HW235883   3.993   0.799   0.273  0.0530  0.3447  1.1179
 8084SOL     OW35884   4.551   2.471   3.348 -0.0513  0.3582  0.0004
 8084SOL    HW135885   4.467   2.429   3.330  0.5210 -0.6379 -0.3277
 8084SOL    HW235886   4.597   2.454   3.266 -0.3209  0.5129 -0.1842
 8085SOL     OW35887   4.285   2.466  11.509 -0.0270 -0.5219 -0.3700
 8085SOL    HW135888   4.295   2.465  11.604 -0.7377 -3.7276 -0.3354
 8085SOL    HW235889   4.335   2.546  11.491  1.4161 -1.4698 -0.5706
 8086SOL     OW35890   4.464   3.366   3.767  0.4938  0.1134 -0.6255
 8086SOL    HW135891   4.556   3.380   3.792  0.3681  0.3039 -0.2764
 8086SOL    HW235892   4.444   3.283   3.811 -0.3906  0.5709 -0.1722
 8087SOL     OW35893   3.657   0.660  16.835 -0.1614  0.0806 -0.1151
 8087SOL    HW135894   3.625   0.575  16.806 -1.2761  0.4862 -0.0801
 8087SOL    HW235895   3.589   0.727  16.822  0.4024  0.3798 -1.5404
 8088SOL     OW35896   0.336   4.571  15.006  0.1317  0.2987 -0.0017
 8088SOL    HW135897   0.258   4.532  15.043  0.4817  0.9669  1.4533
 8088SOL    HW235898   0.305   4.661  14.997 -1.5811 -0.3650 -0.6377
 8089SOL     OW35899   0.562   0.202   5.749  0.1334 -0.2588 -0.3563
 8089SOL    HW135900   0.644   0.158   5.729 -0.0073 -0.0439 -1.4249
 8089SOL    HW235901   0.505   0.125   5.750  0.5606 -0.5348  2.1680
 8090SOL     OW35902   0.664   2.990   2.874 -0.0312 -0.1152  0.2388
 8090SOL    HW135903   0.750   3.032   2.884  0.7564 -2.1084  1.6513
 8090SOL    HW235904   0.641   2.966   2.963 -0.6986  0.2680  0.1702
 8091SOL     OW35905   4.156   1.840  15.003  0.1641 -0.3896 -0.0782
 8091SOL    HW135906   4.144   1.879  14.916 -1.1262 -0.6419 -0.0164
 8091SOL    HW235907   4.133   1.920  15.050 -0.5961 -0.7835  0.2264
 8092SOL     OW35908   4.203   0.189   5.219  0.3779 -0.1561  0.3430
 8092SOL    HW135909   4.231   0.244   5.146  2.2809  0.3840  1.5015
 8092SOL    HW235910   4.217   0.101   5.184 -1.5874 -1.2514  2.2405
 8093SOL     OW35911   2.737   1.482   5.144 -0.1040 -0.1235 -0.3550
 8093SOL    HW135912   2.821   1.441   5.167 -0.4067 -0.2216  0.5843
 8093SOL    HW235913   2.724   1.436   5.061 -0.5459  2.3187 -1.6053
 8094SOL     OW35914   3.516   3.623   3.973  0.1493 -0.0611  0.6677
 8094SOL    HW135915   3.594   3.653   4.019 -0.5977  2.2708  0.4244
 8094SOL    HW235916   3.467   3.704   3.990 -0.7790 -0.8579  1.7335
 8095SOL     OW35917   4.199   0.577   1.955  0.2167 -0.4080 -0.1810
 8095SOL    HW135918   4.247   0.657   1.977  0.1354 -1.1940  2.9451
 8095SOL    HW235919   4.232   0.543   1.872  0.1325 -0.9438  0.0016
 8096SOL     OW35920   2.477   2.056   4.779  0.2179  0.2951  0.4534
 8096SOL    HW135921   2.450   2.015   4.861  1.8551  1.1036  1.3839
 8096SOL    HW235922   2.570   2.035   4.778  0.6467  2.2279  0.0424
 8097SOL     OW35923   0.078   2.581   7.426  0.1317 -0.2564 -0.1437
 8097SOL    HW135924   0.171   2.565   7.443  0.0112  1.5591  2.1174
 8097SOL    HW235925   0.075   2.585   7.330 -1.2170 -0.3102 -0.1013
 8098SOL     OW35926   2.097   1.101   6.490 -0.0506  1.1210 -0.5471
 8098SOL    HW135927   2.062   1.047   6.419 -0.2877 -0.7845  1.0321
 8098SOL    HW235928   2.119   1.181   6.442 -4.2113  1.5172 -1.8166
 8099SOL     OW35929   1.613   0.566  12.111  0.0659  0.1234 -0.0483
 8099SOL    HW135930   1.587   0.546  12.201  1.0371 -0.1826  0.1638
 8099SOL    HW235931   1.589   0.484  12.067  0.1427  0.4663 -0.7282
 8100SOL     OW35932   4.156   3.497   3.051 -0.1708 -0.2881  0.4320
 8100SOL    HW135933   4.135   3.458   2.966 -2.5327  1.3435  0.2702
 8100SOL    HW235934   4.222   3.563   3.029 -0.5201 -0.3908 -0.9761
 8101SOL     OW35935   3.470   0.026   2.341  0.3966 -0.1417  0.0477
 8101SOL    HW135936   3.441   0.115   2.363  0.4921 -0.1799  0.3326
 8101SOL    HW235937   3.409   4.713   2.394  1.1965 -0.7078  0.4075
 8102SOL     OW35938   1.691   4.560  13.583 -0.5099 -0.1687 -0.0099
 8102SOL    HW135939   1.705   4.489  13.646  0.4410  0.1626  0.1636
 8102SOL    HW235940   1.644   4.512  13.514  1.0415 -0.5191 -0.8307
 8103SOL     OW35941   0.871   4.717   8.109  0.0260 -0.1511  0.4684
 8103SOL    HW135942   0.864   4.635   8.060 -0.4372  0.5979 -0.7321
 8103SOL    HW235943   0.929   4.687   8.178  1.8275  1.7113 -0.2341
 8104SOL     OW35944   2.948   1.817   1.590 -0.1675 -0.2727  0.2569
 8104SOL    HW135945   2.886   1.747   1.610 -2.4476  1.6047 -0.2738
 8104SOL    HW235946   2.933   1.866   1.670  1.4685  1.5113 -0.5297
 8105SOL     OW35947   0.497   3.366   5.611 -0.0957 -0.0414  0.3573
 8105SOL    HW135948   0.422   3.397   5.662  1.4387 -1.5886  3.5005
 8105SOL    HW235949   0.570   3.384   5.670 -2.2596 -0.8302  3.2775
 8106SOL     OW35950   0.199   3.981  15.802  0.1333 -0.3412 -0.3891
 8106SOL    HW135951   0.289   3.992  15.772  0.0264  2.1375  0.1784
 8106SOL    HW235952   0.146   3.977  15.722 -1.0514 -1.6368  0.4664
 8107SOL     OW35953   0.009   2.945   1.926 -0.4774 -0.3893  0.0911
 8107SOL    HW135954   4.696   2.865   1.928 -1.0775  0.0168  0.3445
 8107SOL    HW235955   0.083   2.914   1.979 -1.9789 -0.2953  2.2074
 8108SOL     OW35956   1.879   2.407   2.590 -0.1564 -0.0401  0.1392
 8108SOL    HW135957   1.909   2.468   2.657 -1.0916 -0.5243  0.9941
 8108SOL    HW235958   1.958   2.354   2.597 -1.0855 -1.5246 -0.5418
 8109SOL     OW35959   1.244   3.916  13.477 -0.3488 -0.0241  0.6974
 8109SOL    HW135960   1.256   3.970  13.399 -0.7411  0.3040  0.8659
 8109SOL    HW235961   1.259   3.987  13.539 -2.4298  0.3474  0.7663
 8110SOL     OW35962   4.438   4.478   6.399 -0.6910 -0.2476 -0.2074
 8110SOL    HW135963   4.413   4.499   6.308  0.9820 -0.3513 -0.6826
 8110SOL    HW235964   4.528   4.447   6.388 -0.2732  0.8586  0.0557
 8111SOL     OW35965   2.810   0.382   2.939  0.1026  0.1141  1.2302
 8111SOL    HW135966   2.843   0.466   2.972  1.7546 -0.0466  0.0029
 8111SOL    HW235967   2.892   0.340   2.914 -1.2311 -1.6897 -0.1355
 8112SOL     OW35968   3.863   1.509   8.397  0.4459 -0.2444  0.0478
 8112SOL    HW135969   3.928   1.528   8.330 -0.6239  1.1739 -0.5923
 8112SOL    HW235970   3.922   1.481   8.467  0.6743  2.0458  0.7735
 8113SOL     OW35971   0.126   4.272   7.908 -0.2511 -0.1309  0.2651
 8113SOL    HW135972   0.200   4.332   7.913  0.0635 -0.7099  2.5229
 8113SOL    HW235973   0.126   4.226   7.992  1.8719 -1.4399 -0.4334
 8114SOL     OW35974   2.822   3.907   1.395 -0.0762 -0.1191  0.3839
 8114SOL    HW135975   2.872   3.827   1.405 -0.0459  0.1337  2.1748
 8114SOL    HW235976   2.890   3.949   1.342 -1.7060  0.8937 -0.9238
 8115SOL     OW35977   3.859   1.404   6.393 -0.4151  0.9522 -0.1985
 8115SOL    HW135978   3.934   1.454   6.425  0.9639 -2.5884  2.1145
 8115SOL    HW235979   3.859   1.322   6.442  0.2867  0.1520 -1.5548
 8116SOL     OW35980   3.445   1.082   2.213  0.2135 -0.3757 -0.3507
 8116SOL    HW135981   3.447   1.047   2.302  2.2411  0.8160  0.0817
 8116SOL    HW235982   3.524   1.137   2.210 -0.8187  1.1090 -0.0974
 8117SOL     OW35983   2.942   1.301   6.601 -0.0263  0.0165 -0.0124
 8117SOL    HW135984   2.930   1.207   6.590  2.8515 -0.4454  0.7450
 8117SOL    HW235985   3.027   1.302   6.645  0.4133  1.1629 -0.9063
 8118SOL     OW35986   1.850   2.003  17.256  0.2497 -0.3836  0.0288
 8118SOL    HW135987   1.916   2.021  17.189 -0.6801  0.8070 -0.5625
 8118SOL    HW235988   1.768   2.031  17.215 -0.1832  2.1379  2.6443
 8119SOL     OW35989   1.757   1.538   7.558  0.3750 -0.0627 -0.3280
 8119SOL    HW135990   1.739   1.564   7.648 -1.0262  0.0406 -0.6371
 8119SOL    HW235991   1.848   1.567   7.550  0.4924 -0.5078 -0.6343
 8120SOL     OW35992   3.271   4.130  16.868  0.0263  0.4375 -0.3899
 8120SOL    HW135993   3.304   4.206  16.915 -3.3559  1.3920  0.4589
 8120SOL    HW235994   3.225   4.081  16.937  1.1074  0.1428  0.1108
 8121SOL     OW35995   2.575   3.729   4.079 -0.8351 -0.0386 -0.4841
 8121SOL    HW135996   2.668   3.706   4.084 -0.9456 -0.8163 -1.7719
 8121SOL    HW235997   2.558   3.685   3.995 -1.0009 -2.4806  0.8382
 8122SOL     OW35998   3.034   1.232  10.618 -0.2033  0.4129 -0.1543
 8122SOL    HW135999   2.938   1.237  10.614 -0.0942  3.5250  0.9444
 8122SOL    HW236000   3.051   1.285  10.696  0.4261 -1.2597  0.8587
 8123SOL     OW36001   0.944   1.460   6.902 -0.5676 -0.0665 -0.2670
 8123SOL    HW136002   0.946   1.403   6.978 -0.3158  0.6146  0.2351
 8123SOL    HW236003   0.876   1.419   6.849  0.3315 -0.8650 -0.8093
 8124SOL     OW36004   0.987   4.183   3.347 -0.3691 -0.1030 -0.5162
 8124SOL    HW136005   1.054   4.156   3.410 -0.6816  1.9191  0.7048
 8124SOL    HW236006   0.941   4.255   3.391  1.3011  0.4484  0.3545
 8125SOL     OW36007   0.898   2.403   7.733  0.2079 -0.7055  0.1406
 8125SOL    HW136008   0.962   2.455   7.683  1.7340 -1.7661  0.9971
 8125SOL    HW236009   0.846   2.373   7.658 -1.2802 -1.0379  1.3035
 8126SOL     OW36010   4.218   1.979   8.522  0.5081  0.2805  0.2727
 8126SOL    HW136011   4.150   1.925   8.562  0.5229  0.2653  0.2773
 8126SOL    HW236012   4.172   2.015   8.446 -0.8474  0.5920  1.2398
 8127SOL     OW36013   2.920   4.037   3.267  0.5559  0.1658  0.5511
 8127SOL    HW136014   2.943   3.945   3.256  0.4624  0.1975  0.0834
 8127SOL    HW236015   2.929   4.062   3.175  0.5384 -0.5374  0.3633
 8128SOL     OW36016   3.806   4.113   7.707  0.1950  0.0812 -0.2606
 8128SOL    HW136017   3.734   4.083   7.761 -0.3618  1.0351 -0.4606
 8128SOL    HW236018   3.793   4.203   7.675  1.8119  0.2763 -0.3713
 8129SOL     OW36019   0.557   1.730   4.684 -0.1117  0.2226 -0.7696
 8129SOL    HW136020   0.599   1.755   4.766 -1.1140 -1.0577  0.1432
 8129SOL    HW236021   0.563   1.635   4.690 -0.4417  0.2682  0.2826
 8130SOL     OW36022   2.784   0.194   9.522  0.0261  0.5283 -0.0294
 8130SOL    HW136023   2.808   0.146   9.442 -1.0330 -0.9485  0.5485
 8130SOL    HW236024   2.827   0.279   9.508  0.1689  0.8763  2.5709
 8131SOL     OW36025   2.960   2.089   7.069  0.0505  0.2678 -0.1412
 8131SOL    HW136026   2.892   2.082   7.002 -1.2979  1.4285  1.1090
 8131SOL    HW236027   2.910   2.058   7.145 -1.2322  0.5119 -0.8899
 8132SOL     OW36028   3.571   2.085   3.757  0.0741  0.5788 -0.2814
 8132SOL    HW136029   3.624   2.160   3.729  0.7288  1.2361  2.7097
 8132SOL    HW236030   3.496   2.124   3.713 -0.2437 -0.7582 -0.9077
 8133SOL     OW36031   0.759   4.649   2.084  0.4953  0.0240 -0.7970
 8133SOL    HW136032   0.684   4.614   2.131  0.6392 -0.7820 -1.1605
 8133SOL    HW236033   0.726   4.694   2.006 -1.4401  0.0832  0.0660
 8134SOL     OW36034   3.177   4.458  11.041 -0.6996  0.1310  0.1368
 8134SOL    HW136035   3.159   4.382  10.986 -0.3097  2.1799 -2.7725
 8134SOL    HW236036   3.088   4.472  11.074 -0.6974  0.4651 -0.0069
 8135SOL     OW36037   3.235   3.356  17.730  0.5524 -0.0063  0.9323
 8135SOL    HW136038   3.158   3.400   0.013 -0.2903 -0.8482  0.1794
 8135SOL    HW236039   3.255   3.424  17.666  0.4575 -1.2100 -0.3701
 8136SOL     OW36040   3.354   2.784  11.995  0.2443 -0.6233 -0.1180
 8136SOL    HW136041   3.435   2.775  11.945 -0.0478  0.8335 -0.8546
 8136SOL    HW236042   3.380   2.805  12.085 -0.8221 -0.3367  0.1259
 8137SOL     OW36043   4.326   4.477  15.341  1.0554 -1.1612 -0.1430
 8137SOL    HW136044   4.313   4.411  15.409  1.7439  1.4010  2.4576
 8137SOL    HW236045   4.351   4.426  15.265 -0.4083 -0.9666 -0.7686
 8138SOL     OW36046   1.124   4.099   3.108 -0.4714  0.3952  0.0325
 8138SOL    HW136047   1.087   4.126   3.192 -1.2783 -1.1977  0.1877
 8138SOL    HW236048   1.119   4.175   3.050 -1.9767 -0.0004 -0.3683
 8139SOL     OW36049   1.023   3.157  14.113  0.6413  0.4499 -0.4776
 8139SOL    HW136050   1.091   3.161  14.180  0.0248  0.3531  0.1584
 8139SOL    HW236051   0.983   3.244  14.115  0.7432  0.4808  0.2039
 8140SOL     OW36052   1.506   3.270  17.441 -0.2537  0.4644  0.2045
 8140SOL    HW136053   1.485   3.178  17.426 -1.2795  0.1089  3.8870
 8140SOL    HW236054   1.501   3.301  17.350 -3.8596  3.6654  1.5149
 8141SOL     OW36055   2.228   3.505   5.197 -0.1726  0.3971 -0.1392
 8141SOL    HW136056   2.302   3.473   5.145  0.2751 -0.5976  1.1194
 8141SOL    HW236057   2.207   3.427   5.248 -0.3366  0.8399  0.4618
 8142SOL     OW36058   3.696   0.504   4.822  0.0188 -0.1072 -0.7121
 8142SOL    HW136059   3.609   0.492   4.782 -0.1480  1.8802 -0.9782
 8142SOL    HW236060   3.680   0.571   4.889  0.0883 -0.6576 -0.1532
 8143SOL     OW36061   4.727   3.975   0.745 -0.4625  0.1376 -0.7532
 8143SOL    HW136062   4.642   4.012   0.765 -0.8889 -0.3317 -1.7024
 8143SOL    HW236063   4.711   3.951   0.653  1.2736  1.3814 -1.3756
 8144SOL     OW36064   2.900   0.144   4.919 -0.5546  0.3420 -0.4204
 8144SOL    HW136065   2.939   0.117   4.835 -3.4591 -0.9420 -1.3406
 8144SOL    HW236066   2.969   0.197   4.960  0.6963 -1.0914 -0.6782
 8145SOL     OW36067   2.774   3.460   7.864 -0.2279  0.2802 -0.6829
 8145SOL    HW136068   2.753   3.523   7.933 -0.7864  1.5099 -1.9785
 8145SOL    HW236069   2.714   3.481   7.792  0.3204  1.3119 -0.8275
 8146SOL     OW36070   2.844   0.501   8.524 -0.0334  0.1184 -0.2325
 8146SOL    HW136071   2.847   0.513   8.619  0.2940  1.3683 -0.4044
 8146SOL    HW236072   2.851   0.592   8.494 -0.6520  0.2669  0.0686
 8147SOL     OW36073   1.192   2.925   4.283  0.5808  0.5974  0.0371
 8147SOL    HW136074   1.114   2.980   4.285  0.9536  1.1276  0.1438
 8147SOL    HW236075   1.165   2.857   4.221 -2.0441 -1.2472  3.2646
 8148SOL     OW36076   2.644   3.788   5.772  0.9028  0.2673  0.0297
 8148SOL    HW136077   2.591   3.709   5.778  0.1414  0.7686 -0.2392
 8148SOL    HW236078   2.642   3.802   5.678 -2.3418 -1.6816 -0.1865
 8149SOL     OW36079   4.249   3.185  15.535 -0.5595  0.3533  0.2670
 8149SOL    HW136080   4.158   3.210  15.522  0.3865  2.0205 -3.3013
 8149SOL    HW236081   4.240   3.090  15.525 -0.8168  0.5709 -1.5403
 8150SOL     OW36082   4.600   1.955   8.443  0.5892 -0.1976  0.4338
 8150SOL    HW136083   4.690   1.985   8.453 -0.1275  2.1613 -0.2219
 8150SOL    HW236084   4.569   1.983   8.529 -1.2633  0.6515 -0.5097
 8151SOL     OW36085   1.693   3.978   2.946  0.4574 -0.1853  0.5930
 8151SOL    HW136086   1.705   4.022   3.030  3.3639 -1.5037  0.8558
 8151SOL    HW236087   1.601   3.954   2.934  0.2779 -0.3069  2.2873
 8152SOL     OW36088   3.456   1.260  10.614 -0.4395 -0.3237  0.2488
 8152SOL    HW136089   3.474   1.208  10.692 -0.7186 -0.1859  0.4063
 8152SOL    HW236090   3.376   1.218  10.584 -0.3261 -0.8293  0.6625
 8153SOL     OW36091   1.567   3.426   2.480  0.0423 -0.2933  0.4688
 8153SOL    HW136092   1.577   3.359   2.412  0.5890 -0.9226  1.1764
 8153SOL    HW236093   1.612   3.498   2.435 -0.8069  0.0355  0.1476
 8154SOL     OW36094   1.677   4.459   1.905  0.3495  0.5836  0.1151
 8154SOL    HW136095   1.707   4.522   1.840 -0.3815  0.5576 -0.2437
 8154SOL    HW236096   1.742   4.466   1.974  0.3995  3.7643 -0.2901
 8155SOL     OW36097   0.140   3.733   2.338 -0.2745 -0.3794  0.0640
 8155SOL    HW136098   0.220   3.777   2.366 -0.0912  0.4681 -1.8058
 8155SOL    HW236099   0.080   3.762   2.407  1.2187 -1.0536  1.6572
 8156SOL     OW36100   3.097   0.020   8.407  0.4216  0.1341 -0.8236
 8156SOL    HW136101   3.008   0.019   8.443  0.1576  1.5628 -1.4273
 8156SOL    HW236102   3.113   0.114   8.404 -0.1404  0.1840 -2.5958
 8157SOL     OW36103   4.538   2.917  13.116  0.2975  0.0378  0.5778
 8157SOL    HW136104   4.615   2.891  13.166  1.3190 -1.4079 -1.7651
 8157SOL    HW236105   4.573   2.902  13.029  1.5629  0.8283  0.9490
 8158SOL     OW36106   1.071   0.053   5.091 -0.0495  0.0667 -0.2519
 8158SOL    HW136107   1.100   0.006   5.169 -1.3183 -1.2470 -0.5727
 8158SOL    HW236108   1.111   0.138   5.107 -0.4054  0.1082  0.3765
 8159SOL     OW36109   4.720   1.585  10.852 -0.2891 -0.2196  0.7006
 8159SOL    HW136110   0.039   1.509  10.861  0.2662  0.1801  0.4560
 8159SOL    HW236111   4.684   1.592  10.941 -0.8040 -1.8156  0.6136
 8160SOL     OW36112   0.125   1.672  10.147  0.2719 -0.0533  0.1356
 8160SOL    HW136113   0.098   1.712  10.229  0.7261  0.6774 -0.0690
 8160SOL    HW236114   0.203   1.723  10.126  0.2025 -0.0869 -0.2021
 8161SOL     OW36115   1.970   1.193   1.479 -0.1817  0.0147 -0.4266
 8161SOL    HW136116   2.062   1.196   1.505 -0.0844 -2.0493 -0.5736
 8161SOL    HW236117   1.940   1.119   1.531 -0.8156 -0.2906 -1.2256
 8162SOL     OW36118   3.782   4.038  13.234  1.0503 -0.5739  0.4013
 8162SOL    HW136119   3.793   3.999  13.321 -1.6910 -1.5317  0.2939
 8162SOL    HW236120   3.822   4.124  13.241  4.2993 -2.0007 -0.4703
 8163SOL     OW36121   1.809   1.720  10.409 -0.9698  0.0981  0.1566
 8163SOL    HW136122   1.844   1.727  10.498  0.3745  0.0957 -0.3712
 8163SOL    HW236123   1.872   1.776  10.363  0.3368 -2.6861 -1.4387
 8164SOL     OW36124   1.315   2.567   8.766 -0.6520 -0.0122  0.3305
 8164SOL    HW136125   1.364   2.645   8.741  0.9860 -0.6166  1.6340
 8164SOL    HW236126   1.269   2.566   8.682  0.9866 -0.6780 -0.5656
 8165SOL     OW36127   3.774   0.013   3.927  0.1872 -0.5165 -0.4183
 8165SOL    HW136128   3.778   0.096   3.974 -0.3539 -0.8726  0.2575
 8165SOL    HW236129   3.793   0.041   3.837  2.3154 -0.3090  0.1061
 8166SOL     OW36130   1.016   1.388   1.121  0.5944  0.2750 -0.6664
 8166SOL    HW136131   1.102   1.423   1.100  1.5529 -2.3864 -1.1288
 8166SOL    HW236132   1.026   1.332   1.198 -0.9874  2.3710  1.0628
 8167SOL     OW36133   2.873   4.139   7.927  0.0411 -0.1680  0.0189
 8167SOL    HW136134   2.792   4.146   7.978  0.0486  1.3048 -0.1558
 8167SOL    HW236135   2.852   4.178   7.842 -0.0238  0.1640  0.1848
 8168SOL     OW36136   0.717   3.142  10.411  0.1938 -0.3916 -0.0748
 8168SOL    HW136137   0.711   3.154  10.506 -0.3474 -1.0486 -0.0229
 8168SOL    HW236138   0.629   3.156  10.377  0.1942 -1.4869 -0.5282
 8169SOL     OW36139   0.540   2.090   5.720 -0.5596  0.1577 -0.3373
 8169SOL    HW136140   0.490   2.029   5.774 -1.3900  1.7575  0.7030
 8169SOL    HW236141   0.629   2.054   5.727 -0.6817  0.2698  1.6342
 8170SOL     OW36142   2.383   1.725   1.133 -0.8246  0.6735 -0.1569
 8170SOL    HW136143   2.435   1.646   1.146 -0.2534  1.1472  0.4458
 8170SOL    HW236144   2.314   1.700   1.194 -0.6037 -1.5881 -0.8294
 8171SOL     OW36145   3.755   0.108   1.536  0.0918 -0.4787  0.3678
 8171SOL    HW136146   3.704   0.062   1.601  1.1173 -1.9487  0.1354
 8171SOL    HW236147   3.839   0.138   1.570  0.5559  1.2056 -2.1881
 8172SOL     OW36148   0.386   1.313   4.556 -0.2195 -0.2650  0.1835
 8172SOL    HW136149   0.468   1.265   4.537  0.5018  0.4773  1.4761
 8172SOL    HW236150   0.398   1.396   4.510 -0.6074 -0.5549 -0.4467
 8173SOL     OW36151   2.769   4.487   3.595 -0.5641 -0.3071  0.0263
 8173SOL    HW136152   2.723   4.558   3.551  1.5022 -0.6904 -2.7541
 8173SOL    HW236153   2.818   4.452   3.521 -0.8318  1.6340 -1.0825
 8174SOL     OW36154   0.935   4.185   0.438 -0.7815  0.4189 -0.3756
 8174SOL    HW136155   0.848   4.163   0.473 -0.2216  0.3983  1.0205
 8174SOL    HW236156   0.996   4.149   0.503  0.1070  0.7300 -1.0441
 8175SOL     OW36157   2.126   0.877  10.839 -0.3955  0.0988  0.1379
 8175SOL    HW136158   2.040   0.840  10.856 -0.3204  0.1522  0.6472
 8175SOL    HW236159   2.181   0.811  10.881 -1.3379  0.4916  1.9690
 8176SOL     OW36160   2.480   3.403   1.978 -0.5142  0.8833  0.8957
 8176SOL    HW136161   2.554   3.438   2.027 -0.4924  2.1219 -0.0104
 8176SOL    HW236162   2.419   3.376   2.047 -0.5079  1.3641  1.0926
 8177SOL     OW36163   3.812   1.909  10.865 -0.3960  0.4537 -0.1976
 8177SOL    HW136164   3.829   1.834  10.923 -0.8616  1.4266  1.1905
 8177SOL    HW236165   3.805   1.975  10.933  0.8536  0.6471 -0.2642
 8178SOL     OW36166   4.364   2.907   2.183 -0.0711 -0.0149 -0.1231
 8178SOL    HW136167   4.302   2.968   2.222 -1.1874 -0.5676 -1.0503
 8178SOL    HW236168   4.440   2.959   2.156 -0.5765  1.5117  1.4117
 8179SOL     OW36169   4.221   0.102   2.665  0.5389 -0.0276  0.1007
 8179SOL    HW136170   4.198   0.176   2.722  5.1714  2.1156 -0.8136
 8179SOL    HW236171   4.196   0.034   2.727 -1.0432 -0.0282 -0.5455
 8180SOL     OW36172   2.430   2.431   1.752  0.9461  0.6301  0.6619
 8180SOL    HW136173   2.414   2.400   1.841  2.4380  1.2814  1.1641
 8180SOL    HW236174   2.473   2.512   1.779  1.3500  1.1618 -1.5758
 8181SOL     OW36175   4.640   1.090   5.827 -0.6242  0.6052 -0.0483
 8181SOL    HW136176   4.726   1.051   5.848 -0.2858  0.3185 -1.9713
 8181SOL    HW236177   4.594   1.020   5.780 -1.3206  0.8801  0.2278
 8182SOL     OW36178   3.413   3.101   2.739 -0.2285  0.0931 -0.1783
 8182SOL    HW136179   3.393   3.086   2.647 -0.8456  1.5899 -0.2821
 8182SOL    HW236180   3.505   3.077   2.745  0.2531  2.1493  0.5022
 8183SOL     OW36181   0.642   0.874   4.210  1.1225 -0.0927 -0.5807
 8183SOL    HW136182   0.724   0.923   4.219  0.4271  0.8654  0.6615
 8183SOL    HW236183   0.680   0.787   4.210 -0.6038 -0.8625  1.4338
 8184SOL     OW36184   2.113   3.610   6.060 -0.0682  0.0281  0.5570
 8184SOL    HW136185   2.160   3.692   6.074  0.2292 -0.2439  1.1653
 8184SOL    HW236186   2.140   3.555   6.134  0.0893  1.0439  1.2523
 8185SOL     OW36187   2.101   2.245   3.520  0.2961  0.1122  0.6231
 8185SOL    HW136188   2.075   2.330   3.486 -0.3996  0.4136  1.9021
 8185SOL    HW236189   2.016   2.206   3.541  1.8192 -1.8922  3.1030
 8186SOL     OW36190   3.103   1.050   6.105 -0.1042 -0.3562  0.6087
 8186SOL    HW136191   3.099   1.122   6.167  1.2080  0.9140 -0.8073
 8186SOL    HW236192   3.041   0.983   6.136  0.1941  0.0918  2.1835
 8187SOL     OW36193   0.015   0.250  17.696  0.0191  0.3056 -0.5825
 8187SOL    HW136194   4.720   0.275   0.028 -0.0036 -2.0003  0.0647
 8187SOL    HW236195   0.023   0.156  17.709 -0.7366  0.1334 -1.3562
 8188SOL     OW36196   2.820   2.889   4.901  0.0173  0.3180 -0.5374
 8188SOL    HW136197   2.827   2.930   4.815 -0.1849 -2.7706 -2.0191
 8188SOL    HW236198   2.901   2.918   4.943 -0.3549 -0.5371  0.7699
 8189SOL     OW36199   3.771   2.585   0.329 -0.2960  0.2710  0.7899
 8189SOL    HW136200   3.836   2.655   0.340  0.9271 -0.5815 -1.1238
 8189SOL    HW236201   3.729   2.587   0.415 -1.9928  1.3923 -0.0813
 8190SOL     OW36202   0.578   1.496   2.585 -0.1260  0.1096  0.1526
 8190SOL    HW136203   0.628   1.416   2.602  1.6140  1.3265  0.7862
 8190SOL    HW236204   0.630   1.537   2.516  0.1568 -0.6052 -0.0602
 8191SOL     OW36205   3.340   1.074   4.237  0.5457  0.2527 -0.0867
 8191SOL    HW136206   3.371   1.032   4.317  2.8351 -0.5670 -1.3914
 8191SOL    HW236207   3.246   1.051   4.237  1.4163 -3.3541  0.2319
 8192SOL     OW36208   2.132   2.766   6.225  0.0562  0.1822  0.2669
 8192SOL    HW136209   2.071   2.777   6.298 -0.7713 -1.4989 -0.1676
 8192SOL    HW236210   2.209   2.814   6.256  0.4011  2.3058 -3.9625
 8193SOL     OW36211   3.916   0.283  17.533 -0.6467  0.9207  0.0608
 8193SOL    HW136212   3.907   0.234  17.615  0.7425 -0.2848 -0.5045
 8193SOL    HW236213   3.890   0.216  17.470 -1.0721 -0.3224  1.5328
 8194SOL     OW36214   0.718   0.249   3.938  0.4007 -0.4653  0.1608
 8194SOL    HW136215   0.678   0.205   4.013  0.1595 -0.5964 -0.0455
 8194SOL    HW236216   0.651   0.316   3.927  2.1074  1.6208  2.4201
 8195SOL     OW36217   2.006   4.510   6.784  0.2355 -0.2994  0.4501
 8195SOL    HW136218   2.064   4.577   6.748 -0.8344  0.0961 -0.5359
 8195SOL    HW236219   2.049   4.427   6.760 -0.8737  0.4028 -4.0166
 8196SOL     OW36220   3.962   4.580  14.249  0.6605 -0.0659 -0.0193
 8196SOL    HW136221   3.895   4.642  14.219  1.2034  0.9668  0.8991
 8196SOL    HW236222   3.903   4.512  14.279  0.1376  1.0230  1.3976
 8197SOL     OW36223   4.584   1.001   6.690 -0.4123  0.2146 -0.2912
 8197SOL    HW136224   4.572   1.075   6.631  3.1020 -0.0065 -1.3201
 8197SOL    HW236225   4.505   1.017   6.741  0.9998 -3.0922  2.9341
 8198SOL     OW36226   0.487   0.593   7.874 -0.5875 -0.0310  0.1693
 8198SOL    HW136227   0.451   0.626   7.957 -2.2231  0.0739 -0.5893
 8198SOL    HW236228   0.461   0.667   7.819 -3.6727 -1.1480  0.1062
 8199SOL     OW36229   2.605   1.269   1.929  0.3605 -0.1575  0.2657
 8199SOL    HW136230   2.693   1.254   1.894 -0.0546 -1.0401 -0.4059
 8199SOL    HW236231   2.555   1.272   1.848 -1.4289  0.3585  1.4040
 8200SOL     OW36232   2.963   4.639  12.411 -0.1707  0.4312  0.5117
 8200SOL    HW136233   2.923   4.576  12.472 -2.5764 -0.6130 -2.1582
 8200SOL    HW236234   2.962   4.593  12.327 -0.9127  0.1002  0.6953
 8201SOL     OW36235   4.141   2.860   5.347 -0.6683  0.1498 -0.1600
 8201SOL    HW136236   4.152   2.771   5.316  1.0832  0.4153 -0.2975
 8201SOL    HW236237   4.109   2.839   5.435 -0.5603  2.5962  0.4705
 8202SOL     OW36238   1.532   1.231   2.528  0.1221 -0.0690 -0.0132
 8202SOL    HW136239   1.538   1.147   2.483 -0.3656 -0.1973  0.1602
 8202SOL    HW236240   1.622   1.256   2.550 -0.7279  0.2401  3.2347
 8203SOL     OW36241   2.044   2.936   8.599 -0.0590 -0.3406  0.0193
 8203SOL    HW136242   2.034   2.906   8.690  0.1954  1.4103  0.6234
 8203SOL    HW236243   2.140   2.933   8.599 -0.0985 -1.2677 -1.5537
 8204SOL     OW36244   2.893   2.100   3.756 -0.3191  0.2893  0.0787
 8204SOL    HW136245   2.879   2.192   3.780  2.1483  0.5959  0.3283
 8204SOL    HW236246   2.806   2.063   3.744  1.1008 -2.9071 -0.4783
 8205SOL     OW36247   3.531   0.201   6.363  0.1852 -0.2123 -0.0090
 8205SOL    HW136248   3.454   0.151   6.391  1.0586 -1.6051 -0.0902
 8205SOL    HW236249   3.583   0.166   6.435  0.5588  0.7706  0.1979
 8206SOL     OW36250   4.396   1.920   2.946  0.0362  0.4660 -0.5982
 8206SOL    HW136251   4.479   1.881   2.919 -0.1501 -1.3583  1.5278
 8206SOL    HW236252   4.364   1.859   3.012  1.8673  0.5019  0.3353
 8207SOL     OW36253   3.470   0.205   8.348  0.2208 -0.4376 -0.4079
 8207SOL    HW136254   3.538   0.198   8.281  1.7973  1.2310  1.0136
 8207SOL    HW236255   3.513   0.256   8.416 -0.8179  0.6648 -0.5778
 8208SOL     OW36256   2.326   4.205   9.811  0.6282 -0.6599  0.3582
 8208SOL    HW136257   2.410   4.229   9.773  0.5125 -2.5960 -1.1185
 8208SOL    HW236258   2.304   4.280   9.867 -0.0568 -2.7900  2.9526
 8209SOL     OW36259   1.905   3.171   0.463  0.0008 -0.3762  0.6410
 8209SOL    HW136260   2.000   3.177   0.468  0.0668 -0.6590 -0.3506
 8209SOL    HW236261   1.900   3.095   0.405  1.3137 -0.4778  0.6746
 8210SOL     OW36262   2.149   4.617   3.437 -0.6545 -0.1440  1.1614
 8210SOL    HW136263   2.088   4.690   3.440 -1.1143 -0.5320  1.1434
 8210SOL    HW236264   2.234   4.661   3.426 -0.1172 -1.0528  1.6374
 8211SOL     OW36265   3.973   2.423   6.609  0.0151  0.1404  0.2032
 8211SOL    HW136266   3.935   2.356   6.553 -0.4254 -0.6815  1.4796
 8211SOL    HW236267   3.946   2.504   6.565 -0.1209 -0.3890 -0.6854
 8212SOL     OW36268   4.130   4.260  15.735  0.2296  0.2017  0.7485
 8212SOL    HW136269   4.167   4.192  15.792  2.9031  0.5843 -0.5406
 8212SOL    HW236270   4.072   4.306  15.796  1.1184 -1.4708  2.8805
 8213SOL     OW36271   1.634   3.200   1.048 -0.0521  0.2218  0.1418
 8213SOL    HW136272   1.546   3.218   1.016 -0.5874  1.9403  2.5165
 8213SOL    HW236273   1.636   3.104   1.049 -1.2600  0.1873 -0.2709
 8214SOL     OW36274   0.165   2.328  16.045  0.0462  0.3800  0.2682
 8214SOL    HW136275   0.078   2.340  16.083  1.0863  0.4954  2.6270
 8214SOL    HW236276   0.162   2.233  16.049 -0.1654  0.3957  0.4626
 8215SOL     OW36277   2.991   3.315   0.783  0.1886 -0.1042  0.5722
 8215SOL    HW136278   2.950   3.312   0.869  2.0418 -0.1293  1.4612
 8215SOL    HW236279   3.015   3.407   0.771  2.7748 -0.6785  1.2851
 8216SOL     OW36280   0.319   2.062   2.217 -0.4015 -0.3072 -0.4292
 8216SOL    HW136281   0.274   2.141   2.188 -0.3125  0.1968  0.8141
 8216SOL    HW236282   0.262   2.031   2.287  1.0731  0.1943  0.9752
 8217SOL     OW36283   3.080   1.193  13.009  0.2776  0.0530 -0.3466
 8217SOL    HW136284   3.087   1.287  13.027 -2.8952  0.4139 -0.9500
 8217SOL    HW236285   3.120   1.155  13.087  0.7870  0.3732 -0.4520
 8218SOL     OW36286   1.500   2.347   2.839  0.1765 -0.1093 -0.0976
 8218SOL    HW136287   1.544   2.301   2.767 -0.1174 -0.1598 -0.2487
 8218SOL    HW236288   1.410   2.340   2.805 -0.1157 -1.3715  0.9146
 8219SOL     OW36289   4.325   3.072  11.545 -0.3813  0.2210 -0.5673
 8219SOL    HW136290   4.311   3.106  11.633 -1.0200  0.2898 -0.6956
 8219SOL    HW236291   4.394   3.131  11.514 -0.4588 -0.2342 -1.6076
 8220SOL     OW36292   2.914   4.388   3.832 -0.6358 -0.3551  0.3899
 8220SOL    HW136293   2.860   4.428   3.763 -2.7075 -3.3947  0.2899
 8220SOL    HW236294   2.849   4.329   3.868 -0.8188 -0.1534  0.3927
 8221SOL     OW36295   3.969   2.150   2.388  0.1871 -0.0469  0.2241
 8221SOL    HW136296   4.048   2.096   2.386  0.8624  0.9386  0.4995
 8221SOL    HW236297   3.986   2.212   2.317 -0.7392  0.5903  0.5549
 8222SOL     OW36298   1.444   3.182   7.459 -0.2602 -0.2796  0.3936
 8222SOL    HW136299   1.538   3.195   7.453 -0.0339 -2.0124  0.2300
 8222SOL    HW236300   1.442   3.091   7.486  1.5871 -0.4713 -0.1163
 8223SOL     OW36301   0.854   0.309   6.065  0.2898  0.3287 -0.4903
 8223SOL    HW136302   0.879   0.228   6.111  1.4941 -1.0827 -3.6388
 8223SOL    HW236303   0.783   0.341   6.120  1.1934  1.0896  0.2405
 8224SOL     OW36304   3.425   2.138  11.021 -0.0881  0.2031  0.0681
 8224SOL    HW136305   3.458   2.195  11.090  1.7181  0.4580 -1.0082
 8224SOL    HW236306   3.372   2.079  11.075 -0.0545 -0.0184 -0.1383
 8225SOL     OW36307   0.871   2.960  15.627  0.9001 -0.3789  0.3054
 8225SOL    HW136308   0.892   3.026  15.694 -2.5564  1.3068 -0.2705
 8225SOL    HW236309   0.815   2.905  15.682 -0.2110 -0.0130 -0.4622
 8226SOL     OW36310   4.241   1.152   4.662 -0.5719 -0.3140  0.1451
 8226SOL    HW136311   4.322   1.130   4.707 -0.2069 -1.2779 -0.9920
 8226SOL    HW236312   4.247   1.246   4.643  2.5082 -0.3597  0.8623
 8227SOL     OW36313   0.682   0.292  12.808  0.3065  0.4081  0.0123
 8227SOL    HW136314   0.742   0.321  12.877 -1.0178 -0.3993  1.5277
 8227SOL    HW236315   0.608   0.261  12.862  0.5154  0.6641  0.4475
 8228SOL     OW36316   0.615   4.048   6.766  0.4074 -0.4746 -0.2708
 8228SOL    HW136317   0.608   3.982   6.835  1.6163 -0.9487 -0.6136
 8228SOL    HW236318   0.525   4.066   6.737 -0.1144 -0.8923  1.0969
 8229SOL     OW36319   3.631   4.280  12.074 -0.3199  0.0033 -0.2678
 8229SOL    HW136320   3.629   4.190  12.040  1.9844 -0.1763  0.0707
 8229SOL    HW236321   3.564   4.310  12.013 -0.2812  1.3867  0.3824
 8230SOL     OW36322   0.586   2.061   8.753  0.8860  0.2816  0.0862
 8230SOL    HW136323   0.651   2.131   8.749  0.4196  0.8142  1.8672
 8230SOL    HW236324   0.521   2.095   8.814 -3.0674  0.7962 -4.4321
 8231SOL     OW36325   1.907   3.286   1.469 -0.1549 -0.4037  0.3144
 8231SOL    HW136326   1.883   3.232   1.394  2.2025  1.4000 -1.7027
 8231SOL    HW236327   1.822   3.329   1.482 -0.4854 -0.5303 -1.4853
 8232SOL     OW36328   0.647   3.320   5.971 -0.2074  0.4093  0.7272
 8232SOL    HW136329   0.682   3.232   5.956 -0.7788  0.0704  1.3637
 8232SOL    HW236330   0.676   3.344   6.059 -0.9498 -0.4958  1.2272
 8233SOL     OW36331   4.543   1.787  11.471  0.1081 -0.0598 -0.0577
 8233SOL    HW136332   4.630   1.824  11.484  0.3471 -0.1268 -1.4892
 8233SOL    HW236333   4.497   1.817  11.550  0.3941 -3.7491  1.5195
 8234SOL     OW36334   2.538   3.503  10.716 -0.0900  0.2852 -0.2128
 8234SOL    HW136335   2.527   3.451  10.636 -1.2616  1.6943 -0.9601
 8234SOL    HW236336   2.633   3.498  10.727 -0.0172 -0.9074 -1.2930
 8235SOL     OW36337   3.413   4.424   6.002 -0.0207  0.0377  0.7833
 8235SOL    HW136338   3.403   4.398   6.094 -0.4609 -0.9275  0.4662
 8235SOL    HW236339   3.483   4.365   5.973  0.9995  1.4306  0.4546
 8236SOL     OW36340   0.452   0.772   7.273 -0.0407  0.3888  0.4725
 8236SOL    HW136341   0.363   0.737   7.265  0.0747  0.4536 -1.0006
 8236SOL    HW236342   0.461   0.760   7.368 -1.9162  1.5139  0.7999
 8237SOL     OW36343   1.634   4.259   4.625 -0.4867 -0.0510 -0.5985
 8237SOL    HW136344   1.702   4.314   4.587 -0.3801 -1.0296 -1.8024
 8237SOL    HW236345   1.577   4.251   4.549 -1.1539  0.9284 -0.2163
 8238SOL     OW36346   2.971   0.717   8.304 -0.1909 -0.0407  0.5572
 8238SOL    HW136347   2.964   0.810   8.324  0.4445  0.3447 -1.0008
 8238SOL    HW236348   2.989   0.685   8.392 -0.1068  0.5275  0.7414
 8239SOL     OW36349   3.426   0.432   1.825  0.3835  0.0298 -0.6031
 8239SOL    HW136350   3.446   0.378   1.749 -1.3036  1.4877 -2.0554
 8239SOL    HW236351   3.393   0.509   1.780 -1.4905 -0.5246 -0.1487
 8240SOL     OW36352   4.166   4.370   4.731  0.0875 -0.0825  0.2321
 8240SOL    HW136353   4.144   4.463   4.720 -1.0362 -0.5220 -1.2067
 8240SOL    HW236354   4.249   4.375   4.685  0.5252  0.1412  1.0447
 8241SOL     OW36355   0.551   0.705  16.207  0.4775 -0.3307 -0.0400
 8241SOL    HW136356   0.550   0.614  16.177  3.0316 -0.6984  0.9869
 8241SOL    HW236357   0.463   0.736  16.186  0.1544 -0.0140  1.7633
 8242SOL     OW36358   1.988   3.491  14.007  0.4119 -0.3614 -0.0802
 8242SOL    HW136359   2.058   3.555  14.021  1.0409 -0.6511 -1.9756
 8242SOL    HW236360   1.915   3.540  14.044  0.5278  0.7342 -1.3028
 8243SOL     OW36361   0.184   0.709   4.579 -0.5143 -0.8547  0.2340
 8243SOL    HW136362   0.271   0.685   4.549 -0.2707 -0.7914  0.8819
 8243SOL    HW236363   0.131   0.693   4.502 -2.7345 -0.4549  1.6747
 8244SOL     OW36364   0.055   0.991   1.194  0.2403 -0.1156 -0.6278
 8244SOL    HW136365   0.104   1.073   1.200  1.1341 -0.7983  1.2889
 8244SOL    HW236366   4.702   1.010   1.175 -0.3789 -1.9620  0.5004
 8245SOL     OW36367   2.746   0.627  11.666  0.2039 -0.1017 -0.4744
 8245SOL    HW136368   2.688   0.694  11.630 -1.0350 -0.0874  1.4986
 8245SOL    HW236369   2.794   0.602  11.587  0.8139  0.3959 -0.2663
 8246SOL     OW36370   1.188   0.659   6.600 -0.0342 -0.3236 -0.4919
 8246SOL    HW136371   1.249   0.731   6.617  1.0027 -1.3481  0.1308
 8246SOL    HW236372   1.104   0.688   6.636  0.0025 -0.8293 -0.0025
 8247SOL     OW36373   3.613   1.349   8.361 -0.4239  0.1107  0.2374
 8247SOL    HW136374   3.555   1.373   8.434 -1.3907 -2.8226  0.4461
 8247SOL    HW236375   3.692   1.393   8.394 -0.1482 -0.3911  0.2448
 8248SOL     OW36376   0.964   0.341   3.858 -0.3362  0.0125 -0.0876
 8248SOL    HW136377   0.876   0.309   3.877  0.8078 -1.9559  1.9753
 8248SOL    HW236378   1.012   0.320   3.939 -1.5154 -2.3505  0.0170
 8249SOL     OW36379   0.483   3.124  16.079  0.7635  0.3661 -0.2586
 8249SOL    HW136380   0.455   3.119  15.988 -0.7266 -0.2035  0.2254
 8249SOL    HW236381   0.437   3.197  16.119 -0.9971  0.5279 -2.6033
 8250SOL     OW36382   3.883   1.956   6.572 -0.5872 -0.0584 -0.0539
 8250SOL    HW136383   3.895   1.955   6.667  1.1696  0.6035 -0.2760
 8250SOL    HW236384   3.799   1.910   6.564  0.2773 -1.4834 -0.9459
 8251SOL     OW36385   1.961   3.910   8.701  0.2862 -0.6679 -0.6518
 8251SOL    HW136386   1.989   3.994   8.666  2.4442 -2.3285 -2.8959
 8251SOL    HW236387   1.881   3.930   8.750  0.6965 -2.1960  0.6768
 8252SOL     OW36388   1.002   4.568  17.355 -0.0301 -0.1923  0.3812
 8252SOL    HW136389   1.012   4.513  17.433  2.2809 -1.4601 -0.7878
 8252SOL    HW236390   0.985   4.651  17.399 -3.0356 -0.0157 -1.1852
 8253SOL     OW36391   2.203   1.528   4.475  0.5486 -0.0047 -0.5192
 8253SOL    HW136392   2.200   1.435   4.452  1.1544 -0.8741  2.8021
 8253SOL    HW236393   2.290   1.538   4.516  0.0190  1.5306  0.2408
 8254SOL     OW36394   1.760   3.441   7.565  0.2081  0.0578  0.4591
 8254SOL    HW136395   1.778   3.523   7.519 -1.5154  0.8240  1.1454
 8254SOL    HW236396   1.755   3.382   7.490  0.8079  0.8529 -0.2080
 8255SOL     OW36397   3.956   2.529  16.046  0.3050  0.5532  0.4115
 8255SOL    HW136398   3.877   2.580  16.069  0.0750 -0.2816  1.4479
 8255SOL    HW236399   3.992   2.569  15.966 -0.5464 -3.5409 -2.0364
 8256SOL     OW36400   3.626   3.076   8.511  0.4535  0.4383  0.1609
 8256SOL    HW136401   3.558   3.033   8.459  1.7095  0.4251 -1.4493
 8256SOL    HW236402   3.661   3.149   8.461  4.1720  1.1209  3.8222
 8257SOL     OW36403   4.234   2.196   1.008 -0.1699  0.7525  0.0051
 8257SOL    HW136404   4.206   2.284   0.982  1.1737  1.3167  0.4671
 8257SOL    HW236405   4.243   2.160   0.920  1.2833  0.6908  0.1884
 8258SOL     OW36406   4.267   2.975  16.022  0.0800 -0.1554  0.1545
 8258SOL    HW136407   4.320   3.055  16.014  0.0865 -0.0902  0.8320
 8258SOL    HW236408   4.180   3.016  16.015  0.7277  1.2347  0.1095
 8259SOL     OW36409   1.508   2.088   5.496  0.2602 -0.0559 -0.5417
 8259SOL    HW136410   1.592   2.045   5.480 -0.2895 -1.2232 -0.3547
 8259SOL    HW236411   1.536   2.176   5.522  2.2312 -1.0397  0.6679
 8260SOL     OW36412   0.098   4.623   7.099  0.2638  0.3593 -0.0299
 8260SOL    HW136413   0.099   4.716   7.074  1.2079  0.6643  1.1842
 8260SOL    HW236414   0.074   4.637   7.190  1.8549 -0.2686  0.4901
 8261SOL     OW36415   2.401   1.980   6.622 -0.3030  0.2522 -1.1792
 8261SOL    HW136416   2.385   1.885   6.626  0.3048  0.2851  1.7269
 8261SOL    HW236417   2.475   1.990   6.682 -1.4369  0.6443  0.1432
 8262SOL     OW36418   0.981   4.101  13.503  0.4117 -0.2696 -0.3758
 8262SOL    HW136419   0.997   4.178  13.449  3.4942 -1.1741 -0.7322
 8262SOL    HW236420   1.018   4.125  13.588 -0.4842  1.1760 -0.3982
 8263SOL     OW36421   0.795   3.910   1.253  0.1454 -0.2381  0.1197
 8263SOL    HW136422   0.807   3.858   1.332 -2.9590 -1.1728 -0.0163
 8263SOL    HW236423   0.743   3.859   1.191  2.3911  0.3566 -2.2430
 8264SOL     OW36424   0.390   0.346   7.286 -0.6862 -0.0613 -0.0290
 8264SOL    HW136425   0.298   0.354   7.261 -0.9847 -1.3080  0.6390
 8264SOL    HW236426   0.384   0.321   7.378  0.3029  0.5824  0.2102
 8265SOL     OW36427   3.837   3.520   3.711  0.4586  0.1101 -0.4658
 8265SOL    HW136428   3.828   3.473   3.628 -0.0407 -2.0612  0.8165
 8265SOL    HW236429   3.814   3.445   3.765 -0.2407 -0.8932 -2.1447
 8266SOL     OW36430   0.520   4.042   1.219  0.2210 -0.0667  0.0028
 8266SOL    HW136431   0.535   3.951   1.194 -1.0866  0.0820 -1.3362
 8266SOL    HW236432   0.545   4.092   1.142 -0.0143 -1.9007 -1.2576
 8267SOL     OW36433   1.053   0.765   4.697 -0.2448  0.3860  0.2309
 8267SOL    HW136434   1.008   0.697   4.746 -2.8527  1.8144 -0.1983
 8267SOL    HW236435   1.049   0.845   4.750  0.3038 -0.9230  2.2421
 8268SOL     OW36436   4.215   2.158   5.790  0.1939 -0.0407 -0.0104
 8268SOL    HW136437   4.188   2.171   5.699  0.7846  0.3374 -0.1251
 8268SOL    HW236438   4.301   2.200   5.789  0.0660  0.1939 -2.0428
 8269SOL     OW36439   4.463   1.950  10.709  0.1209 -0.0221  0.2180
 8269SOL    HW136440   4.554   1.974  10.695  0.0081  0.0493 -0.4171
 8269SOL    HW236441   4.478   1.858  10.689  2.0271  0.7601 -1.9615
 8270SOL     OW36442   3.362   0.565   5.017  0.6863 -0.0766 -0.2974
 8270SOL    HW136443   3.372   0.470   5.010 -0.8203 -0.1832 -1.1005
 8270SOL    HW236444   3.282   0.589   4.969  1.3798  0.7933 -1.0199
 8271SOL     OW36445   4.514   3.523   7.800 -0.5041 -0.0699  0.5897
 8271SOL    HW136446   4.495   3.581   7.873 -0.7473 -0.2695  0.6875
 8271SOL    HW236447   4.604   3.547   7.778 -0.6519 -0.2367 -0.2161
 8272SOL     OW36448   0.073   1.351   1.908 -0.1837 -0.3084  0.2151
 8272SOL    HW136449   0.065   1.384   1.818 -1.7481  2.2423  1.2809
 8272SOL    HW236450   0.014   1.411   1.954 -1.4475 -1.1469 -0.3249
 8273SOL     OW36451   1.240   3.885  14.373 -0.1734 -0.1188  0.0204
 8273SOL    HW136452   1.205   3.841  14.295 -1.6325 -1.2842  1.3455
 8273SOL    HW236453   1.310   3.821  14.390 -0.6361 -0.2466  1.3837
 8274SOL     OW36454   0.544   3.282   0.340 -0.0905  0.5135  0.5919
 8274SOL    HW136455   0.602   3.357   0.347 -0.2216  0.8144 -1.8325
 8274SOL    HW236456   0.557   3.269   0.246 -0.4307  2.8221  0.2325
 8275SOL     OW36457   0.943   3.881   4.601 -0.4604  0.4036  0.0301
 8275SOL    HW136458   1.003   3.890   4.674  0.9531 -0.5345 -1.0229
 8275SOL    HW236459   0.942   3.975   4.585  0.0296  0.1966 -1.2207
 8276SOL     OW36460   0.246   2.866   2.075 -0.1332  0.2009  0.0772
 8276SOL    HW136461   0.335   2.900   2.085 -0.5024  0.7407  1.5953
 8276SOL    HW236462   0.200   2.914   2.144 -0.6611  0.5835 -0.5336
 8277SOL     OW36463   4.306   1.776   9.046  0.7310  0.1706  0.1962
 8277SOL    HW136464   4.250   1.834   8.993 -1.8524 -2.5774 -0.0510
 8277SOL    HW236465   4.360   1.839   9.094  1.9207 -0.3405 -0.4771
 8278SOL     OW36466   1.977   4.140   8.046  0.2810 -0.8517 -0.3577
 8278SOL    HW136467   2.056   4.105   8.005  0.4161 -1.5306  0.4800
 8278SOL    HW236468   1.920   4.064   8.042  0.6103 -0.9912 -2.2159
 8279SOL     OW36469   2.506   4.150   4.898  0.6518 -0.3878 -0.2254
 8279SOL    HW136470   2.553   4.211   4.841 -0.7377  0.6868 -0.2356
 8279SOL    HW236471   2.464   4.209   4.960 -2.0329 -1.1523 -1.3087
 8280SOL     OW36472   1.495   1.354   1.878 -0.0282 -0.0567  0.2210
 8280SOL    HW136473   1.587   1.353   1.904  0.6734 -0.6682 -2.3083
 8280SOL    HW236474   1.490   1.326   1.787  0.6422 -0.7939  0.4147
 8281SOL     OW36475   0.587   2.667   7.601  0.2962 -0.1790  0.1409
 8281SOL    HW136476   0.492   2.660   7.591  0.3789 -0.9629 -0.0641
 8281SOL    HW236477   0.622   2.617   7.527  2.1856  1.6014 -0.1605
 8282SOL     OW36478   3.997   4.699   5.744 -0.5159 -0.0338 -0.7830
 8282SOL    HW136479   4.072   4.685   5.802 -1.1646 -1.6754 -0.3242
 8282SOL    HW236480   3.938   0.017   5.794 -0.3433  0.0989 -0.7319
 8283SOL     OW36481   2.964   4.193  15.089  0.0038  0.3298  0.7051
 8283SOL    HW136482   2.910   4.208  15.012  1.2052  1.1628  0.0240
 8283SOL    HW236483   2.964   4.284  15.117 -0.7032  1.0913 -1.7819
 8284SOL     OW36484   1.983   4.453   4.981  0.4207  0.7998 -0.2307
 8284SOL    HW136485   1.920   4.520   5.007 -0.0382  0.3195 -0.0850
 8284SOL    HW236486   1.956   4.431   4.892 -2.0322 -1.5540  1.0925
 8285SOL     OW36487   1.699   3.179   2.809 -0.4460  0.0221 -0.5221
 8285SOL    HW136488   1.757   3.133   2.749  1.6968  0.1182  1.4617
 8285SOL    HW236489   1.674   3.105   2.865 -1.8639  0.9277  0.0430
 8286SOL     OW36490   1.280   2.496   7.174  0.0497  0.2356  0.0139
 8286SOL    HW136491   1.373   2.480   7.190  0.1401  2.9073  2.1610
 8286SOL    HW236492   1.246   2.416   7.133  2.6035 -1.0614  0.3984
 8287SOL     OW36493   3.854   3.862  13.433 -0.3260  0.6268 -0.4153
 8287SOL    HW136494   3.778   3.889  13.485 -1.0824 -0.8267 -0.7965
 8287SOL    HW236495   3.899   3.817  13.504 -1.9948 -0.4750 -0.0659
 8288SOL     OW36496   2.831   4.296   1.267 -0.1242 -0.2759  0.3165
 8288SOL    HW136497   2.803   4.244   1.342 -0.7013  0.2079  0.4416
 8288SOL    HW236498   2.745   4.302   1.224 -0.5930 -2.7069  0.9135
 8289SOL     OW36499   0.729   4.610   8.757 -0.6879 -0.1678 -0.3918
 8289SOL    HW136500   0.721   4.590   8.850 -0.3753 -1.7315 -0.7115
 8289SOL    HW236501   0.807   4.560   8.734  0.8521  2.4390 -0.9429
 8290SOL     OW36502   2.104   3.214   4.648 -0.3864  0.4614  0.0899
 8290SOL    HW136503   2.127   3.294   4.695  0.0588 -0.3350  1.2182
 8290SOL    HW236504   2.130   3.242   4.560  0.4895 -0.2576  0.1270
 8291SOL     OW36505   0.034   0.404   5.076  0.0726 -0.8821 -0.0035
 8291SOL    HW136506   4.710   0.447   5.134  0.0649 -1.0835  0.1347
 8291SOL    HW236507   4.733   0.419   4.990 -0.7250 -0.1993  0.4829
 8292SOL     OW36508   1.713   1.945   6.682  0.5567 -0.2419  0.5305
 8292SOL    HW136509   1.720   1.878   6.750 -0.5981 -2.1311 -1.2008
 8292SOL    HW236510   1.620   1.967   6.684  1.3979  3.1684  2.4195
 8293SOL     OW36511   0.518   4.362   5.198  0.0336 -0.5539 -0.0469
 8293SOL    HW136512   0.548   4.440   5.151 -1.1599 -0.9692 -1.4896
 8293SOL    HW236513   0.441   4.402   5.240 -1.8936 -1.1114 -3.0522
 8294SOL     OW36514   4.259   4.055   5.002  0.2566  0.1427 -0.4881
 8294SOL    HW136515   4.185   4.096   5.048 -0.3709 -1.6951  0.1263
 8294SOL    HW236516   4.266   3.975   5.054  0.6590  0.4771 -0.0358
 8295SOL     OW36517   1.633   3.810  14.339  0.1332 -0.0453  0.3064
 8295SOL    HW136518   1.622   3.901  14.310  0.1748 -0.3814 -0.7351
 8295SOL    HW236519   1.711   3.817  14.395  0.4530 -0.4858 -0.0866
 8296SOL     OW36520   2.716   1.351  16.908  0.0117  0.2756  0.2629
 8296SOL    HW136521   2.693   1.441  16.931 -0.6500  0.1845 -0.0565
 8296SOL    HW236522   2.762   1.330  16.989 -0.0181 -0.8157  0.0017
 8297SOL     OW36523   2.250   0.456   4.948 -0.4294 -0.6501  0.4799
 8297SOL    HW136524   2.210   0.395   5.010  0.3051  0.7960  2.3846
 8297SOL    HW236525   2.333   0.409   4.937 -0.0485  0.1073  0.1128
 8298SOL     OW36526   1.918   2.637   0.570 -1.0722  0.3711  0.2254
 8298SOL    HW136527   1.931   2.704   0.503 -1.8220 -1.3229 -1.6154
 8298SOL    HW236528   1.896   2.696   0.642 -1.7987  0.2640  0.0949
 8299SOL     OW36529   3.428   0.400   3.345 -0.1948 -0.4988  0.7021
 8299SOL    HW136530   3.451   0.483   3.386 -1.4834  0.3143 -0.2141
 8299SOL    HW236531   3.345   0.372   3.385 -0.6600 -0.6417 -0.3664
 8300SOL     OW36532   2.493   2.747   6.015 -0.0960 -0.2885 -0.3916
 8300SOL    HW136533   2.583   2.716   6.003 -0.2139 -1.1668  0.9943
 8300SOL    HW236534   2.508   2.795   6.096  0.0313 -1.1988  0.1195
 8301SOL     OW36535   3.209   1.780   8.589  0.1592  0.2721 -1.1194
 8301SOL    HW136536   3.284   1.812   8.640 -0.6985  0.0639  0.2936
 8301SOL    HW236537   3.151   1.855   8.600  0.0796 -0.2452  2.0016
 8302SOL     OW36538   3.084   3.735  17.672  0.1076  0.1330  0.3240
 8302SOL    HW136539   3.096   3.666  17.737  0.5285  1.5358  1.7532
 8302SOL    HW236540   3.003   3.773  17.706  0.9579  1.9610  0.2986
 8303SOL     OW36541   2.534   2.384   7.523 -0.3922 -0.3754 -0.6066
 8303SOL    HW136542   2.508   2.363   7.434 -1.7464 -0.2815 -0.2322
 8303SOL    HW236543   2.453   2.425   7.552 -0.1069  0.6973 -1.3413
 8304SOL     OW36544   3.698   2.549   4.863 -0.6068  0.8949  0.3327
 8304SOL    HW136545   3.779   2.577   4.821 -1.8006  3.6735 -0.1313
 8304SOL    HW236546   3.627   2.581   4.808 -0.2161 -0.5372 -1.0137
 8305SOL     OW36547   4.095   0.816   7.812 -0.1812 -0.1371 -0.1769
 8305SOL    HW136548   4.062   0.828   7.901  1.7388  0.0330  0.5137
 8305SOL    HW236549   4.140   0.898   7.791 -0.8488  0.3088  0.1522
 8306SOL     OW36550   0.935   3.162   8.150  0.8060  0.1517 -0.4522
 8306SOL    HW136551   0.911   3.223   8.220  2.9447 -0.3519  0.7165
 8306SOL    HW236552   1.030   3.176   8.161  0.6534  0.5669  0.4093
 8307SOL     OW36553   4.063   3.341   9.228 -0.5749 -0.1474 -0.4100
 8307SOL    HW136554   4.037   3.375   9.314 -2.0818  2.6429 -1.9462
 8307SOL    HW236555   4.072   3.250   9.254  0.9668  0.7077  2.0603
 8308SOL     OW36556   2.497   2.602   3.155  0.2267  0.6683  0.7054
 8308SOL    HW136557   2.447   2.520   3.153  2.2599 -0.5947  0.4085
 8308SOL    HW236558   2.578   2.565   3.190  0.1288 -0.2465 -0.0203
 8309SOL     OW36559   3.157   1.861  16.811  0.0400 -0.3250 -0.4643
 8309SOL    HW136560   3.199   1.778  16.789 -1.2275 -1.2376  0.5706
 8309SOL    HW236561   3.201   1.879  16.894  0.8083 -1.4147 -0.6427
 8310SOL     OW36562   1.391   0.559  10.230 -0.6601 -0.3248  0.1297
 8310SOL    HW136563   1.423   0.567  10.140  1.0991  1.1648  0.8908
 8310SOL    HW236564   1.463   0.595  10.281 -1.7268 -0.0119  1.4134
 8311SOL     OW36565   0.007   0.265  12.184  0.2039 -0.2807 -0.1074
 8311SOL    HW136566   4.690   0.281  12.108  0.0690  1.2112  0.3133
 8311SOL    HW236567   4.690   0.255  12.260 -0.2145 -1.5643 -0.5677
 8312SOL     OW36568   2.066   4.668   5.734  0.3445  0.3617 -0.2274
 8312SOL    HW136569   2.092   0.017   5.705  2.3494 -0.4755 -0.9956
 8312SOL    HW236570   2.152   4.630   5.750 -0.3935 -2.2938 -2.7048
 8313SOL     OW36571   3.604   4.489   8.959 -0.7338 -0.1312  0.1369
 8313SOL    HW136572   3.601   4.407   8.909  0.6269 -0.2822  0.3203
 8313SOL    HW236573   3.533   4.479   9.023 -1.4002  0.6590 -0.4705
 8314SOL     OW36574   1.850   0.210   9.821  0.0431  0.1908 -0.8488
 8314SOL    HW136575   1.790   0.145   9.787 -0.2434  0.2393 -0.4322
 8314SOL    HW236576   1.929   0.205   9.766  0.0972 -2.2401 -0.5130
 8315SOL     OW36577   1.194   0.406   0.462  0.0332  0.2091  0.1264
 8315SOL    HW136578   1.146   0.436   0.540  1.1744 -2.7886  2.0046
 8315SOL    HW236579   1.270   0.464   0.462 -0.2870  0.6331  0.5811
 8316SOL     OW36580   1.400   1.327   8.143  0.6036  0.4645 -0.4795
 8316SOL    HW136581   1.341   1.397   8.170 -1.8532 -0.5573 -3.1802
 8316SOL    HW236582   1.402   1.332   8.048 -0.5012 -1.6862 -0.6094
 8317SOL     OW36583   1.608   3.992   3.980 -0.1237  0.4979  0.2695
 8317SOL    HW136584   1.615   4.011   4.074 -2.2314  0.0520  0.5006
 8317SOL    HW236585   1.515   3.972   3.974 -0.4919  2.3984 -0.3115
 8318SOL     OW36586   0.675   1.101  16.335 -0.3711 -0.2209  0.0515
 8318SOL    HW136587   0.677   1.161  16.410 -0.6266  0.2633 -0.3294
 8318SOL    HW236588   0.584   1.079  16.316  0.5259 -0.1737 -4.3035
 8319SOL     OW36589   2.640   3.026  10.535 -0.2323  0.2752  0.0016
 8319SOL    HW136590   2.626   3.035  10.629  0.6981 -0.2686  0.1874
 8319SOL    HW236591   2.625   3.112  10.496 -0.9671  0.6906  1.2220
 8320SOL     OW36592   1.119   1.963   7.119 -0.4336  0.1963  0.2214
 8320SOL    HW136593   1.025   1.979   7.125 -0.7286 -0.8017 -1.5573
 8320SOL    HW236594   1.113   1.904   7.044  1.5867  0.3599 -0.0742
 8321SOL     OW36595   2.336   3.391   0.449 -0.3932  0.5086  0.4527
 8321SOL    HW136596   2.318   3.465   0.391  0.3706  0.2234 -0.1521
 8321SOL    HW236597   2.401   3.437   0.502  3.3793 -3.0646 -1.0721
 8322SOL     OW36598   4.502   1.489   1.620 -0.3956  0.1344 -0.0952
 8322SOL    HW136599   4.421   1.448   1.591 -0.0324 -1.8354  1.6075
 8322SOL    HW236600   4.497   1.475   1.715  1.0894 -1.9978 -0.3207
 8323SOL     OW36601   2.369   0.704   1.777 -0.7351 -0.3121 -0.3165
 8323SOL    HW136602   2.372   0.715   1.682  0.3550 -0.3671 -0.2932
 8323SOL    HW236603   2.316   0.776   1.811 -0.6719 -0.1688 -0.5223
 8324SOL     OW36604   0.041   2.169   7.883 -0.4773  0.1016  0.0584
 8324SOL    HW136605   0.034   2.108   7.810 -0.2922  0.2628 -0.0950
 8324SOL    HW236606   0.078   2.248   7.843  0.3643  0.4189  1.4525
 8325SOL     OW36607   2.322   4.281   8.724 -0.6667  0.2535 -0.0066
 8325SOL    HW136608   2.409   4.248   8.744 -0.8286 -0.6991 -0.8511
 8325SOL    HW236609   2.302   4.345   8.792 -2.0965  0.1016 -0.2737
 8326SOL     OW36610   3.346   2.535   2.116  0.1122  0.3345  0.3288
 8326SOL    HW136611   3.401   2.539   2.037  1.5170  2.8858  1.4526
 8326SOL    HW236612   3.374   2.453   2.156  0.0754  0.1933  0.0643
 8327SOL     OW36613   3.522   4.363   7.969 -0.0282 -0.0905 -0.6541
 8327SOL    HW136614   3.448   4.385   7.913 -0.1494 -2.9002 -1.6111
 8327SOL    HW236615   3.492   4.284   8.013  3.7824 -1.8358 -1.1959
 8328SOL     OW36616   4.234   3.296   7.997 -0.2612  0.2385 -0.0636
 8328SOL    HW136617   4.149   3.337   8.011 -0.4610 -0.8660  1.9525
 8328SOL    HW236618   4.226   3.201   8.003 -0.2405  0.2234 -0.2857
 8329SOL     OW36619   2.467   4.474   8.879 -0.4793 -0.2491  0.1134
 8329SOL    HW136620   2.391   4.480   8.936  0.9237 -2.5307  2.2101
 8329SOL    HW236621   2.448   4.550   8.824  3.9864 -1.3126 -2.9145
 8330SOL     OW36622   3.985   2.438   8.219 -0.8090  0.1387  0.2274
 8330SOL    HW136623   4.032   2.440   8.136  0.9992 -1.4145  1.2104
 8330SOL    HW236624   3.942   2.354   8.205  0.7075  0.0056 -3.6642
 8331SOL     OW36625   2.994   3.966   0.271  0.2542 -0.0555  0.0122
 8331SOL    HW136626   3.055   3.893   0.265  0.6870  0.1007  2.6454
 8331SOL    HW236627   3.021   4.006   0.353 -2.9597 -3.7057  2.8969
 8332SOL     OW36628   2.378   0.582  14.607 -0.1392 -0.2553 -0.9916
 8332SOL    HW136629   2.465   0.551  14.632 -0.2416 -0.6960 -1.1919
 8332SOL    HW236630   2.381   0.676  14.625  0.6888 -0.1229 -1.8061
 8333SOL     OW36631   1.337   0.134  13.664 -0.5748 -0.0902  0.4507
 8333SOL    HW136632   1.398   0.196  13.624 -1.5173  0.2632 -0.4712
 8333SOL    HW236633   1.399   0.067  13.692  0.8075  0.9105 -0.2443
 8334SOL     OW36634   2.882   3.207  11.225 -0.3233 -0.2343 -0.7776
 8334SOL    HW136635   2.934   3.235  11.151 -0.5014  0.0463 -0.7987
 8334SOL    HW236636   2.893   3.282  11.284 -1.4050 -0.1662 -0.6461
 8335SOL     OW36637   3.306   3.959   0.003  0.3045  0.0534 -0.4761
 8335SOL    HW136638   3.235   3.895   0.006  0.7140 -0.4551 -1.4815
 8335SOL    HW236639   3.272   4.035   0.051 -0.6880  0.1891 -1.3827
 8336SOL     OW36640   0.878   4.641   4.125 -0.0877  0.3182  0.1160
 8336SOL    HW136641   0.951   4.613   4.070 -0.5347 -1.9504  0.6479
 8336SOL    HW236642   0.819   4.567   4.109  1.7302 -1.4019  1.3928
 8337SOL     OW36643   1.937   3.799   3.156 -0.1177 -0.0337  0.9052
 8337SOL    HW136644   1.988   3.805   3.075 -0.5576  1.0672  0.7164
 8337SOL    HW236645   1.936   3.703   3.158 -0.4987 -0.0944 -1.5990
 8338SOL     OW36646   1.509   0.711   3.175 -0.3058 -0.3624  0.1685
 8338SOL    HW136647   1.591   0.743   3.139 -0.8361 -0.4094 -1.1109
 8338SOL    HW236648   1.538   0.634   3.224  1.1957  0.2209  0.1793
 8339SOL     OW36649   0.748   3.564   8.005 -0.2992 -0.1616  0.4356
 8339SOL    HW136650   0.681   3.595   7.944  0.6093  0.1891 -0.3675
 8339SOL    HW236651   0.741   3.469   8.012 -0.9555 -0.1552 -0.0613
 8340SOL     OW36652   3.907   0.212   2.745  0.4734 -0.5725  0.3879
 8340SOL    HW136653   3.933   0.121   2.753 -2.4110 -1.3495  0.8738
 8340SOL    HW236654   3.969   0.248   2.809  2.0627 -1.7719 -0.5124
 8341SOL     OW36655   0.139   4.139   3.960 -0.0237 -0.0031 -0.3926
 8341SOL    HW136656   0.152   4.056   3.915 -0.7513  0.3668 -1.2733
 8341SOL    HW236657   0.230   4.150   3.988  0.9157 -0.1213 -3.4631
 8342SOL     OW36658   2.128   1.900   3.620  0.7976  0.2719 -0.3638
 8342SOL    HW136659   2.033   1.889   3.628  1.2805 -2.1605  2.3661
 8342SOL    HW236660   2.138   1.979   3.568 -1.4588 -0.4499 -1.8628
 8343SOL     OW36661   2.645   2.652   0.280 -0.0075  0.2738  0.0243
 8343SOL    HW136662   2.729   2.610   0.261  0.1357  1.1896 -1.3935
 8343SOL    HW236663   2.584   2.608   0.221  0.8309 -0.2783 -0.4226
 8344SOL     OW36664   2.044   2.279   8.411 -0.3197  0.7575 -0.9896
 8344SOL    HW136665   2.133   2.267   8.443 -1.3715 -1.1005  1.1951
 8344SOL    HW236666   1.999   2.258   8.492 -0.7567  0.1410 -1.3943
 8345SOL     OW36667   3.359   4.523   8.638 -0.0005  0.2657  0.8096
 8345SOL    HW136668   3.429   4.578   8.602 -1.4787  1.1261 -0.7720
 8345SOL    HW236669   3.326   4.486   8.556  3.0284 -1.7115  0.4880
 8346SOL     OW36670   4.528   3.735   0.199 -0.4197 -0.2036  0.0013
 8346SOL    HW136671   4.510   3.797   0.270 -1.3542 -1.0634  0.4988
 8346SOL    HW236672   4.439   3.722   0.168 -1.2246  0.9778  1.7955
 8347SOL     OW36673   0.732   0.986   0.546 -0.2578  0.6072 -0.0044
 8347SOL    HW136674   0.735   1.067   0.596 -1.0725 -0.1668  1.3104
 8347SOL    HW236675   0.766   0.927   0.614  0.9702  0.1545 -0.9995
 8348SOL     OW36676   4.398   3.285   3.041 -0.6479 -0.6248  0.8073
 8348SOL    HW136677   4.449   3.243   2.972  0.0549  1.9870 -0.2625
 8348SOL    HW236678   4.334   3.340   2.995  2.3124  1.2856 -0.9900
 8349SOL     OW36679   0.502   0.572   8.598 -0.1352  0.3587 -0.5375
 8349SOL    HW136680   0.428   0.516   8.574 -1.1155  1.3125  0.3048
 8349SOL    HW236681   0.511   0.567   8.693  0.5791 -0.4586 -0.6402
 8350SOL     OW36682   1.582   0.624  11.232  0.1185 -0.1007 -0.7576
 8350SOL    HW136683   1.502   0.617  11.179 -1.3596 -0.5222  1.5627
 8350SOL    HW236684   1.609   0.532  11.240 -0.8212 -0.3792 -0.7663
 8351SOL     OW36685   0.806   1.543   4.050 -0.2085  0.3768 -0.4231
 8351SOL    HW136686   0.729   1.578   4.005 -0.9021  0.8275  1.0939
 8351SOL    HW236687   0.878   1.596   4.019 -0.0529  0.9393  0.8787
 8352SOL     OW36688   2.590   0.123  12.211 -0.7409 -0.1835 -0.0167
 8352SOL    HW136689   2.578   0.194  12.274 -0.7542 -0.9965  0.9078
 8352SOL    HW236690   2.645   0.163  12.143  0.1563 -1.1684  0.1194
 8353SOL     OW36691   3.769   4.417  14.317  0.2041 -0.8184 -0.3266
 8353SOL    HW136692   3.801   4.327  14.327 -0.6129 -1.0824 -0.1140
 8353SOL    HW236693   3.689   4.418  14.264  0.3226 -0.0826 -0.4943
 8354SOL     OW36694   0.069   1.062   3.091 -1.1253  0.0684  0.2601
 8354SOL    HW136695   0.038   0.971   3.095 -2.2791  0.5018  1.0140
 8354SOL    HW236696   0.024   1.091   3.012  1.6976  0.6053 -1.1709
 8355SOL     OW36697   4.487   0.578   5.515  0.7199 -0.6792  0.4651
 8355SOL    HW136698   4.518   0.504   5.464 -0.5286 -1.2587  0.5397
 8355SOL    HW236699   4.566   0.630   5.500 -0.0923  0.1626 -0.9763
 8356SOL     OW36700   3.853   0.353  16.613  0.2597  0.5238  0.5285
 8356SOL    HW136701   3.915   0.426  16.610  1.1484 -0.3202 -0.9667
 8356SOL    HW236702   3.847   0.349  16.709 -0.2530  0.9440  0.5151
 8357SOL     OW36703   2.198   2.743   8.301  0.1843  0.6595  0.7423
 8357SOL    HW136704   2.233   2.708   8.219 -1.8108  0.6808 -0.1090
 8357SOL    HW236705   2.249   2.824   8.311 -0.0801  1.0660 -1.3162
 8358SOL     OW36706   4.384   3.840   7.399 -0.1829 -0.9561 -0.0245
 8358SOL    HW136707   4.290   3.821   7.393  0.2550 -3.1175  0.0385
 8358SOL    HW236708   4.431   3.757   7.410 -0.0832 -0.8163  0.5755
 8359SOL     OW36709   2.152   1.920   4.356  0.5227  0.1522  0.2078
 8359SOL    HW136710   2.241   1.900   4.385  0.6821 -0.8751 -1.0170
 8359SOL    HW236711   2.106   1.837   4.346 -0.5922  0.7490  0.3334
 8360SOL     OW36712   3.336   0.207   6.628  0.2048  0.2871  0.0143
 8360SOL    HW136713   3.343   0.144   6.557 -0.7396  1.0814 -0.7642
 8360SOL    HW236714   3.295   0.153   6.695 -1.7427  1.7356  0.0017
 8361SOL     OW36715   3.389   4.354   2.188 -0.2134  0.4159 -0.3885
 8361SOL    HW136716   3.458   4.379   2.249  0.6487  0.9903 -1.6017
 8361SOL    HW236717   3.445   4.342   2.111  0.9004 -0.3284  0.5341
 8362SOL     OW36718   3.040   2.837   8.160 -0.8371  0.5228  0.7800
 8362SOL    HW136719   2.960   2.881   8.132 -0.0837 -0.0806 -2.3515
 8362SOL    HW236720   3.063   2.794   8.078  0.7945  0.1583  1.4210
 8363SOL     OW36721   0.130   3.485   1.626 -0.1554  0.3082  0.4035
 8363SOL    HW136722   0.059   3.543   1.653 -2.3859 -1.5211 -1.4790
 8363SOL    HW236723   0.213   3.529   1.645  0.2063  0.3792 -1.2962
 8364SOL     OW36724   4.035   0.208   1.472 -0.3213  0.2540  0.2043
 8364SOL    HW136725   4.110   0.152   1.453 -0.8622 -0.5333  0.3700
 8364SOL    HW236726   4.075   0.268   1.535  1.6691 -0.4376 -0.4278
 8365SOL     OW36727   2.620   2.745   2.083 -0.2400 -0.3020  0.5257
 8365SOL    HW136728   2.714   2.736   2.098 -0.3594 -1.4239  0.6012
 8365SOL    HW236729   2.585   2.759   2.171  2.2260 -1.3557  1.6734
 8366SOL     OW36730   2.540   4.732   8.451  0.0705 -0.5565  1.2308
 8366SOL    HW136731   2.480   0.066   8.435  0.5253 -0.8635 -1.9698
 8366SOL    HW236732   2.486   4.656   8.430  0.9783 -0.2156 -2.3341
 8367SOL     OW36733   3.102   2.961   2.462  0.4814 -0.5438 -0.3849
 8367SOL    HW136734   3.091   3.042   2.513 -0.4560 -0.4466 -0.7490
 8367SOL    HW236735   3.197   2.951   2.469  0.7696  3.1708  1.0814
 8368SOL     OW36736   4.076   3.472  12.700 -0.0083  0.4882 -0.3710
 8368SOL    HW136737   4.132   3.396  12.681 -0.4477  0.1701 -0.4053
 8368SOL    HW236738   4.130   3.544  12.666 -0.4054  0.5797 -0.7952
 8369SOL     OW36739   4.075   4.143   9.489 -0.0662 -0.8963  0.5579
 8369SOL    HW136740   3.986   4.111   9.474 -0.5845  1.0514 -0.4735
 8369SOL    HW236741   4.050   4.206   9.556  2.3332  1.7723 -1.0581
 8370SOL     OW36742   2.505   1.052   6.072  0.2038  0.2045 -0.5314
 8370SOL    HW136743   2.465   1.075   5.988  0.8207 -2.3503 -1.5297
 8370SOL    HW236744   2.523   1.133   6.120  0.3193 -0.1110 -0.0390
 8371SOL     OW36745   0.951   0.352   8.475  0.4063  0.7867 -0.4978
 8371SOL    HW136746   1.018   0.373   8.410  0.3101  2.3737 -0.0720
 8371SOL    HW236747   0.902   0.434   8.481  0.6911  0.8164  1.6000
 8372SOL     OW36748   3.902   2.736   8.034 -0.4914 -0.1720  0.2841
 8372SOL    HW136749   3.953   2.798   7.982  0.5196 -1.2181  0.0203
 8372SOL    HW236750   3.912   2.654   7.984 -0.2326 -0.5317  0.9253
 8373SOL     OW36751   2.532   1.512   2.865 -0.6731 -0.0127 -0.5417
 8373SOL    HW136752   2.499   1.586   2.814  0.0609  0.1534 -0.7703
 8373SOL    HW236753   2.585   1.558   2.930 -0.5437 -0.5944 -0.2336
 8374SOL     OW36754   3.638   2.461  14.738 -0.0749 -0.0529 -0.0025
 8374SOL    HW136755   3.555   2.434  14.700 -0.4438 -1.4385  1.7837
 8374SOL    HW236756   3.671   2.521  14.671  1.4490 -0.0471  0.7300
 8375SOL     OW36757   2.365   3.696   1.384 -0.5252  0.5162  0.2459
 8375SOL    HW136758   2.294   3.758   1.364  0.5130  1.1986 -1.2747
 8375SOL    HW236759   2.421   3.759   1.429  1.1045  0.4012 -1.6477
 8376SOL     OW36760   2.975   1.827   8.222 -1.0375 -0.4136 -0.0669
 8376SOL    HW136761   2.986   1.779   8.140  1.9957  1.2887 -0.6601
 8376SOL    HW236762   3.052   1.884   8.221 -3.8514  3.4853  2.1120
 8377SOL     OW36763   2.936   1.753  17.053  0.6082  0.1781  0.1283
 8377SOL    HW136764   3.004   1.686  17.061  0.1091 -0.5474 -1.5764
 8377SOL    HW236765   2.979   1.820  17.106 -0.0679 -0.3018  1.2907
 8378SOL     OW36766   4.313   1.168  16.161  0.0998  0.3789  0.3671
 8378SOL    HW136767   4.248   1.212  16.106 -2.3500 -0.8600  2.2990
 8378SOL    HW236768   4.262   1.110  16.217  0.9359  0.6570  1.4055
 8379SOL     OW36769   4.691   1.886  10.867 -0.0719  0.5430  0.2808
 8379SOL    HW136770   4.646   1.953  10.919 -0.3862  0.9324 -0.4822
 8379SOL    HW236771   4.667   1.805  10.910  1.2443  0.7034  1.3053
 8380SOL     OW36772   2.786   3.687   3.474  0.0826 -0.7257 -0.0216
 8380SOL    HW136773   2.787   3.673   3.380  2.2080  0.0511 -0.1136
 8380SOL    HW236774   2.765   3.597   3.498 -2.6557  0.1297  0.7524
 8381SOL     OW36775   4.264   2.603   5.308 -0.5552 -0.8574 -0.0300
 8381SOL    HW136776   4.341   2.622   5.256 -0.3156 -1.8995 -0.0622
 8381SOL    HW236777   4.308   2.599   5.393  0.1864 -0.3636 -0.3892
 8382SOL     OW36778   4.639   1.373   4.237  0.2750  0.1108 -0.3612
 8382SOL    HW136779   4.631   1.457   4.192  3.2428 -0.1202 -1.3374
 8382SOL    HW236780   4.625   1.402   4.327 -1.2865 -1.5731 -0.0581
 8383SOL     OW36781   4.236   0.916   7.555  0.2258  0.5952  0.0238
 8383SOL    HW136782   4.331   0.920   7.568 -0.0989 -0.0737  2.5254
 8383SOL    HW236783   4.226   0.825   7.527 -1.1703  1.6581 -2.9488
 8384SOL     OW36784   3.528   1.753   0.579 -0.0108 -0.2761 -0.4975
 8384SOL    HW136785   3.462   1.743   0.510 -3.0024  1.8648  2.1273
 8384SOL    HW236786   3.519   1.668   0.623 -1.2305  1.1007  1.8711
 8385SOL     OW36787   0.722   0.452  13.968 -0.3080 -0.5126  0.6516
 8385SOL    HW136788   0.781   0.378  13.976 -0.4084 -0.8529 -1.6989
 8385SOL    HW236789   0.674   0.452  14.051 -0.1744  4.0598  0.7491
 8386SOL     OW36790   3.396   0.699   9.597 -0.5893  0.2064  0.3245
 8386SOL    HW136791   3.466   0.722   9.536  0.4008 -1.9018  0.6627
 8386SOL    HW236792   3.377   0.786   9.631 -0.5734 -0.1975  1.3862
 8387SOL     OW36793   3.264   4.223  16.628 -0.2765  0.3916 -0.2372
 8387SOL    HW136794   3.263   4.167  16.706 -0.5496 -1.2679 -1.4316
 8387SOL    HW236795   3.257   4.313  16.660  0.7434  0.2095  0.4942
 8388SOL     OW36796   4.375   3.960   8.964  0.1478 -0.2367 -0.6572
 8388SOL    HW136797   4.338   3.881   9.003  1.4021  0.3110  1.6749
 8388SOL    HW236798   4.348   4.027   9.028 -0.8466 -2.0052  0.7898
 8389SOL     OW36799   2.048   3.981   4.414  0.2050 -0.3573 -0.2361
 8389SOL    HW136800   2.041   3.903   4.359 -1.3712 -0.2862 -0.1494
 8389SOL    HW236801   2.102   4.040   4.362 -0.5977  1.9026  1.5247
 8390SOL     OW36802   1.443   0.451   1.946  0.3447  0.1361  0.3027
 8390SOL    HW136803   1.351   0.456   1.974 -0.0767  1.0201 -1.2646
 8390SOL    HW236804   1.476   0.377   1.997  0.5705 -1.6496 -2.4497
 8391SOL     OW36805   0.784   3.256   4.780  0.1563 -0.2540 -0.3445
 8391SOL    HW136806   0.707   3.310   4.763  1.0444  0.9826 -0.4350
 8391SOL    HW236807   0.845   3.310   4.730 -0.0885  0.2439 -0.0995
 8392SOL     OW36808   3.773   0.260  14.034 -0.1716 -0.5126 -0.4356
 8392SOL    HW136809   3.829   0.276  13.958  0.3188 -0.5778 -0.0948
 8392SOL    HW236810   3.691   0.292  13.996  0.9251  0.8622 -1.6726
 8393SOL     OW36811   0.129   1.628  11.385 -0.0462 -0.0770 -0.3254
 8393SOL    HW136812   0.107   1.721  11.394 -2.0197 -0.3638 -2.0731
 8393SOL    HW236813   0.053   1.582  11.349  1.0477 -1.4638 -0.8236
 8394SOL     OW36814   3.639   1.277   6.604  0.2737  0.0457 -0.3333
 8394SOL    HW136815   3.728   1.262   6.573 -0.0642 -2.4610 -0.1119
 8394SOL    HW236816   3.627   1.204   6.665 -0.7370  0.0641 -0.5086
 8395SOL     OW36817   1.428   2.847   4.398 -0.3659  0.0148  0.4585
 8395SOL    HW136818   1.340   2.871   4.371  0.8521  2.7074 -1.1066
 8395SOL    HW236819   1.452   2.923   4.451 -1.0608  2.9645 -3.4351
 8396SOL     OW36820   4.494   4.277   1.844  0.2485  0.0520 -0.3658
 8396SOL    HW136821   4.493   4.289   1.939 -0.5189  0.7612 -0.4606
 8396SOL    HW236822   4.529   4.359   1.808  0.6125  0.5226  1.0732
 8397SOL     OW36823   1.000   3.503   5.651  0.3743  0.2926  0.3829
 8397SOL    HW136824   0.921   3.450   5.642 -0.4193  2.0263 -3.2152
 8397SOL    HW236825   1.004   3.527   5.558  0.7185 -0.7286  0.1325
 8398SOL     OW36826   3.826   2.409   3.470 -0.1403 -0.3719  0.2382
 8398SOL    HW136827   3.767   2.440   3.401  0.9112 -1.7356 -1.2722
 8398SOL    HW236828   3.905   2.456   3.445 -0.1609 -0.5828 -0.2267
 8399SOL     OW36829   1.811   0.118  15.886 -0.2801 -0.0083 -0.0182
 8399SOL    HW136830   1.748   0.068  15.834  0.2257  0.3032 -0.9304
 8399SOL    HW236831   1.753   0.188  15.916 -1.6437 -0.8374 -0.7343
 8400SOL     OW36832   1.268   0.009   6.118 -0.1021  0.0033 -0.3498
 8400SOL    HW136833   1.250   0.048   6.032 -2.5958 -0.7287 -0.1678
 8400SOL    HW236834   1.308   0.078   6.169 -0.7343  1.2174 -1.4993
 8401SOL     OW36835   2.398   3.336  10.878 -0.1294  0.3260  0.0487
 8401SOL    HW136836   2.435   3.367  10.960 -0.3644  0.1573  0.2169
 8401SOL    HW236837   2.449   3.386  10.814  1.6350 -0.8775  0.5365
 8402SOL     OW36838   2.927   2.500   6.117  0.2484 -0.2062 -0.0583
 8402SOL    HW136839   2.940   2.414   6.078  0.7523  0.2066 -0.7912
 8402SOL    HW236840   2.994   2.543   6.065  0.1714 -0.7654 -0.6171
 8403SOL     OW36841   2.757   4.305   0.550 -0.4268  0.9650  0.2111
 8403SOL    HW136842   2.800   4.381   0.511 -0.4410  0.0562 -1.5546
 8403SOL    HW236843   2.665   4.326   0.530  0.5052  0.5996 -4.4921
 8404SOL     OW36844   0.845   0.739  10.058  0.6978 -0.2429  0.4891
 8404SOL    HW136845   0.913   0.739   9.991  0.1243 -0.5659 -0.0882
 8404SOL    HW236846   0.777   0.802  10.035  0.4758 -0.8259 -0.4260
 8405SOL     OW36847   1.302   0.223   6.562 -0.5622  0.4926 -0.2137
 8405SOL    HW136848   1.371   0.270   6.610 -1.9997  1.1409  1.2293
 8405SOL    HW236849   1.249   0.300   6.541 -1.5132  0.0680  0.6366
 8406SOL     OW36850   3.522   1.508  16.691 -0.5618  0.4493 -0.5156
 8406SOL    HW136851   3.607   1.463  16.689 -0.5722  0.3832  0.6443
 8406SOL    HW236852   3.518   1.540  16.601 -0.3118 -2.9325 -1.7182
 8407SOL     OW36853   1.381   3.635   5.268 -0.1941  0.2402 -0.2306
 8407SOL    HW136854   1.351   3.725   5.255 -1.5068 -0.1473  0.0778
 8407SOL    HW236855   1.441   3.627   5.194 -3.0753  0.2861 -2.5503
 8408SOL     OW36856   4.183   3.015   7.910  0.0010 -0.3928  0.2544
 8408SOL    HW136857   4.087   3.016   7.911  0.0199  2.1845 -1.7752
 8408SOL    HW236858   4.208   2.952   7.842 -2.0673 -0.1313 -0.7455
 8409SOL     OW36859   3.888   3.213  12.233  0.0190  0.2128  0.0702
 8409SOL    HW136860   3.886   3.190  12.326 -0.7840 -0.0975 -0.0254
 8409SOL    HW236861   3.977   3.182  12.216  0.2012  1.0270 -0.4644
 8410SOL     OW36862   4.538   4.682   0.064  0.7432 -0.3703 -0.2930
 8410SOL    HW136863   4.491   4.599   0.057  1.4550 -0.9285  1.6857
 8410SOL    HW236864   4.488   4.728   0.132  2.1953  2.4549 -1.1244
 8411SOL     OW36865   0.394   3.805  12.399  0.0111 -0.4328  0.1955
 8411SOL    HW136866   0.313   3.803  12.348 -0.4639 -0.2181  0.9500
 8411SOL    HW236867   0.374   3.747  12.472 -0.0510  0.5859  0.9922
 8412SOL     OW36868   0.768   1.935   4.068 -0.1940  0.7370  0.2542
 8412SOL    HW136869   0.755   1.877   3.993  0.5040  0.5242  0.2980
 8412SOL    HW236870   0.683   1.978   4.077 -1.2127 -0.9233 -1.4893
 8413SOL     OW36871   3.360   0.921  15.014 -0.4000  0.2582 -0.0933
 8413SOL    HW136872   3.314   0.902  14.932  1.5444 -0.1327 -1.0817
 8413SOL    HW236873   3.423   0.987  14.984 -0.4817  0.8171  0.9640
 8414SOL     OW36874   0.562   0.034   9.266 -0.9889  0.1483 -0.7651
 8414SOL    HW136875   0.511   0.087   9.328  0.8838 -0.3999  1.2409
 8414SOL    HW236876   0.496   4.705   9.250  0.2567 -1.1636 -0.3465
 8415SOL     OW36877   3.592   0.282   3.843  0.0090  0.1000 -0.1395
 8415SOL    HW136878   3.574   0.359   3.896  1.3418  0.7666 -0.6530
 8415SOL    HW236879   3.567   0.325   3.761  2.7057  1.2827 -0.3270
 8416SOL     OW36880   2.270   0.051   0.661 -0.1540  0.1479 -0.3483
 8416SOL    HW136881   2.234   0.026   0.576 -0.1002  0.8854 -0.5852
 8416SOL    HW236882   2.361   0.061   0.632 -0.3404 -2.8429 -1.9933
 8417SOL     OW36883   3.025   2.026   5.805  0.6216 -0.0439 -0.4410
 8417SOL    HW136884   3.114   1.991   5.802  0.4577 -0.3738 -1.4062
 8417SOL    HW236885   2.993   1.986   5.724 -1.0142 -0.6350  0.5023
 8418SOL     OW36886   1.965   2.068   6.879 -0.0562 -0.0831  0.5668
 8418SOL    HW136887   1.917   2.036   6.803  2.8916 -1.7126 -0.6360
 8418SOL    HW236888   2.055   2.086   6.850 -0.4309  2.5449  1.0484
 8419SOL     OW36889   1.252   3.602   1.478 -0.0067  0.0828  0.4066
 8419SOL    HW136890   1.223   3.680   1.525 -1.8787 -0.5647  0.3137
 8419SOL    HW236891   1.326   3.643   1.432  1.0772 -0.2862  1.8306
 8420SOL     OW36892   3.446   3.257   6.607  0.2942 -0.0396  0.1469
 8420SOL    HW136893   3.399   3.212   6.536 -0.3796 -0.7264  1.0295
 8420SOL    HW236894   3.522   3.292   6.560 -0.5697  1.8031  0.0868
 8421SOL     OW36895   2.834   1.874  12.397  0.1925  0.0361 -0.2602
 8421SOL    HW136896   2.764   1.809  12.398  1.0142 -0.8760 -1.6337
 8421SOL    HW236897   2.848   1.884  12.303 -1.2314  2.4819 -0.2062
 8422SOL     OW36898   4.629   4.438  16.024  0.2261  0.8442  0.0873
 8422SOL    HW136899   4.536   4.444  16.048 -0.0219  0.2633 -0.7309
 8422SOL    HW236900   4.647   4.531  16.007 -1.9760  0.7369 -2.8065
 8423SOL     OW36901   0.315   2.386   3.743 -0.2438  0.2228 -0.0136
 8423SOL    HW136902   0.333   2.294   3.723 -1.6604 -0.3842  1.5093
 8423SOL    HW236903   0.310   2.415   3.652 -1.6770 -0.7508 -0.2477
 8424SOL     OW36904   2.329   2.106   6.120 -0.1121 -0.2485  0.1233
 8424SOL    HW136905   2.397   2.093   6.054  0.2960 -1.0725  0.7007
 8424SOL    HW236906   2.312   2.199   6.102 -0.3865 -0.2298  0.4808
 8425SOL     OW36907   1.943   4.296   2.005  0.2567  0.0721 -0.2032
 8425SOL    HW136908   1.865   4.262   1.961  0.1698  0.8140 -0.6190
 8425SOL    HW236909   1.968   4.225   2.064 -0.4610  0.0691  0.0910
 8426SOL     OW36910   0.224   0.906   4.134  0.4898  0.5976 -0.4743
 8426SOL    HW136911   0.280   0.938   4.205  1.9085 -0.6970 -0.9996
 8426SOL    HW236912   0.146   0.959   4.147 -1.7549 -2.7258 -0.5941
 8427SOL     OW36913   1.600   2.136   3.569  0.1051  0.1315  0.1664
 8427SOL    HW136914   1.585   2.201   3.637  1.2091  0.2847  0.2679
 8427SOL    HW236915   1.514   2.152   3.530  0.5105  2.8636  0.3660
 8428SOL     OW36916   0.948   4.533   6.895  0.0713 -0.1606 -0.1549
 8428SOL    HW136917   1.020   4.525   6.958  0.2589 -0.2978 -0.3844
 8428SOL    HW236918   0.994   4.558   6.815  0.0238 -2.8092 -1.0023
 8429SOL     OW36919   4.532   3.667   2.165  0.4281 -0.3710 -0.0744
 8429SOL    HW136920   4.577   3.730   2.109  0.5146  0.9611  1.5025
 8429SOL    HW236921   4.481   3.627   2.095 -1.1656 -0.1280  0.9604
 8430SOL     OW36922   1.436   3.038   4.595 -0.1001  0.0006  0.3187
 8430SOL    HW136923   1.382   3.107   4.555 -1.2134 -0.4338  1.0599
 8430SOL    HW236924   1.374   3.000   4.658 -0.4957 -0.4252 -0.3270
 8431SOL     OW36925   0.951   1.265   4.300 -0.0948  0.7552 -0.5057
 8431SOL    HW136926   0.944   1.360   4.311  0.6137  0.5965  1.2915
 8431SOL    HW236927   0.953   1.238   4.391  1.7501 -0.7772 -1.0240
 8432SOL     OW36928   2.266   1.185  14.961  0.4400 -0.3376 -0.5360
 8432SOL    HW136929   2.181   1.141  14.953  0.6165 -0.9289  0.9579
 8432SOL    HW236930   2.285   1.207  14.870  1.8487  0.2320 -0.1096
 8433SOL     OW36931   2.199   2.268  17.484 -0.2112  0.1074  0.1017
 8433SOL    HW136932   2.234   2.241  17.569  0.8905  0.7124 -0.1591
 8433SOL    HW236933   2.186   2.184  17.441  1.7762  1.0767 -2.4133
 8434SOL     OW36934   3.289   3.152  17.515  0.3525 -0.0763  0.2661
 8434SOL    HW136935   3.350   3.216  17.478 -0.6416  1.1595  0.7529
 8434SOL    HW236936   3.266   3.191  17.600 -2.1030  2.2398 -1.4398
 8435SOL     OW36937   0.783   1.362   9.582 -0.4015  0.4642  0.5388
 8435SOL    HW136938   0.821   1.408   9.657  0.9679  0.4724 -0.1679
 8435SOL    HW236939   0.696   1.402   9.588  0.2141  1.4435  3.0077
 8436SOL     OW36940   0.685   3.289   9.945 -0.2875 -0.0767 -0.1434
 8436SOL    HW136941   0.769   3.244   9.941 -1.2776 -2.0153  0.9668
 8436SOL    HW236942   0.665   3.300   9.852 -0.6738 -0.7600 -0.1416
 8437SOL     OW36943   4.368   3.092   7.610  0.6524 -0.1607 -0.7670
 8437SOL    HW136944   4.419   3.075   7.689 -2.6680 -0.2629  1.3900
 8437SOL    HW236945   4.345   3.185   7.612  2.6250  0.3016  0.0633
 8438SOL     OW36946   3.030   4.426   4.958 -0.4718  0.0916  0.1585
 8438SOL    HW136947   3.022   4.495   4.892  0.9515  1.2332  1.1840
 8438SOL    HW236948   2.982   4.354   4.916 -2.1441  1.5047 -0.3404
 8439SOL     OW36949   4.438   3.190   8.575  0.0178 -0.2390 -0.0385
 8439SOL    HW136950   4.508   3.249   8.603  1.9100 -0.1493 -5.1163
 8439SOL    HW236951   4.401   3.169   8.661 -0.8895 -1.1282 -0.6475
 8440SOL     OW36952   2.222   4.371   6.372  0.1572 -0.2224 -0.4515
 8440SOL    HW136953   2.228   4.293   6.427 -0.6967  0.0082 -0.0325
 8440SOL    HW236954   2.135   4.364   6.334 -0.7782 -0.7773  1.7719
 8441SOL     OW36955   2.325   0.882   6.704 -0.4107 -0.5498  0.1613
 8441SOL    HW136956   2.229   0.887   6.707 -0.4753 -1.8159  0.2632
 8441SOL    HW236957   2.340   0.788   6.699  0.4787 -0.4234  0.5439
 8442SOL     OW36958   0.169   0.781   7.221  0.3061  0.2737  0.3651
 8442SOL    HW136959   0.082   0.803   7.186  0.3619  0.0110  0.0663
 8442SOL    HW236960   0.146   0.688   7.219 -0.0097  0.3571  0.1259
 8443SOL     OW36961   0.186   2.352   5.972 -0.6608 -0.1053  0.0154
 8443SOL    HW136962   0.163   2.268   5.933  2.2051 -0.3934 -1.0845
 8443SOL    HW236963   0.181   2.345   6.068  2.8574  1.8083  0.3599
 8444SOL     OW36964   2.008   0.118   7.061  0.2586  0.0804  0.0230
 8444SOL    HW136965   1.992   0.025   7.074 -0.7406  0.1745 -0.5534
 8444SOL    HW236966   2.086   0.137   7.113  2.2812  0.6944 -3.2481
 8445SOL     OW36967   0.106   4.626  14.527  0.4568  0.0578 -0.2195
 8445SOL    HW136968   0.129   4.563  14.595  2.8075  1.9889  0.7594
 8445SOL    HW236969   0.118   4.567  14.452  1.6457  1.3335 -1.0262
 8446SOL     OW36970   2.058   1.915   8.374  0.0802  0.1412 -0.5928
 8446SOL    HW136971   1.990   1.960   8.425  0.9392 -0.5782  1.2061
 8446SOL    HW236972   2.121   1.911   8.446 -0.6800 -0.3252  0.0458
 8447SOL     OW36973   4.233   2.530  12.416  0.2228 -0.0618  0.5087
 8447SOL    HW136974   4.151   2.577  12.430  0.0828  0.6367 -2.7709
 8447SOL    HW236975   4.220   2.493  12.328  0.9358  2.2025 -0.5319
 8448SOL     OW36976   2.251   3.722   3.647  0.4045 -0.0506  0.9211
 8448SOL    HW136977   2.246   3.700   3.740 -0.1319 -2.0885  0.4123
 8448SOL    HW236978   2.214   3.810   3.652 -0.2404 -0.1356 -2.1123
 8449SOL     OW36979   1.323   2.739   6.398  0.3294 -0.6086  0.1938
 8449SOL    HW136980   1.238   2.717   6.358 -0.4561  0.9191  1.0382
 8449SOL    HW236981   1.373   2.658   6.386 -1.6509 -1.8621  0.4645
 8450SOL     OW36982   1.896   1.500   4.669 -0.1156  0.2904 -0.3210
 8450SOL    HW136983   1.990   1.482   4.664 -0.2614 -0.7572  0.8981
 8450SOL    HW236984   1.868   1.445   4.596  2.3065 -2.2375  0.6755
 8451SOL     OW36985   0.123   1.970   3.606  0.2573 -0.0152 -0.3596
 8451SOL    HW136986   0.090   1.964   3.695  0.7164  2.2102 -0.0371
 8451SOL    HW236987   0.123   1.883   3.567  1.2238 -0.0443 -0.3034
 8452SOL     OW36988   1.058   2.175  15.496 -0.0513  0.1933 -0.3085
 8452SOL    HW136989   1.150   2.201  15.481  1.0838 -3.9517 -0.4558
 8452SOL    HW236990   1.042   2.117  15.422 -1.7716  2.4783 -1.7153
 8453SOL     OW36991   3.380   3.178   1.092  0.0179  0.9416  0.2052
 8453SOL    HW136992   3.434   3.138   1.160 -1.6061 -1.3654  0.1209
 8453SOL    HW236993   3.443   3.244   1.063  1.7908  0.6821  3.4780
 8454SOL     OW36994   1.365   2.453   1.480  0.4054  0.1061  0.5953
 8454SOL    HW136995   1.357   2.368   1.525 -0.0333  0.9963  2.1836
 8454SOL    HW236996   1.371   2.502   1.562  0.0653 -1.7138  1.7299
 8455SOL     OW36997   3.074   1.062  11.785  0.2246  0.3314  0.3573
 8455SOL    HW136998   3.163   1.046  11.817 -0.1724  1.6666  2.1526
 8455SOL    HW236999   3.033   1.120  11.850 -1.4562 -0.5140  0.0316
 8456SOL     OW37000   0.420   4.127  17.587  0.5832 -0.0573 -0.0962
 8456SOL    HW137001   0.498   4.103  17.538 -1.0491 -2.5854 -1.4344
 8456SOL    HW237002   0.375   4.047  17.559 -0.7049  0.7435 -0.3317
 8457SOL     OW37003   3.284   4.514   4.044  0.1801 -0.0917  0.2997
 8457SOL    HW137004   3.356   4.451   4.041  0.0234 -0.1884 -1.5293
 8457SOL    HW237005   3.217   4.469   4.095  0.9701 -0.8989  0.6448
 8458SOL     OW37006   2.707   4.052   2.449  0.0790  0.7418 -0.1406
 8458SOL    HW137007   2.649   4.007   2.511  0.2819 -1.1964 -1.3431
 8458SOL    HW237008   2.777   3.986   2.449 -0.6240 -0.0100 -0.6205
 8459SOL     OW37009   3.760   1.887   0.684 -0.1591 -0.5822  0.2289
 8459SOL    HW137010   3.676   1.845   0.666 -0.8982  0.2552  1.6456
 8459SOL    HW237011   3.784   1.844   0.766  1.0619  0.3966  0.3843
 8460SOL     OW37012   0.891   1.906   4.721 -0.6236 -0.4442 -0.1283
 8460SOL    HW137013   0.986   1.899   4.735 -0.5357 -0.3686 -0.6789
 8460SOL    HW237014   0.881   2.000   4.713  2.6481 -0.1310 -0.8623
 8461SOL     OW37015   3.290   2.704   1.327 -0.0288  0.2947 -0.1941
 8461SOL    HW137016   3.312   2.719   1.235  0.1792 -0.5822 -0.2791
 8461SOL    HW237017   3.260   2.794   1.343 -0.5672  0.4279 -1.9285
 8462SOL     OW37018   0.532   2.489   2.092  0.0127 -0.0597  0.1919
 8462SOL    HW137019   0.440   2.472   2.115 -0.5060  3.7829  1.0882
 8462SOL    HW237020   0.528   2.584   2.077 -0.5289 -0.6893 -3.4323
 8463SOL     OW37021   1.973   2.172  15.323 -0.4971  0.8065 -0.0706
 8463SOL    HW137022   2.001   2.096  15.373  0.6454  0.2370 -1.5829
 8463SOL    HW237023   2.017   2.154  15.240 -2.0216  1.3768 -0.9934
 8464SOL     OW37024   1.544   0.237   2.081 -0.0893  0.2219 -0.3612
 8464SOL    HW137025   1.587   0.152   2.092  0.3781  0.1697 -2.7750
 8464SOL    HW237026   1.483   0.242   2.155  1.4104  0.7990  0.8448
 8465SOL     OW37027   2.982   2.306   7.621 -0.3676  0.6606 -0.8484
 8465SOL    HW137028   2.927   2.353   7.684  3.1567  1.9610  1.2955
 8465SOL    HW237029   2.938   2.298   7.537 -1.1532 -0.1038 -0.3666
 8466SOL     OW37030   1.809   4.411   4.384 -0.0280 -0.5152 -0.3559
 8466SOL    HW137031   1.879   4.350   4.407 -0.7775 -1.0358  0.5235
 8466SOL    HW237032   1.850   4.455   4.309  2.0167  0.4709  1.3193
 8467SOL     OW37033   3.071   1.957  13.930  0.5971  0.8502  0.4862
 8467SOL    HW137034   3.003   1.997  13.875 -0.5184 -1.8366 -0.0764
 8467SOL    HW237035   3.051   2.005  14.010  1.4725 -0.7438  1.6395
 8468SOL     OW37036   0.762   0.073   3.727  0.1675 -0.3744  0.2436
 8468SOL    HW137037   0.768   0.150   3.783  0.0551 -0.6332  0.6137
 8468SOL    HW237038   0.692   0.014   3.756 -1.1834  1.0511 -0.1363
 8469SOL     OW37039   4.583   0.315  11.979  0.0086  0.0102  0.2384
 8469SOL    HW137040   4.558   0.406  11.994  0.0145 -0.1284  1.0658
 8469SOL    HW237041   4.524   0.293  11.907  0.9063  1.1639 -0.8543
 8470SOL     OW37042   0.823   1.865   6.466 -0.4121  0.2873  0.0140
 8470SOL    HW137043   0.856   1.780   6.496 -0.1162 -0.1286 -1.5101
 8470SOL    HW237044   0.904   1.915   6.480  0.0489 -1.3841  3.3726
 8471SOL     OW37045   1.941   4.589  12.934 -0.3484  0.2277  0.7200
 8471SOL    HW137046   1.981   4.541  12.861 -0.4062 -1.1968  1.6370
 8471SOL    HW237047   2.001   4.549  12.997 -0.6856  0.1902  1.0129
 8472SOL     OW37048   0.433   2.325  12.521  0.1065  0.2531  0.0963
 8472SOL    HW137049   0.409   2.417  12.510  0.9338  0.5265  0.5989
 8472SOL    HW237050   0.476   2.309  12.606 -0.6686 -1.1983  0.2149
 8473SOL     OW37051   1.200   1.763   4.175 -0.1004 -0.1172  0.4849
 8473SOL    HW137052   1.216   1.741   4.267  0.2673 -2.8887 -0.2365
 8473SOL    HW237053   1.183   1.857   4.175 -0.0073 -0.1006  0.2949
 8474SOL     OW37054   3.587   1.317  10.179  0.3325 -0.1593 -0.0251
 8474SOL    HW137055   3.557   1.264  10.253  0.0372 -0.7050 -0.5457
 8474SOL    HW237056   3.561   1.263  10.105  1.9037  0.9747 -1.4154
 8475SOL     OW37057   0.037   3.052  16.513 -0.5821  0.1769 -0.5717
 8475SOL    HW137058   0.122   3.056  16.557 -1.3523  2.7036  0.6634
 8475SOL    HW237059   0.038   3.135  16.466  0.3417  0.3864 -0.1870
 8476SOL     OW37060   0.470   3.310   8.049  0.0727 -0.1545  0.2690
 8476SOL    HW137061   0.563   3.304   8.069  0.5378 -1.2609 -2.3604
 8476SOL    HW237062   0.436   3.224   8.074 -1.0418 -0.0454 -0.9020
 8477SOL     OW37063   2.998   1.262  11.555 -0.7077 -0.0028  0.2580
 8477SOL    HW137064   3.072   1.296  11.506 -0.8893  0.1844  0.1093
 8477SOL    HW237065   3.051   1.218  11.621  0.5850  0.8603 -0.1997
 8478SOL     OW37066   3.113   2.414   4.181 -0.3926  0.2544  0.0371
 8478SOL    HW137067   3.139   2.501   4.212 -1.3301  0.2898  0.7110
 8478SOL    HW237068   3.198   2.378   4.156  0.7900 -0.4683  5.1245
 8479SOL     OW37069   2.972   3.338  11.673  0.1708 -0.3645 -0.2155
 8479SOL    HW137070   2.926   3.255  11.672 -1.5060  0.5448  4.1524
 8479SOL    HW237071   3.060   3.307  11.650 -0.2035  0.1098 -2.2559
 8480SOL     OW37072   2.042   2.253   1.983 -0.6765  0.3718 -0.0481
 8480SOL    HW137073   2.058   2.165   2.015  0.0511  0.3578 -0.4310
 8480SOL    HW237074   1.962   2.266   2.034 -0.8309 -2.1052  0.3397
 8481SOL     OW37075   0.000   4.583   9.025 -0.7399 -0.4286 -0.1899
 8481SOL    HW137076   4.660   4.609   9.072 -1.5123 -0.6413 -1.3798
 8481SOL    HW237077   0.034   4.517   9.085  0.3000  0.0383 -0.2646
 8482SOL     OW37078   4.461   1.388  10.819 -0.0160 -0.0995 -0.2435
 8482SOL    HW137079   4.492   1.380  10.910  0.9158  0.5493 -0.5003
 8482SOL    HW237080   4.378   1.342  10.810  0.1087 -0.6487  1.3076
 8483SOL     OW37081   0.044   0.168  10.203  0.3068  0.4394  0.5325
 8483SOL    HW137082   0.020   0.261  10.202 -0.2281  0.3004  0.3543
 8483SOL    HW237083   0.063   0.163  10.297  2.3032  3.6371  0.2942
 8484SOL     OW37084   0.400   4.084   4.000  0.0997 -0.3616  0.4028
 8484SOL    HW137085   0.418   3.990   3.996  2.3363  0.0425  0.8754
 8484SOL    HW237086   0.363   4.078   4.088 -0.0017 -2.8082  0.2049
 8485SOL     OW37087   3.765   0.023  14.192 -0.4412 -0.8053 -0.1436
 8485SOL    HW137088   3.748   0.109  14.152  0.5007  0.0097  1.2330
 8485SOL    HW237089   3.807   4.724  14.115  0.7206  0.1853 -0.0026
 8486SOL     OW37090   0.882   2.469   5.014  0.5245 -0.1224 -0.3606
 8486SOL    HW137091   0.952   2.404   5.001 -1.5542 -2.6865  1.2957
 8486SOL    HW237092   0.920   2.552   4.985 -0.6117  1.4469  2.6768
 8487SOL     OW37093   4.483   4.273  12.786  0.2709  0.5626  0.5958
 8487SOL    HW137094   4.419   4.330  12.828 -0.4290 -0.3410  0.7568
 8487SOL    HW237095   4.558   4.309  12.833  0.5554 -0.2781  0.7829
 8488SOL     OW37096   2.076   2.205  10.898  0.0187 -0.5295 -0.2040
 8488SOL    HW137097   2.126   2.253  10.964 -0.4004 -1.4749  0.8236
 8488SOL    HW237098   1.989   2.209  10.939  1.6837  3.0725  2.9640
 8489SOL     OW37099   3.005   4.038   1.759  0.7647 -0.3717  0.0814
 8489SOL    HW137100   2.911   4.044   1.741  1.2030 -0.6701 -2.3875
 8489SOL    HW237101   3.025   3.946   1.740 -0.3280 -0.4941 -0.5104
 8490SOL     OW37102   4.661   2.200   4.042 -0.3251 -0.8463  0.1893
 8490SOL    HW137103   4.713   2.207   4.122  1.9858 -0.6427 -1.3467
 8490SOL    HW237104   4.577   2.156   4.061 -1.0925  0.5514  0.0471
 8491SOL     OW37105   0.537   4.496  15.861  0.1155 -0.4741  0.3373
 8491SOL    HW137106   0.632   4.505  15.864 -0.1903  3.9016 -2.0075
 8491SOL    HW237107   0.513   4.480  15.952 -1.4713  0.7908  0.1553
 8492SOL     OW37108   1.751   0.220   7.881 -0.1155 -0.1092 -0.2683
 8492SOL    HW137109   1.714   0.278   7.947 -0.4443 -2.1654  1.3405
 8492SOL    HW237110   1.697   0.238   7.803 -0.5250  1.6070  0.4217
 8493SOL     OW37111   4.656   1.578   4.059 -0.3735  0.0004 -0.5710
 8493SOL    HW137112   4.669   1.671   4.039  0.7418  0.5701  2.7941
 8493SOL    HW237113   4.733   1.535   4.020  0.4806  1.1756 -0.1810
 8494SOL     OW37114   4.390   0.200  14.285 -0.3241  0.2176  0.2287
 8494SOL    HW137115   4.411   0.244  14.202 -3.0358  0.1599 -0.5024
 8494SOL    HW237116   4.424   0.265  14.346  3.2606 -1.7230  0.2892
 8495SOL     OW37117   4.199   3.752   6.185  0.0714 -0.6178  0.4573
 8495SOL    HW137118   4.283   3.711   6.169  0.4569  0.3469  0.0260
 8495SOL    HW237119   4.210   3.774   6.278  0.4660 -1.2356  0.5590
 8496SOL     OW37120   1.531   1.979   4.101  0.0078 -0.2987  0.3086
 8496SOL    HW137121   1.451   2.027   4.123 -1.0994 -1.8236 -0.4012
 8496SOL    HW237122   1.598   2.012   4.161  3.0610 -1.6615 -2.3741
 8497SOL     OW37123   2.604   2.122   5.067  0.1572 -0.5384 -0.0642
 8497SOL    HW137124   2.552   2.043   5.079 -0.0342 -0.2476  0.9822
 8497SOL    HW237125   2.542   2.188   5.036 -0.6239 -0.4702  1.6627
 8498SOL     OW37126   3.863   0.784   5.480 -0.0622 -0.4255 -0.0856
 8498SOL    HW137127   3.828   0.703   5.443  1.1806 -2.1129  2.3890
 8498SOL    HW237128   3.895   0.750   5.564 -0.2121  0.1296  0.1997
 8499SOL     OW37129   1.916   2.541   3.104  0.7144 -0.0601  0.3804
 8499SOL    HW137130   1.934   2.554   3.197  0.2401  0.8297  0.3414
 8499SOL    HW237131   1.897   2.626   3.066 -2.7459 -0.6719  0.7452
 8500SOL     OW37132   2.170   1.350   4.773  0.1988 -0.3122 -0.2294
 8500SOL    HW137133   2.217   1.404   4.709 -2.6946 -0.0966 -2.2280
 8500SOL    HW237134   2.193   1.396   4.854 -1.4969  1.8531 -0.9368
 8501SOL     OW37135   3.685   1.732   1.478 -0.0588  0.0442  0.0972
 8501SOL    HW137136   3.625   1.657   1.480 -0.9033  0.6506 -1.9089
 8501SOL    HW237137   3.675   1.750   1.385  0.4987 -0.9356 -0.1540
 8502SOL     OW37138   2.295   0.677   6.161 -0.5859 -0.1903  0.1462
 8502SOL    HW137139   2.316   0.587   6.186  0.3989 -0.0529 -0.1946
 8502SOL    HW237140   2.215   0.661   6.113  0.1836  1.5350 -1.7107
 8503SOL     OW37141   3.735   1.182  17.719  0.6520  0.6610 -0.1866
 8503SOL    HW137142   3.658   1.127  17.735  1.9574 -1.0627  0.2259
 8503SOL    HW237143   3.748   1.217   0.054  0.6241 -0.5540  0.2973
 8504SOL     OW37144   0.156   3.008  10.503 -0.6675 -0.6509 -0.4957
 8504SOL    HW137145   0.248   3.034  10.505 -0.8687  0.1560 -1.6637
 8504SOL    HW237146   0.170   2.935  10.563  0.6496 -1.4167 -1.7386
 8505SOL     OW37147   1.968   1.144   7.156  0.1490  0.0192 -0.4185
 8505SOL    HW137148   1.971   1.067   7.213 -2.8506  0.8369  0.9116
 8505SOL    HW237149   1.994   1.211   7.220 -1.4361 -1.0401  1.3597
 8506SOL     OW37150   1.926   4.000   6.496 -0.6962 -0.4882 -0.1151
 8506SOL    HW137151   1.854   4.058   6.471  1.0565  0.2954 -3.3013
 8506SOL    HW237152   1.913   3.977   6.589 -0.7665  0.2660  0.0580
 8507SOL     OW37153   1.001   1.852   3.213  0.1999 -0.3884 -0.0014
 8507SOL    HW137154   1.056   1.851   3.135 -1.2787  2.3043 -1.0550
 8507SOL    HW237155   0.928   1.811   3.168 -0.3121 -0.8916  1.3002
 8508SOL     OW37156   0.673   0.223   7.032  0.1150  0.0658 -0.1168
 8508SOL    HW137157   0.711   0.138   7.007 -1.3378  0.1889 -2.6825
 8508SOL    HW237158   0.630   0.199   7.114  0.7209  0.2218  0.2435
 8509SOL     OW37159   0.306   1.283   7.301  0.2344 -0.6112  0.3089
 8509SOL    HW137160   0.301   1.223   7.228 -0.6507  1.2996 -1.2024
 8509SOL    HW237161   0.266   1.360   7.261 -1.2139  0.1573  3.2549
 8510SOL     OW37162   2.855   4.445   4.584  0.2749 -0.2001 -0.0706
 8510SOL    HW137163   2.929   4.460   4.525  1.3983 -1.0259  1.1383
 8510SOL    HW237164   2.798   4.390   4.531  0.4026 -0.0017 -0.4152
 8511SOL     OW37165   1.966   4.508   3.012 -0.3782  0.4770  0.8443
 8511SOL    HW137166   1.891   4.519   3.070 -0.6161  2.5055  0.1357
 8511SOL    HW237167   2.028   4.566   3.055  0.5360 -1.0128  1.5326
 8512SOL     OW37168   2.593   1.547   1.201 -0.1788  0.0843  0.0534
 8512SOL    HW137169   2.629   1.592   1.126 -2.8060  1.3408 -0.4488
 8512SOL    HW237170   2.673   1.512   1.239 -0.3064 -0.0450  0.2050
 8513SOL     OW37171   0.186   4.701   6.282  0.3453  0.3942  0.4035
 8513SOL    HW137172   0.225   4.729   6.199  0.6633  1.1625  0.8117
 8513SOL    HW237173   0.262   4.668   6.330  0.7384 -1.6669 -1.6421
 8514SOL     OW37174   0.707   1.606   9.060  0.0458 -0.1088  0.2325
 8514SOL    HW137175   0.695   1.700   9.057  1.7022  0.1398  1.0549
 8514SOL    HW237176   0.655   1.570   9.132  0.3266 -0.9577  0.0147
 8515SOL     OW37177   3.814   2.182  12.812  0.5176  0.3525  0.5092
 8515SOL    HW137178   3.732   2.207  12.856 -0.8270 -0.5572 -1.4518
 8515SOL    HW237179   3.876   2.183  12.885  0.0398  2.9513  0.8880
 8516SOL     OW37180   3.581   1.499  10.919  0.4903  0.0702 -0.4170
 8516SOL    HW137181   3.543   1.490  10.831  1.0192  0.9281 -0.7371
 8516SOL    HW237182   3.671   1.482  10.892 -0.5004 -1.6648 -2.5791
 8517SOL     OW37183   0.475   2.464  14.060  0.0575  0.3505  0.3920
 8517SOL    HW137184   0.564   2.500  14.069 -0.3964  1.0747  1.9429
 8517SOL    HW237185   0.480   2.378  14.102 -0.4120  0.0668 -0.1313
 8518SOL     OW37186   0.036   2.552   2.202 -0.5828 -0.0112 -0.1337
 8518SOL    HW137187   0.068   2.556   2.293  1.1263  2.9385 -0.8661
 8518SOL    HW237188   0.109   2.577   2.145 -0.3092 -0.7637 -0.1046
 8519SOL     OW37189   2.336   0.732   2.870  0.2199  0.0424  0.3426
 8519SOL    HW137190   2.391   0.658   2.899  1.3803  0.7171 -0.1252
 8519SOL    HW237191   2.310   0.769   2.954 -0.7691 -1.2670  0.6096
 8520SOL     OW37192   2.449   1.931   1.800  0.2627 -0.5596  0.1902
 8520SOL    HW137193   2.519   1.866   1.808 -0.1161 -1.1711 -1.5054
 8520SOL    HW237194   2.401   1.885   1.731  0.1606 -0.1427 -0.0156
 8521SOL     OW37195   1.690   1.291  12.224 -0.4575  0.0347 -0.0252
 8521SOL    HW137196   1.720   1.322  12.138  0.3305  0.9500  0.5785
 8521SOL    HW237197   1.729   1.204  12.222 -0.1114  0.1684  0.9800
 8522SOL     OW37198   3.156   3.075   1.933 -0.0265 -0.2697 -0.2899
 8522SOL    HW137199   3.222   3.045   1.996  0.4479 -1.2242 -1.2314
 8522SOL    HW237200   3.088   3.020   1.971  0.5325 -1.2586 -0.6876
 8523SOL     OW37201   4.730   1.103  11.328  0.0894 -0.2336 -0.1230
 8523SOL    HW137202   0.017   1.013  11.311 -1.7891 -0.5031 -1.5340
 8523SOL    HW237203   0.001   1.106  11.423 -1.1159 -1.8048  0.0301
 8524SOL     OW37204   2.160   4.359   4.443 -0.2366  0.4537 -0.3373
 8524SOL    HW137205   2.156   4.451   4.417  0.6195  0.6636  0.2636
 8524SOL    HW237206   2.160   4.310   4.361 -1.8208 -1.6641  0.9224
 8525SOL     OW37207   2.426   0.801   8.053 -0.3069  0.3525  0.3727
 8525SOL    HW137208   2.399   0.868   8.116  0.0848  2.0468 -1.2625
 8525SOL    HW237209   2.482   0.855   7.998 -0.3120  0.0804  0.1024
 8526SOL     OW37210   4.198   4.531  14.158  0.4062  0.5038  0.0626
 8526SOL    HW137211   4.253   4.517  14.235  0.1724 -4.5711 -0.6675
 8526SOL    HW237212   4.113   4.541  14.201  0.5801  1.7067  0.1381
 8527SOL     OW37213   0.614   3.859   6.956 -0.2067  0.6333  0.0496
 8527SOL    HW137214   0.646   3.912   7.029  1.7650  1.3440 -1.3203
 8527SOL    HW237215   0.662   3.777   6.967 -1.6070 -0.2690 -0.6128
 8528SOL     OW37216   2.351   1.145   8.951  0.8395 -0.1364  0.2199
 8528SOL    HW137217   2.290   1.180   8.886 -0.1442 -0.9988  0.6801
 8528SOL    HW237218   2.348   1.212   9.018 -0.8579  1.6696 -1.6350
 8529SOL     OW37219   2.203   0.453   2.103  0.6453 -0.4464 -0.4398
 8529SOL    HW137220   2.293   0.439   2.132 -0.1941  2.5582  3.6566
 8529SOL    HW237221   2.223   0.444   2.010  0.9333 -0.4370 -0.3776
 8530SOL     OW37222   2.536   3.065   2.037 -0.4436 -0.8322 -0.1343
 8530SOL    HW137223   2.447   3.032   2.024 -1.0152 -0.4294  2.6917
 8530SOL    HW237224   2.581   2.981   2.030  1.0112 -0.1863  1.5164
 8531SOL     OW37225   2.737   3.890  13.840  0.0063  0.3143 -0.3596
 8531SOL    HW137226   2.740   3.870  13.934 -3.5940 -1.6340 -0.6663
 8531SOL    HW237227   2.828   3.914  13.823 -0.4053  0.7366 -1.8871
 8532SOL     OW37228   1.154   0.424   6.463 -0.3725  0.0130  0.1915
 8532SOL    HW137229   1.152   0.508   6.508 -1.8028  1.1502 -1.9580
 8532SOL    HW237230   1.064   0.396   6.480 -0.6133 -0.1674 -1.3448
 8533SOL     OW37231   4.724   3.714  11.514  0.2297 -0.5242 -0.5790
 8533SOL    HW137232   0.061   3.696  11.570  1.0038 -0.0401 -1.4760
 8533SOL    HW237233   0.017   3.777  11.450  1.8256 -0.8064 -0.0625
 8534SOL     OW37234   1.152   4.218   5.717  0.1698 -0.0105  0.2555
 8534SOL    HW137235   1.171   4.135   5.761 -1.2108 -0.6655 -0.3748
 8534SOL    HW237236   1.101   4.183   5.644 -0.1186 -1.3002  1.0627
 8535SOL     OW37237   0.277   0.967   8.224 -0.3388 -0.2882 -0.1975
 8535SOL    HW137238   0.300   1.036   8.285  1.0484  1.3706 -2.5715
 8535SOL    HW237239   0.213   0.925   8.281  0.3965 -2.2715 -0.8313
 8536SOL     OW37240   1.025   0.838   3.567  0.2059  0.4997 -0.3961
 8536SOL    HW137241   0.959   0.789   3.616 -0.1626  0.8803 -0.5118
 8536SOL    HW237242   1.063   0.891   3.637 -0.1476  0.9184 -0.5232
 8537SOL     OW37243   1.477   1.749   6.385 -0.1634  0.6427 -0.0741
 8537SOL    HW137244   1.453   1.710   6.469 -2.0381 -1.2550 -1.4895
 8537SOL    HW237245   1.389   1.775   6.357 -1.0613 -1.3347  0.9223
 8538SOL     OW37246   1.270   0.950   5.896  0.1808 -0.0794  0.3466
 8538SOL    HW137247   1.293   1.042   5.883  1.0588 -0.1788  1.2336
 8538SOL    HW237248   1.362   0.926   5.910 -0.0980  0.0008  2.2751
 8539SOL     OW37249   3.080   3.821   0.969  0.1952 -0.4160 -0.9633
 8539SOL    HW137250   2.996   3.774   0.964  1.5392 -2.5607 -3.3343
 8539SOL    HW237251   3.143   3.754   0.993  1.1565  0.2206 -1.6901
 8540SOL     OW37252   3.141   2.091   1.693  0.2051 -0.2203  0.2030
 8540SOL    HW137253   3.068   2.116   1.637 -0.6124 -2.7588  0.1343
 8540SOL    HW237254   3.118   2.000   1.715 -0.2470 -0.1526 -0.0058
 8541SOL     OW37255   1.895   0.259   5.276 -0.5572  0.0163  0.0547
 8541SOL    HW137256   1.938   0.183   5.316 -0.1878 -0.4922 -1.2907
 8541SOL    HW237257   1.802   0.241   5.291 -1.1733  1.1806 -2.4268
 8542SOL     OW37258   3.077   1.583   6.358 -0.1402  0.2586 -0.6627
 8542SOL    HW137259   3.109   1.593   6.269 -0.6306  0.2072 -0.8423
 8542SOL    HW237260   3.126   1.503   6.381  0.7370  1.0833  0.3475
 8543SOL     OW37261   4.687   4.145   7.453  0.0227 -0.4597 -0.2495
 8543SOL    HW137262   0.031   4.145   7.499 -0.4808 -0.0043  0.6504
 8543SOL    HW237263   4.684   4.061   7.407 -0.1777 -0.1163 -0.8775
 8544SOL     OW37264   2.469   3.121   5.639  0.4889 -0.1575  0.5289
 8544SOL    HW137265   2.441   3.212   5.631 -0.1545 -0.4251 -0.2879
 8544SOL    HW237266   2.405   3.083   5.578  0.8744  2.7226 -1.7110
 8545SOL     OW37267   3.626   0.795  16.136 -0.0897 -0.0833  0.1214
 8545SOL    HW137268   3.681   0.857  16.088  0.1339  0.2365  0.7812
 8545SOL    HW237269   3.644   0.721  16.078  1.7672  0.5488 -0.1265
 8546SOL     OW37270   2.383   4.324   8.404  0.1569  0.2541  0.2791
 8546SOL    HW137271   2.462   4.319   8.458  0.1156 -0.8747  0.2381
 8546SOL    HW237272   2.351   4.410   8.433  1.0363  1.6651 -2.8815
 8547SOL     OW37273   2.549   0.998   6.837  0.1273  0.2404 -0.1851
 8547SOL    HW137274   2.477   0.937   6.819  2.7930 -2.7051 -1.0292
 8547SOL    HW237275   2.615   0.969   6.774  0.3889  0.2731  0.0736
 8548SOL     OW37276   3.348   2.947   7.643 -0.5454  0.0608  0.1517
 8548SOL    HW137277   3.432   2.986   7.670 -1.0478  0.8664  0.5747
 8548SOL    HW237278   3.293   2.988   7.710  3.2964  2.4718  1.8135
 8549SOL     OW37279   3.396   4.134   6.772 -0.1135 -0.4110  0.2063
 8549SOL    HW137280   3.314   4.085   6.782 -0.2652 -0.2155 -0.0925
 8549SOL    HW237281   3.380   4.204   6.835 -1.5099  0.1345 -0.7640
 8550SOL     OW37282   4.155   3.933  17.284  0.6246  0.0523  0.0747
 8550SOL    HW137283   4.150   3.887  17.200 -0.3036  0.9218 -0.3500
 8550SOL    HW237284   4.088   3.881  17.328  1.1357  0.1069  0.9043
 8551SOL     OW37285   3.665   0.095   7.522  0.1568 -0.0064  0.4686
 8551SOL    HW137286   3.577   0.066   7.543 -0.5384  2.4424  0.9027
 8551SOL    HW237287   3.667   0.108   7.427 -0.1271 -0.1170  0.4481
 8552SOL     OW37288   1.899   0.682  10.136 -0.4317  0.3652  0.0763
 8552SOL    HW137289   1.905   0.596  10.177 -1.5325 -0.0421 -0.6189
 8552SOL    HW237290   1.838   0.656  10.067 -1.4648  0.0007  1.1475
 8553SOL     OW37291   2.253   4.738   4.963 -0.2684 -0.7710  0.3787
 8553SOL    HW137292   2.263   4.662   4.906  1.8969  1.0075 -1.6234
 8553SOL    HW237293   2.295   4.711   5.045  0.5096 -0.5195  0.0586
 8554SOL     OW37294   1.479   4.525  10.537  0.0970 -0.1152 -0.0232
 8554SOL    HW137295   1.480   4.618  10.516  2.0535  0.4434  2.5445
 8554SOL    HW237296   1.408   4.489  10.484 -0.0359 -1.9905  1.4582
 8555SOL     OW37297   4.021   4.229  16.987  0.3237 -0.0502 -0.0398
 8555SOL    HW137298   4.011   4.262  16.898 -1.3807  2.2775  1.0323
 8555SOL    HW237299   4.101   4.279  16.999  0.2860  0.6882 -2.8688
 8556SOL     OW37300   3.990   4.124   8.295  0.4230 -0.2080  0.0297
 8556SOL    HW137301   4.023   4.107   8.384  1.0664  1.1201  0.0501
 8556SOL    HW237302   4.008   4.217   8.282 -2.2909 -0.0229 -2.2579
 8557SOL     OW37303   2.689   0.671   2.820 -0.0298  0.3098 -0.4621
 8557SOL    HW137304   2.635   0.605   2.864  0.2608  1.3747  1.4697
 8557SOL    HW237305   2.646   0.663   2.735 -2.4869  1.5821  0.6633
 8558SOL     OW37306   4.665   1.307  14.657  0.0324 -0.4710 -0.4459
 8558SOL    HW137307   4.584   1.357  14.644 -0.4897 -1.3205 -0.4190
 8558SOL    HW237308   4.688   1.295  14.565  1.2126  0.5181 -0.2819
 8559SOL     OW37309   4.122   0.247   3.677 -0.3719  0.1408 -0.5707
 8559SOL    HW137310   4.167   0.311   3.732  0.1798 -1.1467  0.5130
 8559SOL    HW237311   4.166   0.258   3.594 -2.8230  1.0248 -1.7464
 8560SOL     OW37312   2.955   3.857   8.460  0.4245  0.3761  0.1903
 8560SOL    HW137313   3.016   3.929   8.444  1.9582 -0.4507  2.2972
 8560SOL    HW237314   2.920   3.876   8.547  1.3477  0.0120  0.6433
 8561SOL     OW37315   2.667   2.044   5.825  0.2293 -0.5414  0.3374
 8561SOL    HW137316   2.594   2.097   5.855  1.7550  2.4721 -1.2733
 8561SOL    HW237317   2.685   2.085   5.741  1.4393 -0.1039  0.8042
 8562SOL     OW37318   2.411   1.050   2.941  0.2846  0.3716  0.6826
 8562SOL    HW137319   2.496   1.008   2.923  0.6881  0.6651  1.8944
 8562SOL    HW237320   2.363   1.011   2.868  0.3496  1.0606  0.2819
 8563SOL     OW37321   0.856   0.235   3.315  0.0864  0.2006 -0.0587
 8563SOL    HW137322   0.788   0.180   3.353  0.6574  0.5128  1.4057
 8563SOL    HW237323   0.926   0.173   3.332 -0.8069 -0.8185 -0.1009
 8564SOL     OW37324   3.324   1.086   5.126  0.3113 -0.5531  0.2339
 8564SOL    HW137325   3.417   1.072   5.145 -0.2602 -1.5071  2.3646
 8564SOL    HW237326   3.308   1.015   5.064  2.6186 -1.8387  1.0882
 8565SOL     OW37327   2.684   3.945   6.009 -0.3931 -0.3803  0.3456
 8565SOL    HW137328   2.708   3.879   6.075  1.2062  2.4972  2.6900
 8565SOL    HW237329   2.663   3.885   5.938  1.9439 -0.3190 -0.4177
 8566SOL     OW37330   3.920   3.832   9.071 -0.3286 -0.0137 -0.1796
 8566SOL    HW137331   4.001   3.823   9.120 -0.5318  0.9130  0.3273
 8566SOL    HW237332   3.853   3.811   9.136  0.0733  1.4514  0.7184
 8567SOL     OW37333   4.367   2.631   8.901 -0.1901 -0.3782 -0.2034
 8567SOL    HW137334   4.459   2.610   8.889 -1.2313 -3.4251 -2.9946
 8567SOL    HW237335   4.342   2.591   8.818  1.4021 -1.8959  0.0512
 8568SOL     OW37336   1.446   2.920   9.016 -0.0743 -0.1769  0.0426
 8568SOL    HW137337   1.464   2.982   9.087 -0.9968 -0.3666  0.4513
 8568SOL    HW237338   1.458   2.978   8.940  0.2321  1.3952  1.2773
 8569SOL     OW37339   3.733   0.761   2.389 -0.2480  0.6266 -0.2141
 8569SOL    HW137340   3.768   0.769   2.478 -3.3889 -1.4551  1.2218
 8569SOL    HW237341   3.817   0.750   2.345  0.7121  0.9208  1.5440
 8570SOL     OW37342   3.412   4.323  12.388 -0.6100  0.0264  0.2481
 8570SOL    HW137343   3.378   4.409  12.410  0.8077  0.7370 -0.3470
 8570SOL    HW237344   3.505   4.344  12.389 -0.2637 -1.4193 -0.9545
 8571SOL     OW37345   0.176   3.683   3.266  0.2567  0.3884  0.5772
 8571SOL    HW137346   0.265   3.663   3.236 -0.1583 -1.0957  0.3490
 8571SOL    HW237347   0.120   3.682   3.189  0.7098  0.9850  0.2313
 8572SOL     OW37348   3.885   2.410  10.357 -0.2458 -0.1064  0.1606
 8572SOL    HW137349   3.791   2.421  10.344  0.4226  1.4145 -3.3862
 8572SOL    HW237350   3.888   2.321  10.391  0.1612 -0.4189 -0.7093
 8573SOL     OW37351   4.294   1.221   4.131  0.1729 -0.0613 -0.2903
 8573SOL    HW137352   4.367   1.192   4.185  0.5895  0.2388 -0.6947
 8573SOL    HW237353   4.314   1.177   4.049 -1.0332  1.9173 -1.6539
 8574SOL     OW37354   1.623   1.734   7.745 -0.7891 -0.1611 -0.9392
 8574SOL    HW137355   1.675   1.675   7.799 -1.4626 -0.2433 -0.3853
 8574SOL    HW237356   1.536   1.696   7.731 -2.0211  1.6781  1.6436
 8575SOL     OW37357   0.040   2.778   5.471  0.2534 -0.6746  0.4562
 8575SOL    HW137358   0.035   2.779   5.375  0.2361  0.0548  0.4707
 8575SOL    HW237359   0.077   2.864   5.491 -2.1075  0.5650 -0.5589
 8576SOL     OW37360   1.930   3.404   7.126 -0.2672 -0.4541  0.4265
 8576SOL    HW137361   1.938   3.312   7.150  0.4843  0.0479  2.0784
 8576SOL    HW237362   1.836   3.418   7.118 -0.1841 -0.4957 -0.6319
 8577SOL     OW37363   0.711   3.235   7.580 -0.1861 -0.0540  0.9600
 8577SOL    HW137364   0.651   3.186   7.636 -0.2806 -0.7184  0.2620
 8577SOL    HW237365   0.796   3.217   7.622  0.6779  2.5522  0.3200
 8578SOL     OW37366   4.393   4.015   1.911  0.4224 -0.3096  0.5134
 8578SOL    HW137367   4.430   4.082   1.854  0.3023 -0.4588  0.2584
 8578SOL    HW237368   4.466   3.960   1.939  2.0257  0.2118 -2.6311
 8579SOL     OW37369   0.601   4.130   2.607  0.3575 -0.4262 -0.4482
 8579SOL    HW137370   0.589   4.047   2.654  0.2019 -0.5327 -0.6749
 8579SOL    HW237371   0.609   4.105   2.515 -3.1548  0.1180 -0.8954
 8580SOL     OW37372   0.640   2.782   7.111  0.4299  0.2757 -0.2673
 8580SOL    HW137373   0.578   2.752   7.045  1.8994 -1.2993 -0.9381
 8580SOL    HW237374   0.672   2.857   7.061  0.9594 -0.1203 -0.5251
 8581SOL     OW37375   1.889   0.922  13.762 -0.1899 -0.7480 -0.5300
 8581SOL    HW137376   1.799   0.949  13.746 -0.1729  1.2835  2.7336
 8581SOL    HW237377   1.901   0.856  13.693  0.5800 -1.2387  0.0688
 8582SOL     OW37378   2.902   0.281   3.655 -0.3361  0.4573 -0.4237
 8582SOL    HW137379   2.875   0.306   3.566 -0.1211 -0.0594 -0.6345
 8582SOL    HW237380   2.977   0.225   3.634 -0.5579 -0.1558  0.4007
 8583SOL     OW37381   2.401   2.503   5.718 -0.2503  0.3641 -0.4883
 8583SOL    HW137382   2.479   2.559   5.717 -0.3709  0.5016 -2.2177
 8583SOL    HW237383   2.414   2.457   5.634  0.6120  0.8746 -0.6373
 8584SOL     OW37384   0.768   0.366   1.000 -0.2611  0.3399  0.0131
 8584SOL    HW137385   0.712   0.346   0.925  1.2758 -2.4704 -0.3994
 8584SOL    HW237386   0.824   0.288   1.000 -0.1801  0.3932 -2.0263
 8585SOL     OW37387   4.001   3.870   4.660  0.2908  0.1874 -0.0169
 8585SOL    HW137388   4.026   3.960   4.679 -0.4277  0.1184  1.1809
 8585SOL    HW237389   3.991   3.844   4.751  0.2797  1.1144  0.2394
 8586SOL     OW37390   4.549   3.290   6.839 -0.8531 -0.0481 -0.0159
 8586SOL    HW137391   4.590   3.291   6.752 -0.0612  3.1534  0.3959
 8586SOL    HW237392   4.460   3.272   6.811 -0.4745 -1.2990 -0.4335
 8587SOL     OW37393   2.189   4.461   8.938  0.1765 -0.6132  0.1703
 8587SOL    HW137394   2.121   4.396   8.919  0.1260 -0.9002  1.2801
 8587SOL    HW237395   2.177   4.472   9.033  0.3978 -0.9416  0.2367
 8588SOL     OW37396   4.305   4.078   3.071 -0.3136  0.5747 -0.3782
 8588SOL    HW137397   4.291   4.123   3.155 -2.0917 -0.5786 -0.0586
 8588SOL    HW237398   4.294   4.151   3.011  1.4945  0.3558 -0.9711
 8589SOL     OW37399   2.855   3.276  17.582 -0.2705 -0.0122 -0.1319
 8589SOL    HW137400   2.897   3.224  17.514 -1.7109 -0.5983 -0.5837
 8589SOL    HW237401   2.771   3.272  17.537  0.4819  2.0930 -1.6665
 8590SOL     OW37402   4.401   2.637   8.411 -0.0704  0.3567  0.0050
 8590SOL    HW137403   4.346   2.637   8.489 -0.3543  0.4003 -0.1945
 8590SOL    HW237404   4.352   2.588   8.345 -1.5800  1.9907 -0.0876
 8591SOL     OW37405   3.424   2.899  11.592  0.1405 -0.6314 -0.2771
 8591SOL    HW137406   3.336   2.933  11.575  1.2731  2.6478  0.3993
 8591SOL    HW237407   3.411   2.809  11.622 -2.9007  0.2596  1.0900
 8592SOL     OW37408   2.286   4.212   1.281  0.2476 -0.1405  0.1021
 8592SOL    HW137409   2.300   4.271   1.207 -1.4175  1.7379  1.2875
 8592SOL    HW237410   2.361   4.236   1.335 -0.4574  0.0810  0.9840
 8593SOL     OW37411   1.733   2.348   8.777  0.2569  0.6595  0.7355
 8593SOL    HW137412   1.712   2.347   8.871  2.6231  0.7866  1.2687
 8593SOL    HW237413   1.685   2.426   8.751 -1.2535 -0.6717 -0.4048
 8594SOL     OW37414   3.690   1.654   6.855 -0.1510 -0.2057  0.1701
 8594SOL    HW137415   3.701   1.571   6.901  0.0293  0.6608  1.6963
 8594SOL    HW237416   3.781   1.672   6.832 -0.8304  1.2008 -1.3335
 8595SOL     OW37417   3.065   1.828   4.169  0.1299  0.3457 -0.0767
 8595SOL    HW137418   3.082   1.878   4.089  0.7777 -2.0776 -1.4522
 8595SOL    HW237419   2.991   1.774   4.143 -0.8320  2.6368 -2.0686
 8596SOL     OW37420   0.385   1.409  15.020  0.2095  0.3044 -0.5772
 8596SOL    HW137421   0.421   1.354  15.090 -0.9075 -1.0950 -1.1127
 8596SOL    HW237422   0.434   1.490  15.034 -0.1157 -0.0619  2.7376
 8597SOL     OW37423   1.827   0.706  11.380  0.3658 -1.0514  0.3476
 8597SOL    HW137424   1.736   0.692  11.354  0.1184 -0.5636  0.9732
 8597SOL    HW237425   1.863   0.768  11.317  2.0762 -0.9544  1.4454
 8598SOL     OW37426   2.824   0.033   3.131 -0.4070 -0.0777  0.1776
 8598SOL    HW137427   2.810   0.023   3.037  0.8907 -0.1686 -0.0049
 8598SOL    HW237428   2.745   0.082   3.152  1.0139  1.8810  0.9571
 8599SOL     OW37429   4.635   0.948  14.005 -0.2454  0.1586 -0.1795
 8599SOL    HW137430   4.599   0.957  13.917  0.5945 -0.1627 -0.5554
 8599SOL    HW237431   4.724   0.968  13.977 -1.4968  3.0378 -2.0599
 8600SOL     OW37432   1.430   3.692   3.410 -0.3214 -0.5769 -0.4262
 8600SOL    HW137433   1.447   3.597   3.415 -1.9071 -0.8477 -0.1540
 8600SOL    HW237434   1.503   3.713   3.352 -0.8720 -0.9460 -1.2706
 8601SOL     OW37435   2.099   1.129   6.885 -0.0591 -0.0867 -0.4487
 8601SOL    HW137436   2.059   1.169   6.962  0.7528  1.4471 -0.8374
 8601SOL    HW237437   2.095   1.035   6.902 -0.3622 -0.5871 -3.2264
 8602SOL     OW37438   1.705   1.106  11.275  0.9578 -0.0603 -0.1445
 8602SOL    HW137439   1.658   1.114  11.192  2.5029 -2.4041 -1.2418
 8602SOL    HW237440   1.777   1.048  11.251  2.0051  0.5554  1.4981
 8603SOL     OW37441   2.034   0.908  10.108  0.1440  0.1438  0.3495
 8603SOL    HW137442   1.989   0.931  10.026  0.8487  1.5265  0.3414
 8603SOL    HW237443   1.981   0.834  10.137  1.4214 -0.3173  1.5277
 8604SOL     OW37444   2.298   2.829   5.825 -0.0590 -0.0872 -0.0154
 8604SOL    HW137445   2.352   2.796   5.896 -1.1412 -2.3748 -0.2467
 8604SOL    HW237446   2.354   2.826   5.747 -1.1335 -0.4541 -0.7792
 8605SOL     OW37447   0.003   1.023   8.014  0.3681  0.4864 -0.2172
 8605SOL    HW137448   4.650   1.048   8.002  0.5486  0.3070 -2.0546
 8605SOL    HW237449   0.015   1.072   8.095 -0.7508 -0.1848  0.3506
 8606SOL     OW37450   3.906   2.631   4.124  0.4661 -0.7677 -0.0016
 8606SOL    HW137451   3.997   2.660   4.135  1.0810 -1.2429 -3.8282
 8606SOL    HW237452   3.868   2.631   4.212  0.6532 -0.6124  0.0785
 8607SOL     OW37453   4.359   1.690   3.144 -0.3983  0.2146  0.4234
 8607SOL    HW137454   4.446   1.724   3.168  1.0590 -1.2753 -2.7412
 8607SOL    HW237455   4.377   1.620   3.081 -1.8906  0.5768 -0.3972
 8608SOL     OW37456   2.118   2.627   5.035  0.1841  0.2248  0.8073
 8608SOL    HW137457   2.110   2.681   4.956 -1.6089 -1.6321 -0.2662
 8608SOL    HW237458   2.208   2.659   5.042  0.5669 -0.4809 -0.8271
 8609SOL     OW37459   4.454   4.652   3.748 -0.3458  0.0789 -0.2841
 8609SOL    HW137460   4.359   4.654   3.749 -0.2633  1.3738  2.6366
 8609SOL    HW237461   4.471   4.708   3.672  0.9914 -1.7187 -1.3262
 8610SOL     OW37462   0.384   1.987   8.540 -0.7714 -0.1647 -0.4425
 8610SOL    HW137463   0.426   2.040   8.608 -1.2103  2.5292 -2.2627
 8610SOL    HW237464   0.450   2.011   8.474  0.7877 -2.3517  0.3494
 8611SOL     OW37465   0.960   3.091  15.860 -0.5920 -0.3926  0.2733
 8611SOL    HW137466   1.014   3.029  15.910 -0.3045  0.1421  0.6162
 8611SOL    HW237467   0.889   3.113  15.920 -0.3215  0.7484  0.1669
 8612SOL     OW37468   2.818   0.343   2.000  0.0103 -0.0368 -0.3218
 8612SOL    HW137469   2.825   0.391   1.917  1.3926 -0.2569 -0.3256
 8612SOL    HW237470   2.886   0.277   1.989  0.1037  0.0363 -0.1823
 8613SOL     OW37471   0.189   1.111   6.119  0.3589 -0.7063  0.0352
 8613SOL    HW137472   0.103   1.075   6.141  0.3879 -1.2182 -0.6882
 8613SOL    HW237473   0.209   1.153   6.203 -4.0859  0.3136  0.5913
 8614SOL     OW37474   4.038   3.561   8.412  0.4399  0.3798 -0.0228
 8614SOL    HW137475   3.952   3.546   8.372  2.1581  0.1615 -3.6204
 8614SOL    HW237476   4.072   3.474   8.392 -2.3010 -0.5274 -0.7600
 8615SOL     OW37477   4.323   1.785   1.583  0.2257 -0.0452 -0.4713
 8615SOL    HW137478   4.350   1.859   1.528 -2.9297  1.2717 -0.2462
 8615SOL    HW237479   4.292   1.710   1.533  2.5304  0.0948 -2.1617
 8616SOL     OW37480   3.965   1.214   4.931  0.5690  0.2256  0.0152
 8616SOL    HW137481   3.906   1.151   4.972 -0.4442  0.5047 -1.0103
 8616SOL    HW237482   4.051   1.175   4.945  0.1129 -1.2410 -1.2998
 8617SOL     OW37483   0.427   2.061  17.656  0.7189  0.1820  0.1395
 8617SOL    HW137484   0.520   2.048  17.643  0.5319  0.0386 -1.0208
 8617SOL    HW237485   0.419   2.017  17.741 -0.8229 -1.5075 -0.8763
 8618SOL     OW37486   4.102   4.489  14.715  0.2836 -0.6361  0.1996
 8618SOL    HW137487   4.053   4.563  14.679 -0.2958 -1.2327 -0.2568
 8618SOL    HW237488   4.191   4.513  14.690 -0.1658  2.4712  1.5713
 8619SOL     OW37489   4.332   3.332   7.707 -0.4586 -0.5649 -0.3245
 8619SOL    HW137490   4.398   3.394   7.738 -2.0882  1.9451 -1.8939
 8619SOL    HW237491   4.265   3.328   7.776  1.5090  0.3241  1.6437
 8620SOL     OW37492   3.598   2.090   7.101  0.5724 -0.0282 -0.2772
 8620SOL    HW137493   3.543   2.075   7.177 -0.5229  2.0254 -0.6718
 8620SOL    HW237494   3.660   2.155   7.134 -1.1832  0.8001  1.3644
 8621SOL     OW37495   4.270   0.020   5.892  0.0422 -0.0545  0.1378
 8621SOL    HW137496   4.341   4.708   5.853 -0.2192  0.2666 -0.7699
 8621SOL    HW237497   4.319   0.095   5.925  1.1535 -0.7802  0.1480
 8622SOL     OW37498   1.428   3.285   4.904  0.1869 -0.4421 -0.4112
 8622SOL    HW137499   1.464   3.294   4.992 -1.3988 -2.1801  0.4140
 8622SOL    HW237500   1.444   3.191   4.893  1.2018 -0.2261 -0.7975
 8623SOL     OW37501   4.637   4.711   9.456 -0.1315 -0.2862 -0.1474
 8623SOL    HW137502   4.589   0.019   9.388 -0.5642  1.9324  1.7154
 8623SOL    HW237503   4.685   0.045   9.493 -0.2331  0.0265 -0.6243
 8624SOL     OW37504   3.961   0.739   2.259 -0.3565  0.1215  0.7266
 8624SOL    HW137505   4.010   0.692   2.326 -0.6092  0.7395  1.3434
 8624SOL    HW237506   3.972   0.682   2.183  0.0896 -0.5840  1.3213
 8625SOL     OW37507   0.197   0.195  13.864 -0.0998  0.2665 -0.0264
 8625SOL    HW137508   0.286   0.162  13.873 -0.6968 -1.2030  0.4838
 8625SOL    HW237509   0.212   0.287  13.886 -1.0078  0.9103 -2.0523
 8626SOL     OW37510   1.081   0.266   4.111  0.3127  0.1533 -0.3585
 8626SOL    HW137511   1.135   0.312   4.175  1.0969 -1.2322 -0.0083
 8626SOL    HW237512   1.143   0.196   4.086 -0.0589 -0.3064  0.0034
 8627SOL     OW37513   0.226   2.655   5.628  0.2696 -0.2041  0.1902
 8627SOL    HW137514   0.161   2.701   5.574  1.0441 -0.2668 -0.7879
 8627SOL    HW237515   0.160   2.610   5.681  0.4780  0.8981  1.4011
 8628SOL     OW37516   3.271   2.100   9.245 -0.5732 -0.3882 -0.5516
 8628SOL    HW137517   3.225   2.121   9.163 -0.8715 -1.2300 -0.6019
 8628SOL    HW237518   3.201   2.102   9.311  0.8058 -0.2296  0.8847
 8629SOL     OW37519   1.519   2.182   8.736 -0.5565 -0.8083 -0.0924
 8629SOL    HW137520   1.563   2.104   8.769  1.8642  0.7528  0.3007
 8629SOL    HW237521   1.583   2.251   8.752  1.2722 -2.0377 -2.1507
 8630SOL     OW37522   0.045   2.489   5.786 -0.2209 -0.3907  0.4682
 8630SOL    HW137523   0.098   2.426   5.836  1.5747 -0.2971 -1.3312
 8630SOL    HW237524   4.720   2.506   5.855  0.0493 -1.4478  0.9876
 8631SOL     OW37525   3.159   0.704   7.569  0.0871  0.2604  0.4905
 8631SOL    HW137526   3.084   0.727   7.625 -1.0203 -1.7974 -0.1488
 8631SOL    HW237527   3.126   0.690   7.480  0.3972 -1.1333  0.6021
 8632SOL     OW37528   3.769   4.590  11.719 -0.1080 -0.7981 -0.1105
 8632SOL    HW137529   3.770   4.680  11.687 -0.8119 -0.7002  0.1458
 8632SOL    HW237530   3.839   4.582  11.784  0.1453 -0.3710 -0.3280
 8633SOL     OW37531   1.161   3.306   0.728  0.2550 -0.8138  0.2694
 8633SOL    HW137532   1.256   3.319   0.735 -0.1971  1.8623  1.7484
 8633SOL    HW237533   1.139   3.234   0.787  0.2651  0.0496  1.3405
 8634SOL     OW37534   2.302   0.281  16.580  0.2016 -0.1403 -0.6853
 8634SOL    HW137535   2.364   0.264  16.508  0.4799 -0.4025 -0.3869
 8634SOL    HW237536   2.335   0.366  16.607 -0.8097  0.6239 -1.8553
 8635SOL     OW37537   1.988   0.649   2.011  0.1840  0.4681 -0.3159
 8635SOL    HW137538   2.073   0.669   1.972 -0.4190 -1.3917 -2.5587
 8635SOL    HW237539   1.978   0.555   2.020 -1.2610  0.6504 -0.0651
 8636SOL     OW37540   0.553   0.108   6.659 -0.4824 -0.3774 -0.5046
 8636SOL    HW137541   0.471   0.157   6.655 -1.2560 -1.6383  0.0379
 8636SOL    HW237542   0.535   0.040   6.724  0.1142 -0.4892 -0.4546
 8637SOL     OW37543   0.201   3.712   0.905 -0.2408  0.0749  0.0237
 8637SOL    HW137544   0.150   3.631   0.917  1.4476 -0.5010  3.1047
 8637SOL    HW237545   0.152   3.764   0.841 -0.7159  0.4869  0.7167
 8638SOL     OW37546   0.046   1.273   9.815 -0.0381 -0.3262 -0.1919
 8638SOL    HW137547   4.693   1.286   9.792  0.5406  2.3840 -1.0699
 8638SOL    HW237548   0.041   1.308   9.904  2.4069  0.2826 -0.2845
 8639SOL     OW37549   0.660   2.567  17.545  0.5577  0.6419 -0.4010
 8639SOL    HW137550   0.575   2.524  17.543  0.9947 -0.2702  1.0794
 8639SOL    HW237551   0.727   2.499  17.551 -1.6070 -1.2967  1.7620
 8640SOL     OW37552   3.767   2.751   6.160 -0.2448 -0.2607 -0.2746
 8640SOL    HW137553   3.675   2.762   6.139 -0.3239  0.8471  0.6448
 8640SOL    HW237554   3.762   2.710   6.247  1.1114 -0.3774 -0.2425
 8641SOL     OW37555   1.929   4.127   9.287  0.0513  0.2946 -0.1053
 8641SOL    HW137556   1.949   4.039   9.256 -0.3974  0.5231 -1.0226
 8641SOL    HW237557   2.017   4.164   9.283 -0.2945  0.9310 -1.6414
 8642SOL     OW37558   4.549   0.767   8.142  0.2375  0.6412  0.2234
 8642SOL    HW137559   4.520   0.687   8.186 -1.1168  1.4539  0.8110
 8642SOL    HW237560   4.624   0.721   8.103 -0.6648 -0.9496  0.3602
 8643SOL     OW37561   1.849   3.009   6.809  0.2810 -0.2460  0.8479
 8643SOL    HW137562   1.925   3.011   6.866 -0.1457 -0.2170  1.4193
 8643SOL    HW237563   1.862   2.923   6.768 -1.1625 -0.5840  1.0669
 8644SOL     OW37564   4.229   3.610   6.500 -0.1321 -0.2718 -0.5486
 8644SOL    HW137565   4.203   3.603   6.592  0.0698 -1.5593 -0.5862
 8644SOL    HW237566   4.239   3.705   6.493  1.2673 -0.2604  1.5973
 8645SOL     OW37567   2.811   2.803   6.433  0.3040 -0.6459  0.0853
 8645SOL    HW137568   2.907   2.802   6.434  0.2641 -4.9673 -0.2309
 8645SOL    HW237569   2.805   2.846   6.518 -2.4880  0.5111 -0.7202
 8646SOL     OW37570   0.114   1.510   2.292 -0.0514 -0.2814  0.3465
 8646SOL    HW137571   0.073   1.594   2.269  0.6575 -0.4872 -1.6946
 8646SOL    HW237572   0.167   1.534   2.368 -2.3710 -3.4335  2.9967
 8647SOL     OW37573   4.221   0.232  12.647 -0.5273 -0.1027  0.2412
 8647SOL    HW137574   4.230   0.315  12.600  0.3719  0.0253  0.6542
 8647SOL    HW237575   4.181   0.176  12.581  0.1222 -2.1604  1.6077
 8648SOL     OW37576   4.122   4.460   2.795  0.5820 -1.3615 -0.4316
 8648SOL    HW137577   4.043   4.406   2.790  1.7640 -3.1630  0.2627
 8648SOL    HW237578   4.182   4.410   2.850  2.6433 -1.0896 -2.4126
 8649SOL     OW37579   4.560   0.399   1.082 -0.1152  0.2666 -0.1031
 8649SOL    HW137580   4.641   0.350   1.091  0.0077  0.3589 -0.6903
 8649SOL    HW237581   4.525   0.379   1.169 -0.8612 -0.6240 -0.6109
 8650SOL     OW37582   3.318   0.052   6.403 -0.1883 -0.0153  0.0006
 8650SOL    HW137583   3.323   4.695   6.402 -0.5787 -0.0102 -2.1201
 8650SOL    HW237584   3.225   0.051   6.426  0.0623 -1.1378  0.9941
 8651SOL     OW37585   0.999   3.726   3.778 -0.5156 -0.6791  0.1181
 8651SOL    HW137586   0.923   3.672   3.800 -1.4125  0.0929 -1.1160
 8651SOL    HW237587   1.003   3.727   3.683  0.1742  3.0358  0.1745
 8652SOL     OW37588   2.049   1.291   4.028 -0.0482 -0.5187  0.1757
 8652SOL    HW137589   1.957   1.267   4.033  0.2137 -1.2306  1.3855
 8652SOL    HW237590   2.083   1.241   3.953  1.2206  0.9699 -0.2505
 8653SOL     OW37591   2.830   2.040  11.626  0.1005  0.0748  0.3463
 8653SOL    HW137592   2.823   2.125  11.581 -0.2130  1.1005  2.3328
 8653SOL    HW237593   2.919   2.049  11.661 -0.2246  0.4108  1.0745
 8654SOL     OW37594   2.378   3.954   8.231  0.1600 -0.0282  0.2078
 8654SOL    HW137595   2.321   3.935   8.305 -0.6270  1.0181 -0.1255
 8654SOL    HW237596   2.348   4.043   8.210  0.2695 -0.7171 -2.9446
 8655SOL     OW37597   2.651   0.954   2.886 -0.0393  0.0614  0.3101
 8655SOL    HW137598   2.672   1.027   2.828 -3.3136  1.0284  0.3198
 8655SOL    HW237599   2.677   0.876   2.838  0.3191 -0.9098  2.0659
 8656SOL     OW37600   3.156   2.668   7.704  0.0192  0.1318  0.4226
 8656SOL    HW137601   3.080   2.725   7.693 -2.1817 -2.6618  0.8163
 8656SOL    HW237602   3.215   2.717   7.761  0.8838  0.0513 -0.4231
 8657SOL     OW37603   2.474   2.570   9.567 -0.7066  0.1116  0.1287
 8657SOL    HW137604   2.531   2.638   9.603 -1.6168  0.0253  1.7301
 8657SOL    HW237605   2.526   2.491   9.579 -0.0639  0.4839 -0.1908
 8658SOL     OW37606   0.422   1.639   9.846  0.6178  0.0275 -0.5970
 8658SOL    HW137607   0.444   1.569   9.908 -2.2780 -0.4510 -0.1408
 8658SOL    HW237608   0.379   1.584   9.781  1.6183 -0.4228 -0.8897
 8659SOL     OW37609   4.051   3.418  13.903  0.0749  0.6681 -0.1617
 8659SOL    HW137610   4.138   3.456  13.917  0.4089  0.5111 -1.8000
 8659SOL    HW237611   4.014   3.442  13.988  0.8139  0.3461  0.2565
 8660SOL     OW37612   3.486   0.970   2.473 -0.6947  0.2393 -0.6061
 8660SOL    HW137613   3.552   0.902   2.457 -0.7694  0.4754 -1.9316
 8660SOL    HW237614   3.518   1.022   2.547 -0.7102 -1.4643  0.6057
 8661SOL     OW37615   3.795   4.015   8.651  0.3259  0.7864 -0.0796
 8661SOL    HW137616   3.829   3.927   8.636  1.0619  1.1391 -0.4321
 8661SOL    HW237617   3.778   4.050   8.563 -1.8395  0.9269  0.3916
 8662SOL     OW37618   2.400   3.255   8.787 -0.3553  0.4006 -0.1477
 8662SOL    HW137619   2.398   3.350   8.778 -0.4472  0.3981 -0.1554
 8662SOL    HW237620   2.308   3.240   8.766 -0.2063 -0.4031 -0.2420
 8663SOL     OW37621   2.861   1.348   8.789  0.4749  0.0697  0.0467
 8663SOL    HW137622   2.830   1.331   8.877  0.8084  2.3914  0.6129
 8663SOL    HW237623   2.780   1.393   8.766  0.1196 -1.1799 -1.1423
 8664SOL     OW37624   4.196   2.144   6.268 -0.6626  0.1218 -0.4292
 8664SOL    HW137625   4.134   2.216   6.273 -0.2646  0.6225 -2.5407
 8664SOL    HW237626   4.125   2.082   6.258 -2.7640  2.5842 -0.6477
 8665SOL     OW37627   0.757   3.502  10.144 -0.0924  0.1115  0.3402
 8665SOL    HW137628   0.700   3.471  10.073  1.6901 -1.2112 -0.5244
 8665SOL    HW237629   0.825   3.435  10.155 -0.4892 -0.5483 -1.2321
 8666SOL     OW37630   4.316   4.583   7.303  0.1959  0.2064  0.0913
 8666SOL    HW137631   4.221   4.594   7.299 -0.0343 -1.9383 -0.9630
 8666SOL    HW237632   4.309   4.487   7.298  1.5794  0.1666 -0.8771
 8667SOL     OW37633   0.370   2.623   2.874  0.0096 -0.5304 -0.2744
 8667SOL    HW137634   0.403   2.617   2.963 -1.2239 -0.9728  0.1412
 8667SOL    HW237635   0.311   2.549   2.862 -1.3661  0.4225  0.6619
 8668SOL     OW37636   0.154   1.695   2.623 -0.6358  0.7853 -0.0086
 8668SOL    HW137637   0.185   1.609   2.649  2.3430  1.6625 -0.5986
 8668SOL    HW237638   0.237   1.744   2.626  0.2645 -0.9729  2.5429
 8669SOL     OW37639   4.557   0.268  14.715 -0.1623  0.1363  0.0909
 8669SOL    HW137640   4.623   0.263  14.783 -0.4501 -2.2961  0.1908
 8669SOL    HW237641   4.584   0.206  14.647 -1.7869  2.2764 -2.5300
 8670SOL     OW37642   4.188   3.922   4.462 -0.0053  0.0110  0.2620
 8670SOL    HW137643   4.128   3.932   4.388 -0.9337 -0.2974  0.9661
 8670SOL    HW237644   4.138   3.881   4.533  0.0402  0.4338  0.5377
 8671SOL     OW37645   0.166   1.472   7.948  0.4316 -0.4457 -0.8457
 8671SOL    HW137646   0.220   1.406   7.904  2.4790  1.0481 -0.5979
 8671SOL    HW237647   0.105   1.497   7.879  0.7692 -0.1685 -1.0424
 8672SOL     OW37648   3.945   2.180  14.633  0.2287 -0.4962  0.0077
 8672SOL    HW137649   4.016   2.145  14.579  0.5159  0.0643  0.0219
 8672SOL    HW237650   3.890   2.229  14.573 -0.3835 -1.1356  0.0548
 8673SOL     OW37651   2.021   0.588   0.040 -0.0093  0.0310 -0.0842
 8673SOL    HW137652   2.046   0.543  17.713  2.3027  0.2489  0.4865
 8673SOL    HW237653   1.941   0.637   0.026  0.6825  1.3704  0.6586
 8674SOL     OW37654   0.927   0.301   2.676 -0.1649  0.4463  0.6351
 8674SOL    HW137655   0.889   0.226   2.722  1.2940 -0.9385 -0.4275
 8674SOL    HW237656   0.857   0.325   2.615 -0.6738 -0.6619  0.7704
 8675SOL     OW37657   4.164   2.443   8.013  0.3007 -0.1614 -0.0042
 8675SOL    HW137658   4.185   2.423   7.922 -0.5072 -0.3928 -0.1384
 8675SOL    HW237659   4.211   2.526   8.019  0.0321 -0.0737  0.8983
 8676SOL     OW37660   1.892   4.344   8.197 -0.2518  0.2297  0.2946
 8676SOL    HW137661   1.939   4.281   8.143  0.8183 -1.7272  3.4710
 8676SOL    HW237662   1.818   4.286   8.216  0.6923 -1.4482 -1.1567
 8677SOL     OW37663   3.226   1.409   8.019 -0.0254  0.2127  0.1037
 8677SOL    HW137664   3.302   1.396   8.077 -1.3395 -2.4404  1.2151
 8677SOL    HW237665   3.165   1.358   8.072  1.7958 -0.9435  1.0995
 8678SOL     OW37666   3.808   1.472   3.550  0.3794 -0.5418 -0.0364
 8678SOL    HW137667   3.730   1.482   3.605 -0.0122  0.9860 -0.8634
 8678SOL    HW237668   3.769   1.475   3.463  0.2405  1.5420  0.0875
 8679SOL     OW37669   2.388   3.123   1.124 -0.0135 -0.3910  0.3476
 8679SOL    HW137670   2.320   3.158   1.181  1.8969  1.5559  1.4530
 8679SOL    HW237671   2.347   3.041   1.098 -0.3987  0.0251 -0.3684
 8680SOL     OW37672   3.937   1.442  13.391  0.1578 -0.3241 -0.7602
 8680SOL    HW137673   3.986   1.511  13.348  1.1850 -0.2104  0.6149
 8680SOL    HW237674   3.968   1.355  13.367  2.1239  0.5580 -1.3983
 8681SOL     OW37675   4.147   1.534   3.639  0.3249  0.0795  0.0756
 8681SOL    HW137676   4.085   1.592   3.684 -0.3100 -0.4720 -0.0817
 8681SOL    HW237677   4.123   1.458   3.692  0.6012  0.3381  0.5785
 8682SOL     OW37678   1.520   0.781   1.887  0.2228 -0.7394  0.1512
 8682SOL    HW137679   1.572   0.773   1.966 -3.4843  0.6300  2.7257
 8682SOL    HW237680   1.443   0.822   1.926 -0.1780 -2.0490  0.7329
 8683SOL     OW37681   2.345   3.373   5.587  0.3937  0.5362  0.0839
 8683SOL    HW137682   2.297   3.388   5.668 -1.1747 -0.4979 -0.6571
 8683SOL    HW237683   2.291   3.439   5.543 -0.6886  0.0853  0.7270
 8684SOL     OW37684   4.053   4.160   6.588 -0.3075  0.2006 -0.2742
 8684SOL    HW137685   4.136   4.206   6.572  0.2042 -1.0062 -1.0670
 8684SOL    HW237686   4.040   4.133   6.497 -1.1401 -0.3011 -0.0055
 8685SOL     OW37687   0.190   4.537   1.190  0.3247  0.5157 -0.0547
 8685SOL    HW137688   0.151   4.463   1.236 -0.7369  0.6460 -0.7640
 8685SOL    HW237689   0.197   4.499   1.103 -1.2595 -0.8683  0.4413
 8686SOL     OW37690   4.044   3.101   7.186  0.2257 -0.0056  0.1269
 8686SOL    HW137691   3.962   3.112   7.234 -0.3164  0.7329 -0.9725
 8686SOL    HW237692   4.010   3.106   7.096  0.8881 -1.7695 -0.2123
 8687SOL     OW37693   2.388   0.064   3.772 -0.2833  0.0670 -0.2557
 8687SOL    HW137694   2.332   0.015   3.712 -0.4508  0.1344 -0.1574
 8687SOL    HW237695   2.463   0.087   3.717 -0.2427  0.0342 -0.2136
 8688SOL     OW37696   2.446   2.538   4.271  0.8481 -0.6456 -0.5260
 8688SOL    HW137697   2.488   2.603   4.327  2.3918 -2.4751  0.4434
 8688SOL    HW237698   2.356   2.568   4.281  1.2407  0.4470 -0.3096
 8689SOL     OW37699   0.252   4.682  16.583 -0.4147 -0.3566  0.6713
 8689SOL    HW137700   0.255   4.592  16.614  0.5012 -0.4908  0.1805
 8689SOL    HW237701   0.283   4.679  16.492  0.9579  0.3549  1.1171
 8690SOL     OW37702   2.082   0.343   0.214  0.1870 -0.2078 -0.1184
 8690SOL    HW137703   2.155   0.403   0.233  0.3250 -0.6498  0.7529
 8690SOL    HW237704   2.032   0.391   0.149  0.8255 -2.0342 -1.9575
 8691SOL     OW37705   0.140   3.291   7.025 -0.3380 -0.3853  0.1848
 8691SOL    HW137706   0.133   3.270   6.932  1.6315  1.3362 -0.3324
 8691SOL    HW237707   0.158   3.208   7.069 -0.8563 -0.5537  0.0817
 8692SOL     OW37708   3.399   3.505   1.311  0.0883  0.0831 -0.4053
 8692SOL    HW137709   3.443   3.456   1.241  1.4346 -1.2216  1.3773
 8692SOL    HW237710   3.456   3.582   1.316  0.2181 -0.2847  3.5099
 8693SOL     OW37711   3.129   1.212   1.287  0.2975 -0.2492  0.2205
 8693SOL    HW137712   3.142   1.278   1.220  2.4615 -0.8437  0.0549
 8693SOL    HW237713   3.197   1.241   1.348  1.3299  0.4221 -1.2598
 8694SOL     OW37714   2.654   2.069   1.292  0.8798  0.4048  0.3821
 8694SOL    HW137715   2.696   2.065   1.378  1.6076  0.4664  0.0262
 8694SOL    HW237716   2.730   2.041   1.241 -0.1394 -1.5178 -0.0780
 8695SOL     OW37717   4.632   2.440   1.766 -0.3189  0.6041  0.1934
 8695SOL    HW137718   4.596   2.415   1.681  0.2087  0.0040  0.1468
 8695SOL    HW237719   4.712   2.485   1.737  0.0684 -0.6572 -0.7055
 8696SOL     OW37720   0.548   3.025   4.377  0.1484 -0.3462 -0.4120
 8696SOL    HW137721   0.461   3.003   4.345  0.2799  2.5287 -2.7328
 8696SOL    HW237722   0.531   3.109   4.420 -1.3138 -1.1691  0.5925
 8697SOL     OW37723   3.816   0.279   8.463 -0.3995 -0.2885 -0.0831
 8697SOL    HW137724   3.814   0.365   8.421  0.3121 -0.2129  0.0291
 8697SOL    HW237725   3.905   0.270   8.498 -1.5127  0.0712  2.8236
 8698SOL     OW37726   4.139   2.788   3.905  0.4517 -0.6606 -0.0850
 8698SOL    HW137727   4.185   2.864   3.869 -0.0509  0.0775  0.8255
 8698SOL    HW237728   4.143   2.732   3.828 -0.6757 -0.3272 -0.3888
 8699SOL     OW37729   1.646   2.964   5.776 -0.2041  0.2475  0.2470
 8699SOL    HW137730   1.625   2.872   5.762 -1.3092  0.1895  2.2367
 8699SOL    HW237731   1.578   2.986   5.840  2.0003  2.0480  1.9417
 8700SOL     OW37732   4.264   2.962  13.150  0.8728  0.3106  0.2553
 8700SOL    HW137733   4.348   2.921  13.131  0.6436  0.3326 -0.8076
 8700SOL    HW237734   4.279   3.057  13.152  0.3745  0.4011 -0.3379
 8701SOL     OW37735   1.663   0.783   0.778 -0.0681 -0.0322 -0.0349
 8701SOL    HW137736   1.668   0.690   0.801  0.6560 -0.4577 -1.9437
 8701SOL    HW237737   1.659   0.788   0.682 -1.4354  0.1012  0.0306
 8702SOL     OW37738   3.309   1.867  17.038  0.0834 -0.0256 -0.6675
 8702SOL    HW137739   3.382   1.911  17.081 -0.0138  0.5974 -1.1470
 8702SOL    HW237740   3.349   1.781  17.023  2.3318  1.3634 -2.6281
 8703SOL     OW37741   1.536   3.918  16.073  0.1923 -0.3567  0.3172
 8703SOL    HW137742   1.453   3.916  16.025 -0.2901  0.2316  1.1335
 8703SOL    HW237743   1.583   3.995  16.042 -1.2112  0.7247  0.9010
 8704SOL     OW37744   2.162   0.303   8.677 -0.6911  0.0466 -0.2922
 8704SOL    HW137745   2.159   0.392   8.713  1.6228  0.4260 -1.0233
 8704SOL    HW237746   2.070   0.287   8.657 -1.5488  3.2362  0.9598
 8705SOL     OW37747   1.017   0.858   4.406  0.2999  0.7236  0.0446
 8705SOL    HW137748   1.052   0.790   4.349 -1.0955 -1.1737  1.4905
 8705SOL    HW237749   1.039   0.828   4.494 -0.2602 -0.8449 -0.3583
 8706SOL     OW37750   2.234   2.571  14.577  0.4099  0.2165  0.3609
 8706SOL    HW137751   2.154   2.579  14.628 -0.7685 -1.6302 -1.1949
 8706SOL    HW237752   2.295   2.581  14.650  0.8338  0.8975 -0.0835
 8707SOL     OW37753   4.568   4.330   2.735  0.2551  0.3194 -0.3757
 8707SOL    HW137754   4.618   4.387   2.794 -0.0691 -0.3002  0.5007
 8707SOL    HW237755   4.500   4.395   2.717  0.1015  0.2311 -0.1141
 8708SOL     OW37756   4.270   3.143   2.521 -0.0454 -0.6416 -0.7433
 8708SOL    HW137757   4.274   3.094   2.604 -2.8261 -2.0202 -1.3968
 8708SOL    HW237758   4.320   3.217   2.555 -1.4344  0.2036 -0.5225
 8709SOL     OW37759   3.426   2.804   2.875  0.1650  0.1258 -0.0042
 8709SOL    HW137760   3.404   2.749   2.799 -1.1476  2.2009 -1.1323
 8709SOL    HW237761   3.365   2.877   2.863 -1.2917 -1.1223 -0.3090
 8710SOL     OW37762   4.283   4.016   0.026  0.3734 -0.3446  0.6363
 8710SOL    HW137763   4.345   3.953  17.744  1.3089 -0.3635  2.2656
 8710SOL    HW237764   4.203   3.996  17.733  0.7138 -2.2039  0.8592
 8711SOL     OW37765   2.627   0.475   5.438  0.2036  0.3107  0.5866
 8711SOL    HW137766   2.652   0.540   5.503 -0.4395 -0.7029  1.8343
 8711SOL    HW237767   2.537   0.503   5.422  0.2395 -1.1981 -2.3190
 8712SOL     OW37768   1.626   3.911  16.681 -0.4599 -0.3022 -0.5941
 8712SOL    HW137769   1.650   3.915  16.588  0.3814 -1.5765 -0.4266
 8712SOL    HW237770   1.646   3.820  16.703 -0.4533 -0.4492 -1.2088
 8713SOL     OW37771   3.681   3.759  17.245  0.7214 -0.0841  0.0628
 8713SOL    HW137772   3.694   3.667  17.269  0.1186 -0.6999 -2.0192
 8713SOL    HW237773   3.589   3.757  17.221  0.4941  0.6250  0.8824
 8714SOL     OW37774   1.833   2.781  14.816 -0.0894  0.1320 -0.2144
 8714SOL    HW137775   1.743   2.795  14.845  0.2565 -1.7311  1.7448
 8714SOL    HW237776   1.842   2.850  14.750  1.6166  1.0593  1.0075
 8715SOL     OW37777   0.547   1.921   2.445 -0.4578 -0.4727  0.5454
 8715SOL    HW137778   0.478   1.915   2.378  1.3134  3.5818 -1.6363
 8715SOL    HW237779   0.589   2.003   2.419 -1.9982 -0.7290 -2.7649
 8716SOL     OW37780   1.389   1.852   3.307  0.0099  1.1098 -0.0182
 8716SOL    HW137781   1.322   1.903   3.351  0.9401  3.0561 -0.8586
 8716SOL    HW237782   1.341   1.796   3.245 -1.4486 -0.1501  2.2633
 8717SOL     OW37783   2.009   2.108   5.626  0.1569  0.1271 -0.0447
 8717SOL    HW137784   2.069   2.084   5.697 -1.0836  0.9109  1.2590
 8717SOL    HW237785   2.068   2.153   5.566  2.3564 -3.4366 -0.5301
 8718SOL     OW37786   1.041   2.746   6.623  0.2546  0.2809 -0.1238
 8718SOL    HW137787   0.964   2.803   6.616  0.2840  0.1772 -1.3692
 8718SOL    HW237788   1.111   2.811   6.626  0.7663 -0.2065 -1.3221
 8719SOL     OW37789   4.321   0.054  14.704 -0.1110  0.3107  0.0435
 8719SOL    HW137790   4.333   0.053  14.609  3.1236 -4.4982  0.4706
 8719SOL    HW237791   4.283   0.141  14.712  0.2225  0.4972 -0.4256
 8720SOL     OW37792   2.222   4.459   5.978 -0.1811  0.9233  0.0635
 8720SOL    HW137793   2.246   4.452   5.886 -0.9012 -0.7190 -0.0154
 8720SOL    HW237794   2.306   4.476   6.020 -0.1154 -2.4597  1.3164
 8721SOL     OW37795   1.355   0.591   2.328  0.4602  0.0717 -0.7412
 8721SOL    HW137796   1.282   0.639   2.287 -1.1661 -1.4541  0.3573
 8721SOL    HW237797   1.296   0.529   2.370  0.8361  0.4287  0.3213
 8722SOL     OW37798   1.968   2.556   2.811 -0.1606 -0.6645 -0.1527
 8722SOL    HW137799   1.941   2.648   2.805 -1.6512 -1.2283 -2.2158
 8722SOL    HW237800   2.060   2.572   2.827 -0.8873  0.2512  3.0848
 8723SOL     OW37801   1.969   2.866   9.527  0.1735 -0.1886  0.6218
 8723SOL    HW137802   1.973   2.961   9.531  1.7064 -0.2677  1.0294
 8723SOL    HW237803   2.031   2.853   9.599 -2.2070 -1.6166  2.4663
 8724SOL     OW37804   0.361   4.717   1.902 -0.1568 -0.0204 -0.1066
 8724SOL    HW137805   0.322   4.652   1.960 -0.3058  1.2925  1.2411
 8724SOL    HW237806   0.383   4.654   1.834 -3.8811 -0.8558 -0.5599
 8725SOL     OW37807   1.143   4.507  15.588  0.4392  0.4651  0.3691
 8725SOL    HW137808   1.064   4.545  15.549  0.5375 -0.7036 -0.9823
 8725SOL    HW237809   1.148   4.430  15.532  0.2437  0.5241  0.2738
 8726SOL     OW37810   1.194   0.508  14.573  0.4216 -0.6580  0.1402
 8726SOL    HW137811   1.112   0.485  14.617  0.0901  0.4425  0.0955
 8726SOL    HW237812   1.230   0.419  14.565 -0.4986 -1.0574  0.3626
 8727SOL     OW37813   0.513   1.866  16.854 -0.1825 -0.2457 -0.7431
 8727SOL    HW137814   0.429   1.828  16.830  0.0533 -2.4166  1.9415
 8727SOL    HW237815   0.553   1.793  16.901  1.6334  1.5011  0.4512
 8728SOL     OW37816   2.268   2.627   3.541 -0.7409  0.3452 -0.1191
 8728SOL    HW137817   2.286   2.535   3.523 -0.1911  0.3496  0.3936
 8728SOL    HW237818   2.285   2.669   3.457 -1.2213  1.1717  0.2011
 8729SOL     OW37819   3.750   1.302   6.149  0.5228  0.0111 -0.0479
 8729SOL    HW137820   3.782   1.331   6.235 -1.3544  0.7437  0.3924
 8729SOL    HW237821   3.828   1.299   6.093  0.6486  0.3019  0.1100
 8730SOL     OW37822   2.788   1.243   5.633 -0.0467 -0.4290 -0.0397
 8730SOL    HW137823   2.850   1.245   5.560 -0.1199 -1.3074 -0.1254
 8730SOL    HW237824   2.857   1.243   5.699  0.0034  0.1878 -0.0873
 8731SOL     OW37825   0.645   3.867  14.622  0.5315  0.6531 -0.2015
 8731SOL    HW137826   0.652   3.929  14.549 -0.0765 -1.4315 -2.0390
 8731SOL    HW237827   0.729   3.822  14.617  0.5864  0.2877  3.7489
 8732SOL     OW37828   4.067   0.990   9.421 -0.6012 -1.1401 -1.1649
 8732SOL    HW137829   4.044   0.903   9.453  0.9741 -1.1935 -0.1910
 8732SOL    HW237830   3.994   1.049   9.440 -1.3850 -1.5400 -2.9361
 8733SOL     OW37831   0.115   0.689   6.706  0.1338  0.3202 -0.5011
 8733SOL    HW137832   0.065   0.637   6.769  2.5892 -1.1376  0.2535
 8733SOL    HW237833   0.168   0.620   6.666 -0.3878  1.5490 -3.3016
 8734SOL     OW37834   4.342   1.817   7.838  0.3536  0.4767 -0.2977
 8734SOL    HW137835   4.400   1.783   7.905  0.2135  2.1436  0.6824
 8734SOL    HW237836   4.278   1.749   7.817  1.6537 -2.0235  3.9836
 8735SOL     OW37837   4.540   1.380   3.552 -0.3171 -0.7333  0.0827
 8735SOL    HW137838   4.497   1.416   3.629 -2.1549  0.9095 -1.6868
 8735SOL    HW237839   4.591   1.313   3.597  0.1435  0.2416  1.0282
 8736SOL     OW37840   1.320   2.768   4.954  0.4464  0.3289 -0.1426
 8736SOL    HW137841   1.386   2.834   4.935  0.7635 -0.5772 -2.2146
 8736SOL    HW237842   1.290   2.801   5.038  1.7049 -0.2352  0.5376
 8737SOL     OW37843   3.366   1.886   7.664 -0.7278  0.1780 -0.6054
 8737SOL    HW137844   3.278   1.889   7.626 -0.1580  2.4076 -1.7731
 8737SOL    HW237845   3.353   1.862   7.755 -1.1570  1.1349 -0.4176
 8738SOL     OW37846   2.491   2.552   4.850 -0.3327  0.5766  0.1115
 8738SOL    HW137847   2.454   2.635   4.819  1.2448  1.4442  0.5306
 8738SOL    HW237848   2.584   2.573   4.842  0.2527 -0.9334  3.0206
 8739SOL     OW37849   4.328   4.183   9.959  0.1241 -0.2777 -0.3803
 8739SOL    HW137850   4.355   4.091   9.960 -0.9508 -0.6082 -1.6629
 8739SOL    HW237851   4.396   4.231   9.912  0.2816  0.4515  0.5940
 8740SOL     OW37852   3.793   1.999   2.506 -0.3153  0.2052 -0.0539
 8740SOL    HW137853   3.827   1.912   2.487 -0.8192 -0.1264  0.5812
 8740SOL    HW237854   3.857   2.056   2.462  0.2808 -0.1701  0.3376
 8741SOL     OW37855   0.662   1.423   4.240 -0.2834  0.6486  0.6117
 8741SOL    HW137856   0.734   1.435   4.177  0.0821  1.2164  1.1372
 8741SOL    HW237857   0.619   1.341   4.216 -0.8816  1.0972  0.1551
 8742SOL     OW37858   3.047   1.732   3.821  0.2256 -0.4638 -0.1147
 8742SOL    HW137859   3.118   1.745   3.758 -0.7576 -2.3293 -1.5923
 8742SOL    HW237860   3.098   1.748   3.901  0.1036  1.3365 -0.4067
 8743SOL     OW37861   1.128   4.217   3.859 -0.3730 -0.2291  0.0714
 8743SOL    HW137862   1.079   4.244   3.938 -1.1906 -0.8902 -0.2010
 8743SOL    HW237863   1.106   4.124   3.867  0.7482 -0.4782  0.1496
 8744SOL     OW37864   4.621   2.448  15.612  0.3501 -0.8557 -0.2979
 8744SOL    HW137865   4.636   2.459  15.518 -3.1757  0.2122 -0.7261
 8744SOL    HW237866   4.555   2.510  15.641  0.5997 -0.7343  0.0126
 8745SOL     OW37867   0.085   4.035   5.757  0.3922 -0.0714 -0.3368
 8745SOL    HW137868   0.159   4.010   5.702 -1.3084 -1.7691 -1.8327
 8745SOL    HW237869   0.125   4.104   5.811 -0.7132  2.6806 -3.0430
 8746SOL     OW37870   1.550   0.890   7.064  0.1387  0.4512 -0.1747
 8746SOL    HW137871   1.478   0.846   7.109 -0.7792  1.4340 -0.6800
 8746SOL    HW237872   1.516   0.910   6.977  0.1233  0.4623 -0.1662
 8747SOL     OW37873   2.172   2.899   9.952  0.1425  0.0512 -0.1294
 8747SOL    HW137874   2.190   2.950   9.873 -2.5863  2.0094  0.4926
 8747SOL    HW237875   2.159   2.812   9.914 -1.2168  0.5110 -0.7366
 8748SOL     OW37876   3.242   2.094  11.963  0.0075 -0.2030 -0.1650
 8748SOL    HW137877   3.274   2.005  11.976 -2.2041 -0.9851 -0.0098
 8748SOL    HW237878   3.313   2.145  12.001  0.9866 -1.6799  0.0057
 8749SOL     OW37879   2.097   3.896   5.925  0.1050  0.0292 -0.3837
 8749SOL    HW137880   2.191   3.894   5.904  0.5343 -0.0070  1.5476
 8749SOL    HW237881   2.067   3.836   5.857 -0.4029 -0.3101  0.1450
 8750SOL     OW37882   1.777   0.587   3.436 -0.1753 -0.0380 -0.4675
 8750SOL    HW137883   1.776   0.683   3.434 -0.5119 -0.1064 -2.7951
 8750SOL    HW237884   1.763   0.582   3.531 -0.4779  3.9137 -0.2893
 8751SOL     OW37885   3.202   3.377  14.116  0.2351  0.4940 -0.2391
 8751SOL    HW137886   3.230   3.447  14.057  0.0561 -0.5257 -1.5376
 8751SOL    HW237887   3.137   3.330  14.063  0.7941  1.8268 -2.0778
 8752SOL     OW37888   3.134   3.614   2.643  0.3415 -0.1706  0.4204
 8752SOL    HW137889   3.125   3.526   2.608 -0.2739 -0.3840  1.1028
 8752SOL    HW237890   3.141   3.656   2.558 -0.4310 -0.4313  0.2259
 8753SOL     OW37891   0.776   0.647   6.511  0.5111 -0.3214  0.2022
 8753SOL    HW137892   0.838   0.716   6.486  0.5756  0.1838  1.7384
 8753SOL    HW237893   0.751   0.675   6.599 -1.2265 -0.3292 -0.3019
 8754SOL     OW37894   2.674   1.581   1.535 -0.1270 -0.0451  0.4337
 8754SOL    HW137895   2.587   1.613   1.511  1.4085  2.9882 -1.0397
 8754SOL    HW237896   2.701   1.521   1.466 -1.0252  1.4280 -1.1809
 8755SOL     OW37897   3.679   1.179   5.873  0.2117  0.5749  0.3797
 8755SOL    HW137898   3.585   1.171   5.853  0.9200 -1.2891 -2.1591
 8755SOL    HW237899   3.678   1.208   5.964 -0.4825 -1.3480  0.9920
 8756SOL     OW37900   2.208   3.632  17.161  0.6544  0.0310  0.6298
 8756SOL    HW137901   2.119   3.620  17.195  0.6642  1.8429  1.2812
 8756SOL    HW237902   2.234   3.553  17.115 -0.1974  0.0614  0.0919
 8757SOL     OW37903   1.475   2.045  14.745 -0.0382  0.0192 -0.0131
 8757SOL    HW137904   1.419   1.974  14.715 -1.7667  0.9507  1.0031
 8757SOL    HW237905   1.534   1.999  14.805  0.7207  0.5173 -0.3889
 8758SOL     OW37906   0.313   1.471   1.967 -0.1379 -0.1067 -0.0014
 8758SOL    HW137907   0.231   1.422   1.968 -0.5829  0.7178  2.8397
 8758SOL    HW237908   0.358   1.433   1.891  0.6806  1.1990 -0.1635
 8759SOL     OW37909   0.319   3.788   1.154 -0.1829 -0.0835  0.1643
 8759SOL    HW137910   0.281   3.872   1.178 -0.7088  0.2566 -1.8580
 8759SOL    HW237911   0.278   3.766   1.070 -2.9022 -0.4471  1.6138
 8760SOL     OW37912   4.654   0.733   7.504  0.1409 -0.5257 -0.1495
 8760SOL    HW137913   4.715   0.806   7.494 -1.8768  1.0792 -0.7291
 8760SOL    HW237914   4.601   0.727   7.425 -1.4037  0.3009  0.8339
 8761SOL     OW37915   4.296   1.860  13.173  0.3727  0.1076  0.1677
 8761SOL    HW137916   4.327   1.887  13.259 -0.4384 -0.0338  0.5045
 8761SOL    HW237917   4.235   1.931  13.151  1.4244  0.6338 -1.0792
 8762SOL     OW37918   1.559   2.318   5.209  0.0109 -0.3156 -0.0750
 8762SOL    HW137919   1.511   2.396   5.236  1.3613  0.2942  0.5733
 8762SOL    HW237920   1.484   2.267   5.179 -0.7648  0.8089 -0.0558
 8763SOL     OW37921   3.153   0.416   1.420 -0.3787  0.0986 -0.4722
 8763SOL    HW137922   3.184   0.420   1.329  0.0805  1.4670 -0.2572
 8763SOL    HW237923   3.156   0.508   1.446 -1.1475  0.5275 -1.9348
 8764SOL     OW37924   3.794   1.947  11.720 -0.4905 -0.4301 -0.1664
 8764SOL    HW137925   3.763   1.901  11.641 -0.6857 -0.6446  0.0335
 8764SOL    HW237926   3.888   1.932  11.717 -0.6814 -1.4875 -1.2054
 8765SOL     OW37927   4.130   3.985  12.960 -0.1290  0.0928 -0.2326
 8765SOL    HW137928   4.118   3.933  13.040 -0.8094  1.8572  0.8192
 8765SOL    HW237929   4.219   4.019  12.972 -0.4208 -0.0413  2.3566
 8766SOL     OW37930   4.407   0.460  14.440  0.3051  0.5335  0.5035
 8766SOL    HW137931   4.501   0.452  14.454 -0.0435 -1.0933  1.8246
 8766SOL    HW237932   4.369   0.420  14.518  0.7839  0.0852  0.5030
 8767SOL     OW37933   3.955   2.275   2.628  0.2501  0.0737 -0.2180
 8767SOL    HW137934   3.967   2.239   2.540  0.5465  1.8671 -0.9208
 8767SOL    HW237935   3.859   2.276   2.626  0.2654  0.6955 -0.7106
 8768SOL     OW37936   3.915   0.582   7.438  0.4859  0.6477 -0.2877
 8768SOL    HW137937   3.850   0.515   7.459  0.2386  1.1687  0.5976
 8768SOL    HW237938   3.900   0.656   7.496 -0.5960  1.4698 -1.6212
 8769SOL     OW37939   1.665   3.479   6.778 -0.6057  0.0211  0.1351
 8769SOL    HW137940   1.574   3.502   6.801 -0.0988  1.2796  0.9173
 8769SOL    HW237941   1.657   3.393   6.738  1.1134 -0.5360  1.0089
 8770SOL     OW37942   1.193   1.527   6.777 -0.7450 -0.5855  0.8589
 8770SOL    HW137943   1.146   1.498   6.699 -0.0348  2.3893 -0.6705
 8770SOL    HW237944   1.129   1.512   6.846 -4.0458  1.6349 -1.7721
 8771SOL     OW37945   2.462   1.178   4.812  0.8027  0.7867  0.3730
 8771SOL    HW137946   2.483   1.187   4.905  1.4765  0.3115  0.2662
 8771SOL    HW237947   2.480   1.267   4.782  0.1307  0.5538 -0.7355
 8772SOL     OW37948   3.141   3.967   2.187 -0.1778  0.1494  0.4528
 8772SOL    HW137949   3.146   3.877   2.156 -0.1470  0.6015 -0.8545
 8772SOL    HW237950   3.209   4.015   2.141 -2.3103  1.3731 -1.4644
 8773SOL     OW37951   2.514   2.798   8.367  0.0139  0.0480 -0.0676
 8773SOL    HW137952   2.533   2.755   8.283  1.1936  0.9638 -0.2657
 8773SOL    HW237953   2.486   2.884   8.338 -5.5962 -2.0231 -0.7758
 8774SOL     OW37954   3.400   0.807   2.124 -0.5949  0.2113  0.4386
 8774SOL    HW137955   3.371   0.825   2.034 -0.0148  0.5661  0.3233
 8774SOL    HW237956   3.420   0.897   2.149  0.1571  0.2477 -0.2897
 8775SOL     OW37957   4.178   4.689  15.373  0.4215 -0.2842  0.4917
 8775SOL    HW137958   4.236   4.619  15.345 -0.1304  0.6753 -3.0801
 8775SOL    HW237959   4.234   0.026  15.389  0.4113 -0.0256 -0.6791
 8776SOL     OW37960   4.009   0.808   8.081  0.0707 -0.6405  0.2140
 8776SOL    HW137961   3.936   0.835   8.137 -0.5141 -0.9972 -0.3799
 8776SOL    HW237962   3.978   0.725   8.045 -0.9252 -0.7453  1.3022
 8777SOL     OW37963   1.404   1.041   7.851  0.0872  0.2126 -0.1811
 8777SOL    HW137964   1.361   1.055   7.767 -0.6027  1.1709  0.3338
 8777SOL    HW237965   1.341   1.078   7.913  0.4075  1.1810 -0.4345
 8778SOL     OW37966   1.790   3.537   0.512 -0.0398 -0.3005 -0.2977
 8778SOL    HW137967   1.800   3.629   0.536 -1.8846  0.1460 -1.2295
 8778SOL    HW237968   1.753   3.498   0.591 -1.3169 -0.1340 -0.8171
 8779SOL     OW37969   1.033   2.304  11.875 -0.5615 -0.6460 -0.1734
 8779SOL    HW137970   1.061   2.389  11.908 -0.1732 -1.4070  1.4478
 8779SOL    HW237971   0.938   2.315  11.876 -0.5010  0.0433 -1.5668
 8780SOL     OW37972   3.109   3.586   0.786 -0.3592 -0.2145  0.1497
 8780SOL    HW137973   3.145   3.552   0.867  0.8680  1.0259  0.1277
 8780SOL    HW237974   3.180   3.612   0.727  0.1132 -2.5999 -0.3322
 8781SOL     OW37975   0.993   4.075   5.504 -0.1703  0.0279  0.6892
 8781SOL    HW137976   1.057   4.017   5.546 -0.8744 -0.3866  1.1873
 8781SOL    HW237977   0.915   4.019   5.503  0.2738 -0.6117  1.2188
 8782SOL     OW37978   0.070   3.034  11.577  0.4738  0.2666 -0.1220
 8782SOL    HW137979   0.155   2.993  11.592  0.5809  0.4560 -0.2169
 8782SOL    HW237980   0.080   3.113  11.631  1.0335  1.1803 -1.5604
 8783SOL     OW37981   3.679   0.556   4.382  0.3555  0.2071  0.0807
 8783SOL    HW137982   3.605   0.511   4.341 -0.9090  1.3374  1.1173
 8783SOL    HW237983   3.674   0.642   4.341  0.3090  0.9925  1.7451
 8784SOL     OW37984   1.179   3.362  12.695  0.1224  0.1089  0.1755
 8784SOL    HW137985   1.130   3.398  12.620 -1.2103 -0.7290  0.6467
 8784SOL    HW237986   1.105   3.372  12.754 -0.0153  0.4218 -0.0479
 8785SOL     OW37987   2.297   1.179   0.819  0.0424 -0.1410  0.3661
 8785SOL    HW137988   2.235   1.122   0.774  0.4368  0.0945 -0.4647
 8785SOL    HW237989   2.253   1.262   0.802  0.3507 -0.6640 -2.8913
 8786SOL     OW37990   3.777   3.574   0.433  0.1373  0.4064  0.1838
 8786SOL    HW137991   3.830   3.577   0.354 -2.0179  1.5555 -1.2269
 8786SOL    HW237992   3.756   3.481   0.436  0.0808  0.4640  1.7601
 8787SOL     OW37993   2.279   4.352  15.448  0.3518 -0.3281 -0.5145
 8787SOL    HW137994   2.243   4.271  15.412 -0.8837 -0.7342  1.6334
 8787SOL    HW237995   2.330   4.384  15.373  1.2751  0.9674  0.6525
 8788SOL     OW37996   1.780   2.697   2.418 -0.7574 -0.4736 -0.1229
 8788SOL    HW137997   1.785   2.609   2.457 -0.8335  0.1903  1.3846
 8788SOL    HW237998   1.699   2.735   2.452 -0.2975  2.4408 -2.3410
 8789SOL     OW37999   3.252   3.382   6.739 -0.1541 -0.1364 -0.5622
 8789SOL    HW138000   3.316   3.453   6.744 -1.0121  0.7684 -2.6979
 8789SOL    HW238001   3.307   3.318   6.693  0.7130 -0.0980  0.4022
 8790SOL     OW38002   0.067   4.071  12.706 -0.0308  0.2979  0.2429
 8790SOL    HW138003   4.724   4.121  12.703 -0.2976 -0.3035 -2.3811
 8790SOL    HW238004   0.045   3.978  12.713  1.5830 -0.1013 -0.0272
 8791SOL     OW38005   4.633   2.497   4.237  0.8924  0.1323 -0.4909
 8791SOL    HW138006   4.687   2.566   4.275  1.9218 -0.0443 -1.6082
 8791SOL    HW238007   4.696   2.475   4.167  0.3651 -0.9357 -0.6313
 8792SOL     OW38008   4.006   0.868   8.674 -0.3693 -0.0992 -0.2577
 8792SOL    HW138009   4.003   0.826   8.589  1.2307 -0.1681 -0.2881
 8792SOL    HW238010   3.916   0.900   8.682  0.0859  1.1399  0.0479
 8793SOL     OW38011   3.993   0.355   1.990 -0.3125 -0.3566 -0.1347
 8793SOL    HW138012   3.946   0.317   2.064 -0.9825 -0.1600 -0.4647
 8793SOL    HW238013   4.045   0.426   2.029 -0.9735 -1.4590  2.6874
 8794SOL     OW38014   1.428   3.600   6.906  0.4102 -0.5437  0.4729
 8794SOL    HW138015   1.409   3.692   6.925 -0.5810 -0.4948 -0.7782
 8794SOL    HW238016   1.342   3.558   6.906 -0.4460  1.1990 -1.7021
 8795SOL     OW38017   2.881   0.530  16.557  0.0028 -0.5390 -0.6599
 8795SOL    HW138018   2.968   0.562  16.579  0.3825 -0.6729 -1.9441
 8795SOL    HW238019   2.901   0.528  16.463 -1.4345 -1.0990 -0.9742
 8796SOL     OW38020   0.991   0.597   4.898  0.1830 -0.3681  0.4991
 8796SOL    HW138021   0.916   0.538   4.900  0.2967 -0.5132  0.4570
 8796SOL    HW238022   1.049   0.583   4.972  1.3345 -1.1797 -0.5629
 8797SOL     OW38023   1.000   1.886  15.508 -0.0278 -0.0896 -0.7719
 8797SOL    HW138024   1.041   1.908  15.592  0.5324 -1.6620 -0.6248
 8797SOL    HW238025   1.074   1.835  15.475 -1.6162 -1.5136 -2.0598
 8798SOL     OW38026   2.459   0.128  16.878 -0.1664 -0.3133  0.1522
 8798SOL    HW138027   2.443   0.221  16.861 -1.2069 -0.5999 -0.4009
 8798SOL    HW238028   2.461   0.086  16.792 -1.1205 -1.6172  0.7706
 8799SOL     OW38029   1.775   1.038  12.241  0.4348 -0.0965 -0.2404
 8799SOL    HW138030   1.771   0.948  12.208  0.4891  0.9154 -2.9906
 8799SOL    HW238031   1.757   1.020  12.333  0.8093 -0.5456 -0.2493
 8800SOL     OW38032   0.534   3.428   4.725 -0.0357  0.6668 -0.1599
 8800SOL    HW138033   0.543   3.503   4.665 -0.2491  0.2732 -0.6864
 8800SOL    HW238034   0.538   3.468   4.812 -0.8064  2.5208 -0.9728
 8801SOL     OW38035   0.559   1.782   1.654 -0.3312 -0.0448 -0.0846
 8801SOL    HW138036   0.488   1.754   1.597  1.8665 -2.0286 -1.8774
 8801SOL    HW238037   0.518   1.797   1.739 -1.5948 -0.0818 -0.6943
 8802SOL     OW38038   4.026   2.818   9.064 -1.0983  0.7527 -0.0473
 8802SOL    HW138039   3.966   2.760   9.110 -0.9483  1.5510  1.1325
 8802SOL    HW238040   3.968   2.854   8.996  1.8540  0.0363 -2.9699
 8803SOL     OW38041   3.854   3.197   2.869  0.2610  0.4269  0.3705
 8803SOL    HW138042   3.783   3.217   2.807  1.7299  0.1488 -1.3843
 8803SOL    HW238043   3.838   3.107   2.896  0.3176  0.3074  0.0008
 8804SOL     OW38044   2.370   3.418   4.498  0.9035  0.0088 -0.1181
 8804SOL    HW138045   2.349   3.410   4.405  0.1527 -1.7047  0.1968
 8804SOL    HW238046   2.448   3.365   4.517 -0.2930 -1.8421 -0.3673
 8805SOL     OW38047   2.634   3.720  12.464 -0.1011 -0.5242 -0.1023
 8805SOL    HW138048   2.664   3.633  12.438  0.8337  0.1342 -1.2374
 8805SOL    HW238049   2.590   3.693  12.545 -1.1604 -1.0075 -0.8292
 8806SOL     OW38050   0.608   2.666   5.247  0.2474  0.3420  0.5642
 8806SOL    HW138051   0.594   2.610   5.324  1.4149  0.6280  0.9859
 8806SOL    HW238052   0.572   2.615   5.175  1.2454  2.0302 -1.1127
 8807SOL     OW38053   3.926   3.376   2.654  0.4744  0.6152  0.0953
 8807SOL    HW138054   3.903   3.469   2.656  0.7328  0.7068 -1.7530
 8807SOL    HW238055   3.888   3.341   2.736  1.5915 -0.7298  0.0455
 8808SOL     OW38056   0.087   2.915   1.175 -0.0551 -0.1956  0.2821
 8808SOL    HW138057   0.048   3.001   1.155  2.3715  0.6362 -0.7987
 8808SOL    HW238058   0.158   2.908   1.111  0.4849  0.4372  0.8029
 8809SOL     OW38059   0.233   4.679   8.415  0.4082 -0.0570 -0.0939
 8809SOL    HW138060   0.252   4.643   8.328  0.2962  0.5502 -0.3704
 8809SOL    HW238061   0.183   0.018   8.389 -0.1201 -0.4979 -0.4031
 8810SOL     OW38062   0.537   4.208   3.367 -0.0766  0.3121  0.3653
 8810SOL    HW138063   0.578   4.200   3.453  0.0438  0.4583  0.3226
 8810SOL    HW238064   0.444   4.205   3.388 -0.0535  0.4579  0.4910
 8811SOL     OW38065   0.853   2.915   6.573 -0.1858  0.4131  0.1239
 8811SOL    HW138066   0.841   2.988   6.634  1.3374  1.5798 -0.9704
 8811SOL    HW238067   0.762   2.900   6.547  0.1875 -0.8072 -0.4571
 8812SOL     OW38068   1.261   2.834   2.612  0.0710  0.3087 -0.2858
 8812SOL    HW138069   1.196   2.774   2.577 -0.3958  0.5491  0.1602
 8812SOL    HW238070   1.216   2.879   2.683  1.1941 -0.8552  1.1682
 8813SOL     OW38071   0.154   2.466   2.485 -0.2919 -0.2826 -0.2083
 8813SOL    HW138072   0.137   2.477   2.578  0.8684  0.0656 -0.0428
 8813SOL    HW238073   0.087   2.399   2.468 -1.7329  1.2711 -0.6067
 8814SOL     OW38074   0.691   1.127   7.699 -0.2519  0.0102 -0.5441
 8814SOL    HW138075   0.768   1.092   7.743 -0.0174  2.0272  0.6784
 8814SOL    HW238076   0.615   1.103   7.753  0.9869 -0.8869  0.7850
 8815SOL     OW38077   2.077   3.682   0.095 -0.3406 -0.1324  0.3622
 8815SOL    HW138078   2.004   3.730   0.133 -0.0471  1.9318 -1.7098
 8815SOL    HW238079   2.098   3.740   0.022  0.2500 -0.0306  0.6056
 8816SOL     OW38080   1.228   1.862   8.133 -0.2144 -0.1389  0.0309
 8816SOL    HW138081   1.304   1.920   8.132  0.0138 -0.4233  0.7781
 8816SOL    HW238082   1.201   1.890   8.046 -0.2112  0.1566  0.1242
 8817SOL     OW38083   3.393   2.251   9.746 -0.1299 -0.2060 -0.3070
 8817SOL    HW138084   3.436   2.224   9.828 -2.2782 -1.1394  0.5081
 8817SOL    HW238085   3.453   2.316   9.711  0.4817  1.0140  2.9912
 8818SOL     OW38086   0.804   1.518  17.464  0.6095  0.0977  0.7355
 8818SOL    HW138087   0.823   1.557  17.549 -0.3279 -0.6954  1.3079
 8818SOL    HW238088   0.869   1.448  17.467 -0.0446 -0.5912 -1.0697
 8819SOL     OW38089   3.389   3.578   0.363 -0.0854  0.1631  0.3625
 8819SOL    HW138090   3.385   3.514   0.291  2.7778  0.9829 -0.5166
 8819SOL    HW238091   3.481   3.605   0.356 -0.4710  1.8847  1.9591
 8820SOL     OW38092   4.130   1.659   7.914 -0.1960  0.2333  0.0394
 8820SOL    HW138093   4.042   1.624   7.929  0.6978 -0.9195  2.4933
 8820SOL    HW238094   4.180   1.581   7.938 -1.3713  0.5403  3.4960
 8821SOL     OW38095   0.656   2.995  15.452  0.4127 -0.1238  0.4444
 8821SOL    HW138096   0.603   3.074  15.463 -1.0358 -0.7809 -1.8909
 8821SOL    HW238097   0.723   2.990  15.521  0.4439 -1.1071  0.3466
 8822SOL     OW38098   1.293   2.161   3.009 -0.2252  0.7522 -0.2553
 8822SOL    HW138099   1.377   2.116   3.016  0.8093  3.0233  1.8447
 8822SOL    HW238100   1.313   2.212   3.088 -1.7505  0.5471  0.2520
 8823SOL     OW38101   0.747   4.055   7.551 -0.5682  0.4552  0.3877
 8823SOL    HW138102   0.722   3.966   7.527  0.1983 -0.0084  1.2855
 8823SOL    HW238103   0.770   4.040   7.643  3.0473 -0.3012 -0.6613
 8824SOL     OW38104   3.499   0.450  15.713  0.2566  0.1468 -0.2498
 8824SOL    HW138105   3.454   0.373  15.748 -0.1728  0.8399  0.7262
 8824SOL    HW238106   3.431   0.517  15.708  1.3684  1.1809 -1.5921
 8825SOL     OW38107   3.852   2.920   2.931  0.2755 -0.4319 -0.4696
 8825SOL    HW138108   3.847   2.900   3.025 -0.2813  2.8795  0.2069
 8825SOL    HW238109   3.894   2.839   2.902 -1.6453 -2.2371  1.8123
 8826SOL     OW38110   1.103   3.362   6.117 -0.1255 -0.1346  0.3765
 8826SOL    HW138111   1.115   3.307   6.040 -0.1787 -0.7488  0.8072
 8826SOL    HW238112   1.191   3.398   6.130 -0.0819  0.0433 -0.3904
 8827SOL     OW38113   2.600   0.314   8.165 -0.0858 -0.3365  0.3347
 8827SOL    HW138114   2.510   0.345   8.170 -0.3125 -0.6049 -2.1981
 8827SOL    HW238115   2.647   0.392   8.136 -0.4268 -1.4700 -3.2128
 8828SOL     OW38116   1.688   0.236   1.787  0.2285 -0.5156  0.2546
 8828SOL    HW138117   1.675   0.323   1.823  0.5667 -0.0132 -0.8356
 8828SOL    HW238118   1.600   0.215   1.754  0.4010 -0.3448 -0.3238
 8829SOL     OW38119   3.691   2.479  13.005 -0.1497 -0.2293 -0.4546
 8829SOL    HW138120   3.630   2.406  12.998 -0.0555 -0.5668  2.1274
 8829SOL    HW238121   3.646   2.535  13.069 -0.4245 -2.6596  1.4844
 8830SOL     OW38122   0.750   1.270  13.211  0.1032 -0.6149  0.7043
 8830SOL    HW138123   0.838   1.236  13.227  1.0437  0.5645 -1.9815
 8830SOL    HW238124   0.749   1.346  13.269 -1.1257 -1.5416  1.8913
 8831SOL     OW38125   0.118   1.314  17.205 -0.6956  0.3545  0.5464
 8831SOL    HW138126   0.089   1.226  17.181  1.5697 -0.3868  0.4731
 8831SOL    HW238127   0.130   1.352  17.118  0.1779 -0.9003  0.1204
 8832SOL     OW38128   3.081   1.458  14.454 -0.0756 -0.4101  0.0764
 8832SOL    HW138129   3.029   1.455  14.534  0.6358  0.3863  0.5637
 8832SOL    HW238130   3.071   1.550  14.429  2.9790  0.2272  1.2782
 8833SOL     OW38131   0.687   2.357   8.379 -0.1538  0.5576 -0.2958
 8833SOL    HW138132   0.751   2.419   8.415  2.0571 -0.6922 -2.0266
 8833SOL    HW238133   0.701   2.365   8.285  0.9646  1.7119 -0.0322
 8834SOL     OW38134   4.096   4.581   7.974 -0.1476  0.1600  0.6454
 8834SOL    HW138135   4.029   4.533   7.926  0.8560  0.1199 -0.6908
 8834SOL    HW238136   4.175   4.529   7.959 -0.5836  0.2581 -1.8610
 8835SOL     OW38137   1.762   2.770  11.139 -0.2632 -0.2170  0.0964
 8835SOL    HW138138   1.793   2.825  11.067 -0.7204  0.8547  0.7349
 8835SOL    HW238139   1.737   2.843  11.194  1.1439  1.1750 -1.1227
 8836SOL     OW38140   3.552   2.188   3.461  0.1778 -0.3809 -0.3568
 8836SOL    HW138141   3.509   2.108   3.490 -1.4066  1.2964  2.0136
 8836SOL    HW238142   3.602   2.147   3.391  1.3885 -2.3536  1.6560
 8837SOL     OW38143   0.559   3.421   2.242 -0.0227  0.4085 -0.4375
 8837SOL    HW138144   0.645   3.383   2.226 -0.6746 -0.0377 -2.8318
 8837SOL    HW238145   0.563   3.426   2.338 -0.7000 -0.2527 -0.3748
 8838SOL     OW38146   3.942   1.585   2.013 -0.0715 -0.5105  0.3940
 8838SOL    HW138147   3.959   1.660   2.070  0.9113 -0.5321  0.1339
 8838SOL    HW238148   3.856   1.606   1.978  0.4618  0.9470 -0.0431
 8839SOL     OW38149   1.362   3.474  12.833  0.0430  0.4747  0.5139
 8839SOL    HW138150   1.302   3.431  12.772  0.6193  0.2895  0.0691
 8839SOL    HW238151   1.306   3.473  12.910  0.8322 -0.0874  1.0753
 8840SOL     OW38152   2.712   0.792   6.705 -0.3259 -0.4408 -0.1018
 8840SOL    HW138153   2.658   0.760   6.633  1.8112 -0.9136 -1.5094
 8840SOL    HW238154   2.739   0.707   6.740 -2.1463 -0.2999  1.5835
 8841SOL     OW38155   1.075   3.413   7.805  0.2854  0.1780  0.0443
 8841SOL    HW138156   1.116   3.454   7.881  1.7135  0.3975 -0.8374
 8841SOL    HW238157   1.152   3.392   7.751 -0.0521 -2.9120  0.7240
 8842SOL     OW38158   3.480   1.365   6.100  0.3758  0.3534 -0.3174
 8842SOL    HW138159   3.573   1.351   6.118 -0.4475 -0.5780  3.3285
 8842SOL    HW238160   3.455   1.356   6.192 -0.5963  2.8222 -0.3545
 8843SOL     OW38161   1.254   1.754   8.834 -0.0207 -0.4210 -0.0796
 8843SOL    HW138162   1.322   1.771   8.768 -0.1374  1.5150  0.3023
 8843SOL    HW238163   1.294   1.683   8.883 -0.1516  0.1879  0.9097
 8844SOL     OW38164   1.711   2.160   5.928 -0.5224  0.1507  0.3237
 8844SOL    HW138165   1.757   2.102   5.868  0.7726  2.6202 -1.1044
 8844SOL    HW238166   1.790   2.206   5.959 -0.4999 -0.0028  0.4912
 8845SOL     OW38167   1.811   4.047   3.248 -0.3209 -0.8731  0.1407
 8845SOL    HW138168   1.875   4.075   3.314  0.8368  2.9825 -2.6555
 8845SOL    HW238169   1.855   3.969   3.215  1.9011 -0.0330  1.1015
 8846SOL     OW38170   2.336   4.435  11.028 -0.6560  0.2023 -0.5265
 8846SOL    HW138171   2.398   4.450  11.100 -2.9879 -0.1039  1.5247
 8846SOL    HW238172   2.391   4.368  10.986  0.0163 -0.3448  1.2377
 8847SOL     OW38173   2.318   1.072  16.925  0.1709 -0.3887  0.1875
 8847SOL    HW138174   2.384   1.141  16.941  3.1616 -3.0247 -0.7565
 8847SOL    HW238175   2.361   1.038  16.847 -2.8582 -3.8149  0.0370
 8848SOL     OW38176   0.082   1.219  13.069  0.0330 -0.2659 -0.0518
 8848SOL    HW138177   0.123   1.306  13.078 -0.7554  0.0766  0.1856
 8848SOL    HW238178   0.155   1.165  13.039  0.0121 -0.8998  1.0290
 8849SOL     OW38179   0.170   2.106   5.881 -0.1640  0.3070  0.0897
 8849SOL    HW138180   0.210   2.043   5.822  1.3423 -0.1470  1.5862
 8849SOL    HW238181   0.207   2.075   5.964 -1.1249 -0.4091  0.2580
 8850SOL     OW38182   2.128   0.504   4.690  0.3330 -0.3369 -0.6419
 8850SOL    HW138183   2.098   0.434   4.633  2.1480 -1.7240  0.0851
 8850SOL    HW238184   2.163   0.446   4.757 -0.5461 -1.4693 -1.1692
 8851SOL     OW38185   2.134   1.987   2.100 -0.9084 -0.6583 -0.6557
 8851SOL    HW138186   2.136   1.905   2.051 -2.7387 -0.2252 -1.4447
 8851SOL    HW238187   2.061   1.969   2.159  0.0502  0.8359  1.0134
 8852SOL     OW38188   3.842   1.341   4.659  0.7532 -0.0047  0.0852
 8852SOL    HW138189   3.820   1.372   4.747  0.6088  0.3368 -0.0705
 8852SOL    HW238190   3.934   1.358   4.640  1.0550 -1.7566 -0.0422
 8853SOL     OW38191   2.054   2.101   8.095  0.4236 -0.1430  0.5361
 8853SOL    HW138192   1.978   2.145   8.056  0.1887  0.3727  1.5881
 8853SOL    HW238193   2.034   2.110   8.188 -1.6684  0.5623  0.0228
 8854SOL     OW38194   0.116   0.704   8.640 -0.1225  0.5053  0.7567
 8854SOL    HW138195   0.164   0.754   8.706  1.5339 -0.1656  0.0450
 8854SOL    HW238196   0.072   0.649   8.705  0.5329 -0.9507 -0.0505
 8855SOL     OW38197   1.269   1.918   2.913  0.5827 -0.1134 -0.0033
 8855SOL    HW138198   1.176   1.936   2.922  0.3573 -0.4491 -1.7499
 8855SOL    HW238199   1.290   2.010   2.930 -1.5891  0.2286  0.7844
 8856SOL     OW38200   2.324   0.984  12.467  0.4939  0.0725  0.3687
 8856SOL    HW138201   2.403   0.936  12.442 -0.7180  0.3655 -3.9444
 8856SOL    HW238202   2.334   1.068  12.422  0.1481  0.3242  0.7630
 8857SOL     OW38203   0.777   2.940   1.346  0.7329  0.7706 -0.1187
 8857SOL    HW138204   0.770   2.927   1.440 -0.1211 -0.4979 -0.3504
 8857SOL    HW238205   0.684   2.919   1.337  0.3397  2.3763  0.3087
 8858SOL     OW38206   0.634   3.716  11.093 -0.6028  0.2981  0.3188
 8858SOL    HW138207   0.662   3.655  11.161 -0.2478 -0.4519 -0.4915
 8858SOL    HW238208   0.602   3.651  11.030 -0.1645  0.4723 -0.0827
 8859SOL     OW38209   2.631   0.731   4.146 -0.0055 -0.5331 -0.1106
 8859SOL    HW138210   2.602   0.819   4.167 -0.9098 -0.7956 -0.2649
 8859SOL    HW238211   2.726   0.744   4.146 -0.0984  0.1446  1.7861
 8860SOL     OW38212   3.458   3.100   5.139  0.5471  0.0961 -0.2565
 8860SOL    HW138213   3.515   3.086   5.063  2.1882  0.8187  0.8445
 8860SOL    HW238214   3.503   3.174   5.178  2.9370 -1.0084 -0.9121
 8861SOL     OW38215   0.878   1.607   9.790  0.3496  0.3668 -0.0634
 8861SOL    HW138216   0.854   1.522   9.827  0.3256  0.0645 -0.7661
 8861SOL    HW238217   0.974   1.607   9.789  0.3407 -0.1394 -0.9955
 8862SOL     OW38218   2.183   3.705   1.906 -0.0505 -0.7831  1.0028
 8862SOL    HW138219   2.214   3.674   1.991 -1.6165  0.5012  2.0456
 8862SOL    HW238220   2.201   3.798   1.918 -2.8922 -0.2756  1.4208
 8863SOL     OW38221   4.077   1.323   7.231  0.0546 -0.5577  0.4470
 8863SOL    HW138222   4.113   1.341   7.144 -0.0227  2.0875  0.9612
 8863SOL    HW238223   4.155   1.336   7.285  1.9574 -1.7799 -2.0354
 8864SOL     OW38224   0.738   1.768   4.879  0.3612  0.4170 -0.5863
 8864SOL    HW138225   0.778   1.818   4.808  0.6951  1.5919  0.4328
 8864SOL    HW238226   0.787   1.688   4.864 -0.0023 -0.0417  0.6764
 8865SOL     OW38227   1.807   3.799   7.051 -0.1791  0.4698  0.0612
 8865SOL    HW138228   1.897   3.829   7.045 -0.2648  1.0088  1.2612
 8865SOL    HW238229   1.812   3.722   6.996 -2.4441  0.8566 -0.6840
 8866SOL     OW38230   4.281   1.567   1.400  0.2274 -0.7655 -0.6420
 8866SOL    HW138231   4.323   1.488   1.366 -0.6896 -1.4812 -0.1187
 8866SOL    HW238232   4.221   1.589   1.328 -0.4109 -1.5055 -0.3370
 8867SOL     OW38233   3.420   1.102   8.607  0.5257  0.0391  0.3190
 8867SOL    HW138234   3.397   1.184   8.564  1.4536  0.0897 -0.0976
 8867SOL    HW238235   3.363   1.033   8.573  0.2361 -0.2683  1.4292
 8868SOL     OW38236   4.399   1.722   0.976 -0.0504 -0.4985  0.8044
 8868SOL    HW138237   4.435   1.804   1.010  1.4860 -1.3808  1.3414
 8868SOL    HW238238   4.473   1.690   0.925 -0.2666 -0.0431  0.2125
 8869SOL     OW38239   2.805   0.026   8.409  0.0626  0.7019 -0.1213
 8869SOL    HW138240   2.792   0.121   8.418  0.4047  0.6541  0.8938
 8869SOL    HW238241   2.714   4.739   8.426  0.2155  0.6228  0.6016
 8870SOL     OW38242   4.018   1.266   7.920 -0.8185 -0.6494  0.0659
 8870SOL    HW138243   4.067   1.192   7.956 -0.8918 -0.5523  0.3636
 8870SOL    HW238244   4.088   1.330   7.936 -0.4358 -1.2452  0.7932
 8871SOL     OW38245   1.889   3.882   5.263 -0.5469  0.0924 -0.1594
 8871SOL    HW138246   1.979   3.909   5.246  0.0048 -2.5746 -1.3449
 8871SOL    HW238247   1.845   3.967   5.259  0.3686  0.5574 -0.2333
 8872SOL     OW38248   3.890   4.420   9.122  0.3599  0.8809 -0.3735
 8872SOL    HW138249   3.905   4.455   9.210 -1.6118 -2.5767  1.3369
 8872SOL    HW238250   3.797   4.411   9.139  0.9249 -0.3736  2.1537
 8873SOL     OW38251   2.632   3.923   3.035  0.1706 -0.3100  0.0762
 8873SOL    HW138252   2.627   4.007   2.990 -1.0023 -0.5824 -0.3048
 8873SOL    HW238253   2.704   3.875   2.996  1.0566 -0.0767  1.4110
 8874SOL     OW38254   1.653   0.996   3.258 -0.1892 -0.3890  0.3627
 8874SOL    HW138255   1.633   1.008   3.165 -0.1899  2.7815  0.7713
 8874SOL    HW238256   1.709   1.072   3.273 -2.1245  1.5657 -2.3446
 8875SOL     OW38257   4.652   0.408   4.833  0.2881 -1.0697 -0.4292
 8875SOL    HW138258   4.560   0.411   4.808  0.1426 -1.4451  0.0579
 8875SOL    HW238259   4.696   0.376   4.755 -2.2960  0.3657 -2.4665
 8876SOL     OW38260   2.315   2.282   8.476 -0.2939 -0.9317 -0.3848
 8876SOL    HW138261   2.343   2.371   8.493 -1.6999 -0.4190 -0.7212
 8876SOL    HW238262   2.340   2.229   8.551  1.4400 -1.2721 -1.1968
 8877SOL     OW38263   2.415   3.084   4.476 -0.7210 -0.0087 -0.1092
 8877SOL    HW138264   2.430   3.107   4.568 -2.2972 -0.6636  0.3121
 8877SOL    HW238265   2.496   3.112   4.435 -0.8453 -0.2173 -0.4958
 8878SOL     OW38266   4.647   2.465   8.565  0.3672  0.2284 -0.4430
 8878SOL    HW138267   4.564   2.512   8.569  0.6076  0.5164  1.5339
 8878SOL    HW238268   4.621   2.379   8.531 -0.4190  1.3400 -2.5918
 8879SOL     OW38269   0.130   3.222   1.573 -0.3362 -0.5601 -0.7195
 8879SOL    HW138270   0.130   3.318   1.574  1.3455 -0.5626 -0.7470
 8879SOL    HW238271   0.112   3.210   1.666 -0.5710 -1.8583 -0.9351
 8880SOL     OW38272   4.442   3.686   8.010 -0.0681  0.0651 -0.6660
 8880SOL    HW138273   4.356   3.643   8.006 -0.4146  0.8745 -2.1826
 8880SOL    HW238274   4.425   3.765   7.958  1.0867 -0.1373 -1.3423
 8881SOL     OW38275   3.567   0.247   6.850  0.4930  0.4450 -0.2547
 8881SOL    HW138276   3.487   0.215   6.891 -0.1016  2.1380 -0.0750
 8881SOL    HW238277   3.547   0.341   6.846  0.9589  0.4874 -1.8568
 8882SOL     OW38278   1.033   3.775  12.018 -0.2382  0.2599  0.4366
 8882SOL    HW138279   0.964   3.795  11.955  2.0803  0.7742 -1.9346
 8882SOL    HW238280   0.976   3.713  12.063 -0.3270 -0.4744 -0.6960
 8883SOL     OW38281   0.603   1.244   2.031 -0.7893 -0.1101  0.3406
 8883SOL    HW138282   0.562   1.202   1.955 -0.0882  2.2341 -1.3329
 8883SOL    HW238283   0.605   1.334   1.999 -2.5740 -0.1945 -0.0130
 8884SOL     OW38284   0.291   1.390  15.401  0.4249  0.2551  0.1229
 8884SOL    HW138285   0.250   1.311  15.437  1.8295 -0.6058 -0.1983
 8884SOL    HW238286   0.350   1.413  15.472  0.5040  2.3150 -0.5907
 8885SOL     OW38287   1.488   0.146  12.473  0.9147  0.1093 -0.2373
 8885SOL    HW138288   1.492   0.072  12.412  0.9555 -1.1093  1.2285
 8885SOL    HW238289   1.507   0.099  12.555  2.9790  0.8002 -0.3123
 8886SOL     OW38290   3.259   1.163   9.153  0.1881 -0.2669  0.1052
 8886SOL    HW138291   3.238   1.247   9.113  1.2736  0.4834  1.1374
 8886SOL    HW238292   3.212   1.118   9.083  2.5437  2.1160 -2.9620
 8887SOL     OW38293   2.904   3.264   6.103 -0.3764 -0.7191  0.1955
 8887SOL    HW138294   2.809   3.276   6.113 -0.6222 -1.7264 -0.8737
 8887SOL    HW238295   2.913   3.180   6.057  1.7389 -0.6797  0.5378
 8888SOL     OW38296   4.204   4.586  12.037  0.7394 -0.0234  0.2616
 8888SOL    HW138297   4.181   4.496  12.016 -0.3639  0.3889 -0.2781
 8888SOL    HW238298   4.299   4.576  12.047  0.7315 -1.4324 -1.1508
 8889SOL     OW38299   4.565   3.152  11.671  0.1673 -0.1395  0.2821
 8889SOL    HW138300   4.636   3.088  11.679 -0.0707 -0.3720  0.5396
 8889SOL    HW238301   4.588   3.209  11.597  1.9066  0.6515  1.4071
 8890SOL     OW38302   0.272   1.806   8.725 -0.2201 -0.1608  0.1585
 8890SOL    HW138303   0.275   1.871   8.655 -1.5568  0.1183  0.3646
 8890SOL    HW238304   0.186   1.764   8.713 -0.3067  0.5004 -1.5622
 8891SOL     OW38305   0.801   3.200   3.392 -0.1184 -0.0871 -0.4262
 8891SOL    HW138306   0.751   3.197   3.310  1.9863 -1.7058 -1.6414
 8891SOL    HW238307   0.728   3.205   3.454  1.2360 -1.4026  1.2672
 8892SOL     OW38308   1.933   2.105   7.285 -0.5905  0.1664 -0.3124
 8892SOL    HW138309   1.936   2.033   7.222  0.5484 -1.0980  1.1736
 8892SOL    HW238310   1.929   2.181   7.228 -0.3776  0.0886 -0.4317
 8893SOL     OW38311   0.283   0.288   5.912  0.5869  0.3519 -0.5268
 8893SOL    HW138312   0.281   0.277   5.817 -2.6797  1.1629 -0.5494
 8893SOL    HW238313   0.346   0.358   5.925  2.0196 -1.0081 -0.1189
 8894SOL     OW38314   4.384   2.607  10.221  0.0168  0.2804  0.1703
 8894SOL    HW138315   4.429   2.670  10.165  0.0042  0.0409 -0.1120
 8894SOL    HW238316   4.328   2.549  10.169  0.1840  0.0943  0.1967
 8895SOL     OW38317   0.668   1.300   5.178 -0.1440 -0.2764 -0.0074
 8895SOL    HW138318   0.749   1.256   5.154  0.3824  0.7779 -0.1412
 8895SOL    HW238319   0.625   1.240   5.240 -0.6598 -1.2326 -1.2947
 8896SOL     OW38320   1.112   1.825   5.937 -0.3253  0.3908 -0.3523
 8896SOL    HW138321   1.065   1.820   6.021 -1.1296 -0.4292 -0.8583
 8896SOL    HW238322   1.173   1.898   5.951  0.7485 -0.5386 -0.2010
 8897SOL     OW38323   1.338   0.015  10.002  0.8960 -0.1700  0.8592
 8897SOL    HW138324   1.332   0.074  10.077 -0.0215  1.1820 -0.2549
 8897SOL    HW238325   1.325   0.076   9.928  0.6248 -0.5116  0.6212
 8898SOL     OW38326   4.115   2.941  16.785 -0.5730 -0.1846  0.0126
 8898SOL    HW138327   4.048   2.873  16.798  0.7131 -0.9933  2.5653
 8898SOL    HW238328   4.155   2.945  16.872 -0.7178 -0.9305  0.1162
 8899SOL     OW38329   3.493   1.654   3.486 -0.0262  0.4018 -0.4917
 8899SOL    HW138330   3.561   1.722   3.483  1.5329 -1.0064  2.8572
 8899SOL    HW238331   3.542   1.577   3.459 -0.4433  0.5432 -1.6445
 8900SOL     OW38332   3.612   4.360   2.015  0.0241  0.2461  0.1441
 8900SOL    HW138333   3.672   4.421   1.972  2.3393 -0.6818  2.0369
 8900SOL    HW238334   3.649   4.275   1.994  0.2983  0.0715  1.3397
 8901SOL     OW38335   3.701   4.622   5.162  0.8671 -0.1789  0.4505
 8901SOL    HW138336   3.760   4.560   5.204  1.4362 -0.6103 -0.9879
 8901SOL    HW238337   3.702   4.696   5.222  0.0694 -0.2853  0.6014
 8902SOL     OW38338   2.663   2.622   8.833 -0.0552 -0.1082 -0.3607
 8902SOL    HW138339   2.622   2.662   8.756  2.2883 -1.0975 -2.1010
 8902SOL    HW238340   2.736   2.592   8.780 -1.6832 -0.0758 -2.6643
 8903SOL     OW38341   0.968   3.062   3.549  0.4169 -0.5351 -0.4147
 8903SOL    HW138342   0.913   3.084   3.473 -1.0723  0.5056  0.9818
 8903SOL    HW238343   0.899   3.062   3.616  0.8191  0.0113 -0.0110
 8904SOL     OW38344   1.904   3.039  14.661 -0.0866  0.3599  0.6997
 8904SOL    HW138345   1.848   2.981  14.610 -1.1376 -0.0761  2.3154
 8904SOL    HW238346   1.991   3.012  14.633 -0.8662 -1.3487 -0.0585
 8905SOL     OW38347   0.597   3.399  12.391  0.2643 -0.8902  0.5475
 8905SOL    HW138348   0.511   3.441  12.386  1.0301  0.4855 -1.0687
 8905SOL    HW238349   0.633   3.427  12.475  1.7749  0.7964 -0.6676
 8906SOL     OW38350   4.000   3.068   4.964 -0.4225  0.5645 -0.1910
 8906SOL    HW138351   3.958   3.045   4.882  0.9514 -1.0534 -0.4422
 8906SOL    HW238352   3.999   3.164   4.966 -2.3546  0.5286  1.0600
 8907SOL     OW38353   1.092   4.361   8.442  0.2588 -0.1417  0.1771
 8907SOL    HW138354   1.158   4.348   8.511  0.8053 -0.5058 -0.4154
 8907SOL    HW238355   1.148   4.394   8.371  1.1565  0.7849  1.2975
 8908SOL     OW38356   4.419   0.811  10.230 -0.1643  0.0667  0.4401
 8908SOL    HW138357   4.345   0.769  10.185  0.7907 -0.1996 -0.8820
 8908SOL    HW238358   4.392   0.900  10.252 -0.8486  0.7198 -3.0558
 8909SOL     OW38359   0.935   2.607   8.755 -0.6750  0.2196 -0.0232
 8909SOL    HW138360   0.962   2.540   8.818 -0.0292  0.4050 -0.0974
 8909SOL    HW238361   0.913   2.679   8.813  0.2525  1.2618 -0.9590
 8910SOL     OW38362   3.136   4.586   8.760 -0.4019  0.1106 -0.0615
 8910SOL    HW138363   3.136   4.499   8.719  0.7433  0.1464 -0.1456
 8910SOL    HW238364   3.227   4.606   8.739 -0.7786  2.3663  0.4172
 8911SOL     OW38365   3.414   3.084   5.860  0.2058  0.1036  0.1404
 8911SOL    HW138366   3.330   3.075   5.816  0.0350  1.6398  0.1576
 8911SOL    HW238367   3.438   3.176   5.853 -0.5384  0.3327  0.7153
 8912SOL     OW38368   1.071   2.140   5.748  0.3149 -0.4973  0.4411
 8912SOL    HW138369   1.001   2.076   5.760 -0.4232  0.4873  1.3217
 8912SOL    HW238370   1.147   2.082   5.740 -1.1667 -2.6085  1.7087
 8913SOL     OW38371   4.158   0.657   4.595 -1.1557 -0.7875 -0.0816
 8913SOL    HW138372   4.239   0.693   4.631 -0.8532 -1.2957 -0.2553
 8913SOL    HW238373   4.118   0.626   4.676  1.1475 -2.3524  0.4407
 8914SOL     OW38374   2.015   3.161   6.298 -0.2913  0.4123 -0.5590
 8914SOL    HW138375   1.941   3.193   6.246 -0.7072 -2.2988 -1.6658
 8914SOL    HW238376   2.077   3.151   6.226  1.0276  1.0527  0.5105
 8915SOL     OW38377   1.038   1.550  16.096 -0.0478  0.8332 -0.8280
 8915SOL    HW138378   1.099   1.593  16.036 -0.2590 -2.1755 -3.1768
 8915SOL    HW238379   0.992   1.630  16.121  0.4982  0.3899  1.6740
 8916SOL     OW38380   3.120   0.174  10.266  0.2153  0.4078 -0.1005
 8916SOL    HW138381   3.156   0.170  10.177 -0.1484 -1.0312 -0.1848
 8916SOL    HW238382   3.206   0.187  10.304  0.5638  2.3257 -1.5311
 8917SOL     OW38383   1.422   4.187   7.368  0.5057 -0.3039 -0.1944
 8917SOL    HW138384   1.351   4.125   7.385  1.1415 -0.5810  1.4028
 8917SOL    HW238385   1.408   4.215   7.277  3.7467  1.2609 -0.1987
 8918SOL     OW38386   0.715   3.534  11.279  0.0628  0.2858 -0.1798
 8918SOL    HW138387   0.722   3.441  11.254 -0.7750 -0.1221  1.1054
 8918SOL    HW238388   0.799   3.550  11.322 -0.6621  0.6635  1.1032
 8919SOL     OW38389   2.534   1.996   6.863  0.1926  0.5620 -0.3395
 8919SOL    HW138390   2.536   1.918   6.919  0.3727  1.5807  1.0657
 8919SOL    HW238391   2.626   2.019   6.851  0.1539  1.4162  1.0518
 8920SOL     OW38392   1.593   0.049   5.507 -0.0784 -0.9191 -0.0163
 8920SOL    HW138393   1.605   0.108   5.433 -0.1711 -0.9905 -0.0877
 8920SOL    HW238394   1.658   0.084   5.569  1.5557  0.2459 -2.3974
 8921SOL     OW38395   0.172   2.940   8.425 -0.3927  0.0383  0.1385
 8921SOL    HW138396   0.164   3.034   8.441 -1.3619 -0.5081  2.8018
 8921SOL    HW238397   0.134   2.895   8.500  0.5793  0.6755  1.0144
 8922SOL     OW38398   4.481   4.263  10.666 -0.6099  0.3359 -0.4146
 8922SOL    HW138399   4.575   4.269  10.680 -0.2004 -4.0810 -1.2790
 8922SOL    HW238400   4.471   4.186  10.723 -0.5484 -0.4046 -1.4101
 8923SOL     OW38401   3.681   3.786   6.114 -0.3511  0.4209  0.0509
 8923SOL    HW138402   3.724   3.871   6.120 -1.0065  0.7315  0.3860
 8923SOL    HW238403   3.688   3.770   6.208  0.8742 -1.5395 -0.3607
 8924SOL     OW38404   0.011   2.794   0.543  0.6219  0.0027  0.5570
 8924SOL    HW138405   0.094   2.814   0.587  1.7366  1.1346 -2.0355
 8924SOL    HW238406   0.054   2.749   0.470 -1.3677  0.0619 -0.6330
 8925SOL     OW38407   0.467   1.515   6.112  0.4465  0.1243  0.3331
 8925SOL    HW138408   0.510   1.548   6.033  0.0335  3.0404  1.3514
 8925SOL    HW238409   0.499   1.576   6.178 -2.5811  0.1459  1.7789
 8926SOL     OW38410   2.356   3.395   4.112  0.3371  0.5120 -0.6167
 8926SOL    HW138411   2.354   3.300   4.117 -3.6589  0.6562  0.7709
 8926SOL    HW238412   2.434   3.408   4.059 -0.0061  0.6786 -1.0775
 8927SOL     OW38413   4.696   0.727   3.530  0.0673  0.2095 -0.3411
 8927SOL    HW138414   0.047   0.743   3.560  1.1262 -4.4098 -1.0780
 8927SOL    HW238415   4.656   0.773   3.603  0.0082  1.0198 -0.8797
 8928SOL     OW38416   0.197   2.577   8.033 -0.6585  0.0197 -0.1022
 8928SOL    HW138417   0.152   2.577   7.948  0.7750 -0.8440 -0.8630
 8928SOL    HW238418   0.233   2.489   8.024 -1.7388 -0.3031 -1.3068
 8929SOL     OW38419   1.900   0.731  11.741 -0.1228  0.8994 -0.3295
 8929SOL    HW138420   1.813   0.695  11.759  0.6776 -1.2176 -0.6733
 8929SOL    HW238421   1.927   0.677  11.667 -1.3347  0.3934 -0.3903
 8930SOL     OW38422   1.680   2.759   9.584  0.0188  0.0815 -0.0154
 8930SOL    HW138423   1.591   2.778   9.611 -0.6054 -1.7869 -0.7382
 8930SOL    HW238424   1.722   2.779   9.667  0.2772  2.3679 -0.7017
 8931SOL     OW38425   1.936   2.000  13.101 -1.0273 -0.2986  0.0785
 8931SOL    HW138426   1.890   1.952  13.170 -0.5765  0.2614  0.7694
 8931SOL    HW238427   1.863   1.986  13.040 -1.0067  0.4849 -0.1173
 8932SOL     OW38428   3.038   3.170   5.705 -0.0258  0.1704 -0.2606
 8932SOL    HW138429   2.948   3.180   5.738  0.5098 -0.4750  1.3919
 8932SOL    HW238430   3.084   3.247   5.738 -0.3762 -0.2152  1.1473
 8933SOL     OW38431   1.599   1.430   9.468 -0.3041  0.2525 -0.0907
 8933SOL    HW138432   1.519   1.429   9.520  1.0998  0.2476  2.0938
 8933SOL    HW238433   1.594   1.349   9.418 -0.3654 -0.9907  1.8958
 8934SOL     OW38434   4.100   1.031   9.013  0.2997 -0.0428 -0.3141
 8934SOL    HW138435   4.149   1.001   8.936  2.4860 -1.4819  1.6258
 8934SOL    HW238436   4.030   0.969   9.032  0.3372 -0.3000 -0.9957
 8935SOL     OW38437   4.275   3.964   6.750 -0.4089 -0.0780  0.2702
 8935SOL    HW138438   4.244   3.954   6.660 -0.5553 -0.4901  0.3666
 8935SOL    HW238439   4.355   3.912   6.747 -0.9728 -0.9683  0.8249
 8936SOL     OW38440   0.878   3.725  16.672 -0.2590  0.2253 -0.2582
 8936SOL    HW138441   0.828   3.646  16.690  0.4273 -0.1776 -0.1143
 8936SOL    HW238442   0.945   3.721  16.740  0.0888  1.6735 -0.5121
 8937SOL     OW38443   1.669   0.982  13.568  0.0821 -0.1305 -0.5509
 8937SOL    HW138444   1.730   1.012  13.500 -1.5824  1.2843 -1.4019
 8937SOL    HW238445   1.617   0.910  13.533  0.0572 -0.9787  1.2233
 8938SOL     OW38446   4.123   0.924   6.423  0.2049  0.4665 -0.3348
 8938SOL    HW138447   4.083   0.887   6.501 -0.8702 -1.5984 -1.8696
 8938SOL    HW238448   4.135   0.843   6.373  0.7837  0.7596 -0.6724
 8939SOL     OW38449   0.224   3.303  10.566 -0.3496 -0.4724  0.3470
 8939SOL    HW138450   0.150   3.314  10.625 -0.7340  1.1435 -0.4245
 8939SOL    HW238451   0.219   3.386  10.518  1.2094  0.3368  1.5704
 8940SOL     OW38452   2.024   0.016  14.006  0.0864 -0.1114  0.3677
 8940SOL    HW138453   2.002   4.662  14.012 -1.2947  0.2810  1.3845
 8940SOL    HW238454   1.940   0.046  13.974  1.5523  1.5109 -1.9805
 8941SOL     OW38455   0.445   1.731   7.473 -0.1546 -0.3909 -0.1098
 8941SOL    HW138456   0.457   1.660   7.411 -0.1353 -0.6507  0.1932
 8941SOL    HW238457   0.511   1.709   7.539 -0.9266 -1.5357  0.2719
 8942SOL     OW38458   4.209   2.400   4.260  0.3416  0.0964 -0.1365
 8942SOL    HW138459   4.274   2.467   4.282  0.9264 -0.1356 -1.1342
 8942SOL    HW238460   4.264   2.322   4.251  0.4743  0.2909 -1.0417
 8943SOL     OW38461   0.683   1.367  11.092 -0.1026  0.4766 -0.1283
 8943SOL    HW138462   0.621   1.437  11.072  1.0718  1.2861 -0.9618
 8943SOL    HW238463   0.656   1.302  11.026  0.5244 -1.8108  1.8979
 8944SOL     OW38464   1.779   2.055   5.491 -0.1974  0.0784  0.9763
 8944SOL    HW138465   1.783   2.111   5.413 -2.8668  1.1380  1.6054
 8944SOL    HW238466   1.860   2.080   5.535  0.6394  0.8324 -0.9952
 8945SOL     OW38467   0.138   1.170  10.199  0.3940  0.2717 -0.2301
 8945SOL    HW138468   0.222   1.205  10.229  0.0256  0.5391  0.4868
 8945SOL    HW238469   0.109   1.227  10.128 -0.0089  0.6612  0.2503
 8946SOL     OW38470   3.749   3.843  13.055 -0.1327 -0.4960 -0.1224
 8946SOL    HW138471   3.749   3.761  13.105 -0.1085 -0.0387  0.6288
 8946SOL    HW238472   3.764   3.903  13.128  1.9750 -0.2489 -0.7672
 8947SOL     OW38473   1.400   1.606   1.363  0.2826  0.6335 -0.0068
 8947SOL    HW138474   1.494   1.618   1.377 -0.0339  1.5460  1.4167
 8947SOL    HW238475   1.372   1.570   1.447  0.4732  1.9790  0.6452
 8948SOL     OW38476   0.457   4.241   3.784 -0.1672  0.0724  0.2718
 8948SOL    HW138477   0.464   4.157   3.740 -1.6547 -0.3071  0.7775
 8948SOL    HW238478   0.443   4.206   3.872  3.6701 -0.8837  0.5031
 8949SOL     OW38479   2.293   2.264   7.053  0.3887 -0.3108  0.1222
 8949SOL    HW138480   2.271   2.311   6.972  0.1923 -1.5696 -0.5562
 8949SOL    HW238481   2.290   2.172   7.029 -0.8348  0.2884 -2.0626
 8950SOL     OW38482   3.543   4.149  11.566 -0.4178 -0.4091 -0.1543
 8950SOL    HW138483   3.530   4.239  11.596  0.9982  0.4595 -2.1878
 8950SOL    HW238484   3.491   4.142  11.486  0.2713 -1.4123 -0.5145
 8951SOL     OW38485   3.337   2.012   4.772  0.1237 -0.2769  0.1640
 8951SOL    HW138486   3.356   1.937   4.828 -0.6346 -0.7750 -0.2430
 8951SOL    HW238487   3.398   2.002   4.699 -0.3987  2.1436 -0.5976
 8952SOL     OW38488   1.122   3.354  14.773  0.0398  0.0987  0.2014
 8952SOL    HW138489   1.081   3.319  14.853 -0.7861  0.5049 -0.0460
 8952SOL    HW238490   1.208   3.374  14.809  0.2825 -0.9715  0.2389
 8953SOL     OW38491   4.527   4.173  15.952  0.2269 -0.1706 -0.1336
 8953SOL    HW138492   4.599   4.112  15.936  0.0397 -0.8420  1.5535
 8953SOL    HW238493   4.571   4.257  15.954 -0.6292  0.3222 -1.6636
 8954SOL     OW38494   0.150   1.146   3.631  0.0768 -0.2302 -0.1288
 8954SOL    HW138495   0.234   1.102   3.647 -0.2265 -0.5048  0.6820
 8954SOL    HW238496   0.136   1.198   3.710 -0.9480  0.6778 -0.9030
 8955SOL     OW38497   4.621   2.884   8.048 -0.0788 -0.2805  0.4877
 8955SOL    HW138498   4.564   2.958   8.069 -2.8790 -2.6762  1.3090
 8955SOL    HW238499   4.642   2.863   8.140 -0.5144 -0.4283  0.5554
 8956SOL     OW38500   0.069   2.932   6.179 -0.1746 -0.0577 -0.2494
 8956SOL    HW138501   0.045   3.004   6.120 -1.1904  0.5075  0.8567
 8956SOL    HW238502   0.102   2.860   6.125  1.9132  0.8123 -0.1517
 8957SOL     OW38503   3.163   0.211   9.444  0.4088 -0.5100 -0.0482
 8957SOL    HW138504   3.196   0.267   9.513 -1.6891 -1.4965  1.7649
 8957SOL    HW238505   3.244   0.184   9.401  0.5239 -0.6816  0.2830
 8958SOL     OW38506   2.088   0.347  12.110 -0.0327  0.1903  0.0617
 8958SOL    HW138507   2.027   0.324  12.040  0.7433 -2.7231  0.3503
 8958SOL    HW238508   2.175   0.372  12.077  0.1047 -2.1590 -1.3695
 8959SOL     OW38509   0.835   0.573   8.557  0.3461  0.0400 -0.2203
 8959SOL    HW138510   0.870   0.661   8.566  2.0259 -0.3543 -2.6645
 8959SOL    HW238511   0.759   0.589   8.502 -1.1653  1.6165  2.3494
 8960SOL     OW38512   1.053   2.705   1.711 -0.5023  0.0478 -0.2440
 8960SOL    HW138513   1.142   2.669   1.711 -1.5661 -2.6044  0.9244
 8960SOL    HW238514   1.002   2.624   1.706  0.9023 -0.8269 -0.4333
 8961SOL     OW38515   4.706   3.242   8.795  0.3708  1.1345  0.3213
 8961SOL    HW138516   0.042   3.234   8.737  0.6101  0.7929  0.6850
 8961SOL    HW238517   4.709   3.156   8.837 -1.6455  1.0749  0.3698
 8962SOL     OW38518   3.749   2.593  14.516  0.1007 -0.2164  0.2580
 8962SOL    HW138519   3.678   2.587  14.452  0.2635  1.3189 -0.0793
 8962SOL    HW238520   3.783   2.678  14.487 -2.3939  1.2452  1.5631
 8963SOL     OW38521   4.227   3.723   0.753  1.3068  0.3433  0.5322
 8963SOL    HW138522   4.278   3.791   0.798 -0.4729  2.2740 -0.3513
 8963SOL    HW238523   4.173   3.693   0.826  0.8546  1.1223  0.5254
 8964SOL     OW38524   3.729   0.379   7.512 -0.1131  0.2971  0.1251
 8964SOL    HW138525   3.725   0.293   7.553 -0.7159  0.5651  0.6321
 8964SOL    HW238526   3.703   0.361   7.422 -2.0545  0.8552  0.5694
 8965SOL     OW38527   1.623   2.577   2.915  0.0558  0.0100 -0.2910
 8965SOL    HW138528   1.586   2.494   2.886  0.5747 -0.9964  1.8932
 8965SOL    HW238529   1.716   2.554   2.915 -0.1586 -0.8805  0.0121
 8966SOL     OW38530   4.587   4.328   3.018 -0.2328 -0.1673 -0.3532
 8966SOL    HW138531   4.641   4.406   3.007  3.6522 -3.0704 -2.0799
 8966SOL    HW238532   4.661   4.267   3.028 -1.4127 -1.0796  2.7453
 8967SOL     OW38533   1.122   1.798  15.222 -0.2169  0.3885  0.3855
 8967SOL    HW138534   1.131   1.741  15.298 -2.4651 -1.0871 -0.4500
 8967SOL    HW238535   1.033   1.784  15.190  0.3637 -1.9070 -0.1936
 8968SOL     OW38536   0.437   1.535   3.552  0.3702 -0.5922 -0.5966
 8968SOL    HW138537   0.479   1.459   3.592  0.9845 -1.0851 -2.1577
 8968SOL    HW238538   0.374   1.493   3.493 -0.9774  1.4605 -0.6136
 8969SOL     OW38539   1.264   4.250  17.625 -0.7712 -0.3952 -0.3069
 8969SOL    HW138540   1.347   4.258  17.673 -1.0648  0.1692  0.1062
 8969SOL    HW238541   1.234   4.162  17.651  1.0405 -0.6863  0.8309
 8970SOL     OW38542   4.195   1.663   0.807  0.1882  0.3808  0.0452
 8970SOL    HW138543   4.158   1.584   0.847 -0.9254  0.3680 -1.0126
 8970SOL    HW238544   4.271   1.681   0.863 -0.6960  0.8343  1.1105
 8971SOL     OW38545   2.136   3.240   7.730 -0.2864  0.0060 -0.5216
 8971SOL    HW138546   2.143   3.279   7.642  0.8039  0.1886 -0.3541
 8971SOL    HW238547   2.043   3.261   7.742 -0.7430 -1.4721 -1.4016
 8972SOL     OW38548   2.901   4.126   2.156  0.1260 -0.5519  0.4130
 8972SOL    HW138549   2.969   4.059   2.147 -0.4182 -1.2501  1.4292
 8972SOL    HW238550   2.941   4.175   2.228 -1.3282  2.2517 -0.6658
 8973SOL     OW38551   1.175   3.937   5.623 -0.4470 -0.2212 -0.6394
 8973SOL    HW138552   1.245   3.873   5.618 -0.9352 -0.7758 -0.4795
 8973SOL    HW238553   1.116   3.885   5.679 -1.4830  2.6972  0.9854
 8974SOL     OW38554   4.292   1.796   2.342 -0.3657  0.2821  0.4991
 8974SOL    HW138555   4.258   1.758   2.261  0.9591 -0.1040  0.1191
 8974SOL    HW238556   4.376   1.812   2.299 -1.3044  0.4908 -1.3075
 8975SOL     OW38557   2.545   4.247   9.060 -0.2617 -0.3625  0.2210
 8975SOL    HW138558   2.546   4.276   8.969 -2.1564 -1.6717 -0.2130
 8975SOL    HW238559   2.473   4.183   9.055  0.1605 -0.7685 -0.6209
 8976SOL     OW38560   2.221   0.835   0.383  0.2167  0.9080 -0.5221
 8976SOL    HW138561   2.238   0.819   0.290  1.5660 -3.1626  0.4026
 8976SOL    HW238562   2.237   0.927   0.401  0.8607  0.9451 -1.2869
 8977SOL     OW38563   1.237   2.351   9.836 -0.1679  0.3169 -0.0140
 8977SOL    HW138564   1.299   2.307   9.779 -1.2782 -0.2129 -0.8021
 8977SOL    HW238565   1.176   2.282   9.862 -0.9689  0.4623 -1.5452
 8978SOL     OW38566   2.359   0.159   0.948  0.4325  0.1807 -0.3852
 8978SOL    HW138567   2.356   0.214   1.026  2.8540  2.2713 -1.7683
 8978SOL    HW238568   2.384   0.209   0.870  0.0727  0.2315 -0.4661
 8979SOL     OW38569   2.825   0.286  16.332  0.4244  0.1175 -0.4681
 8979SOL    HW138570   2.781   0.324  16.408  1.6893 -0.3269  0.4759
 8979SOL    HW238571   2.860   0.360  16.282  0.7029  0.6931  0.5858
 8980SOL     OW38572   4.577   3.965   3.139 -0.4617  0.0279 -0.1374
 8980SOL    HW138573   4.591   4.043   3.192 -0.1476 -0.9791  1.2642
 8980SOL    HW238574   4.507   3.996   3.081 -1.0521  0.0204  0.5653
 8981SOL     OW38575   2.048   4.250   3.092 -0.2367 -0.1251 -0.2898
 8981SOL    HW138576   2.017   4.341   3.084  0.0787  0.0497  0.5357
 8981SOL    HW238577   1.964   4.211   3.117  0.4968 -0.2770  1.9051
 8982SOL     OW38578   3.563   1.215   3.560 -0.1519  0.5813 -0.2910
 8982SOL    HW138579   3.509   1.242   3.634  0.1505  1.4502 -0.3950
 8982SOL    HW238580   3.618   1.145   3.594 -0.5752  0.0275 -0.7386
 8983SOL     OW38581   0.590   0.299   8.953  0.7293 -0.4239  0.0564
 8983SOL    HW138582   0.649   0.373   8.938 -0.2086  0.5960  1.4097
 8983SOL    HW238583   0.597   0.246   8.874  0.2541  1.8536 -1.5156
 8984SOL     OW38584   4.388   2.742   5.856 -0.2926 -0.1384 -0.3612
 8984SOL    HW138585   4.365   2.830   5.887 -1.1845 -1.4460  2.6287
 8984SOL    HW238586   4.431   2.759   5.772  0.9608  0.1372  0.3279
 8985SOL     OW38587   4.733   0.192   4.531 -0.1681 -0.2377 -0.4816
 8985SOL    HW138588   4.717   0.111   4.482  0.8458 -0.6713 -0.1063
 8985SOL    HW238589   4.737   0.248   4.454  0.5063  0.6105  0.1649
 8986SOL     OW38590   4.497   2.938  17.441  0.0442 -0.3600 -0.0457
 8986SOL    HW138591   4.556   2.975  17.506 -0.1719 -0.4877  0.2216
 8986SOL    HW238592   4.415   2.983  17.460  0.1607 -0.5884  0.9647
 8987SOL     OW38593   3.067   2.555   1.690 -0.2615  0.4926  0.3682
 8987SOL    HW138594   3.017   2.570   1.610  0.2394  0.7657  0.1064
 8987SOL    HW238595   2.999   2.540   1.756  0.5770 -0.2427  1.0696
 8988SOL     OW38596   0.870   4.108   1.757 -0.0432 -0.3480 -0.2866
 8988SOL    HW138597   0.872   4.087   1.664  0.7700  1.4015 -0.6750
 8988SOL    HW238598   0.883   4.203   1.757 -1.7152 -0.1279  0.7093
 8989SOL     OW38599   2.855   0.994  16.056  0.4785 -0.3660 -0.1968
 8989SOL    HW138600   2.897   1.042  15.984 -0.3731 -2.6021 -2.1865
 8989SOL    HW238601   2.774   0.967  16.014 -0.1244  0.5215  0.4116
 8990SOL     OW38602   1.894   4.418   7.418  0.1336  0.3701 -0.6149
 8990SOL    HW138603   1.850   4.474   7.482  0.7272  1.0645 -0.8199
 8990SOL    HW238604   1.836   4.344   7.396 -1.0944  0.8394  1.0648
 8991SOL     OW38605   4.461   3.106   8.100  0.0163 -0.0012 -0.0479
 8991SOL    HW138606   4.511   3.188   8.099 -1.1814  0.7424  1.4674
 8991SOL    HW238607   4.417   3.109   8.185 -1.6202 -2.6481 -0.8306
 8992SOL     OW38608   3.307   2.340   5.657 -0.5866 -0.7785 -0.1102
 8992SOL    HW138609   3.336   2.429   5.635  1.2577 -1.5516 -0.7903
 8992SOL    HW238610   3.217   2.362   5.634  0.0907  1.7004 -0.4587
 8993SOL     OW38611   2.671   2.591  10.404  0.2665 -0.2778 -1.0004
 8993SOL    HW138612   2.653   2.654  10.474 -1.5039 -1.8115 -0.0740
 8993SOL    HW238613   2.721   2.519  10.443 -0.9069  1.1244  3.1290
 8994SOL     OW38614   3.764   1.949  15.380  0.1278  0.1948  0.5860
 8994SOL    HW138615   3.678   1.919  15.407 -1.3350  3.5382 -0.3489
 8994SOL    HW238616   3.806   1.871  15.342  1.4258 -0.1851  2.8004
 8995SOL     OW38617   3.165   0.713   1.433  0.0943  0.0635  0.0389
 8995SOL    HW138618   3.105   0.768   1.485 -2.1271 -1.5002 -0.8689
 8995SOL    HW238619   3.182   0.777   1.364 -0.1011 -0.3748 -0.4150
 8996SOL     OW38620   0.888   3.034   5.384  0.2387 -0.6922  0.3102
 8996SOL    HW138621   0.936   3.093   5.327 -0.9232 -1.3844 -1.3677
 8996SOL    HW238622   0.874   2.966   5.318  1.2710 -0.0487 -0.5626
 8997SOL     OW38623   1.489   2.484   8.356 -0.8215  0.2457 -0.2084
 8997SOL    HW138624   1.533   2.500   8.273 -0.3637 -1.2866 -0.2583
 8997SOL    HW238625   1.399   2.509   8.336 -1.3574 -0.4421  1.3532
 8998SOL     OW38626   2.241   2.512   9.701 -0.4444 -0.1611  0.2464
 8998SOL    HW138627   2.232   2.520   9.796  1.6997 -0.0649  0.4455
 8998SOL    HW238628   2.329   2.541   9.679 -0.3341 -1.1029 -0.5839
 8999SOL     OW38629   2.103   1.692   9.564 -0.4421 -0.2760  0.3019
 8999SOL    HW138630   2.033   1.750   9.534 -3.0217 -0.8201  5.3748
 8999SOL    HW238631   2.182   1.743   9.544 -1.6380  1.5882  0.2576
 9000SOL     OW38632   3.337   3.076  15.811 -0.0648 -0.1809  0.4541
 9000SOL    HW138633   3.385   3.147  15.856 -0.2134  0.8085 -0.9664
 9000SOL    HW238634   3.306   3.035  15.892 -0.4285 -0.8213 -0.0165
 9001SOL     OW38635   3.241   3.059   0.123  0.5483  0.3138  0.2427
 9001SOL    HW138636   3.229   3.124   0.191  0.7964  0.9882 -0.3563
 9001SOL    HW238637   3.170   3.088   0.065 -0.6879  0.4412  1.8243
 9002SOL     OW38638   2.629   4.671   6.157 -0.0359  0.3224 -0.6631
 9002SOL    HW138639   2.599   4.731   6.088  0.9580  0.0270 -1.3458
 9002SOL    HW238640   2.611   4.588   6.114 -1.0166 -0.2405  0.8466
 9003SOL     OW38641   1.104   1.799  17.630  0.2211  0.0737 -0.1549
 9003SOL    HW138642   1.148   1.882  17.613  0.7187 -0.1097  0.2404
 9003SOL    HW238643   1.098   1.756  17.545  1.8843 -1.8547  0.6827
 9004SOL     OW38644   1.217   0.964  16.818 -0.6769 -0.2100  0.3043
 9004SOL    HW138645   1.161   1.022  16.766  0.6986 -1.1863 -2.2747
 9004SOL    HW238646   1.261   1.025  16.877  0.5885 -0.3232 -0.5082
 9005SOL     OW38647   4.643   1.281   7.397 -0.5926  0.2900 -0.2376
 9005SOL    HW138648   4.661   1.252   7.308  1.5875  0.1297  0.2643
 9005SOL    HW238649   4.632   1.374   7.375  0.9184  1.1556  2.7288
 9006SOL     OW38650   4.016   0.960   1.596 -0.2050 -0.1436 -0.6228
 9006SOL    HW138651   3.937   0.908   1.578 -0.0594 -0.8990  0.9634
 9006SOL    HW238652   3.990   1.019   1.667 -0.3305  1.6169 -2.0996
 9007SOL     OW38653   2.373   1.693   6.565  0.1771  0.5129  0.5808
 9007SOL    HW138654   2.395   1.725   6.477 -0.3866  1.3665  0.7565
 9007SOL    HW238655   2.444   1.629   6.571  0.1041  0.2640 -1.2014
 9008SOL     OW38656   1.541   3.678   7.472 -0.0802  0.2057 -0.3374
 9008SOL    HW138657   1.458   3.702   7.431 -0.6631 -0.0278  0.6985
 9008SOL    HW238658   1.605   3.697   7.404  0.8993 -1.0233  0.2324
 9009SOL     OW38659   3.479   4.379   6.925  0.1767 -0.8691 -0.0299
 9009SOL    HW138660   3.482   4.349   7.016  1.0877  0.3829  0.3642
 9009SOL    HW238661   3.573   4.371   6.907  0.5029  1.0000  0.8358
 9010SOL     OW38662   2.784   3.727  10.203  0.1770 -0.0562  0.1402
 9010SOL    HW138663   2.735   3.765  10.129 -1.3702 -2.0810  0.1148
 9010SOL    HW238664   2.782   3.801  10.263 -0.3629 -0.4269  0.5811
 9011SOL     OW38665   2.865   3.662  15.419 -0.6601 -0.0796  0.0394
 9011SOL    HW138666   2.771   3.670  15.401 -1.0323 -0.3513  1.8453
 9011SOL    HW238667   2.901   3.597  15.359 -0.6746 -0.5067  0.4875
 9012SOL     OW38668   3.019   3.335   8.550 -0.5197 -0.8162 -0.3561
 9012SOL    HW138669   3.045   3.340   8.642  1.0664 -1.6463 -0.7531
 9012SOL    HW238670   3.035   3.424   8.518  0.8873 -0.3317  1.7189
 9013SOL     OW38671   3.338   2.717   9.036 -0.0448 -0.1367 -0.2800
 9013SOL    HW138672   3.253   2.683   9.009 -0.7562  0.8487  0.7474
 9013SOL    HW238673   3.327   2.736   9.129 -0.8923 -2.1474  0.0516
 9014SOL     OW38674   3.532   1.151  10.877 -0.1280  0.0731 -0.2234
 9014SOL    HW138675   3.525   1.122  10.968 -0.0734  1.4642  0.2368
 9014SOL    HW238676   3.445   1.141  10.839 -0.7990 -1.1142  1.5995
 9015SOL     OW38677   1.864   3.049   2.635  0.4527  0.0652  0.3743
 9015SOL    HW138678   1.937   3.110   2.625 -1.5295  2.0733 -1.7102
 9015SOL    HW238679   1.827   3.036   2.548  2.7007 -1.3615 -0.3636
 9016SOL     OW38680   2.500   0.417   9.853 -0.4192  0.1009 -0.5134
 9016SOL    HW138681   2.562   0.481   9.817  0.7552  0.3538  1.9843
 9016SOL    HW238682   2.452   0.393   9.774  0.4992  0.2665 -1.1237
 9017SOL     OW38683   3.720   4.371   7.610  0.2873  0.1691 -0.4576
 9017SOL    HW138684   3.703   4.465   7.609  0.8443  0.2906  1.2439
 9017SOL    HW238685   3.813   4.369   7.584  0.8115  3.8942  1.0617
 9018SOL     OW38686   1.386   2.858   7.094 -0.2037  0.1235 -0.8052
 9018SOL    HW138687   1.320   2.926   7.078 -1.0088 -0.2767  0.7487
 9018SOL    HW238688   1.372   2.795   7.023 -2.4315 -0.9929  0.5999
 9019SOL     OW38689   1.951   2.852  11.422  0.1128 -0.4883 -0.7393
 9019SOL    HW138690   1.892   2.896  11.361  0.2833  1.0972  0.2279
 9019SOL    HW238691   1.958   2.764  11.386  2.7640 -2.2346  4.0147
 9020SOL     OW38692   0.246   0.447   3.879  0.3354  0.6660  0.6442
 9020SOL    HW138693   0.194   0.366   3.886 -0.7120  1.1183 -1.8551
 9020SOL    HW238694   0.218   0.482   3.795  1.1699  1.6130  0.7686
 9021SOL     OW38695   2.549   0.861  12.835 -0.2812 -0.3045  0.0545
 9021SOL    HW138696   2.486   0.933  12.833 -1.2857 -1.1549  1.2036
 9021SOL    HW238697   2.622   0.905  12.792 -0.4508 -1.0582 -0.9802
 9022SOL     OW38698   2.276   2.991   6.670 -0.3636 -0.0209 -0.5908
 9022SOL    HW138699   2.224   3.071   6.682  0.9298  0.9962 -1.7113
 9022SOL    HW238700   2.241   2.930   6.734 -0.7681 -1.1994 -1.9386
 9023SOL     OW38701   3.655   4.267   5.064  0.2128 -0.3970  0.6191
 9023SOL    HW138702   3.643   4.311   5.148  0.1953  1.5455 -0.3932
 9023SOL    HW238703   3.565   4.259   5.032  1.2836 -0.8211 -2.2938
 9024SOL     OW38704   4.267   4.616   3.092 -0.0622  0.4519  0.0128
 9024SOL    HW138705   4.174   4.603   3.110 -0.0614  1.7368  0.9259
 9024SOL    HW238706   4.304   4.578   3.171 -0.7821 -1.2465 -0.4643
 9025SOL     OW38707   2.399   1.333   3.285  0.1902 -0.2426  0.3269
 9025SOL    HW138708   2.466   1.373   3.340 -2.6624  1.4857  2.5877
 9025SOL    HW238709   2.429   1.324   3.195 -1.3418  2.5663 -0.4788
 9026SOL     OW38710   1.270   0.791   3.815 -0.1917 -0.0174  0.3583
 9026SOL    HW138711   1.202   0.854   3.840 -0.2527  0.0981 -0.0892
 9026SOL    HW238712   1.281   0.827   3.727  1.4249 -0.5028  0.3617
 9027SOL     OW38713   0.960   4.646   3.593 -0.2195  0.1468 -0.1547
 9027SOL    HW138714   0.907   4.706   3.645 -1.0111 -0.7217  0.0492
 9027SOL    HW238715   0.975   4.694   3.512 -0.8068 -0.0523 -0.3811
 9028SOL     OW38716   4.568   1.107   1.095 -0.4714 -0.1115 -0.4162
 9028SOL    HW138717   4.499   1.133   1.157  0.4235  1.4282 -0.0680
 9028SOL    HW238718   4.611   1.190   1.079 -0.5805  0.0784  0.2617
 9029SOL     OW38719   2.567   1.772  17.190 -0.1494 -0.5540  0.0453
 9029SOL    HW138720   2.488   1.791  17.139  0.8210 -0.5993 -1.4816
 9029SOL    HW238721   2.632   1.762  17.120 -1.5035  0.0562 -1.2918
 9030SOL     OW38722   1.903   3.541   9.496 -0.4566 -0.3163 -0.3649
 9030SOL    HW138723   1.930   3.574   9.581 -1.0276 -2.3418  0.6128
 9030SOL    HW238724   1.987   3.527   9.451 -0.5738 -0.0171 -0.6761
 9031SOL     OW38725   4.086   3.419   2.452  0.2177 -0.3772  0.5769
 9031SOL    HW138726   4.143   3.341   2.458  0.8035  0.3021  3.7848
 9031SOL    HW238727   4.033   3.411   2.531  1.0149 -0.0598  1.1516
 9032SOL     OW38728   0.336   4.552   8.855  0.5664 -0.3740 -0.4555
 9032SOL    HW138729   0.382   4.620   8.805 -0.6163 -0.4908 -1.6871
 9032SOL    HW238730   0.397   4.478   8.859 -0.6010 -1.3864 -1.4732
 9033SOL     OW38731   4.095   0.957   4.062  0.3074 -0.3331 -0.0901
 9033SOL    HW138732   4.065   1.012   4.135  0.9105 -1.1540  0.7700
 9033SOL    HW238733   4.173   0.917   4.100  0.0883 -0.1355  0.5880
 9034SOL     OW38734   0.851   3.480  16.020  0.1584 -0.0757 -0.2606
 9034SOL    HW138735   0.795   3.484  15.943  1.2022  0.7678 -0.9680
 9034SOL    HW238736   0.934   3.463  15.976  1.9439  2.2542  2.2099
 9035SOL     OW38737   0.803   3.787   9.182  0.1955 -0.1648 -0.4824
 9035SOL    HW138738   0.841   3.734   9.252  0.5572  0.8466  0.1042
 9035SOL    HW238739   0.870   3.774   9.114 -0.2763 -1.8978 -0.5975
 9036SOL     OW38740   4.354   3.941   0.878  0.2016  0.3454  0.1149
 9036SOL    HW138741   4.391   4.029   0.869  0.3956  0.4874  2.2645
 9036SOL    HW238742   4.418   3.901   0.937  0.6462  0.1741 -0.4913
 9037SOL     OW38743   2.625   2.383   6.432  0.0980  0.8917 -0.3499
 9037SOL    HW138744   2.562   2.320   6.395  1.7182 -0.3348 -1.0039
 9037SOL    HW238745   2.580   2.467   6.442 -0.8863  0.3458 -0.1569
 9038SOL     OW38746   0.494   4.141   6.120 -0.2863 -0.4398 -0.1452
 9038SOL    HW138747   0.498   4.225   6.074 -0.9176 -0.2699  0.1127
 9038SOL    HW238748   0.457   4.169   6.204 -0.3183  0.5230 -0.4723
 9039SOL     OW38749   2.412   4.139   3.703 -0.0248  0.3340  0.1190
 9039SOL    HW138750   2.336   4.168   3.653 -0.0687  0.6076  0.3506
 9039SOL    HW238751   2.488   4.155   3.646  0.4474 -1.2152  0.2927
 9040SOL     OW38752   3.451   0.684   2.436 -0.0330  0.2300  0.1325
 9040SOL    HW138753   3.515   0.740   2.393 -0.3573  1.9046  1.8650
 9040SOL    HW238754   3.374   0.718   2.392  0.2219  1.8157  0.9234
 9041SOL     OW38755   1.758   2.815  17.241 -0.0753  0.4711  0.0632
 9041SOL    HW138756   1.678   2.867  17.234 -0.9545 -0.5309  2.4752
 9041SOL    HW238757   1.749   2.786  17.332 -0.4042 -1.9305 -0.7268
 9042SOL     OW38758   0.540   3.404  16.172  0.6649 -0.5705  0.6807
 9042SOL    HW138759   0.632   3.410  16.195  0.9990 -0.0754 -0.7744
 9042SOL    HW238760   0.507   3.479  16.220  1.6414 -0.5992  1.3878
 9043SOL     OW38761   2.710   2.676   9.704 -0.0063  0.4855 -0.5476
 9043SOL    HW138762   2.800   2.643   9.705 -0.0612  0.3342 -0.6659
 9043SOL    HW238763   2.722   2.754   9.758  0.9466 -1.0008  1.3811
 9044SOL     OW38764   2.591   0.310   6.772 -0.3890  0.4258 -0.1214
 9044SOL    HW138765   2.627   0.233   6.728  0.8169  0.7223  0.3349
 9044SOL    HW238766   2.570   0.367   6.698  2.3333 -1.8296 -2.6077
 9045SOL     OW38767   1.498   1.493   3.484 -0.6391 -0.2547  0.4604
 9045SOL    HW138768   1.535   1.410   3.453 -1.8101  0.1461 -2.0520
 9045SOL    HW238769   1.476   1.533   3.400 -0.0705 -0.1798  0.3485
 9046SOL     OW38770   4.641   4.583   7.767  0.5001  0.4270 -0.5764
 9046SOL    HW138771   4.705   4.641   7.808 -1.7451  2.2183  0.4015
 9046SOL    HW238772   4.600   4.541   7.844 -0.9841 -0.0251 -1.6124
 9047SOL     OW38773   1.245   3.745   3.057 -0.3268  0.2252  0.8037
 9047SOL    HW138774   1.176   3.764   2.995  0.7868  0.5340 -0.3487
 9047SOL    HW238775   1.287   3.666   3.023 -0.4492  0.7521 -0.5928
 9048SOL     OW38776   2.133   0.082   9.204  0.1894  0.1125  0.1791
 9048SOL    HW138777   2.050   0.068   9.248  1.1439  1.0568  2.3128
 9048SOL    HW238778   2.119   0.175   9.187 -1.5363 -0.0326  0.7805
 9049SOL     OW38779   1.263   0.520   3.776 -0.1173  0.0965  0.9503
 9049SOL    HW138780   1.346   0.486   3.811 -1.1729 -0.4707  2.8628
 9049SOL    HW238781   1.276   0.614   3.784 -1.2434  0.4005 -0.6958
 9050SOL     OW38782   0.594   3.220   0.082  0.3467  0.4362  0.2176
 9050SOL    HW138783   0.521   3.220   0.020  2.2686 -1.7866 -2.0192
 9050SOL    HW238784   0.580   3.133   0.119 -2.0303  0.8601  0.2972
 9051SOL     OW38785   1.706   0.673   6.082  0.4456 -0.3981  0.2050
 9051SOL    HW138786   1.767   0.716   6.141  1.4299  0.5294 -1.4761
 9051SOL    HW238787   1.645   0.640   6.148  0.0214  1.6119  0.8040
 9052SOL     OW38788   1.421   3.865  14.045  0.2646  0.0847 -0.0313
 9052SOL    HW138789   1.338   3.912  14.038  0.1858  0.1960  1.7157
 9052SOL    HW238790   1.385   3.778  14.061 -1.9221  0.6036 -1.9955
 9053SOL     OW38791   3.652   3.989   5.137 -0.1087  0.3666  0.1410
 9053SOL    HW138792   3.717   3.943   5.191 -0.0235 -1.2790 -1.3670
 9053SOL    HW238793   3.686   4.076   5.114  2.5459 -0.7742 -0.2739
 9054SOL     OW38794   0.046   1.369  10.063 -0.3439  0.2508 -0.3345
 9054SOL    HW138795   0.079   1.460  10.065  0.4913 -0.0805  1.8040
 9054SOL    HW238796   0.002   1.373  10.148  0.1254  0.2172 -0.0904
 9055SOL     OW38797   4.208   0.529   8.937 -0.4481 -0.0313  0.1910
 9055SOL    HW138798   4.132   0.476   8.912  0.4946 -0.9282 -0.7090
 9055SOL    HW238799   4.279   0.487   8.890 -0.5392  0.7687 -0.6555
 9056SOL     OW38800   4.381   0.551   8.652  0.1022 -0.1527  0.1540
 9056SOL    HW138801   4.347   0.465   8.628  1.3685 -0.2963 -1.1050
 9056SOL    HW238802   4.396   0.588   8.565  1.1771 -0.2877  0.2894
 9057SOL     OW38803   0.639   0.516   5.441  0.0106 -0.5917 -0.4065
 9057SOL    HW138804   0.701   0.512   5.368  3.0154 -2.6711  2.2465
 9057SOL    HW238805   0.579   0.580   5.403 -2.5544 -2.5621  0.3481
 9058SOL     OW38806   1.148   2.634   4.454  1.3260  0.0033 -0.3150
 9058SOL    HW138807   1.077   2.674   4.503  0.8312 -1.6256  0.2858
 9058SOL    HW238808   1.233   2.664   4.487  1.1668  1.8861 -1.5621
 9059SOL     OW38809   3.914   4.231   4.982  0.1970 -0.2618 -0.2254
 9059SOL    HW138810   3.840   4.287   5.006  0.9697  1.3982 -1.6713
 9059SOL    HW238811   3.942   4.214   5.072 -1.0502  1.8429  0.5667
 9060SOL     OW38812   1.878   4.563   2.062  0.2951 -0.9403 -1.3902
 9060SOL    HW138813   1.954   4.609   2.026  1.5550 -0.7275  1.5862
 9060SOL    HW238814   1.908   4.472   2.064 -0.7858 -1.2422  0.6154
 9061SOL     OW38815   2.084   4.269  10.590 -0.5882 -0.4332 -0.5078
 9061SOL    HW138816   2.047   4.184  10.614  0.8378 -1.4682 -1.9980
 9061SOL    HW238817   2.038   4.291  10.509 -0.2110  0.6846 -0.4255
 9062SOL     OW38818   3.997   2.614  10.242 -0.6434 -0.5238  0.0277
 9062SOL    HW138819   3.923   2.578  10.291 -1.1414  1.0756  0.4594
 9062SOL    HW238820   4.042   2.531  10.227  0.3037 -0.1675  0.8282
 9063SOL     OW38821   3.600   4.590   4.128  0.2296  0.0691 -0.0164
 9063SOL    HW138822   3.641   4.614   4.210  0.1730  2.0702 -0.5884
 9063SOL    HW238823   3.651   4.636   4.062 -2.2896  0.1501 -1.8925
 9064SOL     OW38824   2.177   3.897  11.571 -0.0945 -0.0015 -0.0443
 9064SOL    HW138825   2.120   3.972  11.554  1.2763  1.4427  1.6870
 9064SOL    HW238826   2.122   3.830  11.611 -2.3401  1.6892 -0.2919
 9065SOL     OW38827   0.668   4.322   3.654 -0.5924 -0.2897  0.8811
 9065SOL    HW138828   0.588   4.282   3.687  2.3515 -4.0139  3.6627
 9065SOL    HW238829   0.724   4.331   3.732  1.2713 -0.6276 -0.4085
 9066SOL     OW38830   0.626   2.453   3.953  0.4301  0.1598 -0.5690
 9066SOL    HW138831   0.632   2.540   3.914  1.7853  1.1933  1.9554
 9066SOL    HW238832   0.685   2.397   3.902 -0.6223  0.3558 -1.9806
 9067SOL     OW38833   1.002   0.268  11.254 -0.2787  0.1241  0.3681
 9067SOL    HW138834   0.918   0.225  11.270 -0.1137 -0.3817 -0.1056
 9067SOL    HW238835   1.052   0.226  11.324  0.5036  0.9516  0.3081
 9068SOL     OW38836   2.375   3.896   5.817  0.0228 -0.4376  0.4364
 9068SOL    HW138837   2.389   3.868   5.726 -0.1399 -1.0072  0.5879
 9068SOL    HW238838   2.468   3.906   5.840 -0.0972 -0.7252  1.0525
 9069SOL     OW38839   1.930   2.985  10.167  0.5336 -0.0925 -0.1345
 9069SOL    HW138840   1.978   2.952  10.243 -0.6216  0.7047  0.9296
 9069SOL    HW238841   1.970   3.071  10.153  2.0193 -1.0160 -1.5800
 9070SOL     OW38842   4.071   4.678   7.272 -0.5361  0.0553 -0.4890
 9070SOL    HW138843   4.076   0.007   7.205 -1.2358 -0.9312 -1.5460
 9070SOL    HW238844   3.984   4.642   7.253 -0.6531  0.2813 -0.3793
 9071SOL     OW38845   0.513   0.883   1.018  0.4986 -0.3828  0.6952
 9071SOL    HW138846   0.446   0.898   0.950  2.2070  2.4106 -0.3858
 9071SOL    HW238847   0.515   0.787   1.013  3.3936 -0.3037  0.7653
 9072SOL     OW38848   3.087   2.032   8.987 -0.3477  0.0258  0.4717
 9072SOL    HW138849   3.137   2.063   8.911  1.0882  0.6449  1.6754
 9072SOL    HW238850   3.120   1.942   8.985  0.0155  0.1743 -0.3373
 9073SOL     OW38851   4.392   3.275  15.312 -0.2155  0.7355 -0.2841
 9073SOL    HW138852   4.408   3.367  15.335 -2.3034  0.6243  1.5665
 9073SOL    HW238853   4.331   3.252  15.382 -0.7058 -1.5888 -1.4667
 9074SOL     OW38854   0.532   2.847   3.096  0.4633 -0.2673  0.2159
 9074SOL    HW138855   0.502   2.768   3.140 -1.3121  0.9216  1.1659
 9074SOL    HW238856   0.506   2.916   3.157 -2.6137  0.9141 -2.4335
 9075SOL     OW38857   0.864   4.503   7.943 -0.1202  0.4678  0.8951
 9075SOL    HW138858   0.883   4.410   7.949 -1.2675  0.2497  1.2219
 9075SOL    HW238859   0.823   4.510   7.856 -0.4988  0.1934  1.0520
 9076SOL     OW38860   2.664   4.293   6.992  0.3464  0.3915 -0.0273
 9076SOL    HW138861   2.697   4.208   6.963 -0.4181 -0.2454  0.9491
 9076SOL    HW238862   2.737   4.352   6.976  0.0867  0.6265 -0.3423
 9077SOL     OW38863   1.848   4.619   7.594  0.2599 -0.7230 -0.3137
 9077SOL    HW138864   1.922   4.652   7.645  0.4314 -2.2684  0.4124
 9077SOL    HW238865   1.802   4.564   7.656  0.6317 -3.3873 -2.3720
 9078SOL     OW38866   0.114   2.604   7.705 -0.0879 -0.1196  0.4730
 9078SOL    HW138867   0.104   2.589   7.611 -1.5244  0.3708  0.5417
 9078SOL    HW238868   0.045   2.668   7.722 -0.0971  0.0249 -0.1084
 9079SOL     OW38869   1.914   1.916   3.009  0.0080  0.1449 -0.4864
 9079SOL    HW138870   1.890   1.862   2.934  3.0236 -0.7520 -0.8065
 9079SOL    HW238871   1.838   1.896   3.063  0.8783 -1.0519  0.2543
 9080SOL     OW38872   2.864   2.601   8.661  0.6961 -0.0222  0.3146
 9080SOL    HW138873   2.946   2.556   8.641 -0.4066 -3.3408  3.3654
 9080SOL    HW238874   2.855   2.646   8.577 -1.3999  3.3081  2.3281
 9081SOL     OW38875   2.529   1.211   2.293  0.6837 -0.4707 -0.0859
 9081SOL    HW138876   2.548   1.118   2.283  1.1559 -0.3028 -0.7619
 9081SOL    HW238877   2.439   1.197   2.324 -0.5437  2.9426 -2.0243
 9082SOL     OW38878   2.901   2.466  16.196  0.7183 -0.0039 -0.1826
 9082SOL    HW138879   2.977   2.523  16.206  1.6941 -0.9701 -2.2318
 9082SOL    HW238880   2.877   2.479  16.104 -0.8758  0.9430  0.3770
 9083SOL     OW38881   2.467   4.197  11.002  0.1815  0.5404  0.0658
 9083SOL    HW138882   2.531   4.140  10.959 -0.9639  1.1722 -2.4571
 9083SOL    HW238883   2.500   4.173  11.089  0.5132 -1.9752 -0.7578
 9084SOL     OW38884   1.109   3.109   3.271  0.1437  0.3273 -0.2638
 9084SOL    HW138885   1.083   3.073   3.355 -0.1521 -1.1928 -1.0018
 9084SOL    HW238886   1.139   3.194   3.304 -2.7727  1.7329 -1.2186
 9085SOL     OW38887   1.674   4.100   2.597 -0.5436  0.0572  0.3274
 9085SOL    HW138888   1.625   4.064   2.524  1.9648 -1.2018 -0.6942
 9085SOL    HW238889   1.612   4.166   2.628 -1.9307 -0.5547 -1.1634
 9086SOL     OW38890   2.615   4.196   8.784  0.1694  0.5604 -0.6860
 9086SOL    HW138891   2.677   4.254   8.829 -0.2653  0.9003 -0.5326
 9086SOL    HW238892   2.656   4.110   8.799 -0.2926  0.5664  0.6291
 9087SOL     OW38893   3.039   2.563   3.635  0.5857 -0.0854  0.1010
 9087SOL    HW138894   3.116   2.585   3.687  0.3877  0.5012  0.1465
 9087SOL    HW238895   3.076   2.578   3.548  1.2678 -0.5283  0.3202
 9088SOL     OW38896   3.776   0.937  17.080 -0.5465 -0.0745  0.7006
 9088SOL    HW138897   3.794   0.877  17.009 -0.5914 -0.8582  1.3535
 9088SOL    HW238898   3.860   0.932  17.127  0.4751  2.1457 -0.8683
 9089SOL     OW38899   3.765   4.208   1.122 -0.5318  0.8492  0.0135
 9089SOL    HW138900   3.713   4.204   1.041 -0.3173  1.1780 -0.1410
 9089SOL    HW238901   3.706   4.266   1.171 -1.1936 -0.3442  0.6368
 9090SOL     OW38902   2.853   2.923   3.266  0.0762  0.2715  0.0036
 9090SOL    HW138903   2.817   2.946   3.180 -1.6020  3.5264  1.6101
 9090SOL    HW238904   2.895   2.841   3.238  0.2060  0.5289 -0.5691
 9091SOL     OW38905   3.376   2.486  16.332 -0.0701 -0.1277 -0.8479
 9091SOL    HW138906   3.445   2.488  16.398 -1.3795  0.1066  0.5152
 9091SOL    HW238907   3.385   2.396  16.302 -0.1139 -0.4745  0.1755
 9092SOL     OW38908   1.196   1.425   3.548 -0.1328 -0.0823 -0.1505
 9092SOL    HW138909   1.285   1.417   3.514 -0.4034 -0.9291 -0.6605
 9092SOL    HW238910   1.154   1.484   3.485 -0.6133  0.0406  0.2849
 9093SOL     OW38911   3.493   2.561   1.454 -0.2154  0.0100 -0.6808
 9093SOL    HW138912   3.429   2.497   1.486  0.9943 -0.0875  1.5355
 9093SOL    HW238913   3.429   2.627   1.427 -1.4137 -1.4372 -1.4143
 9094SOL     OW38914   0.312   1.335  12.043 -0.2116  0.4729 -0.2585
 9094SOL    HW138915   0.237   1.302  12.093 -0.3389  0.0047 -0.7552
 9094SOL    HW238916   0.291   1.300  11.956 -0.6381  0.1886 -0.0443
 9095SOL     OW38917   0.044   4.030   2.420  0.6635 -0.2296 -0.0189
 9095SOL    HW138918   0.037   4.038   2.325  3.2205  1.6153 -0.0523
 9095SOL    HW238919   4.726   4.100   2.452  0.3120 -0.5043 -0.0474
 9096SOL     OW38920   2.620   0.296   4.070 -0.3643 -0.2307  0.1648
 9096SOL    HW138921   2.643   0.298   3.977 -0.9663  0.6731  0.0334
 9096SOL    HW238922   2.709   0.271   4.094 -0.2118  0.4231  0.2790
 9097SOL     OW38923   2.614   4.288   8.540  0.3153  0.0245 -0.2322
 9097SOL    HW138924   2.687   4.349   8.527 -0.1295  0.6642  0.2545
 9097SOL    HW238925   2.608   4.265   8.632 -1.6514  1.1307 -0.0719
 9098SOL     OW38926   3.242   1.843   5.948  0.1121 -0.2197 -0.9978
 9098SOL    HW138927   3.215   1.797   5.869 -0.1633  2.0954 -2.2357
 9098SOL    HW238928   3.322   1.795   5.968  0.9474  1.6187  0.1054
 9099SOL     OW38929   3.144   3.554   5.200  0.4683 -0.1005  0.0320
 9099SOL    HW138930   3.202   3.624   5.229  0.6831  0.0966 -0.8905
 9099SOL    HW238931   3.151   3.565   5.106 -1.5414 -0.5056 -0.1622
 9100SOL     OW38932   4.033   2.526   1.686  0.1275 -0.2957 -0.0594
 9100SOL    HW138933   4.055   2.476   1.608  0.7003 -1.1492  0.6532
 9100SOL    HW238934   4.115   2.573   1.698 -0.1728  0.1769  0.1643
 9101SOL     OW38935   0.939   4.475  14.383  0.0594  0.4589 -0.4418
 9101SOL    HW138936   1.003   4.531  14.339  0.6953  2.7934  3.3976
 9101SOL    HW238937   0.956   4.511  14.470  1.8087  0.0412 -0.6205
 9102SOL     OW38938   1.848   2.978  12.003  0.1261 -0.3028  0.6790
 9102SOL    HW138939   1.768   2.928  11.982 -0.7643  0.8360  1.3486
 9102SOL    HW238940   1.915   2.911  12.016  0.6117 -0.2065 -1.4117
 9103SOL     OW38941   0.204   2.768  14.341 -0.7106 -0.2740  0.2245
 9103SOL    HW138942   0.195   2.673  14.332 -1.1496 -0.1675 -0.5167
 9103SOL    HW238943   0.189   2.784  14.247 -0.8641 -0.7065  0.1700
 9104SOL     OW38944   1.811   0.285   4.272 -0.2103 -0.6062  0.4762
 9104SOL    HW138945   1.813   0.341   4.349  0.4580  2.5089 -1.8100
 9104SOL    HW238946   1.763   0.334   4.206  5.2627  0.0276 -3.0152
 9105SOL     OW38947   1.936   4.453   9.695  0.1898  0.0375 -0.1728
 9105SOL    HW138948   2.020   4.436   9.738 -0.9788 -0.8926  1.7510
 9105SOL    HW238949   1.894   4.496   9.770 -1.2509  2.8196 -2.5990
 9106SOL     OW38950   3.871   1.171   8.941 -0.1392  0.5254 -0.1983
 9106SOL    HW138951   3.964   1.158   8.962 -0.0920 -0.0379 -0.7536
 9106SOL    HW238952   3.848   1.213   9.024 -2.8788 -0.1730 -0.6196
 9107SOL     OW38953   2.313   4.524   5.748  0.0645 -0.3323  0.4388
 9107SOL    HW138954   2.326   4.432   5.727  2.7045  0.3284 -0.8824
 9107SOL    HW238955   2.398   4.564   5.731 -0.6000  1.3134  0.8986
 9108SOL     OW38956   4.471   1.456  17.422  0.1140  0.2370 -0.0312
 9108SOL    HW138957   4.433   1.382  17.374 -0.2409  1.6212 -1.8485
 9108SOL    HW238958   4.565   1.435  17.415 -0.0312 -0.0713 -1.0637
 9109SOL     OW38959   0.076   3.420   0.781  0.3619  0.2477 -0.3382
 9109SOL    HW138960   0.028   3.493   0.820  0.6969  0.6058 -0.6011
 9109SOL    HW238961   0.065   3.442   0.689 -2.4560 -3.3602 -0.8742
 9110SOL     OW38962   1.333   3.669   7.283  0.0513  0.2177  0.1510
 9110SOL    HW138963   1.276   3.616   7.227 -2.5942 -0.5762  3.5881
 9110SOL    HW238964   1.324   3.754   7.239 -0.2184  1.1662  2.0181
 9111SOL     OW38965   3.148   2.176   4.650  0.0316 -0.7720  0.0869
 9111SOL    HW138966   3.217   2.122   4.689  0.4788 -0.7862 -0.7055
 9111SOL    HW238967   3.121   2.217   4.731  0.5938 -2.8846  1.3361
 9112SOL     OW38968   0.703   0.314   2.494 -0.1307 -0.0478 -0.3388
 9112SOL    HW138969   0.664   0.235   2.457 -0.2384 -1.4673  2.7487
 9112SOL    HW238970   0.742   0.347   2.414 -1.1684  0.1306 -0.7788
 9113SOL     OW38971   1.663   0.149   5.050 -0.3843 -0.0301  0.5336
 9113SOL    HW138972   1.704   0.203   4.983 -0.6155 -0.3166  0.1626
 9113SOL    HW238973   1.570   0.166   5.034 -0.4739 -0.3223  0.7349
 9114SOL     OW38974   2.361   2.987  16.773  0.1634  0.1134 -0.0074
 9114SOL    HW138975   2.268   2.970  16.763  0.5145  0.0564 -3.0436
 9114SOL    HW238976   2.392   2.992  16.683 -0.5907  0.9748 -0.2143
 9115SOL     OW38977   3.439   1.588   7.560 -0.0981 -0.6039  0.3173
 9115SOL    HW138978   3.507   1.578   7.627 -0.4628  1.2115  0.9501
 9115SOL    HW238979   3.425   1.682   7.573  1.8687 -0.1790 -0.5923
 9116SOL     OW38980   4.375   4.250  10.392  0.2483  0.1545 -0.4791
 9116SOL    HW138981   4.420   4.177  10.348 -0.5521 -0.9614  0.5301
 9116SOL    HW238982   4.402   4.244  10.484  0.6867 -2.2817 -0.7600
 9117SOL     OW38983   1.736   2.995  12.675 -0.0511  0.3405 -0.3174
 9117SOL    HW138984   1.823   2.993  12.715  0.1871  1.1890 -0.7803
 9117SOL    HW238985   1.734   2.913  12.625  3.7557  0.0971 -0.0593
 9118SOL     OW38986   3.655   2.026   4.336  0.6271 -0.3338 -0.3986
 9118SOL    HW138987   3.647   2.084   4.261  0.3724 -0.3876 -0.4129
 9118SOL    HW238988   3.601   1.953   4.306  2.7366 -2.2130  0.3031
 9119SOL     OW38989   0.595   3.098   7.265  0.1683  0.7264 -0.1051
 9119SOL    HW138990   0.613   3.139   7.350 -0.2844  2.4446 -0.8564
 9119SOL    HW238991   0.543   3.022   7.291 -0.6622  0.2264 -3.3254
 9120SOL     OW38992   0.679   2.896   7.690 -0.7272 -0.3456 -0.3884
 9120SOL    HW138993   0.697   2.806   7.660 -0.3223  0.5563 -2.8062
 9120SOL    HW238994   0.587   2.910   7.671 -0.9370 -0.5046  0.5083
 9121SOL     OW38995   2.021   0.901  12.542 -0.8670  0.0039 -0.7077
 9121SOL    HW138996   2.093   0.840  12.527 -1.0341 -0.6856  1.2360
 9121SOL    HW238997   2.047   0.924  12.632  1.4151  2.6409 -2.0518
 9122SOL     OW38998   3.318   4.363  17.034  0.2314 -0.0588  0.4849
 9122SOL    HW138999   3.380   4.435  17.042 -0.5257  0.7705 -1.1409
 9122SOL    HW239000   3.301   4.349  17.127  2.8801  0.4469  1.0389
 9123SOL     OW39001   1.298   2.676   5.790  0.3508 -0.6714 -0.0530
 9123SOL    HW139002   1.225   2.737   5.776  1.1809  0.3107 -0.1176
 9123SOL    HW239003   1.258   2.591   5.772 -0.2463 -0.0002 -1.9874
 9124SOL     OW39004   1.905   2.811   8.239 -0.2960 -0.1577  0.4289
 9124SOL    HW139005   1.977   2.862   8.201  0.6357 -0.8306  1.2755
 9124SOL    HW239006   1.941   2.725   8.215 -3.9668 -1.6919  0.4334
 9125SOL     OW39007   3.734   1.597  12.480  0.3017 -0.1722  0.1492
 9125SOL    HW139008   3.675   1.549  12.538  1.2262 -0.8495  0.5237
 9125SOL    HW239009   3.765   1.521  12.430 -1.1822  0.6371 -2.0414
 9126SOL     OW39010   0.888   2.502   8.496 -0.3340 -0.0430  0.3805
 9126SOL    HW139011   0.981   2.481   8.489 -0.2813  0.5829 -0.9741
 9126SOL    HW239012   0.895   2.553   8.576  0.5261 -0.3044  0.4619
 9127SOL     OW39013   1.721   0.928   1.511 -0.0476  0.3052  0.4996
 9127SOL    HW139014   1.676   0.860   1.462  0.8640  0.4805 -0.5566
 9127SOL    HW239015   1.775   0.881   1.575  1.5459  0.8376 -0.4691
 9128SOL     OW39016   1.222   2.787   0.335 -0.6637  0.8352  0.4944
 9128SOL    HW139017   1.199   2.861   0.391  0.3135 -0.0452  2.0740
 9128SOL    HW239018   1.182   2.722   0.393 -0.4099  0.1147 -0.1318
 9129SOL     OW39019   4.711   1.386   5.735 -0.3514 -0.3839  0.1557
 9129SOL    HW139020   4.662   1.466   5.718  1.1778  1.1419  2.9654
 9129SOL    HW239021   4.652   1.339   5.795 -0.3201 -0.4680  0.1215
 9130SOL     OW39022   0.681   4.500   8.299  0.0911 -0.3560  0.0293
 9130SOL    HW139023   0.667   4.549   8.380  1.5919  2.7172 -1.5584
 9130SOL    HW239024   0.768   4.534   8.280  0.9792 -0.0675  4.5996
 9131SOL     OW39025   3.476   1.244  13.858  0.2538  0.1360  0.5106
 9131SOL    HW139026   3.382   1.230  13.856  0.3495 -0.1847 -2.1870
 9131SOL    HW239027   3.514   1.170  13.905 -0.8337 -0.0297  1.1129
 9132SOL     OW39028   4.693   1.331   8.096  0.0327 -0.5048  0.3488
 9132SOL    HW139029   4.674   1.286   8.013  1.1191 -0.0334 -0.1525
 9132SOL    HW239030   0.050   1.339   8.096  0.0527 -0.8083  1.2536
 9133SOL     OW39031   0.193   2.620  14.645  0.2175 -0.7926  0.1038
 9133SOL    HW139032   0.117   2.678  14.649  0.9345  0.3036 -2.2731
 9133SOL    HW239033   0.260   2.689  14.655 -2.0921  1.4239  0.2425
 9134SOL     OW39034   4.032   3.378   5.908  0.5171  0.1003 -0.4741
 9134SOL    HW139035   4.004   3.468   5.926 -0.7272 -0.1952 -0.9396
 9134SOL    HW239036   4.122   3.397   5.879  0.1195  1.1270 -1.0250
 9135SOL     OW39037   0.864   3.861  11.477  0.0999 -0.1885 -0.4136
 9135SOL    HW139038   0.882   3.935  11.419 -2.7684  1.6749  1.0945
 9135SOL    HW239039   0.919   3.874  11.554  0.6422 -0.7460 -0.7122
 9136SOL     OW39040   2.972   0.949   8.425 -0.3424 -0.4417  0.5307
 9136SOL    HW139041   2.961   1.021   8.362  2.0959 -0.9647 -0.5029
 9136SOL    HW239042   2.941   0.993   8.503 -2.2130  0.3504 -0.6565
 9137SOL     OW39043   3.873   4.324   2.767 -0.3733 -0.2160 -0.2405
 9137SOL    HW139044   3.822   4.398   2.800  0.6144  0.1743  0.4211
 9137SOL    HW239045   3.805   4.300   2.704  0.7050 -2.4974 -0.5240
 9138SOL     OW39046   0.177   4.135   7.672  0.4563 -0.2692 -0.2427
 9138SOL    HW139047   0.164   4.202   7.739 -1.8260 -1.4594  0.4906
 9138SOL    HW239048   0.120   4.068   7.709 -0.0377  0.6574  0.6861
 9139SOL     OW39049   1.126   0.837   7.411  0.2363 -0.1303  0.0106
 9139SOL    HW139050   1.145   0.794   7.328 -0.8082 -0.3805 -0.0981
 9139SOL    HW239051   1.103   0.922   7.375  0.5801  0.0935  0.3209
 9140SOL     OW39052   0.470   3.979  11.120 -0.3248  0.3098 -0.0061
 9140SOL    HW139053   0.421   3.984  11.202 -1.8754  0.9585 -0.9596
 9140SOL    HW239054   0.441   3.894  11.085  2.2831 -1.5376  2.3139
 9141SOL     OW39055   2.321   4.451   3.907 -0.0776 -0.2633 -0.0623
 9141SOL    HW139056   2.264   4.454   3.830 -2.1918 -2.4534  1.4324
 9141SOL    HW239057   2.402   4.420   3.865 -0.5165 -1.4566 -0.0135
 9142SOL     OW39058   4.215   1.262   6.745  0.0012 -0.7849  0.4145
 9142SOL    HW139059   4.258   1.337   6.704 -0.8235 -0.0333  0.9223
 9142SOL    HW239060   4.160   1.233   6.673  1.5227  0.7628 -1.3935
 9143SOL     OW39061   1.317   1.104  17.081 -0.5472 -0.1773 -0.1523
 9143SOL    HW139062   1.245   1.116  17.020  0.2231  2.2346 -0.5904
 9143SOL    HW239063   1.278   1.146  17.158  2.6403  2.7573 -0.1368
 9144SOL     OW39064   2.533   4.456   8.218  0.0367  0.0163  0.3381
 9144SOL    HW139065   2.477   4.391   8.261  0.4145 -1.4729 -1.4084
 9144SOL    HW239066   2.591   4.403   8.162  0.1086 -2.1242  2.4352
 9145SOL     OW39067   0.889   1.005   2.298  0.3337 -0.3822 -0.0386
 9145SOL    HW139068   0.863   1.090   2.335 -1.5273 -0.4440 -1.1809
 9145SOL    HW239069   0.984   1.009   2.310  0.0782  1.7660  1.2527
 9146SOL     OW39070   3.328   3.046  11.220 -0.1446 -0.2916 -0.2402
 9146SOL    HW139071   3.284   2.980  11.273  1.8716 -0.7127  0.9039
 9146SOL    HW239072   3.343   3.120  11.280 -1.1095  1.1451 -1.7729
 9147SOL     OW39073   2.888   4.443   6.980  0.6249  0.2490 -0.5108
 9147SOL    HW139074   2.854   4.523   7.020  2.1833  1.4465 -1.5721
 9147SOL    HW239075   2.983   4.459   6.978  0.9406 -1.6133 -0.1229
 9148SOL     OW39076   3.195   0.869  17.581  0.6149 -0.1117 -0.0814
 9148SOL    HW139077   3.169   0.776  17.582 -0.9711  0.3555  3.7036
 9148SOL    HW239078   3.143   0.913  17.514 -1.2370 -0.5803  1.0492
 9149SOL     OW39079   4.393   3.724  10.165 -0.8593 -0.0642  0.2302
 9149SOL    HW139080   4.399   3.785  10.092  2.8525 -0.4836  0.2306
 9149SOL    HW239081   4.414   3.778  10.241  0.1063 -2.9297  2.0256
 9150SOL     OW39082   2.553   0.876   1.433 -0.6653 -0.3003  0.5137
 9150SOL    HW139083   2.535   0.939   1.503  1.6136  1.6854 -0.6745
 9150SOL    HW239084   2.647   0.857   1.445 -1.3805 -5.2871 -1.5958
 9151SOL     OW39085   2.455   1.520  16.689 -0.5220 -0.2834 -0.0458
 9151SOL    HW139086   2.530   1.575  16.669 -2.4335  2.6002  0.6892
 9151SOL    HW239087   2.420   1.578  16.756 -2.1327 -2.0605  0.6344
 9152SOL     OW39088   1.213   3.328   2.788 -0.1243 -0.4059  0.2829
 9152SOL    HW139089   1.223   3.271   2.712  2.9583 -1.9618  1.8628
 9152SOL    HW239090   1.244   3.408   2.746  0.5065 -0.7703  0.0479
 9153SOL     OW39091   0.237   0.472   3.598 -0.7746  0.6217 -0.1803
 9153SOL    HW139092   0.172   0.498   3.533  1.6653  0.5886 -2.6368
 9153SOL    HW239093   0.317   0.490   3.548 -1.1870 -0.0209 -1.0705
 9154SOL     OW39094   0.629   3.265   3.190 -0.2674 -0.4272 -0.3160
 9154SOL    HW139095   0.564   3.324   3.228  2.0368  0.2020  2.6965
 9154SOL    HW239096   0.576   3.239   3.115  1.0380  1.2562 -1.8251
 9155SOL     OW39097   1.639   0.214   2.907  0.5363  0.1525  0.3651
 9155SOL    HW139098   1.554   0.170   2.910 -0.1811  1.4957 -0.4021
 9155SOL    HW239099   1.643   0.268   2.985  2.3623 -1.0443  1.1048
 9156SOL     OW39100   3.589   1.833   7.888  0.5038  0.2551  0.0667
 9156SOL    HW139101   3.625   1.800   7.970  0.7650 -1.7053 -0.8372
 9156SOL    HW239102   3.494   1.830   7.904  0.1845  0.1559 -1.8242
 9157SOL     OW39103   3.635   1.429   3.974 -0.0886  0.0141  0.0921
 9157SOL    HW139104   3.685   1.470   4.045  1.2770 -0.9779 -0.3015
 9157SOL    HW239105   3.571   1.377   4.023  0.7258 -1.5059 -0.4475
 9158SOL     OW39106   0.947   2.465   2.786  0.3149  0.5354  0.5349
 9158SOL    HW139107   0.995   2.419   2.855 -0.5409  0.2660  0.9550
 9158SOL    HW239108   0.854   2.457   2.807  0.3659  2.7634  1.5795
 9159SOL     OW39109   0.649   4.504  12.170  0.2768 -0.6854  0.1391
 9159SOL    HW139110   0.636   4.434  12.235  0.8240  0.4083  1.4397
 9159SOL    HW239111   0.609   4.459  12.096  1.4349 -2.9208  0.8625
 9160SOL     OW39112   3.049   2.785   6.581  0.1421 -0.4466  0.6952
 9160SOL    HW139113   3.118   2.850   6.593  0.5479 -0.6331 -0.6690
 9160SOL    HW239114   3.044   2.732   6.661 -1.1563  1.9647  2.1840
 9161SOL     OW39115   0.194   3.212   8.511 -0.8264  0.0316  0.6543
 9161SOL    HW139116   0.142   3.292   8.521 -2.1329 -0.6291 -0.7513
 9161SOL    HW239117   0.271   3.236   8.459 -1.5502  1.2824  0.1618
 9162SOL     OW39118   1.699   2.521   7.398 -0.0099  0.3535 -0.1395
 9162SOL    HW139119   1.650   2.519   7.317  0.7692  0.5447 -0.6199
 9162SOL    HW239120   1.788   2.544   7.371 -0.1201  0.3293 -0.5116
 9163SOL     OW39121   3.877   3.216   8.368  0.2292 -0.2140  0.3879
 9163SOL    HW139122   3.933   3.201   8.445 -0.4573  0.4959  1.0277
 9163SOL    HW239123   3.907   3.144   8.314 -0.7604 -1.5508  1.6083
 9164SOL     OW39124   3.109   4.330   8.959  0.7581 -0.5860  0.3431
 9164SOL    HW139125   3.126   4.243   8.996  4.5729 -0.2604 -0.6715
 9164SOL    HW239126   3.135   4.388   9.030 -1.1318  2.2446 -1.2832
 9165SOL     OW39127   4.216   1.803   5.355 -0.3774 -0.6558  0.1432
 9165SOL    HW139128   4.174   1.717   5.345 -1.8906  0.0431  0.4847
 9165SOL    HW239129   4.274   1.790   5.431  0.4537  0.4667 -0.3064
 9166SOL     OW39130   2.430   3.598   2.722 -0.2690 -0.0970 -0.3589
 9166SOL    HW139131   2.421   3.654   2.800  0.7479  0.4816 -0.6551
 9166SOL    HW239132   2.422   3.670   2.659 -0.6720 -0.1118 -0.3281
 9167SOL     OW39133   1.393   0.198   6.293 -0.2933  0.2311 -0.1265
 9167SOL    HW139134   1.349   0.233   6.370  1.0504 -1.8459  1.5722
 9167SOL    HW239135   1.454   0.268   6.271  0.4333 -0.3246  0.1542
 9168SOL     OW39136   0.035   2.742   4.733  0.3547  0.5147 -0.5521
 9168SOL    HW139137   4.724   2.822   4.718  1.8580  1.4884 -0.3335
 9168SOL    HW239138   0.118   2.779   4.763  0.7465 -1.8357  1.2856
 9169SOL     OW39139   3.295   3.058   2.967 -0.1825 -0.4551  0.0973
 9169SOL    HW139140   3.291   3.136   3.023 -1.3528  1.0942 -2.1774
 9169SOL    HW239141   3.335   3.081   2.883  1.2829 -0.2361  0.8505
 9170SOL     OW39142   0.368   1.849   3.143 -0.1985  0.1651 -0.6153
 9170SOL    HW139143   0.379   1.760   3.175  2.4692  0.6063 -0.2969
 9170SOL    HW239144   0.354   1.899   3.223 -0.7259  0.4352 -0.8753
 9171SOL     OW39145   2.762   4.643   8.158  0.0351 -0.1997 -0.7336
 9171SOL    HW139146   2.756   4.694   8.239 -0.3169 -1.3427 -0.0330
 9171SOL    HW239147   2.688   4.583   8.169 -0.1081 -0.0196 -0.7257
 9172SOL     OW39148   0.223   2.369   4.833 -0.2012 -0.0375  0.3955
 9172SOL    HW139149   0.152   2.433   4.826  0.3996  0.5267 -0.4162
 9172SOL    HW239150   0.297   2.415   4.796 -1.3686  0.5609 -1.1765
 9173SOL     OW39151   4.070   0.113   7.886 -0.0664 -0.4002 -0.2297
 9173SOL    HW139152   4.018   0.093   7.809  0.5622  0.9124 -0.9788
 9173SOL    HW239153   4.096   0.025   7.916  0.6016  0.0132  0.4276
 9174SOL     OW39154   1.661   3.456  16.225  0.6787 -0.1635 -0.4070
 9174SOL    HW139155   1.665   3.544  16.262 -1.8943  0.1143 -0.8338
 9174SOL    HW239156   1.710   3.473  16.144 -1.4157 -2.1354 -2.0955
 9175SOL     OW39157   1.642   0.939  17.505 -0.2544 -0.2993 -0.0499
 9175SOL    HW139158   1.557   0.973  17.533 -0.1735 -0.8307  0.8395
 9175SOL    HW239159   1.672   1.010  17.449  0.8649 -1.4529 -0.8819
 9176SOL     OW39160   1.081   3.235   2.322  0.3419 -0.2338 -0.4486
 9176SOL    HW139161   1.124   3.211   2.404  1.5608  0.2223 -0.9572
 9176SOL    HW239162   1.157   3.269   2.274  0.9883 -3.6324 -1.8386
 9177SOL     OW39163   1.740   1.857   6.380  0.7202 -0.8421 -0.4680
 9177SOL    HW139164   1.651   1.823   6.391  1.1319 -0.9575  2.5056
 9177SOL    HW239165   1.758   1.875   6.472  1.1353 -0.7827 -0.5610
 9178SOL     OW39166   0.092   0.255   9.942 -0.3535  0.2842  0.1617
 9178SOL    HW139167   0.051   0.215  10.019 -1.4959  0.7668 -0.1843
 9178SOL    HW239168   0.147   0.314   9.992 -0.5162 -1.8954  2.9517
 9179SOL     OW39169   3.422   1.965   3.519  0.4015  0.5870  0.2342
 9179SOL    HW139170   3.501   1.912   3.522 -2.3948 -3.4364  1.9090
 9179SOL    HW239171   3.347   1.906   3.514  0.2378  0.8251 -0.1565
 9180SOL     OW39172   2.451   0.507   4.146  0.0463  0.0152 -0.2748
 9180SOL    HW139173   2.498   0.590   4.139  1.9768 -1.1346 -0.9947
 9180SOL    HW239174   2.522   0.451   4.114  2.0882  1.9586  0.8607
 9181SOL     OW39175   3.807   4.002   7.464 -0.1852 -0.4927  0.3540
 9181SOL    HW139176   3.812   4.022   7.558 -2.0964 -0.4449  0.4582
 9181SOL    HW239177   3.772   3.913   7.465 -0.3515 -0.4261  0.9353
 9182SOL     OW39178   1.051   0.449   7.680 -0.5264 -0.3464  0.4087
 9182SOL    HW139179   1.024   0.366   7.640  1.8244 -1.3006  0.8113
 9182SOL    HW239180   1.090   0.500   7.609  0.7682 -0.2181  1.2157
 9183SOL     OW39181   1.211   0.403   4.319  0.0322  0.4875 -0.5322
 9183SOL    HW139182   1.304   0.419   4.337 -0.2035  1.4382 -0.1869
 9183SOL    HW239183   1.176   0.439   4.401  2.6253  0.1705  0.7390
 9184SOL     OW39184   2.738   3.614   2.502 -0.3386  0.2135 -0.8136
 9184SOL    HW139185   2.785   3.604   2.420  0.8263  1.4105 -0.2985
 9184SOL    HW239186   2.650   3.594   2.470 -0.3167 -0.0310 -0.7208
 9185SOL     OW39187   2.596   1.997   0.482  0.5362 -0.1713 -0.6992
 9185SOL    HW139188   2.575   2.084   0.448 -0.8401 -1.0141 -2.0641
 9185SOL    HW239189   2.691   2.006   0.486  0.3293  1.3291  0.6915
 9186SOL     OW39190   2.882   4.081   0.593 -0.7623 -0.3306 -0.1984
 9186SOL    HW139191   2.832   4.162   0.583 -1.7054 -1.1650 -2.2435
 9186SOL    HW239192   2.836   4.037   0.664 -1.0287 -2.8195 -1.8917
 9187SOL     OW39193   3.681   2.968  13.902  0.1566 -0.4657 -0.1213
 9187SOL    HW139194   3.627   2.993  13.976 -1.5624 -0.8643 -1.2399
 9187SOL    HW239195   3.666   3.044  13.845 -0.2959 -0.6833 -0.2887
 9188SOL     OW39196   3.963   3.861   2.505  0.4958  0.0536 -0.4476
 9188SOL    HW139197   3.972   3.956   2.504  1.6207 -0.0263  1.7451
 9188SOL    HW239198   4.044   3.836   2.461  0.4969 -0.4868 -0.1455
 9189SOL     OW39199   4.189   3.797   2.351 -0.7696 -0.4943 -0.1868
 9189SOL    HW139200   4.208   3.843   2.433  1.5053 -1.4458 -0.2098
 9189SOL    HW239201   4.274   3.757   2.337 -1.1169 -1.2540 -0.1225
 9190SOL     OW39202   1.380   3.445  15.857  0.3828  0.2354  0.1789
 9190SOL    HW139203   1.424   3.382  15.915 -0.8842 -0.0137  0.8955
 9190SOL    HW239204   1.341   3.388  15.791  1.0422  0.1257 -0.1123
 9191SOL     OW39205   2.148   3.098   3.819  0.0132 -0.0142  0.2927
 9191SOL    HW139206   2.188   3.046   3.889  1.8508  1.2962  0.2111
 9191SOL    HW239207   2.137   3.030   3.753  0.2828 -0.9116  1.1732
 9192SOL     OW39208   1.348   0.838   6.752 -0.1765  0.5707  0.8005
 9192SOL    HW139209   1.428   0.785   6.741 -1.1113 -0.7209  0.2734
 9192SOL    HW239210   1.395   0.921   6.757  0.1581  0.4490 -0.2069
 9193SOL     OW39211   3.814   3.032  15.215 -0.1034 -0.3546  0.1659
 9193SOL    HW139212   3.777   2.954  15.257 -1.1440 -0.2256 -0.5310
 9193SOL    HW239213   3.732   3.077  15.197 -0.0190 -0.2038  0.1554
 9194SOL     OW39214   1.506   1.714   9.133  0.3036 -0.1592 -0.4201
 9194SOL    HW139215   1.564   1.691   9.205  0.0348  1.8175  0.4399
 9194SOL    HW239216   1.550   1.792   9.100  2.3876 -0.5248  1.5024
 9195SOL     OW39217   0.279   3.501   5.699 -0.1054  0.3902 -0.4236
 9195SOL    HW139218   0.287   3.487   5.793 -0.6317  1.9691 -0.1391
 9195SOL    HW239219   0.237   3.587   5.694  1.1194  0.7912 -3.7869
 9196SOL     OW39220   1.659   3.081   7.785  0.4066  0.0050 -0.0513
 9196SOL    HW139221   1.678   3.005   7.840 -0.0192 -0.5936 -0.7245
 9196SOL    HW239222   1.564   3.067   7.777  0.4870 -0.4080 -0.2683
 9197SOL     OW39223   3.535   1.439  12.646  0.2590  0.3256 -0.3056
 9197SOL    HW139224   3.523   1.450  12.740 -3.6857  0.3977 -0.8175
 9197SOL    HW239225   3.465   1.500  12.623 -0.9890 -1.3301 -0.9090
 9198SOL     OW39226   3.025   3.785   3.229 -0.1775 -0.5834  0.2939
 9198SOL    HW139227   3.010   3.710   3.285 -2.0813  0.3841  1.0819
 9198SOL    HW239228   3.012   3.747   3.142 -2.6299  2.7730 -0.8334
 9199SOL     OW39229   2.549   4.049   1.902 -0.6628  0.0165 -0.1837
 9199SOL    HW139230   2.483   3.986   1.873 -0.7988  0.8777 -1.7658
 9199SOL    HW239231   2.511   4.135   1.884  0.5587  0.7382  0.7579
 9200SOL     OW39232   0.996   1.953   3.453 -0.5252 -0.2960 -0.3961
 9200SOL    HW139233   1.010   1.944   3.359  2.0162 -0.0301 -0.0364
 9200SOL    HW239234   0.901   1.939   3.454 -0.7375  1.0975 -1.3373
 9201SOL     OW39235   2.454   4.269   0.551 -0.2447 -0.2027 -0.4807
 9201SOL    HW139236   2.481   4.198   0.609 -1.8912  1.1542  1.9615
 9201SOL    HW239237   2.477   4.231   0.466 -1.1248 -1.5241 -0.1297
 9202SOL     OW39238   4.260   1.566   6.305 -0.3570  0.8532 -0.1048
 9202SOL    HW139239   4.322   1.588   6.235  1.8189 -0.0432  1.5676
 9202SOL    HW239240   4.219   1.652   6.315  0.6453  1.2971  0.2542
 9203SOL     OW39241   4.441   0.699   7.813  0.0334  0.6572 -0.3154
 9203SOL    HW139242   4.361   0.657   7.783 -0.9056  1.1198  1.5128
 9203SOL    HW239243   4.486   0.618   7.839 -0.8152 -0.1820 -1.4950
 9204SOL     OW39244   4.342   1.347   7.341  0.0846 -0.1050 -0.3813
 9204SOL    HW139245   4.425   1.394   7.331  1.1082 -2.0157 -0.7156
 9204SOL    HW239246   4.321   1.357   7.433 -0.2217  0.8650 -0.5545
 9205SOL     OW39247   2.757   2.122   5.314  0.1502  0.5811  0.1243
 9205SOL    HW139248   2.795   2.044   5.275 -0.0544  0.6169 -0.1510
 9205SOL    HW239249   2.678   2.127   5.260 -0.4697 -2.0779  0.7966
 9206SOL     OW39250   4.630   4.494   6.985  0.3694  0.1080 -0.1496
 9206SOL    HW139251   4.712   4.534   7.016 -1.0320  2.6084  0.2425
 9206SOL    HW239252   4.566   4.545   7.033  1.1860  0.1548  0.8976
 9207SOL     OW39253   4.154   4.053  13.369  0.1889  0.3986  0.2122
 9207SOL    HW139254   4.177   4.131  13.319  0.6909  1.7828  2.6120
 9207SOL    HW239255   4.121   3.992  13.303  1.9805  1.2471 -1.4711
 9208SOL     OW39256   4.374   2.433   2.247 -0.6109  0.5375  0.3073
 9208SOL    HW139257   4.406   2.456   2.160 -1.7843 -0.6464 -0.4342
 9208SOL    HW239258   4.392   2.512   2.298  1.7054 -0.1958  0.6231
 9209SOL     OW39259   0.462   3.833   8.679 -0.8646  0.1360  0.1620
 9209SOL    HW139260   0.510   3.813   8.759 -0.2201 -0.4699 -0.3722
 9209SOL    HW239261   0.427   3.920   8.699  0.7156  1.2643 -2.0233
 9210SOL     OW39262   3.974   0.780   8.422  0.2193 -0.4630  0.2624
 9210SOL    HW139263   4.049   0.818   8.377 -0.0041 -1.4718 -0.9643
 9210SOL    HW239264   3.899   0.819   8.377 -0.0479 -1.5049 -0.2176
 9211SOL     OW39265   4.021   2.358   6.317  0.1724 -0.3944 -1.0663
 9211SOL    HW139266   3.974   2.309   6.385  2.5290 -0.3986  0.5693
 9211SOL    HW239267   3.949   2.408   6.278 -0.0824 -0.0029 -0.0758
 9212SOL     OW39268   1.409   1.075   3.364  0.4872 -0.3042  0.0639
 9212SOL    HW139269   1.484   1.044   3.314 -0.8876 -1.6360 -1.1936
 9212SOL    HW239270   1.460   1.104   3.440 -0.5170 -2.2673  1.5016
 9213SOL     OW39271   0.522   3.728   6.310 -0.2325  0.1891  0.0289
 9213SOL    HW139272   0.536   3.633   6.301 -3.4710 -0.1854 -1.1245
 9213SOL    HW239273   0.590   3.769   6.256 -0.8480 -0.9682 -1.6322
 9214SOL     OW39274   0.176   3.998  17.258 -0.0826 -0.1763 -0.3343
 9214SOL    HW139275   0.247   3.968  17.316  0.0384 -0.0156 -0.4003
 9214SOL    HW239276   0.099   3.985  17.312  0.8602 -1.0357  0.8222
 9215SOL     OW39277   4.504   2.816  10.613  0.4997  0.1113 -0.0071
 9215SOL    HW139278   4.574   2.764  10.653  0.4095 -0.2016 -0.2505
 9215SOL    HW239279   4.428   2.773  10.653 -0.1279 -0.7258 -2.0993
 9216SOL     OW39280   1.766   4.616   4.971 -0.3696  0.0238  0.3906
 9216SOL    HW139281   1.754   4.636   4.879 -0.3809  0.5458  0.5061
 9216SOL    HW239282   1.767   4.705   5.006  1.0812 -0.4193  1.5277
 9217SOL     OW39283   0.913   3.042   9.254  0.7606  0.6055  0.6150
 9217SOL    HW139284   0.902   2.952   9.285 -0.6466  0.1235 -1.2897
 9217SOL    HW239285   1.008   3.054   9.245  0.3897  2.2385 -1.0107
 9218SOL     OW39286   2.225   1.703  10.465 -0.2252 -0.2447  0.8786
 9218SOL    HW139287   2.289   1.720  10.533  0.1532 -1.6903  0.8815
 9218SOL    HW239288   2.140   1.692  10.509  0.7942  2.4721  3.4177
 9219SOL     OW39289   2.757   1.274   9.039  0.1317 -0.0872 -0.0921
 9219SOL    HW139290   2.700   1.207   9.078  1.3550 -1.0200  0.0767
 9219SOL    HW239291   2.685   1.335   9.020 -0.1716 -0.9358 -1.6754
 9220SOL     OW39292   1.534   4.545  16.861 -0.3257 -0.1869  0.0369
 9220SOL    HW139293   1.596   4.503  16.921  0.5011 -2.5471 -2.4631
 9220SOL    HW239294   1.603   4.579  16.804  1.0940  1.1989  2.5941
 9221SOL     OW39295   0.355   2.405   5.330  0.5150 -0.1162 -0.6066
 9221SOL    HW139296   0.404   2.322   5.330 -0.6785 -0.8213 -0.6351
 9221SOL    HW239297   0.421   2.464   5.367  2.1674 -1.3156 -1.6300
 9222SOL     OW39298   3.805   3.589   7.295 -0.1454  0.0533  0.1341
 9222SOL    HW139299   3.766   3.652   7.355  0.4130  0.7158 -0.2043
 9222SOL    HW239300   3.837   3.519   7.353 -0.0248  0.6722  0.8149
 9223SOL     OW39301   0.492   3.191   2.960  0.0557  0.5228 -0.1955
 9223SOL    HW139302   0.549   3.139   2.904 -3.0738 -2.9454 -0.1751
 9223SOL    HW239303   0.409   3.144   2.955  0.0102  0.4960  0.7503
 9224SOL     OW39304   1.176   2.427   4.284 -0.1634 -0.0367 -0.2447
 9224SOL    HW139305   1.216   2.348   4.319  0.3165  0.6580  0.7735
 9224SOL    HW239306   1.175   2.483   4.361  0.2307 -1.5264  0.8276
 9225SOL     OW39307   0.915   0.228  14.058  0.6070 -0.1507  0.3448
 9225SOL    HW139308   0.844   0.168  14.032  1.4486  0.2412 -2.8586
 9225SOL    HW239309   0.977   0.216  13.986  0.1238  1.2416 -0.2974
 9226SOL     OW39310   0.368   3.037   8.696 -0.0399 -0.2607 -0.3058
 9226SOL    HW139311   0.355   3.062   8.605  0.6675 -0.8088 -0.5563
 9226SOL    HW239312   0.357   3.123   8.737 -1.5780 -0.3301 -0.5698
 9227SOL     OW39313   1.815   0.002  16.982 -0.7066 -0.5028  0.1498
 9227SOL    HW139314   1.806   4.650  17.009 -0.6691 -0.0293  1.7093
 9227SOL    HW239315   1.904   0.009  16.948 -1.2513 -2.3876 -1.6895
 9228SOL     OW39316   4.029   4.471  15.453 -0.1467  0.0783  0.0180
 9228SOL    HW139317   3.963   4.497  15.517  0.8027 -0.4159  1.1943
 9228SOL    HW239318   4.101   4.533  15.463  0.9393 -1.5794  2.6256
 9229SOL     OW39319   0.492   2.669   3.468  0.1328  0.3381  0.6875
 9229SOL    HW139320   0.411   2.618   3.455 -0.8117  1.8065  0.7601
 9229SOL    HW239321   0.563   2.613   3.439 -0.5659 -0.0838 -0.1833
 9230SOL     OW39322   2.644   1.296   7.182 -1.0438  0.1496  0.1876
 9230SOL    HW139323   2.655   1.251   7.098  0.6598  0.3591  0.2858
 9230SOL    HW239324   2.670   1.385   7.157 -1.9093  0.2755 -0.2279
 9231SOL     OW39325   1.855   1.801  12.917  0.1902 -0.0221  0.2183
 9231SOL    HW139326   1.822   1.854  12.845 -0.0112 -1.2884 -0.6302
 9231SOL    HW239327   1.948   1.788  12.899  0.0659 -1.1340  0.3705
 9232SOL     OW39328   3.965   2.285   5.243  0.4566  0.0623 -0.1861
 9232SOL    HW139329   4.027   2.234   5.295  2.4841  1.6998 -0.9974
 9232SOL    HW239330   4.010   2.290   5.159 -2.2556 -0.6674 -1.7031
 9233SOL     OW39331   1.866   0.868  16.512  0.2386 -0.2061  0.1013
 9233SOL    HW139332   1.911   0.784  16.511  1.5594  0.4639  1.3529
 9233SOL    HW239333   1.948   0.913  16.488 -1.0088  2.6532  1.1590
 9234SOL     OW39334   1.207   4.389   3.499  0.3195  0.1708  0.1186
 9234SOL    HW139335   1.202   4.294   3.499 -2.4252  0.3060  0.3925
 9234SOL    HW239336   1.113   4.406   3.508  0.2126 -0.0107 -0.7080
 9235SOL     OW39337   2.040   2.204   4.401 -0.0927  0.2901  0.0275
 9235SOL    HW139338   2.107   2.139   4.379 -1.5052 -1.9439  2.4041
 9235SOL    HW239339   2.076   2.289   4.375 -0.7448  1.0810  1.7368
 9236SOL     OW39340   3.529   2.939   9.416 -0.0382  0.0597  0.1321
 9236SOL    HW139341   3.534   3.028   9.451  1.1826  0.9616 -2.3613
 9236SOL    HW239342   3.613   2.901   9.442  0.1207 -1.4872 -2.6554
 9237SOL     OW39343   2.779   1.118   7.376  0.1131  0.1991 -0.6119
 9237SOL    HW139344   2.740   1.183   7.317 -2.4370 -1.5886 -0.8879
 9237SOL    HW239345   2.832   1.182   7.424  0.7228  1.1869 -2.6024
 9238SOL     OW39346   2.640   2.887   7.236  0.9404  0.1504 -0.0866
 9238SOL    HW139347   2.582   2.953   7.276  0.2841  0.3664 -1.3738
 9238SOL    HW239348   2.722   2.903   7.282  1.2605 -1.6477 -0.0246
 9239SOL     OW39349   0.556   1.226  13.028  0.2349 -0.1220 -0.2133
 9239SOL    HW139350   0.510   1.310  13.030  1.1917  0.3897  0.4568
 9239SOL    HW239351   0.630   1.241  13.087  0.8792  0.5565 -1.1958
 9240SOL     OW39352   0.006   4.266  14.329 -0.0231  0.2447 -0.1253
 9240SOL    HW139353   4.719   4.273  14.237 -3.3564  0.0139  0.8031
 9240SOL    HW239354   0.072   4.334  14.344  2.8716 -3.2228  3.0338
 9241SOL     OW39355   1.481   1.278   1.615  0.5675 -0.2319 -0.3703
 9241SOL    HW139356   1.480   1.187   1.644 -2.5893 -0.5691 -1.5787
 9241SOL    HW239357   1.500   1.258   1.523 -2.3981 -1.0624 -0.8005
 9242SOL     OW39358   3.017   4.621   4.755 -0.0914 -0.5990  0.8278
 9242SOL    HW139359   2.977   4.587   4.675 -1.4331  0.4060  1.0862
 9242SOL    HW239360   3.045   4.710   4.731 -3.8409 -0.0872 -1.6211
 9243SOL     OW39361   1.032   3.642   8.380  0.4948  0.1079 -0.1411
 9243SOL    HW139362   1.041   3.731   8.414 -2.2740  0.2908  0.1044
 9243SOL    HW239363   1.101   3.608   8.437 -0.4882  1.3219  1.7524
 9244SOL     OW39364   3.110   3.193   2.642  0.0077 -0.5986 -0.0206
 9244SOL    HW139365   3.186   3.221   2.694  0.0440 -0.4718 -0.1431
 9244SOL    HW239366   3.044   3.195   2.711  0.5798 -0.5822  0.5226
 9245SOL     OW39367   1.948   4.548   1.753 -0.0266  0.2073 -0.4733
 9245SOL    HW139368   1.955   4.636   1.791 -1.3591 -0.0433  0.3710
 9245SOL    HW239369   1.898   4.565   1.674 -0.9903  0.3597  0.1618
 9246SOL     OW39370   3.296   2.411   1.651  0.1127  0.6114  0.4114
 9246SOL    HW139371   3.348   2.437   1.727  0.3883  0.9712  0.1007
 9246SOL    HW239372   3.212   2.457   1.666  1.5152  2.7553  1.7628
 9247SOL     OW39373   0.639   0.032   2.468 -0.1659  0.1218 -0.5246
 9247SOL    HW139374   0.650   0.010   2.560  2.8762 -0.3627 -0.9927
 9247SOL    HW239375   0.632   4.685   2.426 -0.4419 -0.0155 -0.1888
 9248SOL     OW39376   0.954   0.830   8.473  0.2877 -0.0955  0.0052
 9248SOL    HW139377   1.029   0.886   8.491  0.9266 -1.9627  3.1707
 9248SOL    HW239378   0.895   0.890   8.427 -1.0980 -0.4307  1.3053
 9249SOL     OW39379   3.704   3.657  12.867 -0.6667  0.2904  0.3757
 9249SOL    HW139380   3.709   3.731  12.928 -1.6525  0.0304  0.7670
 9249SOL    HW239381   3.723   3.697  12.782 -2.8209  1.9746  0.6671
 9250SOL     OW39382   2.579   4.113   5.725  0.4010 -0.5846 -0.5621
 9250SOL    HW139383   2.571   4.076   5.637  0.7729 -0.3578 -0.6887
 9250SOL    HW239384   2.653   4.172   5.720 -0.1415 -0.0323 -1.9645
 9251SOL     OW39385   2.301   3.705   2.182 -0.1905 -0.1399 -0.5994
 9251SOL    HW139386   2.267   3.787   2.147 -1.4082  0.0358  1.0152
 9251SOL    HW239387   2.224   3.674   2.230  0.3879  0.7365  0.9090
 9252SOL     OW39388   2.173   0.328  11.494 -0.2477  0.0769  0.0679
 9252SOL    HW139389   2.193   0.245  11.539  0.0634  1.2868  2.1318
 9252SOL    HW239390   2.087   0.305  11.458 -0.5844 -0.0848  0.9820
 9253SOL     OW39391   4.495   1.563   2.395  0.4170 -0.0534 -0.2322
 9253SOL    HW139392   4.513   1.495   2.460  1.0462 -1.7234 -2.1480
 9253SOL    HW239393   4.526   1.643   2.436  2.9366 -1.3097  0.2805
 9254SOL     OW39394   1.351   3.513   8.868 -0.2701 -0.3551  0.1695
 9254SOL    HW139395   1.315   3.594   8.905 -0.4258 -0.0329 -0.6877
 9254SOL    HW239396   1.278   3.451   8.870 -1.8629  1.4429 -2.2795
 9255SOL     OW39397   3.469   2.259  11.771 -0.1163 -0.5849  0.1289
 9255SOL    HW139398   3.414   2.315  11.825 -1.4356  0.4326 -2.2766
 9255SOL    HW239399   3.548   2.246  11.825 -0.2725  1.4564  0.8484
 9256SOL     OW39400   2.640   2.416   4.438  0.1600  0.0364  0.1006
 9256SOL    HW139401   2.575   2.392   4.504 -2.6173  0.6820 -2.3719
 9256SOL    HW239402   2.596   2.388   4.358 -0.8424  1.7528  0.0440
 9257SOL     OW39403   2.595   4.355   4.733 -0.0968 -0.0157 -0.5942
 9257SOL    HW139404   2.639   4.424   4.684 -0.6412 -0.4742 -1.7226
 9257SOL    HW239405   2.502   4.374   4.718  0.1863 -0.1309 -2.4228
 9258SOL     OW39406   4.344   2.700   9.513 -0.1545  0.1316  0.1296
 9258SOL    HW139407   4.262   2.741   9.544  0.2294 -0.2823  1.6895
 9258SOL    HW239408   4.400   2.757   9.566 -0.8068  1.8615 -1.0206
 9259SOL     OW39409   3.969   3.299   6.579 -0.8643  0.2044 -0.3064
 9259SOL    HW139410   3.915   3.222   6.559 -0.3730 -0.1002 -0.4880
 9259SOL    HW239411   4.010   3.298   6.492  0.7557  3.8813  0.4077
 9260SOL     OW39412   3.837   4.431   6.427  0.2806  0.4669 -0.1097
 9260SOL    HW139413   3.779   4.377   6.481  1.2587 -2.4102 -1.9399
 9260SOL    HW239414   3.892   4.454   6.502 -1.7269  0.7731  1.2559
 9261SOL     OW39415   0.705   1.611   3.073 -0.4516 -0.3740  0.0208
 9261SOL    HW139416   0.688   1.667   2.998 -1.2747 -1.6924 -0.7730
 9261SOL    HW239417   0.782   1.561   3.044  1.4210  1.7032  1.4177
 9262SOL     OW39418   4.364   1.756   2.612  0.2522  0.0809  0.1695
 9262SOL    HW139419   4.459   1.766   2.599 -0.3937  0.6635 -3.9030
 9262SOL    HW239420   4.334   1.760   2.522 -0.2539 -0.6046  0.3064
 9263SOL     OW39421   1.309   1.500  12.211  0.1427  0.1603  0.2042
 9263SOL    HW139422   1.358   1.549  12.276 -1.4998  0.6521  1.0671
 9263SOL    HW239423   1.381   1.445  12.180 -0.5239 -0.5616 -0.0700
 9264SOL     OW39424   4.386   1.559  13.231  0.4499  0.1910  0.1250
 9264SOL    HW139425   4.343   1.644  13.215  1.6962  0.9148  0.5911
 9264SOL    HW239426   4.453   1.588  13.293  2.5360 -1.6267 -1.2794
 9265SOL     OW39427   3.254   1.363   5.008 -0.2151  0.1474  0.0433
 9265SOL    HW139428   3.296   1.282   5.037 -2.0820 -1.2658 -1.2006
 9265SOL    HW239429   3.278   1.370   4.916  1.9502  2.3328  0.7729
 9266SOL     OW39430   1.557   1.096   4.212 -0.0458  0.6183 -0.4696
 9266SOL    HW139431   1.496   1.161   4.178  0.0508  1.3315  0.7057
 9266SOL    HW239432   1.488   1.037   4.243 -0.1711  0.2382 -1.4904
 9267SOL     OW39433   3.072   3.882  11.965  0.8439  0.4732 -0.1223
 9267SOL    HW139434   3.061   3.809  12.026 -1.1460  0.8376 -0.0398
 9267SOL    HW239435   2.981   3.907  11.945  0.4556 -2.0926 -1.5210
 9268SOL     OW39436   4.287   2.285   4.879 -0.3761  0.1498 -0.3402
 9268SOL    HW139437   4.336   2.204   4.893  0.2926  0.6277  0.0942
 9268SOL    HW239438   4.211   2.267   4.934 -1.6940 -0.3279 -2.3508
 9269SOL     OW39439   1.922   1.540   3.672 -0.0204 -0.1038  0.0975
 9269SOL    HW139440   1.892   1.618   3.625 -0.5587 -1.2746 -1.5014
 9269SOL    HW239441   2.014   1.565   3.682 -0.5487  1.8198  0.1710
 9270SOL     OW39442   3.989   1.450   3.896  0.6613 -0.1139 -0.0211
 9270SOL    HW139443   3.924   1.397   3.850  0.8174 -0.5816  0.2904
 9270SOL    HW239444   3.985   1.421   3.987  1.0504 -0.8929 -0.2580
 9271SOL     OW39445   2.430   1.635   1.909  0.0478 -0.0800 -0.2172
 9271SOL    HW139446   2.511   1.684   1.921 -1.4436  2.0395  1.3262
 9271SOL    HW239447   2.386   1.651   1.993  0.5280  0.2934 -0.0357
 9272SOL     OW39448   2.659   2.906  16.730 -0.3563 -0.3883 -0.2067
 9272SOL    HW139449   2.567   2.932  16.731 -0.7344 -1.6941 -1.4666
 9272SOL    HW239450   2.653   2.817  16.696 -0.3240 -1.1361  1.7323
 9273SOL     OW39451   4.618   1.159   6.229 -0.3659 -0.4929  0.1155
 9273SOL    HW139452   4.540   1.211   6.251  1.5189  0.9120  3.5499
 9273SOL    HW239453   4.593   1.067   6.225  0.8800 -0.9313  2.2507
 9274SOL     OW39454   4.149   1.804   6.327  0.4102 -0.0276  0.7147
 9274SOL    HW139455   4.113   1.867   6.265 -0.6010 -1.1341  0.1933
 9274SOL    HW239456   4.163   1.854   6.408  2.6963  0.5524 -0.0535
 9275SOL     OW39457   3.833   4.641   7.649  0.0403  0.0371 -0.0411
 9275SOL    HW139458   3.792   4.714   7.602 -0.6412  0.6387  1.4630
 9275SOL    HW239459   3.818   4.677   7.737  1.8766  2.3695 -0.6717
 9276SOL     OW39460   1.126   2.043  11.796  0.6406  0.3764 -0.2511
 9276SOL    HW139461   1.170   2.007  11.872 -0.3106  2.0409  1.0946
 9276SOL    HW239462   1.116   2.137  11.814  0.1392  0.2285  0.2388
 9277SOL     OW39463   1.594   1.391   6.076  0.2250  0.2535 -0.2020
 9277SOL    HW139464   1.584   1.486   6.084  1.9349  0.4947 -0.7825
 9277SOL    HW239465   1.678   1.388   6.029 -0.0315  0.1349 -0.6489
 9278SOL     OW39466   4.497   4.587   9.137  0.0820 -0.3463 -0.3886
 9278SOL    HW139467   4.443   4.664   9.117 -0.7887 -0.7473  0.4532
 9278SOL    HW239468   4.423   4.533   9.163 -0.5100 -0.3249 -1.9952
 9279SOL     OW39469   2.853   3.195   3.382 -0.0978  0.0266 -0.0509
 9279SOL    HW139470   2.848   3.123   3.319  1.9945  0.0738 -0.2844
 9279SOL    HW239471   2.805   3.266   3.340 -0.3753 -0.4151 -0.4809
 9280SOL     OW39472   2.617   3.661   6.094 -0.9534  0.1479 -0.1050
 9280SOL    HW139473   2.592   3.586   6.148 -1.2062  0.0205 -0.4022
 9280SOL    HW239474   2.636   3.612   6.014 -2.8048  0.0200 -0.4509
 9281SOL     OW39475   3.131   4.566  16.526 -0.0596 -0.1171 -0.0206
 9281SOL    HW139476   3.065   4.502  16.552 -1.2652  1.0747 -0.1535
 9281SOL    HW239477   3.200   4.514  16.484  1.3117 -0.6857  2.9230
 9282SOL     OW39478   2.463   1.494  10.877 -0.5208  0.4293 -0.2394
 9282SOL    HW139479   2.463   1.398  10.872 -1.9483  0.5266 -2.3434
 9282SOL    HW239480   2.558   1.507  10.877 -0.6066  1.0264 -0.1429
 9283SOL     OW39481   4.432   4.110   8.751  0.3808  0.2081 -0.3364
 9283SOL    HW139482   4.347   4.132   8.715 -0.7839  0.7795  2.7829
 9283SOL    HW239483   4.408   4.065   8.832  2.4180  1.1624  0.8019
 9284SOL     OW39484   1.074   2.008   4.163  0.0010  0.1472  0.1685
 9284SOL    HW139485   0.996   1.957   4.183 -1.9389  2.5431 -1.2387
 9284SOL    HW239486   1.058   2.084   4.219  0.2295  0.9313 -0.8361
 9285SOL     OW39487   2.695   4.669   9.973 -0.2319  0.2711 -0.0423
 9285SOL    HW139488   2.686   4.702   9.884 -1.1399 -0.3171 -0.1723
 9285SOL    HW239489   2.776   4.712   9.999 -1.3033  2.2833 -0.0450
 9286SOL     OW39490   4.642   4.166   6.045 -0.4012  0.2364  0.9161
 9286SOL    HW139491   4.668   4.135   5.959  2.3326  2.1847  1.0076
 9286SOL    HW239492   4.722   4.195   6.089 -0.1703 -0.0037  0.6483
 9287SOL     OW39493   3.117   3.162  12.328  0.0496  0.4421 -0.5763
 9287SOL    HW139494   3.033   3.195  12.295 -0.8981  1.0836  2.5543
 9287SOL    HW239495   3.092   3.071  12.344 -2.4746  1.3886  0.8093
 9288SOL     OW39496   2.547   0.742   6.081  0.1272 -0.6098  0.2422
 9288SOL    HW139497   2.537   0.837   6.090 -1.7069 -0.9150  1.2747
 9288SOL    HW239498   2.457   0.712   6.090  0.1403 -0.9060 -0.6152
 9289SOL     OW39499   2.518   1.455   7.540  0.5518 -0.2805 -0.0952
 9289SOL    HW139500   2.467   1.373   7.536  2.1314 -1.3379  1.4288
 9289SOL    HW239501   2.472   1.514   7.599 -0.6895 -0.5804 -0.7617
 9290SOL     OW39502   3.369   3.585  10.579 -0.4011  0.4063  0.3380
 9290SOL    HW139503   3.396   3.567  10.488  3.8305  1.6982  1.3249
 9290SOL    HW239504   3.352   3.501  10.622 -1.3526  1.3323  1.7450
 9291SOL     OW39505   3.371   4.255   6.218  0.5507 -0.7721 -0.4825
 9291SOL    HW139506   3.320   4.176   6.203 -1.4310 -0.1750  3.0264
 9291SOL    HW239507   3.438   4.223   6.279  1.4154 -0.0917 -1.0723
 9292SOL     OW39508   0.451   2.117   7.245  0.9033 -0.2695  0.1750
 9292SOL    HW139509   0.459   2.041   7.186  0.9818 -0.3515  0.2915
 9292SOL    HW239510   0.386   2.076   7.302  0.0693 -1.7360 -1.8185
 9293SOL     OW39511   1.744   3.678   5.157  0.0223  0.5537 -0.2921
 9293SOL    HW139512   1.783   3.753   5.201 -2.2931  1.0524  0.8762
 9293SOL    HW239513   1.675   3.718   5.104 -2.1042 -0.9961  1.3184
 9294SOL     OW39514   0.429   1.470   6.479  0.0994  0.7513  0.2298
 9294SOL    HW139515   0.507   1.524   6.473  2.1185 -2.2635 -0.7406
 9294SOL    HW239516   0.448   1.423   6.561  2.0423  0.9350 -0.1140
 9295SOL     OW39517   0.539   4.497  17.590  0.2957  0.4009 -0.0842
 9295SOL    HW139518   0.533   4.540  17.505  0.2062 -1.3431 -0.9684
 9295SOL    HW239519   0.546   4.404  17.567 -1.1702 -0.4816  3.0317
 9296SOL     OW39520   3.347   4.511   6.365  0.4975  0.2205  0.0817
 9296SOL    HW139521   3.363   4.423   6.331  2.3184  0.7893 -0.5533
 9296SOL    HW239522   3.368   4.501   6.458 -1.3878 -0.4795  0.4329
 9297SOL     OW39523   4.108   0.420   1.244 -0.0599 -0.2265  0.1760
 9297SOL    HW139524   4.030   0.365   1.243 -0.7857  0.7823  1.7915
 9297SOL    HW239525   4.152   0.382   1.168  0.9368  0.9374  0.1562
 9298SOL     OW39526   2.257   0.461   1.823  0.3924 -0.3854  0.4530
 9298SOL    HW139527   2.310   0.540   1.814  1.5241 -1.1005  0.8808
 9298SOL    HW239528   2.294   0.411   1.750 -1.1890 -1.1024  0.1357
 9299SOL     OW39529   4.392   1.347   1.273 -0.3758  0.4259 -0.5211
 9299SOL    HW139530   4.480   1.371   1.244 -0.1762  0.7426  0.3486
 9299SOL    HW239531   4.411   1.260   1.309  0.7496 -0.8692 -4.1829
 9300SOL     OW39532   1.304   2.432   5.539 -0.1116 -0.0733 -0.2706
 9300SOL    HW139533   1.222   2.393   5.510  0.2648 -1.8380  1.0164
 9300SOL    HW239534   1.349   2.451   5.457  1.8170  2.1740  1.2935
 9301SOL     OW39535   0.804   3.959   3.683  0.4820  0.0958 -0.0206
 9301SOL    HW139536   0.838   3.895   3.621  0.5475  0.5151 -0.4192
 9301SOL    HW239537   0.861   4.036   3.681 -0.0391  0.5792  3.5855
 9302SOL     OW39538   0.857   2.739   9.447  0.4065  0.8959 -0.0212
 9302SOL    HW139539   0.842   2.796   9.522 -0.6904 -0.9214  1.1312
 9302SOL    HW239540   0.893   2.665   9.496  0.2533  1.5720  1.0941
 9303SOL     OW39541   0.633   2.813   2.317 -0.7577  0.1241 -0.5104
 9303SOL    HW139542   0.667   2.898   2.288 -0.9594  1.1174  2.1890
 9303SOL    HW239543   0.593   2.789   2.233 -0.8378 -0.7530 -0.2163
 9304SOL     OW39544   3.007   0.890   5.699  0.4096  0.4745  0.0744
 9304SOL    HW139545   2.916   0.918   5.705 -0.2625 -2.0029  1.5761
 9304SOL    HW239546   3.055   0.967   5.730  1.9989 -1.0431  1.4193
 9305SOL     OW39547   2.687   4.578   6.749 -0.2113 -0.1501 -0.0531
 9305SOL    HW139548   2.707   4.580   6.843  0.9563 -2.1884 -0.2533
 9305SOL    HW239549   2.595   4.553   6.741 -1.0786  2.9408  0.2006
 9306SOL     OW39550   2.444   1.818   8.544  0.3475  0.5153  0.3975
 9306SOL    HW139551   2.513   1.753   8.560 -1.0463 -1.2493 -0.7546
 9306SOL    HW239552   2.506   1.869   8.493 -0.0972  1.0307  0.3797
 9307SOL     OW39553   2.500   0.288   0.709  0.0007  0.6896  0.3047
 9307SOL    HW139554   2.493   0.365   0.653 -1.4873 -0.9059 -1.7509
 9307SOL    HW239555   2.489   0.218   0.644 -0.7688  1.5565 -0.4922
 9308SOL     OW39556   2.891   2.901  10.475  0.0241 -0.0364  0.2755
 9308SOL    HW139557   2.890   2.990  10.510  1.5634  0.4222 -0.8428
 9308SOL    HW239558   2.816   2.909  10.415  0.2396 -1.3587 -0.1634
 9309SOL     OW39559   1.125   4.701  16.089  0.2202 -0.0396  0.2803
 9309SOL    HW139560   1.159   4.645  16.159  0.4437 -0.1874  0.0545
 9309SOL    HW239561   1.201   4.724  16.035  0.2452  1.1463  0.8314
 9310SOL     OW39562   1.073   1.204  16.971 -0.5119  0.5470  0.2251
 9310SOL    HW139563   0.982   1.221  16.995 -0.3231  2.1704 -0.2128
 9310SOL    HW239564   1.068   1.235  16.881  0.9383  1.7032  0.5355
 9311SOL     OW39565   3.901   4.714   2.491  0.2586 -0.3775  0.0468
 9311SOL    HW139566   3.996   4.711   2.480 -0.2064 -1.1267 -3.4885
 9311SOL    HW239567   3.861   4.699   2.406  1.7683 -0.2562 -0.6792
 9312SOL     OW39568   0.759   0.977   2.757 -0.0480  0.0701  0.9966
 9312SOL    HW139569   0.757   0.925   2.677 -0.9609  0.5393  0.7177
 9312SOL    HW239570   0.809   0.920   2.816 -2.1482 -2.0274  0.7910
 9313SOL     OW39571   4.601   0.547  14.827 -0.0636 -0.6546 -0.3687
 9313SOL    HW139572   4.545   0.624  14.820  2.0645  0.6074 -3.6517
 9313SOL    HW239573   4.541   0.480  14.858 -1.7713 -0.3375 -3.0568
 9314SOL     OW39574   1.298   2.246  14.867  0.2371  0.7914  0.4610
 9314SOL    HW139575   1.228   2.198  14.911  1.2753  0.1585  1.4127
 9314SOL    HW239576   1.354   2.172  14.842 -1.1426 -0.5459  1.3560
 9315SOL     OW39577   4.026   2.572   3.387 -0.0588  0.5027  0.8328
 9315SOL    HW139578   3.977   2.632   3.444 -0.2055  0.8362  0.3558
 9315SOL    HW239579   4.118   2.592   3.399 -0.2147  2.5259 -1.3827
 9316SOL     OW39580   2.652   4.719  12.506 -0.1738  0.0396 -0.4213
 9316SOL    HW139581   2.723   0.035  12.472  1.8412 -1.3685  1.4924
 9316SOL    HW239582   2.693   4.634  12.521 -3.4166 -1.6533 -1.3168
 9317SOL     OW39583   4.020   1.144  14.432 -0.2699 -0.0696  0.1486
 9317SOL    HW139584   4.101   1.158  14.383  0.9832 -1.1738  1.8891
 9317SOL    HW239585   3.975   1.109  14.356  0.4037 -1.6410  0.4646
 9318SOL     OW39586   3.903   1.906   1.516 -0.2683  0.2656 -1.1292
 9318SOL    HW139587   3.958   1.868   1.448 -1.2246  0.7658 -2.1697
 9318SOL    HW239588   3.821   1.857   1.506  1.1979 -2.2846 -0.6503
 9319SOL     OW39589   4.239   3.064  17.479  0.1154  0.6030  0.3529
 9319SOL    HW139590   4.225   3.082  17.572 -0.2965  0.5380  0.3006
 9319SOL    HW239591   4.161   3.016  17.454  1.8835 -1.3776 -1.3714
 9320SOL     OW39592   0.578   1.571  11.811  0.5858 -0.1309  0.3192
 9320SOL    HW139593   0.550   1.652  11.769 -0.0620 -0.0664  0.8768
 9320SOL    HW239594   0.524   1.570  11.890 -0.4680  2.2279 -0.3647
 9321SOL     OW39595   2.631   3.997   2.160 -0.2481 -0.3482  0.4321
 9321SOL    HW139596   2.708   4.053   2.160 -0.6273  0.1866  2.0315
 9321SOL    HW239597   2.607   3.995   2.067  1.5623 -0.4234 -0.0224
 9322SOL     OW39598   1.046   0.818  12.693 -0.1707  0.0809  0.4686
 9322SOL    HW139599   1.101   0.743  12.671 -0.6473 -0.3475  0.7120
 9322SOL    HW239600   1.110   0.851  12.755 -0.3036 -1.8514  1.6441
 9323SOL     OW39601   3.590   2.786   3.079  0.0279  0.2082 -0.1084
 9323SOL    HW139602   3.652   2.717   3.058 -0.9224 -0.3354 -1.1105
 9323SOL    HW239603   3.523   2.782   3.011 -0.1288  1.4865 -0.0283
 9324SOL     OW39604   0.927   3.577  11.479  0.1146 -0.3408  0.3419
 9324SOL    HW139605   0.881   3.544  11.556 -2.0676 -0.9326 -1.2353
 9324SOL    HW239606   0.889   3.665  11.473 -0.6886 -0.7416 -0.3501
 9325SOL     OW39607   2.810   2.905   9.812  0.5876  0.3980 -0.2721
 9325SOL    HW139608   2.751   2.978   9.829  0.9152  0.0775  2.2800
 9325SOL    HW239609   2.872   2.951   9.755 -1.2760  1.3001 -1.5480
 9326SOL     OW39610   2.889   2.871   3.749 -0.9053  0.0637 -0.1066
 9326SOL    HW139611   2.900   2.777   3.755 -1.7819  0.0998  2.0268
 9326SOL    HW239612   2.925   2.898   3.665 -2.0251 -0.9470 -0.9140
 9327SOL     OW39613   2.003   2.501   7.326 -0.6738  0.8026  0.2250
 9327SOL    HW139614   2.026   2.581   7.373 -0.7891  0.5142  0.7724
 9327SOL    HW239615   2.086   2.470   7.288 -1.4938  1.7862 -2.3628
 9328SOL     OW39616   1.200   3.229   9.554  0.2678  0.4162 -0.4233
 9328SOL    HW139617   1.218   3.235   9.648  0.2930  0.3968 -0.4268
 9328SOL    HW239618   1.196   3.134   9.538 -3.5130  0.5871 -0.2586
 9329SOL     OW39619   2.810   2.760   6.034 -0.4719 -0.3230 -0.3084
 9329SOL    HW139620   2.839   2.674   6.062 -0.8593 -0.1222  0.7112
 9329SOL    HW239621   2.772   2.741   5.948 -1.2343  0.6874 -0.2033
 9330SOL     OW39622   1.762   3.070   2.383 -0.0409  0.0217 -0.0895
 9330SOL    HW139623   1.725   3.144   2.336  2.3896  1.6492  0.5506
 9330SOL    HW239624   1.749   3.003   2.315  0.7633  0.5707 -0.7879
 9331SOL     OW39625   1.428   2.136   6.223  0.0297  0.2072  0.3868
 9331SOL    HW139626   1.452   2.171   6.137  1.6888  0.4197  0.9351
 9331SOL    HW239627   1.339   2.162   6.245 -0.3766 -0.7295 -0.1615
 9332SOL     OW39628   0.483   2.960   0.068 -0.1412  0.6934 -0.3522
 9332SOL    HW139629   0.472   3.024  17.751 -0.9372  0.7761 -0.1562
 9332SOL    HW239630   0.530   2.902   0.008  0.8034 -0.3696  1.4263
 9333SOL     OW39631   3.558   2.233   5.591 -0.3218 -0.2467  0.7049
 9333SOL    HW139632   3.477   2.282   5.607  0.8115  2.3398 -1.4504
 9333SOL    HW239633   3.594   2.273   5.511 -0.5856 -1.3014  0.0644
 9334SOL     OW39634   0.326   1.924  12.566 -0.2195  0.3278 -0.5775
 9334SOL    HW139635   0.245   1.960  12.604 -0.5055 -0.0811 -0.7964
 9334SOL    HW239636   0.288   1.836  12.571  0.6480  0.0164  0.3592
 9335SOL     OW39637   4.143   0.791   3.230  0.0869 -0.1654 -0.7096
 9335SOL    HW139638   4.197   0.857   3.186 -0.6636  0.8516 -0.1138
 9335SOL    HW239639   4.056   0.828   3.213  0.0848  1.8488  3.6601
 9336SOL     OW39640   1.161   4.706   5.322  0.1955 -0.4463 -0.6723
 9336SOL    HW139641   1.084   4.696   5.378  0.7293 -0.3574  0.0796
 9336SOL    HW239642   1.224   4.739   5.386 -0.3040  1.0048 -0.9225
 9337SOL     OW39643   4.667   2.289   3.533  0.5786  0.3044  0.0837
 9337SOL    HW139644   4.660   2.351   3.460  2.1031  1.5153  0.9535
 9337SOL    HW239645   4.730   2.228   3.495 -1.0619 -1.0955 -0.3925
 9338SOL     OW39646   1.405   0.252   5.746  0.2197  0.0766  0.5419
 9338SOL    HW139647   1.330   0.199   5.774  0.6947 -1.3221 -0.8096
 9338SOL    HW239648   1.418   0.313   5.819 -3.5668  1.7797 -0.2206
 9339SOL     OW39649   1.331   0.909   8.678  0.0308 -0.4850  0.6080
 9339SOL    HW139650   1.292   0.833   8.636 -1.4765  0.6070  0.0537
 9339SOL    HW239651   1.277   0.977   8.639  1.0875  0.6506  1.1175
 9340SOL     OW39652   3.445   1.734  10.902 -0.2445 -0.3423 -0.2794
 9340SOL    HW139653   3.476   1.645  10.915  1.1148  0.5173  2.2325
 9340SOL    HW239654   3.484   1.767  10.982  0.2016  1.1375 -1.1115
 9341SOL     OW39655   2.749   2.822   9.386 -0.0833  0.1090  0.0482
 9341SOL    HW139656   2.746   2.793   9.478  0.3296 -0.9024 -0.2542
 9341SOL    HW239657   2.785   2.911   9.392 -1.1342  0.6769 -2.2944
 9342SOL     OW39658   1.705   1.877   5.260  0.4220 -0.3809  0.3399
 9342SOL    HW139659   1.767   1.908   5.326 -0.6190  0.3449  0.9783
 9342SOL    HW239660   1.637   1.833   5.311  0.3077 -0.9245 -0.2904
 9343SOL     OW39661   2.805   0.265   0.499 -0.5243  0.4576 -0.4065
 9343SOL    HW139662   2.754   0.245   0.421 -0.9832  0.0155  0.0036
 9343SOL    HW239663   2.798   0.360   0.508  0.9957  0.6231 -0.9613
 9344SOL     OW39664   3.234   0.631  15.961 -0.4890 -0.2979 -0.0840
 9344SOL    HW139665   3.175   0.555  15.960 -1.9274  0.8350 -2.5487
 9344SOL    HW239666   3.308   0.596  16.010  0.6128  0.5934 -1.1073
 9345SOL     OW39667   1.545   2.833   1.627  0.3191 -0.1108  0.6101
 9345SOL    HW139668   1.641   2.827   1.629  0.3103 -0.8458 -1.5446
 9345SOL    HW239669   1.512   2.920   1.606 -1.5421 -0.6001  1.5693
 9346SOL     OW39670   2.833   2.385   2.410  0.3940 -0.6465 -0.2891
 9346SOL    HW139671   2.810   2.303   2.367  1.4217 -0.5089 -1.1017
 9346SOL    HW239672   2.856   2.439   2.334  3.9987  0.9905  1.9268
 9347SOL     OW39673   1.690   4.216   7.407  0.2714  0.0208 -0.4475
 9347SOL    HW139674   1.598   4.202   7.428  0.5477  1.0583  1.4497
 9347SOL    HW239675   1.714   4.139   7.354  0.5436 -1.3015  1.5897
 9348SOL     OW39676   4.533   3.190  13.198  0.0785  0.5629  0.1343
 9348SOL    HW139677   4.625   3.196  13.172 -0.2683 -0.0015 -1.1826
 9348SOL    HW239678   4.511   3.097  13.201  0.5028  0.4488 -0.3694
 9349SOL     OW39679   3.890   2.824  14.436  0.1167  0.4562  0.3278
 9349SOL    HW139680   3.845   2.879  14.372  1.4390  0.9245 -0.2051
 9349SOL    HW239681   3.981   2.853  14.434  0.3692 -0.3350  0.6277
 9350SOL     OW39682   2.421   2.085   5.424 -0.1938 -0.5582  0.6340
 9350SOL    HW139683   2.393   2.045   5.506  0.4889 -1.8531  0.2468
 9350SOL    HW239684   2.333   2.099   5.388  0.8693  0.0646 -1.7393
 9351SOL     OW39685   3.637   1.805  14.670 -0.0153  0.3346 -0.1129
 9351SOL    HW139686   3.585   1.873  14.712 -1.3299 -1.0125  0.3849
 9351SOL    HW239687   3.708   1.843  14.722 -0.4513  0.9314  0.0407
 9352SOL     OW39688   3.510   2.988   1.780 -0.0159 -0.3696 -0.4548
 9352SOL    HW139689   3.456   2.943   1.846 -0.1250  0.1981 -0.1538
 9352SOL    HW239690   3.587   2.932   1.783  0.1181 -0.2691 -2.5209
 9353SOL     OW39691   0.930   4.385  12.288 -0.3205  0.0967  0.1517
 9353SOL    HW139692   0.874   4.422  12.219 -0.2139 -0.1856 -0.0849
 9353SOL    HW239693   0.977   4.463  12.318  0.4706 -0.7252  1.0369
 9354SOL     OW39694   2.939   3.252  14.105 -0.3780 -0.8954  0.4077
 9354SOL    HW139695   2.900   3.310  14.171 -0.3284  1.2338 -1.4145
 9354SOL    HW239696   2.878   3.244  14.032  0.4487  0.3943 -0.4305
 9355SOL     OW39697   1.019   1.560   9.077  0.0142 -0.3906 -0.0036
 9355SOL    HW139698   1.082   1.493   9.049 -0.4910 -0.7048 -0.4004
 9355SOL    HW239699   0.934   1.515   9.081 -1.1045  1.7177 -0.0955
 9356SOL     OW39700   1.824   0.983   1.877  0.0421 -0.2746  0.8333
 9356SOL    HW139701   1.856   0.927   1.807 -1.2406  2.5590 -1.9977
 9356SOL    HW239702   1.808   0.927   1.954 -2.5914  0.4599  0.8221
 9357SOL     OW39703   1.908   1.840  17.661  0.1007  0.0273 -0.1705
 9357SOL    HW139704   1.909   1.930  17.629  1.2684 -0.1702 -0.7085
 9357SOL    HW239705   1.918   1.799  17.575  0.8924  1.8049 -0.9253
 9358SOL     OW39706   3.372   0.132   6.123  0.4083  0.1563  0.3419
 9358SOL    HW139707   3.421   0.109   6.202 -1.9037 -1.3492  1.3695
 9358SOL    HW239708   3.306   0.063   6.132 -0.4482  1.1223  1.5472
 9359SOL     OW39709   3.756   1.318   8.008  0.1347  0.6165 -0.1565
 9359SOL    HW139710   3.756   1.256   8.081  1.1153  0.9523  0.1199
 9359SOL    HW239711   3.844   1.307   7.971  0.5107  0.9446  0.6475
 9360SOL     OW39712   2.561   2.519   3.890 -0.0856 -0.5735 -0.2232
 9360SOL    HW139713   2.486   2.576   3.876  1.2936  1.7613  1.8317
 9360SOL    HW239714   2.519   2.438   3.920 -0.6678 -0.1382  0.1351
 9361SOL     OW39715   2.654   2.772   2.935  0.0571 -0.0867 -0.2951
 9361SOL    HW139716   2.603   2.716   2.994 -1.3247 -0.3995 -1.7755
 9361SOL    HW239717   2.634   2.726   2.854  0.3507 -1.9535  0.6911
 9362SOL     OW39718   0.712   4.053   4.826  0.0180 -0.2093  0.9578
 9362SOL    HW139719   0.770   4.094   4.890 -0.0950  0.6440  0.5186
 9362SOL    HW239720   0.722   3.964   4.858 -2.7916 -1.1156 -0.6265
 9363SOL     OW39721   0.448   1.827   3.509 -0.4504  0.3270  0.1911
 9363SOL    HW139722   0.458   1.732   3.511 -0.8345  0.2708 -0.5646
 9363SOL    HW239723   0.477   1.834   3.600  2.7960  0.1338 -0.8446
 9364SOL     OW39724   4.247   1.936   1.835  0.0343  0.2938 -0.1107
 9364SOL    HW139725   4.260   1.874   1.763  2.0208  2.6051 -1.7326
 9364SOL    HW239726   4.156   1.919   1.860  0.3054 -0.3594  0.4430
 9365SOL     OW39727   1.501   4.535   4.307 -0.1645  0.4336  0.2765
 9365SOL    HW139728   1.547   4.573   4.381 -2.0775  2.5856  0.3588
 9365SOL    HW239729   1.558   4.557   4.233 -0.3072 -0.4766 -0.1037
 9366SOL     OW39730   1.950   1.266   7.610 -0.6195 -0.0432 -0.0152
 9366SOL    HW139731   1.998   1.341   7.645  0.8477 -0.7373 -0.5211
 9366SOL    HW239732   2.003   1.191   7.637 -3.1390 -1.3513  1.3270
 9367SOL     OW39733   3.790   0.253   6.593 -0.4949  0.1041 -0.5029
 9367SOL    HW139734   3.788   0.293   6.506 -1.6258 -0.6727 -0.8267
 9367SOL    HW239735   3.815   0.325   6.650 -0.3734 -0.0706 -0.3338
 9368SOL     OW39736   1.308   1.585   9.567  0.3556 -0.0860 -0.0612
 9368SOL    HW139737   1.290   1.622   9.481  0.1776 -0.1442 -0.0506
 9368SOL    HW239738   1.357   1.651   9.616  0.3655  1.3798 -2.0564
 9369SOL     OW39739   1.325   2.876  10.852 -0.3557 -0.0016  0.2589
 9369SOL    HW139740   1.390   2.926  10.803  3.0014 -0.4534  4.2728
 9369SOL    HW239741   1.247   2.882  10.797 -1.2744 -1.4439  1.3988
 9370SOL     OW39742   1.583   3.677   3.914  0.1255 -0.0654 -0.6038
 9370SOL    HW139743   1.524   3.687   3.839 -1.6545  0.1908  0.8136
 9370SOL    HW239744   1.595   3.766   3.947 -0.9225  0.6442 -2.1455
 9371SOL     OW39745   1.681   2.456   0.951 -0.0790 -0.3259  0.3501
 9371SOL    HW139746   1.619   2.412   0.894 -0.3348 -0.4770  0.7486
 9371SOL    HW239747   1.734   2.382   0.981 -2.0244 -1.9415 -0.2683
 9372SOL     OW39748   1.992   3.604   3.594  0.4374  0.1913 -0.5191
 9372SOL    HW139749   1.941   3.652   3.529 -1.8701 -0.8927  0.4862
 9372SOL    HW239750   2.065   3.665   3.604 -0.3211  1.0527 -0.2472
 9373SOL     OW39751   4.078   0.532   2.423  0.2935 -0.1703 -0.0095
 9373SOL    HW139752   4.008   0.470   2.443 -1.6400  2.2908  0.7557
 9373SOL    HW239753   4.149   0.469   2.435 -0.4626 -0.3257  3.5082
 9374SOL     OW39754   4.697   0.635   5.926 -0.0319 -0.7693 -0.0353
 9374SOL    HW139755   4.608   0.619   5.960  0.4183 -3.1933  0.0061
 9374SOL    HW239756   0.001   0.550   5.941  0.3703 -1.2516 -4.0521
 9375SOL     OW39757   0.081   3.743   8.770  0.2059  0.3194  0.0090
 9375SOL    HW139758   0.068   3.776   8.681  2.2733 -2.7807 -1.4591
 9375SOL    HW239759   0.003   3.779   8.812 -0.1710 -1.2125  0.6194
 9376SOL     OW39760   2.751   0.836   3.203  0.6380 -0.2366  0.0018
 9376SOL    HW139761   2.673   0.828   3.147 -0.6816 -0.0781  1.8301
 9376SOL    HW239762   2.702   0.865   3.280 -0.4970  0.3825 -0.9565
 9377SOL     OW39763   3.001   4.462   5.777  0.5980 -0.4170  0.5846
 9377SOL    HW139764   2.939   4.522   5.817 -0.8230 -0.8289 -0.9573
 9377SOL    HW239765   3.049   4.445   5.858  0.1825  0.2916  0.9762
 9378SOL     OW39766   1.643   3.796   3.264  0.4832  0.3576 -0.4708
 9378SOL    HW139767   1.682   3.759   3.185 -1.4157 -0.9385 -0.7900
 9378SOL    HW239768   1.694   3.877   3.266 -1.7867  1.8352 -2.4719
 9379SOL     OW39769   3.340   1.501   2.574  0.2776 -0.3357 -1.0833
 9379SOL    HW139770   3.294   1.418   2.585 -1.4383  0.5384 -1.7536
 9379SOL    HW239771   3.274   1.566   2.593 -0.6038 -1.2361 -1.0481
 9380SOL     OW39772   0.759   3.894   3.935 -0.3155 -0.4787 -0.0506
 9380SOL    HW139773   0.761   3.923   3.844 -0.0650 -0.1576  0.0605
 9380SOL    HW239774   0.849   3.863   3.948  0.9924  2.9044 -1.0790
 9381SOL     OW39775   0.028   2.504   2.717 -0.0361  0.4148  0.5265
 9381SOL    HW139776   4.734   2.593   2.702 -1.7635 -0.2542  0.3665
 9381SOL    HW239777   4.685   2.463   2.691  0.3864  0.4430 -0.8970
 9382SOL     OW39778   2.972   2.547   8.269 -0.0929 -0.2380 -0.5077
 9382SOL    HW139779   2.957   2.636   8.301  1.7280 -0.3161  0.5295
 9382SOL    HW239780   2.990   2.555   8.176  0.8145 -1.4581 -0.4338
 9383SOL     OW39781   3.575   2.651  15.711 -0.0205 -0.3652 -0.1690
 9383SOL    HW139782   3.543   2.646  15.621  3.5622 -1.8921 -1.3512
 9383SOL    HW239783   3.656   2.606  15.690 -0.2122 -0.3306 -0.9806
 9384SOL     OW39784   4.218   4.737   1.499  0.5740 -0.0861  0.4514
 9384SOL    HW139785   4.188   4.670   1.439  0.7096 -0.6488  1.0077
 9384SOL    HW239786   4.307   4.715   1.529  0.6073  1.3648  1.4693
 9385SOL     OW39787   2.207   1.930   7.210 -0.8103 -0.0983 -0.2127
 9385SOL    HW139788   2.113   1.931   7.195 -1.2269  0.0447  2.4671
 9385SOL    HW239789   2.231   1.957   7.121  2.0240  3.3761  1.5641
 9386SOL     OW39790   3.250   0.178   3.431  0.4854  0.4872 -0.7444
 9386SOL    HW139791   3.188   0.123   3.383  0.0480 -0.1473  0.5560
 9386SOL    HW239792   3.329   0.137   3.396  1.0441  0.8160  0.1547
 9387SOL     OW39793   3.277   3.208   8.916  0.4711  0.2612 -0.2988
 9387SOL    HW139794   3.362   3.167   8.899  0.0955 -0.6734  0.1093
 9387SOL    HW239795   3.285   3.229   9.009  1.7460 -0.6234 -0.2088
 9388SOL     OW39796   0.455   0.282   6.405  0.2831 -0.9670  0.0492
 9388SOL    HW139797   0.406   0.217   6.455 -1.9407  0.6411 -0.0489
 9388SOL    HW239798   0.453   0.351   6.471 -0.6985 -3.0333  2.1822
 9389SOL     OW39799   3.265   1.807   4.353 -0.3272  0.0726  0.0510
 9389SOL    HW139800   3.331   1.844   4.295  0.1773 -0.6942  0.1389
 9389SOL    HW239801   3.191   1.800   4.292 -1.0310 -2.4313  1.1821
 9390SOL     OW39802   0.565   3.225   1.583  0.1505  0.2490 -0.4588
 9390SOL    HW139803   0.652   3.261   1.597  0.8980 -0.6863 -2.8508
 9390SOL    HW239804   0.558   3.244   1.490 -1.5041  1.6582 -0.0650
 9391SOL     OW39805   1.646   2.978   3.873  0.0167  0.6491  0.4332
 9391SOL    HW139806   1.656   2.910   3.940 -2.8800  1.2830  1.5073
 9391SOL    HW239807   1.555   2.973   3.845  0.3804  0.7869 -0.7869
 9392SOL     OW39808   1.576   2.643  10.992 -0.0398  0.5701  0.0434
 9392SOL    HW139809   1.634   2.685  10.928  0.5418  0.8793  0.7708
 9392SOL    HW239810   1.629   2.672  11.066  0.1049 -0.2404  0.2659
 9393SOL     OW39811   4.683   0.965   9.219  1.0181 -0.4393  0.0406
 9393SOL    HW139812   4.637   0.940   9.299  0.8492 -3.2669 -0.9423
 9393SOL    HW239813   4.617   0.946   9.152  1.8603 -2.1237 -0.3091
 9394SOL     OW39814   3.725   2.145   9.249 -0.0493  0.1815  0.1180
 9394SOL    HW139815   3.634   2.176   9.255 -0.0792  0.2703 -0.7596
 9394SOL    HW239816   3.750   2.162   9.340 -2.1043 -1.5982  1.0101
 9395SOL     OW39817   3.223   1.440  11.497  0.0943 -0.1895  0.0757
 9395SOL    HW139818   3.198   1.520  11.543  3.1592  1.2402 -0.7966
 9395SOL    HW239819   3.283   1.394  11.557  0.5316  0.2564 -0.0296
 9396SOL     OW39820   1.689   3.702   2.989 -0.3362  0.0333 -0.5823
 9396SOL    HW139821   1.738   3.653   2.923 -0.0146 -0.8406  0.3116
 9396SOL    HW239822   1.700   3.791   2.956 -0.4772 -0.1305 -1.0778
 9397SOL     OW39823   3.069   1.908  16.238  0.7130 -0.5565 -0.1874
 9397SOL    HW139824   2.981   1.944  16.238  1.6218  1.6731  0.3539
 9397SOL    HW239825   3.098   1.918  16.147 -0.0712  2.3722 -0.1225
 9398SOL     OW39826   3.208   1.652  15.739  0.4787 -0.4796  0.2403
 9398SOL    HW139827   3.300   1.670  15.762 -0.0885  2.3923  0.2246
 9398SOL    HW239828   3.174   1.609  15.818 -2.3090  1.3110  0.0162
 9399SOL     OW39829   2.208   4.207   3.549  0.1688  0.5136 -0.4795
 9399SOL    HW139830   2.121   4.210   3.509 -0.3724  0.2868  0.7123
 9399SOL    HW239831   2.247   4.147   3.485  0.2244 -0.6454  0.6443
 9400SOL     OW39832   1.279   0.816   9.517  0.2608  0.2814  0.4024
 9400SOL    HW139833   1.329   0.867   9.454 -2.6877  0.2460 -1.9512
 9400SOL    HW239834   1.208   0.876   9.539 -0.4888 -0.4371 -0.0421
 9401SOL     OW39835   4.271   0.441   3.778  0.5307 -0.0036  0.0534
 9401SOL    HW139836   4.364   0.423   3.792  0.7778  2.5797  1.8052
 9401SOL    HW239837   4.244   0.487   3.857  2.4686 -0.3188  0.9060
 9402SOL     OW39838   1.865   1.630  17.184  0.0401 -0.2484 -0.1544
 9402SOL    HW139839   1.948   1.617  17.139  0.1030 -2.4569  0.6042
 9402SOL    HW239840   1.808   1.655  17.111 -0.3729 -1.0228 -0.1034
 9403SOL     OW39841   0.803   0.109   4.306 -0.1725 -0.3605  0.4479
 9403SOL    HW139842   0.820   0.072   4.219 -1.7674  0.4677 -0.2211
 9403SOL    HW239843   0.843   0.034   4.350  1.4662  0.4115  0.2532
 9404SOL     OW39844   0.273   3.733   3.734  0.7415  0.1156  0.2010
 9404SOL    HW139845   0.367   3.752   3.742  0.7657 -0.1561  0.5304
 9404SOL    HW239846   0.239   3.820   3.714 -0.6055 -0.0298  1.9668
 9405SOL     OW39847   2.013   1.593   7.488  0.2038 -0.7489  0.0646
 9405SOL    HW139848   2.032   1.686   7.484  0.0135 -0.8057 -2.2706
 9405SOL    HW239849   2.077   1.559   7.551  1.3142  1.3832  0.0762
 9406SOL     OW39850   1.554   0.601  17.247 -0.1309 -0.0260 -0.3632
 9406SOL    HW139851   1.550   0.683  17.199  1.4763 -0.1222 -0.6722
 9406SOL    HW239852   1.621   0.557  17.195 -0.0074  1.5762 -1.5577
 9407SOL     OW39853   0.151   4.362   8.973  0.2420 -0.1158  0.1550
 9407SOL    HW139854   0.215   4.331   9.037 -2.2397 -1.4976  1.9716
 9407SOL    HW239855   0.099   4.283   8.960 -0.1195  0.1269  0.1324
 9408SOL     OW39856   0.954   4.407   4.323 -0.3691  0.1253 -0.7083
 9408SOL    HW139857   0.986   4.375   4.407 -2.0827 -1.2763 -0.5720
 9408SOL    HW239858   0.921   4.493   4.351  1.3061  0.2963  0.7256
 9409SOL     OW39859   0.013   2.708  15.762 -0.4851 -0.1796 -0.3838
 9409SOL    HW139860   4.716   2.629  15.804  2.1709 -1.7399 -1.0743
 9409SOL    HW239861   4.678   2.768  15.772 -0.5476 -0.0850 -1.4768
 9410SOL     OW39862   2.291   3.976   1.597 -0.3338  0.4839  0.4149
 9410SOL    HW139863   2.343   3.977   1.517 -3.0756  0.0740 -1.3700
 9410SOL    HW239864   2.330   3.904   1.648 -0.4929  0.2740  0.2366
 9411SOL     OW39865   3.343   4.698   8.267  0.2936 -0.3048  0.2581
 9411SOL    HW139866   3.255   4.679   8.300  0.2905 -1.4207 -0.3737
 9411SOL    HW239867   3.365   0.047   8.295  0.2181 -0.3811  0.5559
 9412SOL     OW39868   3.293   3.678   6.174  0.7421  0.1259  0.4633
 9412SOL    HW139869   3.241   3.745   6.129  1.7276 -1.7929 -3.4735
 9412SOL    HW239870   3.272   3.701   6.264 -0.3888 -0.5483  0.3697
 9413SOL     OW39871   4.665   3.365  13.400  0.1820  0.0439  0.3909
 9413SOL    HW139872   4.606   3.308  13.351 -0.6738 -0.5181  2.0839
 9413SOL    HW239873   4.620   3.447  13.380  1.4009 -0.5770 -4.7986
 9414SOL     OW39874   2.531   2.806   5.651 -0.1204 -0.5391  0.1555
 9414SOL    HW139875   2.488   2.759   5.579  1.8781 -0.4869 -1.0699
 9414SOL    HW239876   2.589   2.860   5.598  0.1440 -1.1462 -0.1715
 9415SOL     OW39877   0.644   2.046   8.418 -0.3337  0.6157  0.0743
 9415SOL    HW139878   0.729   2.013   8.389  0.0160  1.0189  0.6264
 9415SOL    HW239879   0.669   2.137   8.437 -0.7347  0.8874 -0.7035
 9416SOL     OW39880   3.996   1.742   1.324 -0.3495 -0.3975  0.1372
 9416SOL    HW139881   3.964   1.653   1.333 -2.3745  0.3857  0.7488
 9416SOL    HW239882   4.071   1.733   1.265 -1.2913  1.2456 -1.3020
 9417SOL     OW39883   1.513   4.395  11.042  0.5112  0.0415 -0.8972
 9417SOL    HW139884   1.591   4.450  11.039  0.4228  0.1164 -1.7325
 9417SOL    HW239885   1.469   4.433  10.966 -0.7974 -0.8385 -0.5839
 9418SOL     OW39886   1.352   0.546   7.844  0.0162 -0.1244 -0.2588
 9418SOL    HW139887   1.365   0.639   7.865 -0.0688 -0.3035  0.5842
 9418SOL    HW239888   1.413   0.539   7.770  2.3073  2.0549  1.4135
 9419SOL     OW39889   1.638   0.875  16.621  0.3838 -0.4150  0.9668
 9419SOL    HW139890   1.627   0.811  16.691  0.0959  1.0373  2.2528
 9419SOL    HW239891   1.726   0.863  16.585  0.4583  0.2041  0.9386
 9420SOL     OW39892   2.857   0.134  17.562 -0.4996  0.3996 -0.4711
 9420SOL    HW139893   2.871   0.112  17.654 -0.3715  1.0979 -0.3280
 9420SOL    HW239894   2.766   0.105  17.549  0.0431 -1.9649  1.0514
 9421SOL     OW39895   3.581   1.923  17.058 -0.3194 -0.5673  0.4514
 9421SOL    HW139896   3.640   1.882  16.994 -1.5063 -2.1260  0.3541
 9421SOL    HW239897   3.638   1.999  17.073  1.5837 -1.9207  0.1101
 9422SOL     OW39898   1.381   1.009  17.522 -0.0468  0.1096 -0.3920
 9422SOL    HW139899   1.330   1.029  17.601 -2.0287  1.6278 -2.0384
 9422SOL    HW239900   1.333   0.938  17.479 -0.0931  1.0135 -1.8532
 9423SOL     OW39901   3.132   4.084   0.527 -0.5927  0.3607  0.4464
 9423SOL    HW139902   3.166   4.033   0.600  2.5387  0.9923 -0.5864
 9423SOL    HW239903   3.046   4.113   0.558  0.0210 -0.0165  2.4669
 9424SOL     OW39904   2.573   1.131  15.085 -0.7358 -0.0157  0.0174
 9424SOL    HW139905   2.617   1.116  15.002 -0.1862  0.4205  0.2293
 9424SOL    HW239906   2.486   1.107  15.054 -0.3392 -0.1241 -0.9881
 9425SOL     OW39907   3.139   3.488   1.641 -0.8061 -0.6302 -0.3256
 9425SOL    HW139908   3.054   3.444   1.634 -1.0173 -0.8823  4.0562
 9425SOL    HW239909   3.161   3.436   1.718 -1.1468  1.6899  1.3322
 9426SOL     OW39910   2.366   3.938   1.086  0.0712 -0.4667 -0.0792
 9426SOL    HW139911   2.341   4.011   1.029  0.8514 -0.0381  0.1309
 9426SOL    HW239912   2.314   3.959   1.163  1.6164 -0.3252  0.9220
 9427SOL     OW39913   1.264   1.498   7.459  0.3140 -0.0900  0.4918
 9427SOL    HW139914   1.308   1.499   7.544  1.2440 -1.0559  0.0176
 9427SOL    HW239915   1.278   1.590   7.434 -3.1355  0.6446  1.2262
 9428SOL     OW39916   3.706   2.461   7.838  0.4742  0.5435  0.1243
 9428SOL    HW139917   3.745   2.374   7.824 -2.5233 -0.6791 -0.6990
 9428SOL    HW239918   3.614   2.440   7.857  0.4273  2.3890  1.9052
 9429SOL     OW39919   1.293   3.246   9.038 -0.7198  0.0028 -0.1258
 9429SOL    HW139920   1.375   3.267   9.084 -0.2952 -1.1053 -0.3615
 9429SOL    HW239921   1.237   3.318   9.066 -2.2369 -0.9522 -0.7449
 9430SOL     OW39922   1.185   4.291   0.234  0.5088 -0.9447  0.5419
 9430SOL    HW139923   1.254   4.237   0.194  0.2119 -0.2420 -0.9230
 9430SOL    HW239924   1.236   4.347   0.292  2.3243 -0.0762 -1.9020
 9431SOL     OW39925   1.757   4.538  15.689  0.0331 -0.0362  0.0979
 9431SOL    HW139926   1.719   4.618  15.653  0.4154 -0.2292 -0.7360
 9431SOL    HW239927   1.689   4.472  15.674 -0.9335  0.9064  0.3701
 9432SOL     OW39928   1.743   4.025   7.194 -0.1930 -0.3922  0.1089
 9432SOL    HW139929   1.769   4.094   7.133 -1.7122  1.0413  1.0929
 9432SOL    HW239930   1.735   3.951   7.134 -2.4245 -0.8743  1.0047
 9433SOL     OW39931   2.201   0.334   9.098  0.0964 -0.3314  0.6488
 9433SOL    HW139932   2.225   0.264   9.037 -3.9542 -0.1957 -1.0643
 9433SOL    HW239933   2.235   0.405   9.044 -0.6050 -0.9413 -0.5709
 9434SOL     OW39934   2.444   1.388   4.469 -0.1794 -0.9858 -0.3869
 9434SOL    HW139935   2.437   1.375   4.374  0.4714  0.5130 -0.6462
 9434SOL    HW239936   2.527   1.343   4.488  0.4469  0.2414 -0.1994
 9435SOL     OW39937   1.437   1.215   6.427 -0.0166 -0.4238 -0.2406
 9435SOL    HW139938   1.533   1.215   6.418  0.0768 -2.1995  0.7228
 9435SOL    HW239939   1.420   1.181   6.339 -3.6542  1.6634 -0.3439
 9436SOL     OW39940   2.366   3.571  10.244  0.0148  0.1353  0.5808
 9436SOL    HW139941   2.434   3.536  10.301  1.7914 -0.0923 -1.6432
 9436SOL    HW239942   2.410   3.648  10.207 -4.8178  1.7634 -1.6775
 9437SOL     OW39943   0.001   1.801   4.452 -0.7183 -0.8262 -1.0371
 9437SOL    HW139944   0.010   1.832   4.362  0.4213  0.7215 -0.3989
 9437SOL    HW239945   0.023   1.708   4.448  1.0600 -0.3960 -1.5349
 9438SOL     OW39946   1.273   1.214   3.156 -0.2090  0.0810 -0.4821
 9438SOL    HW139947   1.338   1.169   3.210  1.2150  0.5109 -1.8364
 9438SOL    HW239948   1.241   1.136   3.112  1.4392 -0.0080 -1.5279
 9439SOL     OW39949   1.116   0.321   3.632  0.2381  0.0711  0.6384
 9439SOL    HW139950   1.060   0.335   3.708  1.2326 -0.9718  1.5549
 9439SOL    HW239951   1.196   0.362   3.664  2.1105 -2.1534 -1.1625
 9440SOL     OW39952   0.255   0.083   5.412 -0.7196  0.5194 -0.1967
 9440SOL    HW139953   0.239   0.091   5.506 -0.8913  1.3777 -0.2967
 9440SOL    HW239954   0.205   0.153   5.369 -0.6730 -0.1853 -1.3823
 9441SOL     OW39955   3.130   2.320   2.372 -0.1961  0.0369 -0.7028
 9441SOL    HW139956   3.095   2.259   2.307 -1.8317  0.7066 -0.4517
 9441SOL    HW239957   3.083   2.294   2.451  1.3000 -0.0894  0.1334
 9442SOL     OW39958   4.639   4.334  10.199 -0.4527 -0.5233 -0.3423
 9442SOL    HW139959   4.731   4.315  10.215 -0.9930 -0.8380  2.5189
 9442SOL    HW239960   4.598   4.248  10.193  1.2108 -1.2336 -1.4484
 9443SOL     OW39961   3.887   0.480   3.444  0.1766 -0.0460  0.7812
 9443SOL    HW139962   3.829   0.548   3.411  1.1346  0.7666  0.7663
 9443SOL    HW239963   3.956   0.523   3.494 -0.0137  1.0621  0.0878
 9444SOL     OW39964   1.467   1.705   4.065  0.2659  0.0312 -0.9866
 9444SOL    HW139965   1.376   1.729   4.085  0.2048  0.1927 -1.4455
 9444SOL    HW239966   1.512   1.789   4.077 -0.3809  0.3694 -0.9057
 9445SOL     OW39967   1.598   1.898   8.940  0.1640  0.0405 -0.2473
 9445SOL    HW139968   1.547   1.844   8.880 -2.1196  1.2022  0.6283
 9445SOL    HW239969   1.681   1.850   8.940  0.4035  0.4625 -0.8021
 9446SOL     OW39970   3.336   0.947   4.870  0.4339  0.2894  0.1261
 9446SOL    HW139971   3.329   0.995   4.788  1.0840  1.9211  1.0196
 9446SOL    HW239972   3.247   0.924   4.896  0.8829 -1.9968 -0.3533
 9447SOL     OW39973   0.356   4.356   4.588  0.0983 -0.4514  0.3946
 9447SOL    HW139974   0.295   4.415   4.632 -0.5824 -0.7768 -0.1134
 9447SOL    HW239975   0.399   4.303   4.655  0.8585  0.7792  0.8945
 9448SOL     OW39976   3.441   2.429   1.883 -0.0024 -0.1157 -0.1041
 9448SOL    HW139977   3.404   2.355   1.932  1.1203 -0.6268 -0.0271
 9448SOL    HW239978   3.520   2.380   1.861 -0.0048 -0.6593  1.0559
 9449SOL     OW39979   0.574   3.099  13.072  0.7850  0.0475 -0.4968
 9449SOL    HW139980   0.486   3.080  13.040  0.4137  1.0676 -0.0747
 9449SOL    HW239981   0.615   3.013  13.072 -1.3534 -0.9792  0.1351
 9450SOL     OW39982   1.277   3.460   5.729  0.1864 -0.6831 -0.1604
 9450SOL    HW139983   1.215   3.427   5.793  0.8545  0.5030  1.1005
 9450SOL    HW239984   1.210   3.490   5.669 -1.3860 -0.0189  1.9399
 9451SOL     OW39985   3.103   3.611  16.562 -0.1131  0.0086 -0.0131
 9451SOL    HW139986   3.073   3.649  16.645 -0.4394 -0.1646 -0.0512
 9451SOL    HW239987   3.196   3.614  16.583  0.0777  0.7315 -0.9487
 9452SOL     OW39988   0.120   2.607   3.275 -0.1306  0.0802 -0.0185
 9452SOL    HW139989   0.091   2.557   3.199  0.0390 -0.0573  0.0068
 9452SOL    HW239990   0.099   2.695   3.243 -0.5213  0.0934  0.2782
 9453SOL     OW39991   2.936   0.852   6.159 -0.0755 -0.1359  0.8967
 9453SOL    HW139992   2.894   0.771   6.188 -0.9757  0.8170  2.2210
 9453SOL    HW239993   2.863   0.871   6.100  0.8042  1.1905  0.2110
 9454SOL     OW39994   1.380   0.407   7.140  0.2656  0.0252  0.4501
 9454SOL    HW139995   1.310   0.470   7.124 -1.1041 -2.0568 -1.8086
 9454SOL    HW239996   1.352   0.317   7.155 -3.1148  0.8263 -1.0235
 9455SOL     OW39997   4.447   0.092  11.115 -0.3253 -0.7608  0.0155
 9455SOL    HW139998   4.410   0.179  11.129  1.7844  0.0476  0.6594
 9455SOL    HW239999   4.367   0.046  11.091 -0.8573  0.3589 -0.3500
 9456SOL     OW40000   1.534   2.767   7.283 -0.7806  0.8309  0.0112
 9456SOL    HW140001   1.471   2.797   7.217  0.0280 -0.4114 -1.3463
 9456SOL    HW240002   1.511   2.837   7.344 -0.0688  1.7349 -0.7444
 9457SOL     OW40003   4.609   4.520   2.329 -0.1260 -0.7377 -0.1437
 9457SOL    HW140004   4.529   4.478   2.361 -0.0424 -0.5250  0.3477
 9457SOL    HW240005   4.573   4.597   2.285 -0.3469 -0.0981  1.1559
 9458SOL     OW40006   0.425   4.597   6.398 -0.0893 -0.1352 -0.9150
 9458SOL    HW140007   0.476   4.519   6.375  2.6022  2.3393 -3.2251
 9458SOL    HW240008   0.395   4.559   6.481  0.2639 -0.5212 -0.9628
 9459SOL     OW40009   0.984   3.330   6.371  0.1165 -0.5029  0.1421
 9459SOL    HW140010   1.045   3.404   6.373 -2.3715  1.6638 -2.9342
 9459SOL    HW240011   0.999   3.309   6.279 -0.6749  0.7271 -0.2790
 9460SOL     OW40012   1.014   2.188   7.883 -0.3268  0.1658 -0.0979
 9460SOL    HW140013   0.930   2.168   7.924  0.2216 -0.3518  0.7751
 9460SOL    HW240014   0.992   2.276   7.854  2.1106  0.6190 -0.5839
 9461SOL     OW40015   2.220   0.013   2.162  0.4959  0.3992  0.1785
 9461SOL    HW140016   2.165   0.087   2.186  0.1339  0.5131 -1.0055
 9461SOL    HW240017   2.288   0.002   2.228 -1.1212 -1.5661  1.5455
 9462SOL     OW40018   1.113   0.251  13.001  0.1636 -0.3720  0.7032
 9462SOL    HW140019   1.147   0.339  12.990  1.0515 -0.6253  1.4887
 9462SOL    HW240020   1.191   0.197  13.011  0.8579  1.0575  2.7410
 9463SOL     OW40021   0.402   2.682  12.090 -0.2056  0.0679 -0.5440
 9463SOL    HW140022   0.383   2.595  12.126  0.4780  0.3651  0.5316
 9463SOL    HW240023   0.474   2.668  12.029  1.0942  1.2053  0.7270
 9464SOL     OW40024   3.501   1.428   8.116 -0.2258  0.5759  0.2363
 9464SOL    HW140025   3.579   1.419   8.061 -1.4247  2.4005 -1.7931
 9464SOL    HW240026   3.539   1.406   8.201 -1.2872  0.2722  0.6360
 9465SOL     OW40027   4.104   3.456   3.308  0.3643  0.4592 -0.5505
 9465SOL    HW140028   4.155   3.518   3.360  2.5330 -1.7378 -0.0672
 9465SOL    HW240029   4.123   3.476   3.217 -3.5019  0.1838 -1.4084
 9466SOL     OW40030   3.893   0.151   8.154 -0.1405 -1.0392 -0.3579
 9466SOL    HW140031   3.942   0.120   8.078  2.3155 -0.2915  0.9290
 9466SOL    HW240032   3.951   0.224   8.174 -2.0641  0.2374  0.5411
 9467SOL     OW40033   1.276   1.078   1.834  0.1308 -0.4168 -0.1011
 9467SOL    HW140034   1.208   1.059   1.769  1.7284  0.4777 -2.0341
 9467SOL    HW240035   1.359   1.046   1.799  0.4026  1.8923 -1.5804
 9468SOL     OW40036   4.642   0.358   6.603 -0.0776  0.1589  0.2994
 9468SOL    HW140037   4.616   0.427   6.664 -1.5973  0.2850 -0.4677
 9468SOL    HW240038   4.578   0.367   6.531  0.3857  1.1810  0.0137
 9469SOL     OW40039   4.209   4.286   8.723  0.1593 -0.5298 -0.2718
 9469SOL    HW140040   4.260   4.318   8.797  0.4764  0.9071 -1.1059
 9469SOL    HW240041   4.134   4.254   8.773  0.0558  0.4008  0.1669
 9470SOL     OW40042   0.908   2.598   5.989 -0.6001  0.1976  0.1785
 9470SOL    HW140043   0.828   2.560   5.951 -1.8992  2.1488  0.9592
 9470SOL    HW240044   0.936   2.530   6.050  2.9018 -0.2996 -2.0211
 9471SOL     OW40045   2.486   2.469  10.252  0.3078  0.1287  0.1455
 9471SOL    HW140046   2.559   2.497  10.308  0.4285 -0.3924  0.2491
 9471SOL    HW240047   2.472   2.554  10.211 -1.3059 -0.8001 -1.2148
 9472SOL     OW40048   2.740   3.071   5.750  0.0256  0.6695 -0.3048
 9472SOL    HW140049   2.752   2.992   5.697 -0.8930  1.7443 -2.1304
 9472SOL    HW240050   2.658   3.105   5.713  0.3995  1.6258 -0.2675
 9473SOL     OW40051   2.063   1.121   5.614  0.0425 -0.0605  0.4349
 9473SOL    HW140052   2.008   1.146   5.540  0.5367 -2.6659 -0.8067
 9473SOL    HW240053   2.135   1.185   5.610  2.0525 -2.2352  1.8419
 9474SOL     OW40054   2.429   1.672   7.703 -0.0091  0.6031 -0.3337
 9474SOL    HW140055   2.462   1.611   7.769  0.1343  1.5242  0.4335
 9474SOL    HW240056   2.478   1.749   7.732  0.6262 -0.1899  0.6984
 9475SOL     OW40057   4.574   4.169   4.312 -0.1214 -0.7864 -0.2562
 9475SOL    HW140058   4.539   4.256   4.333 -2.8786 -1.4194 -2.2861
 9475SOL    HW240059   4.555   4.132   4.399  1.3436 -0.9971 -0.0283
 9476SOL     OW40060   1.582   1.104   5.257 -0.0694  0.5082 -0.2854
 9476SOL    HW140061   1.601   1.198   5.250  0.4874  0.3037 -1.5147
 9476SOL    HW240062   1.664   1.068   5.223 -0.5267 -0.4354 -0.3631
 9477SOL     OW40063   3.741   0.362   4.553  0.5129  0.2203 -0.6518
 9477SOL    HW140064   3.715   0.420   4.481 -0.3479 -1.4415 -1.6536
 9477SOL    HW240065   3.793   0.412   4.616 -0.4290 -0.8139  0.9340
 9478SOL     OW40066   2.215   0.414   6.946 -0.5089 -0.1381  0.2454
 9478SOL    HW140067   2.151   0.405   7.017  1.5240 -2.0065  1.8210
 9478SOL    HW240068   2.252   0.502   6.951 -0.6641 -0.2057  2.2789
 9479SOL     OW40069   2.954   3.913   2.440  0.1197 -0.2887  0.0912
 9479SOL    HW140070   3.002   3.831   2.432  1.3441  0.3181  1.2061
 9479SOL    HW240071   2.963   3.954   2.355  0.3917 -1.2392 -0.3421
 9480SOL     OW40072   1.852   4.620   9.220 -0.2046  0.1666  0.4736
 9480SOL    HW140073   1.841   4.712   9.242 -2.7222  0.5442 -2.4203
 9480SOL    HW240074   1.777   4.586   9.269  0.3259 -0.8050  0.6163
 9481SOL     OW40075   3.640   2.905   8.983  0.1529  0.2120  0.0661
 9481SOL    HW140076   3.652   2.837   8.916 -0.7125  0.5206 -0.3867
 9481SOL    HW240077   3.603   2.971   8.926  1.6988  0.7086 -0.3800
 9482SOL     OW40078   3.376   1.937   5.510 -0.1411  0.7859 -0.0813
 9482SOL    HW140079   3.385   1.998   5.436  2.8778  0.1625 -0.2096
 9482SOL    HW240080   3.363   1.995   5.585  1.6606  0.7688  0.2520
 9483SOL     OW40081   2.116   2.744   1.930 -0.2741  0.0222 -0.5368
 9483SOL    HW140082   2.146   2.658   1.904 -3.0810 -0.9178 -0.6879
 9483SOL    HW240083   2.022   2.725   1.927 -0.2399 -0.3014  0.3208
 9484SOL     OW40084   4.455   4.529   5.003  0.2410  0.2839 -0.1982
 9484SOL    HW140085   4.506   4.546   5.082  0.8917  1.8204 -0.9487
 9484SOL    HW240086   4.366   4.515   5.034 -0.0048 -2.0642 -1.9200
 9485SOL     OW40087   4.246   1.409   3.441  0.1775 -0.0549  0.2826
 9485SOL    HW140088   4.212   1.457   3.517  0.0239 -2.6847  1.8939
 9485SOL    HW240089   4.332   1.451   3.436  0.5228 -0.9099 -0.8899
 9486SOL     OW40090   0.849   3.019   4.696  0.2058 -0.1416  0.3359
 9486SOL    HW140091   0.919   3.048   4.638 -0.6339 -1.9608 -1.5674
 9486SOL    HW240092   0.818   3.106   4.719  1.5226  0.5998 -0.6785
 9487SOL     OW40093   3.643   1.880  11.102 -0.2388 -0.6221 -0.2411
 9487SOL    HW140094   3.628   1.922  11.187 -0.6887  0.6636 -0.9516
 9487SOL    HW240095   3.655   1.963  11.055  1.2096 -2.0693 -2.4429
 9488SOL     OW40096   2.940   0.402   9.419  0.0616 -0.2567 -0.1030
 9488SOL    HW140097   2.963   0.478   9.366 -2.4008  2.2087  2.3825
 9488SOL    HW240098   3.017   0.345   9.419  2.1884  2.6248 -0.1395
 9489SOL     OW40099   4.447   2.857   5.605 -0.7419  0.9531  0.3944
 9489SOL    HW140100   4.504   2.914   5.553 -1.4295  1.8167  0.5780
 9489SOL    HW240101   4.377   2.920   5.623 -1.1807  0.1737  1.4536
 9490SOL     OW40102   4.380   4.086   6.177 -0.1041 -0.5194 -0.2482
 9490SOL    HW140103   4.404   4.104   6.268 -1.5913  0.7062 -0.1041
 9490SOL    HW240104   4.469   4.080   6.141  0.0510 -0.2165  0.0859
 9491SOL     OW40105   0.204   0.807  11.531  0.2056  0.2514 -0.3938
 9491SOL    HW140106   0.298   0.821  11.515 -0.2608  2.7983 -0.9067
 9491SOL    HW240107   0.166   0.838  11.449 -2.1529 -1.6494 -0.0196
 9492SOL     OW40108   0.852   4.419   6.211 -0.4909 -0.0838  0.5676
 9492SOL    HW140109   0.841   4.504   6.254 -2.0647  0.3816 -0.7496
 9492SOL    HW240110   0.940   4.432   6.176 -1.0033  0.3171 -0.5843
 9493SOL     OW40111   0.225   0.200   4.725 -0.0494 -0.1040  0.7957
 9493SOL    HW140112   0.145   0.193   4.672 -0.2785 -0.5413  1.1997
 9493SOL    HW240113   0.278   0.140   4.672  2.1875  3.0023 -0.4975
 9494SOL     OW40114   2.526   4.193   3.988  0.1747 -0.0348 -0.8283
 9494SOL    HW140115   2.577   4.115   3.965  0.1876 -0.3668  0.3454
 9494SOL    HW240116   2.457   4.207   3.923 -2.0780 -0.4972  1.4411
 9495SOL     OW40117   4.501   1.118   4.280 -0.3023 -0.5053  0.4149
 9495SOL    HW140118   4.513   1.211   4.298  1.0977 -0.8034  1.0728
 9495SOL    HW240119   4.547   1.078   4.354 -0.2431  0.1398  0.7288
 9496SOL     OW40120   0.750   0.196   8.191 -0.8052 -0.1925 -0.3647
 9496SOL    HW140121   0.789   0.279   8.161  0.6014 -0.0180  1.8895
 9496SOL    HW240122   0.789   0.135   8.129 -1.3267  1.8101 -2.6550
 9497SOL     OW40123   0.347   3.131   0.805 -0.3444 -0.3373 -0.3084
 9497SOL    HW140124   0.387   3.206   0.848 -0.8550 -0.1258 -0.2141
 9497SOL    HW240125   0.408   3.124   0.731 -1.6882 -0.6922 -1.3677
 9498SOL     OW40126   3.925   3.960   3.995 -0.1994 -0.3976 -0.5435
 9498SOL    HW140127   3.964   3.875   3.971  2.1445  1.1810 -2.3619
 9498SOL    HW240128   3.935   4.022   3.923  1.1933 -0.8641 -0.7680
 9499SOL     OW40129   3.978   2.266   5.919  0.0947  0.1881  0.5591
 9499SOL    HW140130   3.896   2.224   5.892 -1.0975  2.1909  1.1248
 9499SOL    HW240131   4.044   2.200   5.898  0.2608  0.2027  1.0300
 9500SOL     OW40132   3.712   4.328   5.329  0.0942  0.1952 -0.4346
 9500SOL    HW140133   3.712   4.390   5.402  1.9322 -0.2374 -0.0712
 9500SOL    HW240134   3.667   4.250   5.362 -0.1768 -0.6071 -2.7477
 9501SOL     OW40135   0.037   0.445  12.764  0.0608 -0.4566 -0.2877
 9501SOL    HW140136   0.115   0.495  12.788  0.1230 -1.5693  1.8084
 9501SOL    HW240137   4.702   0.484  12.810  1.7319  1.4329  0.8176
 9502SOL     OW40138   3.282   0.290  12.432  0.1557  0.7054  0.2166
 9502SOL    HW140139   3.278   0.194  12.436  3.0756  0.5499 -1.0554
 9502SOL    HW240140   3.190   0.307  12.454 -0.3654  0.0064 -1.4042
 9503SOL     OW40141   1.790   3.496   1.119  0.5697  0.4240 -0.0470
 9503SOL    HW140142   1.878   3.488   1.083  0.6471 -0.7833  0.3965
 9503SOL    HW240143   1.748   3.425   1.071 -1.6572  1.9682 -0.3877
 9504SOL     OW40144   3.252   0.300   7.648 -0.3794  0.4138 -0.5112
 9504SOL    HW140145   3.271   0.380   7.697 -1.3511  0.7194 -0.6334
 9504SOL    HW240146   3.224   0.240   7.717 -1.1940  2.2434  0.7510
 9505SOL     OW40147   0.459   4.302   2.442  0.2042  0.3094 -0.0418
 9505SOL    HW140148   0.504   4.286   2.525  0.7808 -0.1528 -0.4466
 9505SOL    HW240149   0.407   4.222   2.448  1.2853 -0.3657  0.1432
 9506SOL     OW40150   3.579   3.299   3.182  0.0719  0.1219 -0.3488
 9506SOL    HW140151   3.523   3.266   3.253 -0.1379 -0.7965 -0.9388
 9506SOL    HW240152   3.606   3.217   3.141  2.0784  0.9624 -0.7098
 9507SOL     OW40153   3.010   3.107   6.653  0.2652 -0.6954  0.5265
 9507SOL    HW140154   3.092   3.086   6.609  0.2126 -1.0806  0.6077
 9507SOL    HW240155   2.960   3.110   6.572  2.1712 -3.3706 -0.7604
 9508SOL     OW40156   4.378   0.664   8.375  0.0392 -1.2477  0.4026
 9508SOL    HW140157   4.464   0.704   8.386  0.8590 -2.6944 -0.6726
 9508SOL    HW240158   4.324   0.735   8.341  0.2239 -0.8889  0.8605
 9509SOL     OW40159   0.291   4.000   2.754  0.1547  0.7513  0.6246
 9509SOL    HW140160   0.232   3.930   2.782  2.6086 -1.2590  0.7392
 9509SOL    HW240161   0.374   3.952   2.749  0.8265  1.8862  0.7052
 9510SOL     OW40162   3.491   4.468   4.792 -0.0188  0.0397 -0.0877
 9510SOL    HW140163   3.580   4.457   4.757  0.5190 -0.2455  1.3933
 9510SOL    HW240164   3.471   4.383   4.829 -3.5788  1.4828  1.3151
 9511SOL     OW40165   2.400   0.098  17.753 -0.3417  0.1917  0.0309
 9511SOL    HW140166   2.467   0.030  17.752  1.0764  1.5879 -0.5689
 9511SOL    HW240167   2.451   0.168   0.040 -0.4925 -0.1579  0.8082
 9512SOL     OW40168   2.125   3.928   4.720  0.6195  0.2682 -0.3217
 9512SOL    HW140169   2.131   3.855   4.659 -1.2411 -1.2017  1.2282
 9512SOL    HW240170   2.218   3.945   4.737 -0.2302  0.7317  4.0577
 9513SOL     OW40171   3.906   2.633   7.762 -0.3930 -0.2213 -0.1094
 9513SOL    HW140172   3.831   2.575   7.772 -0.8006  0.2303 -0.5497
 9513SOL    HW240173   3.904   2.681   7.679 -0.1621 -1.5295 -0.8718
 9514SOL     OW40174   0.977   2.551  14.412  0.0586 -0.4666  0.4417
 9514SOL    HW140175   0.930   2.473  14.442 -0.3115 -1.1602 -1.9619
 9514SOL    HW240176   0.917   2.578  14.342 -0.1840  2.2214  1.6579
 9515SOL     OW40177   0.315   3.552   2.812  0.0444  0.0319  0.3773
 9515SOL    HW140178   0.347   3.493   2.745  0.7095  0.5761  0.2167
 9515SOL    HW240179   0.269   3.497   2.876 -1.9111  3.8284  2.2362
 9516SOL     OW40180   4.433   4.644   5.705 -0.1712 -0.0106 -0.1508
 9516SOL    HW140181   4.396   4.684   5.627 -0.2347 -1.0365 -0.6509
 9516SOL    HW240182   4.467   4.569   5.656 -3.2669 -2.2111  1.0324
 9517SOL     OW40183   0.669   3.831   0.847 -0.1627  0.0691 -0.0186
 9517SOL    HW140184   0.711   3.907   0.808  0.1730  0.6538  1.4615
 9517SOL    HW240185   0.737   3.794   0.903  0.4958 -0.1261 -0.9557
 9518SOL     OW40186   0.980   3.374  12.865 -0.0675 -0.5425 -0.5048
 9518SOL    HW140187   0.927   3.295  12.875 -1.8819  0.6563 -0.6811
 9518SOL    HW240188   0.922   3.434  12.911  0.2770 -0.4079 -0.2468
 9519SOL     OW40189   3.957   4.038   5.883  0.0586 -0.2036 -0.1999
 9519SOL    HW140190   4.008   4.119   5.879  0.8895 -0.7926 -1.2838
 9519SOL    HW240191   4.029   3.975   5.876  0.2744  0.0397 -0.2076
 9520SOL     OW40192   1.866   0.616  14.304  0.2753 -0.1529  0.2422
 9520SOL    HW140193   1.777   0.591  14.279 -0.9331  4.5167 -0.1308
 9520SOL    HW240194   1.913   0.533  14.302 -0.1456 -0.3608 -1.1638
 9521SOL     OW40195   1.723   3.328   6.526  0.5637  0.5351  0.7810
 9521SOL    HW140196   1.723   3.343   6.431 -1.2993 -1.7638  0.4081
 9521SOL    HW240197   1.817   3.335   6.540  0.4435  0.6656  1.4795
 9522SOL     OW40198   2.847   4.023  12.766  0.3548 -0.0604 -0.1884
 9522SOL    HW140199   2.785   4.025  12.693 -0.7660  0.9552  0.7906
 9522SOL    HW240200   2.925   3.993  12.718 -0.8076  0.7385 -2.6031
 9523SOL     OW40201   0.572   2.861  12.221 -0.3024  0.5464 -0.1999
 9523SOL    HW140202   0.492   2.810  12.224 -0.1965  0.1873 -3.2191
 9523SOL    HW240203   0.627   2.817  12.285  0.2959  1.9767  0.2817
 9524SOL     OW40204   0.648   1.626  13.581 -0.2108 -0.1829 -0.0283
 9524SOL    HW140205   0.634   1.720  13.568 -1.2506 -0.2575  0.5985
 9524SOL    HW240206   0.566   1.586  13.555 -0.8251  1.8507 -1.2743
 9525SOL     OW40207   2.391   3.940   9.741 -0.2418  1.0650  0.3776
 9525SOL    HW140208   2.396   4.027   9.782  1.6159  0.7878  0.7474
 9525SOL    HW240209   2.310   3.953   9.692 -0.1909 -0.3940 -0.0925
 9526SOL     OW40210   3.674   2.268  13.687  0.0446 -0.6090  0.0816
 9526SOL    HW140211   3.708   2.335  13.745  0.0794 -0.1238 -0.5039
 9526SOL    HW240212   3.579   2.277  13.697 -0.0511 -0.1466 -1.2311
 9527SOL     OW40213   3.102   1.945  15.984 -0.2573 -0.5694  0.7723
 9527SOL    HW140214   3.051   1.991  15.917 -1.8029 -0.5275  1.9853
 9527SOL    HW240215   3.190   1.945  15.945 -0.9557  0.6817 -0.8199
 9528SOL     OW40216   3.405   0.889   4.431  0.2277  0.6182  0.0901
 9528SOL    HW140217   3.496   0.859   4.428 -0.4015 -1.0757 -1.9152
 9528SOL    HW240218   3.368   0.809   4.394 -2.9738  2.5841 -0.8991
 9529SOL     OW40219   3.777   2.571   3.010  0.3942 -0.2378  0.0943
 9529SOL    HW140220   3.776   2.480   2.982  1.2298 -0.4536  0.7846
 9529SOL    HW240221   3.871   2.587   3.019  0.0392  1.1758  1.5012
 9530SOL     OW40222   2.876   0.180   6.187 -0.8663  0.0947  0.3494
 9530SOL    HW140223   2.819   0.239   6.236  1.5841 -0.1283  3.4624
 9530SOL    HW240224   2.950   0.240   6.171 -1.3346  0.2300 -1.2993
 9531SOL     OW40225   3.235   0.392   5.776 -0.0450 -0.2161 -0.4132
 9531SOL    HW140226   3.180   0.313   5.777 -0.6993  0.2006 -2.3136
 9531SOL    HW240227   3.160   0.445   5.747 -0.2963  1.5681  3.4938
 9532SOL     OW40228   1.208   0.764  17.482  0.5035 -0.3246 -0.4916
 9532SOL    HW140229   1.230   0.740  17.572 -0.3043 -0.5843 -0.3576
 9532SOL    HW240230   1.115   0.742  17.479  0.7105 -1.0362 -1.5864
 9533SOL     OW40231   2.840   2.045   9.488  0.5793 -0.2298  0.0217
 9533SOL    HW140232   2.891   2.102   9.431 -0.3198 -1.4682 -2.0148
 9533SOL    HW240233   2.890   2.049   9.570  1.1822  1.4337 -0.4344
 9534SOL     OW40234   1.020   3.859  10.357 -0.0947 -0.6548 -0.1546
 9534SOL    HW140235   0.956   3.814  10.412 -0.7768 -0.5054 -0.8273
 9534SOL    HW240236   0.999   3.840  10.265 -0.6423 -0.7388 -0.0089
 9535SOL     OW40237   3.872   1.886   8.281  0.1175 -0.2677 -0.2251
 9535SOL    HW140238   3.815   1.843   8.344  1.0733  0.7254  1.3240
 9535SOL    HW240239   3.959   1.849   8.291  0.4752  1.0381  1.5411
 9536SOL     OW40240   3.565   2.665   3.483 -0.6223  0.2512 -0.1745
 9536SOL    HW140241   3.510   2.623   3.548  0.3980 -0.5117  0.1886
 9536SOL    HW240242   3.584   2.599   3.416  0.5720 -1.5412  1.9292
 9537SOL     OW40243   2.390   0.662   1.511 -0.4290 -0.7242 -0.0174
 9537SOL    HW140244   2.431   0.581   1.541 -0.1207 -0.1164  1.1857
 9537SOL    HW240245   2.457   0.709   1.462 -1.8019  0.2820 -0.9277
 9538SOL     OW40246   0.925   4.573   7.547  0.1808 -0.1459 -0.0344
 9538SOL    HW140247   0.984   4.564   7.622 -1.3577 -1.7332  0.9665
 9538SOL    HW240248   0.974   4.644   7.504  2.0294 -1.4892 -0.1784
 9539SOL     OW40249   2.239   1.024   4.843  0.2000  0.4189  0.1277
 9539SOL    HW140250   2.181   1.080   4.792  1.0646 -0.8630 -2.3064
 9539SOL    HW240251   2.309   1.089   4.847 -0.3668  1.0443 -0.3530
 9540SOL     OW40252   2.936   0.489   7.149  0.0295  0.2158  0.3634
 9540SOL    HW140253   2.968   0.579   7.145 -1.2107  0.5068 -2.7623
 9540SOL    HW240254   2.985   0.450   7.222  3.4326  0.0839 -1.9899
 9541SOL     OW40255   1.694   2.706   3.784 -0.2647  0.3197 -0.3675
 9541SOL    HW140256   1.740   2.622   3.782  0.1264  0.5711 -2.5212
 9541SOL    HW240257   1.678   2.730   3.875 -0.4776  0.4788 -0.4469
 9542SOL     OW40258   0.840   4.457   2.764  0.3643 -0.5331 -0.7889
 9542SOL    HW140259   0.779   4.488   2.831  1.8759 -1.9657  1.2228
 9542SOL    HW240260   0.884   4.379   2.798  2.2845  0.7007 -0.3993
 9543SOL     OW40261   1.327   3.894   4.253 -0.2211  0.2041  0.0522
 9543SOL    HW140262   1.363   3.898   4.164  0.1754 -2.2185  0.0904
 9543SOL    HW240263   1.412   3.889   4.295 -0.6021 -2.1170  0.5709
 9544SOL     OW40264   4.445   4.238   5.011 -0.1982 -0.0682  0.1116
 9544SOL    HW140265   4.395   4.316   4.986 -1.1316 -1.1587 -1.4550
 9544SOL    HW240266   4.384   4.164   5.001  1.2961 -1.3794  0.6520
 9545SOL     OW40267   4.532   3.393  13.963  0.0812 -0.2665  0.8019
 9545SOL    HW140268   4.478   3.404  13.885  1.7761  0.5630 -0.2538
 9545SOL    HW240269   4.616   3.385  13.918  0.3086 -0.1700  1.2179
 9546SOL     OW40270   2.769   0.623   6.203  0.4304 -0.1811  0.6035
 9546SOL    HW140271   2.686   0.652   6.165  0.7530  0.6993  0.5736
 9546SOL    HW240272   2.744   0.540   6.244  0.3219  0.3550  1.6257
 9547SOL     OW40273   1.722   0.597   3.002  0.3711 -0.1101  0.6639
 9547SOL    HW140274   1.715   0.614   2.908  0.4581 -3.5390  0.0163
 9547SOL    HW240275   1.735   0.502   3.010  0.2585 -0.0141  1.9094
 9548SOL     OW40276   1.218   0.400  11.463 -0.3360 -0.6593 -0.1306
 9548SOL    HW140277   1.200   0.308  11.445  2.5842 -0.7033 -2.7092
 9548SOL    HW240278   1.285   0.400  11.532 -0.5556 -1.7707  0.0753
 9549SOL     OW40279   2.334   1.033  12.739 -0.0548  0.5258  0.5278
 9549SOL    HW140280   2.342   1.012  12.646 -1.5121 -0.3593  0.5898
 9549SOL    HW240281   2.250   0.996  12.766  1.0572 -0.3533  2.7604
 9550SOL     OW40282   0.486   2.003   9.094 -0.2198  0.4713 -1.0244
 9550SOL    HW140283   0.453   1.924   9.051 -2.0513  1.3288 -1.2280
 9550SOL    HW240284   0.452   2.070   9.034  0.3317  1.9394  0.2833
 9551SOL     OW40285   2.333   3.398  17.392 -0.1280  0.3480 -0.5546
 9551SOL    HW140286   2.339   3.417  17.298  0.9799 -2.2445 -0.9895
 9551SOL    HW240287   2.416   3.435  17.422 -1.1497  4.3802 -2.6847
 9552SOL     OW40288   3.074   1.907   4.952  0.6024 -0.2488 -0.2486
 9552SOL    HW140289   3.070   1.895   4.857  3.2969 -2.4345 -0.1036
 9552SOL    HW240290   2.991   1.951   4.968  1.4023  1.1780  0.0520
 9553SOL     OW40291   4.186   0.042   8.466 -0.5035 -0.4751 -0.8539
 9553SOL    HW140292   4.187   0.017   8.374  1.7532  0.6478 -1.1510
 9553SOL    HW240293   4.121   4.722   8.505  0.3343 -0.9528 -0.1617
 9554SOL     OW40294   2.215   1.402  15.777  0.2851  0.1047  0.0623
 9554SOL    HW140295   2.226   1.438  15.865  0.1831  1.0613 -0.3218
 9554SOL    HW240296   2.295   1.349  15.769  0.0458 -0.1443 -0.7285
 9555SOL     OW40297   0.181   4.577   5.051  0.5713 -0.0799 -0.0523
 9555SOL    HW140298   0.235   4.649   5.020 -1.3052 -0.1723 -3.5221
 9555SOL    HW240299   0.217   4.499   5.009  1.8110  1.7319 -2.3221
 9556SOL     OW40300   3.200   4.539   1.202 -0.0851  0.1992 -0.0292
 9556SOL    HW140301   3.130   4.592   1.164  0.3098  0.4672 -0.3851
 9556SOL    HW240302   3.158   4.491   1.273  1.4234  0.3469  0.9761
 9557SOL     OW40303   0.632   0.755   2.326 -0.3379 -0.1056 -0.0939
 9557SOL    HW140304   0.543   0.792   2.324 -0.6438 -0.7266  1.9787
 9557SOL    HW240305   0.656   0.762   2.419  2.8128 -3.5502 -0.6574
 9558SOL     OW40306   2.028   0.596  13.360  0.2940  0.0269 -0.0068
 9558SOL    HW140307   2.122   0.609  13.350  0.6528 -2.2221  0.5534
 9558SOL    HW240308   2.013   0.536  13.288 -0.7654 -0.9264  1.0130
 9559SOL     OW40309   2.485   0.454   6.562  0.0654  0.1233 -0.3123
 9559SOL    HW140310   2.403   0.504   6.562  0.0413  0.0837  0.5515
 9559SOL    HW240311   2.480   0.392   6.489 -0.4188  0.4043 -0.5189
 9560SOL     OW40312   0.924   4.005   6.977  0.2601  0.2718 -0.3335
 9560SOL    HW140313   0.910   4.085   6.927  1.5434  0.9151  0.3245
 9560SOL    HW240314   0.871   4.018   7.055 -0.3533 -3.5755 -0.0866
 9561SOL     OW40315   1.309   1.462   0.915  0.3276  0.3847 -0.9893
 9561SOL    HW140316   1.370   1.458   0.842  0.3217  1.6451 -1.0643
 9561SOL    HW240317   1.365   1.427   0.985 -0.9365 -0.2220 -0.2650
 9562SOL     OW40318   0.274   3.066  16.620 -0.1777  0.4511 -0.0657
 9562SOL    HW140319   0.340   3.036  16.556 -1.1605  0.6479 -1.1777
 9562SOL    HW240320   0.288   3.000  16.688  0.7935  0.6594 -0.0586
 9563SOL     OW40321   3.164   2.915  11.383 -0.1686 -0.3461  0.6362
 9563SOL    HW140322   3.073   2.917  11.355  0.3008 -1.9001 -1.0267
 9563SOL    HW240323   3.156   2.927  11.477 -1.9794  2.4178  0.1029
 9564SOL     OW40324   2.714   1.342   4.124 -0.2700 -0.0790 -0.4867
 9564SOL    HW140325   2.648   1.391   4.074 -1.3296 -1.8813 -0.8244
 9564SOL    HW240326   2.723   1.267   4.065 -2.5696  0.8034 -1.9654
 9565SOL     OW40327   2.375   0.552   3.199 -0.0230 -0.5434 -0.7229
 9565SOL    HW140328   2.311   0.557   3.270 -0.3823  3.9200 -1.3759
 9565SOL    HW240329   2.385   0.647   3.189 -2.7804 -0.3247 -1.4534
 9566SOL     OW40330   4.416   0.493  10.099  0.4697  0.7343  0.0480
 9566SOL    HW140331   4.357   0.462  10.168  1.2911  0.7087  0.7508
 9566SOL    HW240332   4.359   0.559  10.059  0.3851  0.2973 -0.5511
 9567SOL     OW40333   2.121   2.834   7.888  0.1812 -0.5022  0.2557
 9567SOL    HW140334   2.181   2.780   7.940  0.7921  0.1243  0.2113
 9567SOL    HW240335   2.037   2.790   7.896  0.3168 -0.6271  0.9962
 9568SOL     OW40336   2.993   2.902   6.880 -0.1201  0.8189  0.3831
 9568SOL    HW140337   2.906   2.884   6.917 -0.5541  0.8399 -0.6279
 9568SOL    HW240338   2.967   2.954   6.804 -1.0642 -0.0207  0.1336
 9569SOL     OW40339   0.033   4.726   3.719 -0.1609  0.4228 -0.3630
 9569SOL    HW140340   4.683   4.698   3.741  0.0099  1.6026  1.8208
 9569SOL    HW240341   0.030   4.733   3.623  0.3230 -1.1805 -0.5017
 9570SOL     OW40342   0.773   0.644   4.196 -0.4163  0.0705 -0.4423
 9570SOL    HW140343   0.807   0.616   4.111  0.7921 -0.1171  0.0951
 9570SOL    HW240344   0.789   0.559   4.236 -1.4139 -0.2425 -0.7149
 9571SOL     OW40345   3.828   1.541   1.577  0.2819 -0.6826 -0.0475
 9571SOL    HW140346   3.781   1.623   1.560 -2.4472 -2.0017  1.2541
 9571SOL    HW240347   3.754   1.490   1.611  1.2211 -1.0397  1.4809
   4.73901   4.73901  17.75389
