Membrane in water
40347
    1TMC1    C1    1   4.527   3.818  11.696 -0.0968 -0.1429 -0.2806
    1TMC1    C2    2   4.572   3.886  11.807 -0.0198  0.7217  0.1045
    1TMC1    C3    3   4.656   3.989  11.790 -0.3547 -0.1317 -0.1716
    1TMC1    C4    4   4.562   3.867  11.566 -0.3232  0.2405  0.0233
    1TMC1    C5    5   4.629   3.980  11.557  0.3786 -0.0325 -0.4642
    1TMC1    C6    6   4.678   4.045  11.665  0.0982  0.7251  0.1214
    1TMC1     C    7   4.431   3.711  11.707  0.4090  0.0795 -0.1371
    1TMC1     O    8   4.378   3.694  11.818 -0.0318  0.2513  0.0653
    1TMC1     H    9   4.569   3.835  11.903 -0.7176 -1.2250 -0.9550
    1TMC1    H1   10   4.532   3.816  11.476 -3.9943  1.8889  0.2802
    1TMC1    H2   11   0.013   4.123  11.667  0.9904 -0.1668  0.8411
    1TMC1    C7   12   4.690   4.010  11.432 -0.3084  0.2870 -0.7814
    1TMC1    C8   13   4.739   4.039  11.893  0.3736  0.4853  0.1113
    1TMC1    O1   14   4.712   3.936  11.337 -0.0214 -0.1434 -0.3250
    1TMC1    O2   15   0.118   4.074  11.882 -0.1634  0.4313 -0.2932
    1TMC1    O3   16   4.710   4.147  11.439 -0.6695 -0.0190  0.2513
    1TMC1    H3   17   4.645   4.192  11.497 -0.8877  1.4800 -1.1614
    1TMC1    O5   18   4.659   4.035  12.003  1.0681  0.0700  0.2311
    1TMC1    H5   19   4.564   4.019  11.988  1.2078 -0.2626 -0.2993
    2MPD2     C   20   4.132   3.331  11.520  0.2544 -0.5289  0.4281
    2MPD2    C1   21   4.146   3.381  11.649 -0.4043 -0.0102  0.3032
    2MPD2    C2   22   4.227   3.496  11.674 -0.3453  0.8458  0.2899
    2MPD2    C3   23   4.311   3.546  11.572  0.4166 -0.0123  0.2485
    2MPD2    C4   24   4.299   3.488  11.445 -0.8459 -0.2642 -0.8038
    2MPD2    C5   25   4.206   3.392  11.426 -0.2225 -0.7059  0.4527
    2MPD2     H   26   4.231   3.529  11.777 -2.1327 -4.6318  2.1218
    2MPD2    H1   27   4.362   3.527  11.366  0.1226 -1.2846 -0.5316
    2MPD2    H2   28   4.075   3.244  11.490 -0.7782  0.3712 -0.2369
    2MPD2    H3   29   4.206   3.360  11.322 -1.0367 -2.2062  0.9114
    2MPD2     N   30   4.414   3.640  11.591  0.4798 -0.5480  0.5674
    2MPD2    H5   31   4.465   3.653  11.504 -0.1389  2.4063  0.6471
    2MPD2    N1   32   4.070   3.330  11.752 -0.0194  0.2404 -0.3104
    2MPD2    H7   33   4.080   3.381  11.839 -3.4824 -1.7093  1.2298
    3TMC1    C1   34   3.391   4.467  10.556  0.2108 -1.0512  0.4929
    3TMC1    C2   35   3.381   4.605  10.546 -0.3299 -0.2232  0.3485
    3TMC1    C3   36   3.480   4.660  10.477 -0.0509  0.3261 -0.5650
    3TMC1    C4   37   3.494   4.396  10.507 -0.3057 -0.4910  0.0796
    3TMC1    C5   38   3.602   4.458  10.451  0.0252 -0.6615 -0.3147
    3TMC1    C6   39   3.584   4.592  10.422 -0.2402  1.4359  0.0375
    3TMC1     C   40   3.302   4.398  10.648  0.4389 -0.2003 -0.2049
    3TMC1     O   41   3.309   4.277  10.651  0.1424  0.2012 -0.1168
    3TMC1     H   42   3.289   4.661  10.555 -0.9892 -1.0330 -1.2793
    3TMC1    H1   43   3.502   4.289  10.525 -0.6267 -0.4651  0.3832
    3TMC1    H2   44   3.660   4.642  10.363  0.3816  1.4831  0.8714
    3TMC1    C7   45   3.705   4.380  10.387  0.5870 -0.0813  0.0260
    3TMC1    C8   46   3.474   0.066  10.459 -0.1688  0.2457  0.2150
    3TMC1    O1   47   3.701   4.259  10.375  0.1119  0.3205 -0.5580
    3TMC1    O2   48   3.439   0.138  10.547  0.1460  0.0783  0.1494
    3TMC1    O3   49   3.820   4.448  10.402 -0.2025 -0.4319  0.2399
    3TMC1    H3   50   3.806   4.531  10.452  0.5798  0.7665 -1.5456
    3TMC1    O5   51   3.491   0.083  10.328 -0.5029 -0.3752  0.3832
    3TMC1    H5   52   3.487   0.007  10.266 -1.6081  0.6511 -0.8095
    4MPD2     C   53   3.035   4.343  11.078 -0.2143  0.7378  0.1934
    4MPD2    C1   54   3.058   4.484  11.055  0.4506  0.1264  0.3866
    4MPD2    C2   55   3.106   4.522  10.933 -0.4472  0.3688  0.4394
    4MPD2    C3   56   3.145   4.431  10.841 -0.7611  0.0601  0.0234
    4MPD2    C4   57   3.133   4.299  10.865  0.4032 -0.0255 -0.1609
    4MPD2    C5   58   3.069   4.256  10.981 -0.3408 -1.0506  0.3639
    4MPD2     H   59   3.119   4.627  10.910 -2.8239  0.9921  1.9597
    4MPD2    H1   60   3.162   4.225  10.791  2.0608  1.0320 -0.5631
    4MPD2    H2   61   2.993   4.306  11.170 -0.5024  0.6853  0.0396
    4MPD2    H3   62   3.044   4.151  10.993 -0.9615 -0.9170  0.2706
    4MPD2     N   63   3.225   4.478  10.731 -0.3768 -0.1682  0.0048
    4MPD2    H5   64   3.249   4.577  10.734 -0.8610 -0.1040  1.9819
    4MPD2    N1   65   3.024   4.580  11.150 -0.7133 -0.1523  0.2006
    4MPD2    H7   66   3.035   4.674  11.114 -0.4509 -0.7244 -1.1946
    5TCq1    O1   67   2.986   1.005  10.987 -0.2643  0.7342  0.5796
    5TCq1    C1   68   3.032   1.120  10.934 -0.1193 -0.3376 -0.4309
    5TCq1    O2   69   3.014   1.236  10.974  0.5222  0.0354  0.2517
    5TCq1    C2   70   3.099   1.089  10.810  0.1244  0.1090  0.0061
    5TCq1    C3   71   3.052   0.985  10.727  0.2537  0.3846  0.0599
    5TCq1    C4   72   3.113   0.960  10.609  0.2108  1.0998 -0.2279
    5TCq1    C5   73   3.239   1.019  10.586 -0.7206 -0.5070 -0.2265
    5TCq1    C6   74   3.290   1.111  10.674  0.5085 -0.3063 -0.0699
    5TCq1    C7   75   3.212   1.157  10.783  0.0029  0.5397 -0.6647
    5TCq1    C8   76   3.428   1.130  10.674  0.1828  0.3662 -0.1973
    5TCq1    O4   77   3.497   1.054  10.604  0.0814  0.6547  0.3794
    5TCq1    C9   78   3.067   0.856  10.527  0.3244 -0.5975  0.4099
    5TCq1    O5   79   3.151   0.796  10.450 -0.1323  0.0413 -0.3316
    5TCq1    O6   80   2.948   0.815  10.539 -0.1684 -0.4048 -0.2262
    5TCq1    H1   81   3.014   0.928  10.933 -1.1986 -0.0090  1.1467
    5TCq1    H2   82   2.964   0.926  10.745 -0.1526  1.1793  0.6740
    5TCq1    H3   83   3.300   0.971  10.511 -1.4726 -0.7816 -0.6556
    5TCq1    H4   84   3.246   1.231  10.854 -1.1096  1.3656 -0.9908
    6MPD2     C   85   3.618   1.372  10.881 -0.4397 -0.0323  0.4050
    6MPD2    C1   86   3.599   1.251  10.809  0.0954 -0.8113 -0.4226
    6MPD2    C2   87   3.702   1.163  10.787  0.7747 -0.6611 -0.7965
    6MPD2    C3   88   3.822   1.185  10.844 -0.0240 -0.5068 -0.2865
    6MPD2    C4   89   3.840   1.296  10.929 -0.5981  0.5723  0.1239
    6MPD2    C5   90   3.738   1.387  10.944  0.0303 -0.6362  0.2934
    6MPD2     H   91   3.684   1.070  10.735  0.4987  0.3685 -2.5323
    6MPD2    H1   92   3.933   1.317  10.980 -0.1120 -1.2478  0.0067
    6MPD2    H2   93   3.541   1.444  10.906 -0.9230 -1.1742  2.1898
    6MPD2    H3   94   3.754   1.471  11.012 -2.0066 -1.4822  1.8126
    6MPD2     N   95   3.923   1.098  10.812  0.2108 -0.4229  0.1555
    6MPD2    H5   96   3.895   1.022  10.751 -2.0715  1.5806 -1.3145
    6MPD2    N1   97   3.472   1.230  10.754  0.0070 -0.1386 -0.7222
    6MPD2    H7   98   3.402   1.296  10.788  0.5488  1.2629 -2.3373
    7TCq1    O1   99   0.933   1.105  12.740  0.2035 -0.3329  0.3749
    7TCq1    C1  100   0.912   1.013  12.834  0.7761 -0.2064  0.1463
    7TCq1    O2  101   0.804   0.962  12.858  0.4330  0.2415 -0.1214
    7TCq1    C2  102   1.014   0.996  12.933 -0.0276  0.0031  0.2893
    7TCq1    C3  103   1.078   1.109  12.988  0.2815 -0.3672  0.1026
    7TCq1    C4  104   1.146   1.087  13.112 -1.0793  0.2212  0.6576
    7TCq1    C5  105   1.139   0.974  13.175 -0.5433 -0.8309  0.4713
    7TCq1    C6  106   1.072   0.866  13.117  0.5671 -0.3537  0.6289
    7TCq1    C7  107   1.004   0.875  12.996  0.7118 -0.1956  0.2636
    7TCq1    C8  108   1.077   0.729  13.173 -0.2544  0.4435  0.3301
    7TCq1    O4  109   1.083   0.632  13.097  0.2567  0.1104 -0.4044
    7TCq1    C9  110   1.225   1.187  13.173  0.1696 -0.1281  0.2277
    7TCq1    O5  111   1.237   1.295  13.107  0.0728 -0.1723 -0.2681
    7TCq1    O6  112   1.218   1.185  13.298 -0.2919  0.4389 -0.2745
    7TCq1    H1  113   1.018   1.153  12.741  0.8572 -1.4733 -0.6063
    7TCq1    H2  114   1.083   1.205  12.938 -0.0066 -0.9209 -0.9961
    7TCq1    H3  115   1.204   0.951  13.259 -0.3502 -1.6219  0.1020
    7TCq1    H4  116   0.944   0.797  12.950 -1.4941  0.4416  2.0595
    8MPD2     C  117   1.171   0.448  13.600  0.3162 -0.2531 -0.0398
    8MPD2    C1  118   1.152   0.403  13.470 -0.3001 -0.1772  0.6392
    8MPD2    C2  119   1.120   0.495  13.372 -1.0583 -0.5659 -0.5276
    8MPD2    C3  120   1.115   0.629  13.401 -0.3518  0.1913  0.2198
    8MPD2    C4  121   1.116   0.665  13.537  0.6748 -0.0338  0.1583
    8MPD2    C5  122   1.154   0.577  13.636  0.1149 -0.2987  0.3199
    8MPD2     H  123   1.103   0.459  13.271 -0.7763 -0.4461 -0.6182
    8MPD2    H1  124   1.099   0.764  13.576  0.0278 -0.4163  0.8642
    8MPD2    H2  125   1.197   0.374  13.676  0.4863  0.4843  0.6161
    8MPD2    H3  126   1.170   0.603  13.740 -1.5261 -2.6436  1.1642
    8MPD2     N  127   1.089   0.733  13.312  0.3742 -0.2573  0.8577
    8MPD2    H5  128   1.069   0.820  13.361 -0.8145 -0.1665  0.2189
    8MPD2    N1  129   1.177   0.270  13.448 -0.7938  0.0263 -0.1473
    8MPD2    H7  130   1.223   0.218  13.521 -1.5576 -0.9171 -0.3427
    9TMC1    C1  131   3.818   0.245  11.777 -0.6750 -0.1082  0.2843
    9TMC1    C2  132   3.832   0.304  11.658  0.7391 -0.1050  0.1716
    9TMC1    C3  133   3.926   0.405  11.656  0.4584 -0.2534  0.0408
    9TMC1    C4  134   3.890   0.284  11.892 -0.0980 -0.0111 -0.5408
    9TMC1    C5  135   3.978   0.389  11.879  0.0745 -0.1588  0.1548
    9TMC1    C6  136   4.005   0.447  11.759  0.3852  0.4992  0.2534
    9TMC1     C  137   3.701   0.159  11.802  0.3162 -0.7944 -0.4237
    9TMC1     O  138   3.609   0.152  11.723 -0.4372  0.7356  0.6163
    9TMC1     H  139   3.777   0.276  11.569 -2.1417 -0.2521  1.9829
    9TMC1    H1  140   3.874   0.260  11.996  1.0634 -1.9229 -0.8215
    9TMC1    H2  141   4.075   0.528  11.750 -0.5975  1.0804 -2.0321
    9TMC1    C7  142   4.053   0.420  12.001 -0.4270  0.2470 -0.3265
    9TMC1    C8  143   3.939   0.476  11.530 -0.3026  0.4445 -0.1701
    9TMC1    O1  144   4.003   0.441  12.111  0.7673 -0.0169  0.4768
    9TMC1    O2  145   3.846   0.493  11.449  0.3678  0.8603  0.0712
    9TMC1    O3  146   4.176   0.464  11.962 -0.2687  0.0837 -0.1632
    9TMC1    H3  147   4.202   0.425  11.876  0.3060  0.1260 -0.0091
    9TMC1    O5  148   4.068   0.487  11.505  0.3705 -0.2210 -0.0590
    9TMC1    H5  149   4.121   0.446  11.576 -0.2171 -1.4047 -0.3118
   10MPD2     C  150   3.495   4.701  11.910  0.0491  0.1186  0.3506
   10MPD2    C1  151   3.623   4.720  11.957 -0.2451 -0.4091  1.4969
   10MPD2    C2  152   3.669   4.631  12.054 -0.0714  0.1156 -0.7411
   10MPD2    C3  153   3.586   4.523  12.090 -0.2801  0.3994 -0.1103
   10MPD2    C4  154   3.463   4.508  12.041  0.2263  0.2570 -0.5531
   10MPD2    C5  155   3.420   4.596  11.953  0.1047  0.3327 -0.2316
   10MPD2     H  156   3.771   4.638  12.088 -0.9768 -0.6677  2.1623
   10MPD2    H1  157   3.391   4.439  12.081 -0.8599  2.1380  0.7401
   10MPD2    H2  158   3.441   0.027  11.844  1.5383 -1.8146 -2.8040
   10MPD2    H3  159   3.315   4.583  11.927  0.5496 -1.9025 -0.9027
   10MPD2     N  160   3.628   4.430  12.189  0.5567  0.5280 -0.1644
   10MPD2    H5  161   3.566   4.350  12.193  0.3668  0.7642  1.3313
   10MPD2    N1  162   3.709   0.079  11.915  0.6598  0.0996  0.0975
   10MPD2    H7  163   3.793   0.093  11.969  0.7106 -1.7582  0.5002
   11TCq1    O1  164   3.828   4.231  14.763 -0.5105 -0.7205  0.5406
   11TCq1    C1  165   3.725   4.151  14.725 -0.5559  0.5340  0.4462
   11TCq1    O2  166   3.645   4.185  14.641  0.1086  0.7129  0.1668
   11TCq1    C2  167   3.775   4.018  14.711  0.9622 -0.3619  0.2998
   11TCq1    C3  168   3.903   3.989  14.748  0.3523  0.0669  0.4012
   11TCq1    C4  169   3.949   3.861  14.721 -0.6557 -0.1612  1.1428
   11TCq1    C5  170   3.872   3.777  14.642 -0.3346 -0.3447 -0.0662
   11TCq1    C6  171   3.741   3.810  14.611 -0.1472 -0.0649 -0.0501
   11TCq1    C7  172   3.689   3.940  14.643 -0.4548  0.6697 -0.3958
   11TCq1    C8  173   3.696   3.773  14.476  0.1384  0.3908 -0.6847
   11TCq1    O4  174   3.664   3.871  14.407  0.3039 -0.2704  0.0870
   11TCq1    C9  175   4.069   3.819  14.785  0.2027  0.7366  0.6757
   11TCq1    O5  176   4.095   3.695  14.780  1.0221  0.2557 -0.4984
   11TCq1    O6  177   4.136   3.905  14.850 -0.1663 -0.0990 -0.4294
   11TCq1    H1  178   3.852   4.203  14.854  0.6200 -2.5315 -0.3182
   11TCq1    H2  179   3.970   4.059  14.797 -1.4388  1.5581  0.6890
   11TCq1    H3  180   3.923   3.685  14.616  1.3289  0.2050  1.2529
   11TCq1    H4  181   3.590   3.969  14.608 -0.5298  2.5171  1.3220
   12MPD2     C  182   3.674   3.655  14.202  0.2085 -0.8359 -0.2845
   12MPD2    C1  183   3.714   3.583  14.315  0.0998  0.4115  0.8843
   12MPD2    C2  184   3.764   3.458  14.298  0.2130  0.5029  0.0385
   12MPD2    C3  185   3.782   3.402  14.175 -0.3131 -1.1101 -0.0911
   12MPD2    C4  186   3.724   3.467  14.069 -0.1106 -0.0523 -0.3752
   12MPD2    C5  187   3.664   3.591  14.084 -0.4613 -0.0960  0.4326
   12MPD2     H  188   3.812   3.407  14.381  1.2355  0.2424 -0.7206
   12MPD2    H1  189   3.721   3.418  13.972 -0.6727 -0.5918 -0.0871
   12MPD2    H2  190   3.632   3.755  14.201 -0.8853 -1.3037 -0.8004
   12MPD2    H3  191   3.632   3.641  13.993 -3.2485  0.2305  1.6076
   12MPD2     N  192   3.855   3.283  14.150  0.7575  0.5249  0.2442
   12MPD2    H5  193   3.861   3.252  14.054  1.1234 -3.0642  1.4134
   12MPD2    N1  194   3.719   3.637  14.443  0.6796 -0.0912 -0.2786
   12MPD2    H7  195   3.746   3.572  14.516 -0.0769 -1.4429 -1.2048
   13TCq1    O1  196   4.209   0.104  11.231  0.2168  0.1565  0.1241
   13TCq1    C1  197   4.080   0.116  11.279  0.1234  0.6035  0.2119
   13TCq1    O2  198   3.996   0.189  11.224  0.2244  0.4109 -0.3493
   13TCq1    C2  199   4.094   0.098  11.423  0.5173  0.1875 -0.2271
   13TCq1    C3  200   4.177   0.188  11.483 -0.2599 -0.7006 -0.3781
   13TCq1    C4  201   4.203   0.173  11.621 -0.5437  0.2342  0.6243
   13TCq1    C5  202   4.160   0.057  11.678  0.3998 -0.1971  0.3002
   13TCq1    C6  203   4.086   4.700  11.605  0.4641  0.5076  0.1374
   13TCq1    C7  204   4.065   4.720  11.474  0.5966  0.4294 -0.5214
   13TCq1    C8  205   4.039   4.575  11.657 -0.4615 -0.1935  0.4850
   13TCq1    O4  206   3.967   4.519  11.580 -0.1504  0.1037  0.0819
   13TCq1    C9  207   4.272   0.277  11.693 -0.9052 -0.0653  0.5963
   13TCq1    O5  208   4.298   0.261  11.817  0.1847  0.5107 -0.0949
   13TCq1    O6  209   4.255   0.387  11.641  0.6285 -0.3006 -0.0603
   13TCq1    H1  210   4.259   0.055  11.299  0.3692  1.6337  1.0783
   13TCq1    H2  211   4.210   0.275  11.428  0.4521 -0.9898 -0.4055
   13TCq1    H3  212   4.173   0.059  11.786 -1.1429 -1.0913  0.4941
   13TCq1    H4  213   4.007   4.651  11.414  0.6787  2.1165 -2.5746
   14MPD2     C  214   4.080   4.393  11.975 -0.4171 -0.6714 -0.9187
   14MPD2    C1  215   4.019   4.439  11.861 -0.3904  0.3766  0.1594
   14MPD2    C2  216   3.894   4.390  11.827  0.2685  0.4888 -0.3771
   14MPD2    C3  217   3.834   4.298  11.907 -0.0490  0.5232 -0.3912
   14MPD2    C4  218   3.901   4.232  12.013 -0.2732  0.3561 -0.8603
   14MPD2    C5  219   4.018   4.289  12.041 -0.5781  0.9342 -0.4071
   14MPD2     H  220   3.834   4.432  11.748 -0.7840 -0.6229 -0.1773
   14MPD2    H1  221   3.857   4.150  12.069  1.0927  1.5360  1.9136
   14MPD2    H2  222   4.172   4.437  12.011 -0.3480 -1.1626 -0.4873
   14MPD2    H3  223   4.077   4.245  12.121  1.2570  1.3902 -1.5108
   14MPD2     N  224   3.707   4.245  11.854 -0.0893  0.1377 -0.3580
   14MPD2    H5  225   3.662   4.295  11.778 -2.3609 -0.2117  0.7839
   14MPD2    N1  226   4.075   4.544  11.788  0.4755  0.2123 -0.1243
   14MPD2    H7  227   4.150   4.600  11.829 -0.8477  2.2107 -0.4231
   15TCq1    O1  228   2.221   2.368   1.804  0.1676  0.4575 -0.1292
   15TCq1    C1  229   2.167   2.320   1.691 -0.2992 -0.6671 -0.4224
   15TCq1    O2  230   2.148   2.386   1.589 -0.8322  0.1719 -0.6358
   15TCq1    C2  231   2.209   2.182   1.698 -0.2531  0.1166 -0.2910
   15TCq1    C3  232   2.337   2.153   1.739 -0.1596 -0.1032 -0.1217
   15TCq1    C4  233   2.384   2.029   1.702 -0.0533  0.5181 -0.1638
   15TCq1    C5  234   2.310   1.934   1.627 -0.2560 -0.2796  0.2498
   15TCq1    C6  235   2.184   1.977   1.594  0.1513  0.4677 -0.9350
   15TCq1    C7  236   2.134   2.097   1.625  0.2678  1.0599 -0.1608
   15TCq1    C8  237   2.111   1.874   1.517  0.7646 -0.1395  0.5061
   15TCq1    O4  238   2.158   1.759   1.511 -0.1512 -0.2511  0.3365
   15TCq1    C9  239   2.525   2.009   1.731  0.4720  0.6166  0.2662
   15TCq1    O5  240   2.585   2.089   1.812 -0.6914 -0.2781 -0.5002
   15TCq1    O6  241   2.581   1.918   1.663  0.3200  0.1773  0.2980
   15TCq1    H1  242   2.230   2.302   1.876  0.5462 -1.2451 -1.7600
   15TCq1    H2  243   2.410   2.224   1.777 -0.4849  0.9315 -1.4725
   15TCq1    H3  244   2.339   1.835   1.594 -1.9680 -1.0275  0.9848
   15TCq1    H4  245   2.039   2.136   1.591 -0.7238 -1.2090  0.0407
   16MPD2     C  246   1.783   1.883   1.350 -0.3912  0.6294 -0.3259
   16MPD2    C1  247   1.917   1.855   1.370  0.0259  1.0341  0.4545
   16MPD2    C2  248   1.969   1.759   1.285  0.0517 -0.4894  0.5573
   16MPD2    C3  249   1.895   1.695   1.182 -0.1424 -0.1893  1.0818
   16MPD2    C4  250   1.756   1.709   1.182  0.1263  0.0472  0.2490
   16MPD2    C5  251   1.708   1.813   1.260  0.4588 -0.0084  0.4391
   16MPD2     H  252   2.078   1.756   1.285  0.0843  1.1330 -1.8228
   16MPD2    H1  253   1.688   1.654   1.118 -0.4919  0.8900  0.1740
   16MPD2    H2  254   1.723   1.948   1.412 -1.2632 -1.7081  1.3221
   16MPD2    H3  255   1.606   1.846   1.243  0.6948 -0.0506 -1.0838
   16MPD2     N  256   1.965   1.598   1.104  0.2921 -0.1528  0.5021
   16MPD2    H5  257   2.062   1.583   1.128  0.4420  0.0251 -0.0036
   16MPD2    N1  258   1.980   1.919   1.482  0.6125  0.0649 -0.7487
   16MPD2    H7  259   1.932   1.992   1.533  0.8577 -2.1713  2.6898
   17TMC1    C1  260   3.502   2.422   9.919  0.5353 -0.5376  0.1290
   17TMC1    C2  261   3.462   2.375  10.034 -0.1582 -0.2685  0.0711
   17TMC1    C3  262   3.399   2.261  10.041  0.1640 -0.2423  0.0481
   17TMC1    C4  263   3.492   2.344   9.802  0.2111  0.2844 -0.3750
   17TMC1    C5  264   3.433   2.223   9.819  1.1737  0.2537 -0.1374
   17TMC1    C6  265   3.378   2.185   9.935  0.3508 -0.2619  0.6559
   17TMC1     C  266   3.596   2.530   9.903 -0.2962 -0.0743  0.0046
   17TMC1     O  267   3.657   2.554   9.799  0.3149  0.0688 -0.3469
   17TMC1     H  268   3.467   2.431  10.126  1.4651  0.4518 -0.4439
   17TMC1    H1  269   3.523   2.386   9.708 -1.1892  3.5454  0.6382
   17TMC1    H2  270   3.322   2.092   9.944 -0.2404 -0.0771 -1.1950
   17TMC1    C7  271   3.367   2.157   9.706  0.5398 -0.1369 -0.2149
   17TMC1    C8  272   3.320   2.222  10.159  0.5003 -1.1873  0.3435
   17TMC1    O1  273   3.263   2.093   9.731  0.1991  0.0659 -0.6952
   17TMC1    O2  274   3.340   2.277  10.265  0.4765  0.1139  0.3613
   17TMC1    O3  275   3.437   2.164   9.592  0.2276 -0.2080 -0.4221
   17TMC1    H3  276   3.518   2.219   9.595  1.5612 -2.1640 -0.8040
   17TMC1    O5  277   3.233   2.122  10.142 -0.1017  0.3826  0.1684
   17TMC1    H5  278   3.194   2.118  10.053 -1.1890 -0.0963  0.6668
   18MPD2     C  279   3.784   2.750   9.957  0.4681  0.1075 -1.0160
   18MPD2    C1  280   3.691   2.702  10.052  0.2234 -0.7124 -0.2407
   18MPD2    C2  281   3.689   2.763  10.179  0.7199  0.2450  0.5279
   18MPD2    C3  282   3.778   2.864  10.209  0.3235  0.2888  0.7480
   18MPD2    C4  283   3.855   2.913  10.108 -1.2199 -0.1719 -0.1756
   18MPD2    C5  284   3.873   2.852   9.989  0.1952  0.6147 -0.1198
   18MPD2     H  285   3.626   2.719  10.255 -1.2537  0.8645 -0.7608
   18MPD2    H1  286   3.913   3.001  10.130  2.2257 -2.1319 -1.5419
   18MPD2    H2  287   3.783   2.713   9.855 -0.5702 -0.7231 -0.7057
   18MPD2    H3  288   3.935   2.886   9.907 -0.6084  0.1777 -0.9020
   18MPD2     N  289   3.789   2.927  10.330 -0.0453  0.1579 -0.3086
   18MPD2    H5  290   3.853   3.005  10.338  1.2784 -0.9340 -0.1725
   18MPD2    N1  291   3.600   2.601  10.018  0.4025 -0.1021 -0.1964
   18MPD2    H7  292   3.537   2.579  10.094 -0.5175 -0.1403 -0.9610
   19TMC2    C1  293   1.263   3.841  13.945  0.5702 -0.1046  0.3723
   19TMC2    C2  294   1.250   3.924  13.837  0.7796  0.0349  0.6418
   19TMC2    C3  295   1.127   3.942  13.779  0.1974 -0.3796  0.0636
   19TMC2    C4  296   1.146   3.790  14.001 -0.2512 -0.4754  0.8019
   19TMC2    C5  297   1.030   3.815  13.940 -0.3262  0.9436  0.1455
   19TMC2    C6  298   1.021   3.881  13.827  0.3766  0.1572  0.0591
   19TMC2     C  299   1.385   3.865  14.016 -0.0136 -0.2007 -0.0275
   19TMC2     O  300   1.474   3.927  13.956 -0.4371 -0.3955 -0.6640
   19TMC2     H  301   1.329   3.994  13.810  0.4616 -0.1870 -0.8180
   19TMC2    H1  302   1.154   3.718  14.082 -1.3045 -0.5042  0.8813
   19TMC2    H2  303   0.929   3.890  13.771  1.5652  1.2137 -1.7475
   19TMC2    C7  304   0.918   3.739  13.985 -0.6449 -0.2321 -0.0879
   19TMC2    C8  305   1.114   4.050  13.672  0.0886  0.2272 -0.6967
   19TMC2    O1  306   0.928   3.626  14.030  0.7006 -0.1052  0.3139
   19TMC2    O2  307   1.003   4.088  13.643 -0.1837 -0.4115  0.2055
   19TMC2    O5  308   1.211   4.014  13.587  0.4413  0.3228  0.3769
   19TMC2    H5  309   1.292   3.964  13.608  0.4028 -0.4594 -1.3604
   20MPD2     C  310   1.609   3.898  14.204  0.6489  0.2215  0.4502
   20MPD2    C1  311   1.496   3.817  14.234  0.4905  0.9714  0.5293
   20MPD2    C2  312   1.483   3.755  14.357  0.2050  0.2912 -0.1769
   20MPD2    C3  313   1.593   3.743  14.437  0.4888  0.1582 -0.2819
   20MPD2    C4  314   1.710   3.812  14.403  0.4201 -0.5854 -0.8427
   20MPD2    C5  315   1.715   3.893  14.289  0.2244  0.5260  0.2565
   20MPD2     H  316   1.391   3.705  14.386  0.0339  0.6191 -0.1539
   20MPD2    H1  317   1.791   3.810  14.475 -0.9782  2.8557  0.8036
   20MPD2    H2  318   1.619   3.958  14.114 -0.3111  0.6429  0.6255
   20MPD2    H3  319   1.806   3.950  14.276  0.0584  0.8820  0.6435
   20MPD2     N  320   1.600   3.685  14.565  0.1412 -0.1558  0.0632
   20MPD2    H5  321   1.691   3.676  14.609  1.0991  1.8593 -1.5150
   20MPD2    N1  322   1.384   3.820  14.148 -0.5066 -0.1710 -0.1787
   20MPD2    H7  323   1.297   3.776  14.176 -0.2881 -1.3003 -1.2432
   21TMC2    C1  324   3.186   3.614  14.155  0.2755  0.0095  0.2396
   21TMC2    C2  325   3.298   3.538  14.179  0.4043  0.3972  0.8322
   21TMC2    C3  326   3.322   3.472  14.289  0.4814  0.0735  0.2009
   21TMC2    C4  327   3.088   3.596  14.247 -0.0779  0.0298 -0.4922
   21TMC2    C5  328   3.118   3.535  14.366 -0.3090 -0.4070  0.3567
   21TMC2    C6  329   3.229   3.459  14.389 -0.4096 -0.1052 -0.0968
   21TMC2     C  330   3.218   3.751  14.152  0.1328 -0.2229 -0.3553
   21TMC2     O  331   3.321   3.789  14.204 -0.6002 -0.9548  0.0208
   21TMC2     H  332   3.377   3.553  14.106 -0.9130  0.6375 -0.5351
   21TMC2    H1  333   2.990   3.636  14.224  0.2732  0.3560 -1.4200
   21TMC2    H2  334   3.256   3.419  14.486 -1.4060  0.8717  0.5875
   21TMC2    C7  335   3.016   3.543  14.474  0.1438  0.3417  0.6712
   21TMC2    C8  336   3.424   3.370  14.279 -0.5786  0.7241  0.0124
   21TMC2    O1  337   3.032   3.470  14.569  0.1462  0.4999 -0.1457
   21TMC2    O2  338   3.469   3.334  14.171 -0.0976  0.1910 -0.0277
   21TMC2    O5  339   3.428   3.305  14.398  0.0967  0.7567 -0.8186
   21TMC2    H5  340   3.404   3.361  14.475  1.0199  1.9640 -1.4074
   22MPD2     C  341   2.894   4.081  14.362 -0.1921  0.0377 -0.6030
   22MPD2    C1  342   3.021   4.034  14.400 -0.1690 -0.8767 -0.0938
   22MPD2    C2  343   3.101   3.967  14.311 -0.0964 -0.1350 -0.6546
   22MPD2    C3  344   3.048   3.920  14.190 -0.0348  1.0511 -0.0491
   22MPD2    C4  345   2.916   3.959  14.159 -0.0889 -0.0211  0.0302
   22MPD2    C5  346   2.841   4.037  14.242  0.2114 -0.1815  1.1179
   22MPD2     H  347   3.195   3.929  14.350 -0.2147  1.7675  1.4633
   22MPD2    H1  348   2.871   3.926  14.066 -0.2157 -0.0485  0.1024
   22MPD2    H2  349   2.831   4.143  14.424  0.7907  0.5213 -0.0896
   22MPD2    H3  350   2.745   4.073  14.207  0.5254 -1.0307 -0.5818
   22MPD2     N  351   3.103   3.813  14.120  0.1646  0.1580  0.4477
   22MPD2    H5  352   3.036   3.762  14.063  0.9597 -1.6759  1.1260
   22MPD2    N1  353   3.073   4.044  14.535 -0.4447  0.4161 -0.1127
   22MPD2    H7  354   3.168   4.014  14.554 -0.4525 -0.7860 -2.0283
   23TMC2    C1  355   4.099   0.274  14.510  0.0532 -0.2880 -0.4202
   23TMC2    C2  356   4.072   0.377  14.422 -0.6361 -0.2989 -0.2739
   23TMC2    C3  357   3.944   0.421  14.404  0.4182  0.7056  0.6809
   23TMC2    C4  358   3.994   0.209  14.569  0.2057  0.0236 -0.1520
   23TMC2    C5  359   3.862   0.241  14.532 -0.5625  0.1480 -0.3317
   23TMC2    C6  360   3.837   0.346  14.450  0.2008 -0.7415 -1.0264
   23TMC2     C  361   4.234   0.228  14.535  0.5103  0.3343 -0.0521
   23TMC2     O  362   4.241   0.159  14.638  0.1920 -0.4371 -0.2070
   23TMC2     H  363   4.154   0.432  14.376  0.4002 -0.6298  1.1832
   23TMC2    H1  364   4.015   0.121  14.629  1.8233  0.5456  0.0388
   23TMC2    H2  365   3.739   0.378  14.419  0.4432  1.3697  0.4316
   23TMC2    C7  366   3.755   0.165  14.596  0.3603  0.2829  0.5641
   23TMC2    C8  367   3.935   0.546  14.333 -0.8013 -0.7469 -0.2193
   23TMC2    O1  368   3.777   0.109  14.700 -0.2334 -0.3002 -0.0432
   23TMC2    O2  369   4.024   0.590  14.265  0.1174 -0.1984  0.3200
   23TMC2    O5  370   3.824   0.618  14.376  0.6120  1.1143  0.6655
   23TMC2    H5  371   3.753   0.575  14.428  1.4780 -0.2810  0.6974
   24MPD2     C  372   4.721   0.098  14.412 -0.7006 -0.3951  0.0496
   24MPD2    C1  373   4.649   0.086  14.530  0.5290  0.1842  0.0932
   24MPD2    C2  374   4.525   0.145  14.540  0.7075 -0.0313  0.3340
   24MPD2    C3  375   4.464   0.211  14.432  0.5402 -0.0024  0.6153
   24MPD2    C4  376   4.540   0.226  14.316 -0.0803 -0.0280  0.2501
   24MPD2    C5  377   4.668   0.175  14.311  0.5753  0.7365 -0.4891
   24MPD2     H  378   4.471   0.138  14.634 -1.0271  0.4065 -0.6304
   24MPD2    H1  379   4.499   0.277  14.229 -0.1226 -1.0886 -0.3466
   24MPD2    H2  380   0.079   0.056  14.403 -0.2378  0.7262 -0.1482
   24MPD2    H3  381   4.726   0.193  14.221  0.1697 -1.3055 -1.1538
   24MPD2     N  382   4.330   0.265  14.436 -0.6074 -0.2368 -0.1433
   24MPD2    H5  383   4.303   0.319  14.354  0.3532  1.2028  0.4703
   24MPD2    N1  384   4.699   0.020  14.641  0.2907  0.9791 -0.2475
   24MPD2    H7  385   4.645   0.024  14.727 -0.5023  0.8435 -0.7424
   25TMC2    C1  386   3.397   2.913  11.331 -0.0886  0.6156  0.2662
   25TMC2    C2  387   3.489   3.010  11.354  0.0819 -0.1624  0.3511
   25TMC2    C3  388   3.550   3.014  11.477 -0.3639 -0.1938 -0.1150
   25TMC2    C4  389   3.364   2.816  11.426  0.0697 -0.2649  0.0087
   25TMC2    C5  390   3.428   2.825  11.548  0.3530  0.3058  1.1138
   25TMC2    C6  391   3.513   2.930  11.581  0.9899 -0.3472 -0.2948
   25TMC2     C  392   3.339   2.903  11.193 -0.5206  0.1486 -0.0054
   25TMC2     O  393   3.399   2.976  11.113  0.2714 -0.5931 -0.0854
   25TMC2     H  394   3.530   3.070  11.273  0.9900  0.3306  1.1810
   25TMC2    H1  395   3.278   2.751  11.417 -0.5586  0.7759 -1.5478
   25TMC2    H2  396   3.547   2.944  11.683  1.8495 -0.0989 -0.6083
   25TMC2    C7  397   3.387   2.732  11.655  0.1820  0.2590 -0.3494
   25TMC2    C8  398   3.649   3.119  11.519 -0.2669  0.3703  0.5076
   25TMC2    O1  399   3.412   2.769  11.770  0.1229 -0.4599  0.1451
   25TMC2    O2  400   3.711   3.184  11.438  0.2062  0.7925 -0.1420
   25TMC2    O5  401   3.606   3.154  11.643  0.2991  0.6181  0.0084
   25TMC2    H5  402   3.521   3.114  11.672 -1.0913  4.0862  0.8237
   26MPD2     C  403   3.084   2.687  10.802  0.7230 -0.0723 -0.3742
   26MPD2    C1  404   3.090   2.596  10.911 -0.8467  0.2021  0.1361
   26MPD2    C2  405   3.145   2.638  11.028  0.2430  0.7681 -0.3505
   26MPD2    C3  406   3.203   2.763  11.044  0.0927  0.0253 -0.9640
   26MPD2    C4  407   3.193   2.848  10.934  0.2685 -0.0087  0.2476
   26MPD2    C5  408   3.129   2.814  10.823  0.5507 -0.3766  0.3914
   26MPD2     H  409   3.142   2.573  11.114  2.2446  0.9467 -0.1272
   26MPD2    H1  410   3.226   2.951  10.942  0.8520 -0.0861 -1.1535
   26MPD2    H2  411   3.061   2.656  10.701 -1.8280  0.7246 -0.0273
   26MPD2    H3  412   3.119   2.882  10.739  1.2352 -1.4107 -0.5265
   26MPD2     N  413   3.261   2.793  11.171 -0.0201 -0.9733 -0.1336
   26MPD2    H5  414   3.231   2.730  11.245  0.6336 -0.3865  0.6380
   26MPD2    N1  415   3.042   2.462  10.885  0.2190 -0.0411  0.0764
   26MPD2    H7  416   3.009   2.449  10.790 -1.9895 -0.6662  0.9394
   27TMC2    C1  417   1.669   1.086  12.573 -0.1664 -0.3571 -0.2948
   27TMC2    C2  418   1.749   1.159  12.486  0.5593  0.3458  0.2529
   27TMC2    C3  419   1.881   1.146  12.521  0.2403 -0.4572  0.5847
   27TMC2    C4  420   1.716   1.020  12.686  0.6840 -0.0820  0.2924
   27TMC2    C5  421   1.847   1.027  12.716 -0.3657  0.2828 -0.1465
   27TMC2    C6  422   1.935   1.071  12.622  0.4300  0.0929  0.2908
   27TMC2     C  423   1.531   1.065  12.531  0.0858 -0.2766  0.1852
   27TMC2     O  424   1.451   1.017  12.606  0.0577 -0.0438  0.0836
   27TMC2     H  425   1.719   1.217  12.399  1.0318  0.2749  0.0406
   27TMC2    H1  426   1.651   0.947  12.734 -0.4255  0.3091 -0.6010
   27TMC2    H2  427   2.042   1.072  12.641  1.1323  0.8905 -3.7682
   27TMC2    C7  428   1.895   0.935  12.816  0.1728 -0.4032  0.3729
   27TMC2    C8  429   1.962   1.153  12.404 -0.2688  0.7200  0.9085
   27TMC2    O1  430   1.816   0.861  12.873  0.4698 -0.3275 -0.4792
   27TMC2    O2  431   1.948   1.242  12.320 -0.2502  0.6157 -0.0197
   27TMC2    O5  432   2.064   1.063  12.411 -0.3989 -0.4327 -0.4685
   27TMC2    H5  433   2.049   0.986  12.470  0.2112  0.7544  1.2560
   28MPD2     C  434   1.168   1.072  12.161 -0.1123  0.5487  0.0981
   28MPD2    C1  435   1.146   1.047  12.295 -0.1848 -0.1513  0.1461
   28MPD2    C2  436   1.263   1.054  12.372 -0.0574 -0.0396 -0.1709
   28MPD2    C3  437   1.390   1.081  12.323 -0.6542 -0.3799  0.4595
   28MPD2    C4  438   1.403   1.109  12.192 -0.2669  0.5861 -0.4678
   28MPD2    C5  439   1.290   1.107  12.111  0.5656  0.3400  0.3012
   28MPD2     H  440   1.257   1.039  12.479 -1.4544 -0.9915 -0.3867
   28MPD2    H1  441   1.494   1.153  12.152  0.6518  0.4709  1.4806
   28MPD2    H2  442   1.084   1.063  12.092 -1.2469 -0.5245  1.6082
   28MPD2    H3  443   1.290   1.130  12.005  0.4356  2.0844  0.6811
   28MPD2     N  444   1.510   1.091  12.397  0.1714 -0.1440  0.7007
   28MPD2    H5  445   1.594   1.111  12.344 -0.2820  0.2377  0.1339
   28MPD2    N1  446   1.025   1.008  12.349  0.2486 -0.4084  0.2888
   28MPD2    H7  447   1.023   0.982  12.447  0.0720 -1.6231 -0.0473
   29TMC2    C1  448   1.849   2.344  13.971 -0.2060 -0.1236 -0.1452
   29TMC2    C2  449   1.772   2.459  13.997  0.2274 -0.0893 -0.0087
   29TMC2    C3  450   1.828   2.581  13.984 -0.2841  0.1084 -0.4122
   29TMC2    C4  451   1.976   2.357  13.921 -0.5878  0.4752 -0.0802
   29TMC2    C5  452   2.020   2.488  13.902 -0.0696 -0.1075  0.1305
   29TMC2    C6  453   1.955   2.600  13.946 -0.6521 -0.9047  0.4154
   29TMC2     C  454   1.798   2.212  14.004 -0.1810 -0.0805  0.1664
   29TMC2     O  455   1.687   2.214  14.064  0.5574 -0.2787 -0.2288
   29TMC2     H  456   1.670   2.454  14.035  0.4225  2.1382  0.8101
   29TMC2    H1  457   2.045   2.273  13.915  0.7344  1.4187  1.8240
   29TMC2    H2  458   1.986   2.699  13.913  0.7404 -1.4798 -0.0178
   29TMC2    C7  459   2.165   2.506  13.881  0.0408 -0.0613  0.1915
   29TMC2    C8  460   1.747   2.690  14.016 -0.0716 -0.1629 -0.7498
   29TMC2    O1  461   2.220   2.408  13.831 -1.0557  0.0403 -0.3543
   29TMC2    O2  462   1.635   2.693  13.966 -0.6730  0.0131  0.1891
   29TMC2    O5  463   1.781   2.742  14.134  0.2135 -0.5465  1.0238
   29TMC2    H5  464   1.870   2.713  14.164  0.7895  2.4213  2.1635
   30MPD2     C  465   1.718   1.711  13.942 -0.7270  0.1868 -0.1386
   30MPD2    C1  466   1.850   1.738  13.898  0.2150  0.5469 -0.4561
   30MPD2    C2  467   1.891   1.865  13.904 -0.5170  0.2530 -0.1686
   30MPD2    C3  468   1.813   1.967  13.948  0.2540  0.3878  0.0188
   30MPD2    C4  469   1.677   1.945  13.971  0.4384  0.0558  0.5971
   30MPD2    C5  470   1.633   1.814  13.968  0.0139  0.2074 -0.1010
   30MPD2     H  471   1.994   1.885  13.878 -0.8419 -0.8477 -2.3714
   30MPD2    H1  472   1.604   2.021  13.994  0.0519  0.4639 -1.9686
   30MPD2    H2  473   1.666   1.616  13.940  0.2339 -0.3598  1.1903
   30MPD2    H3  474   1.529   1.794  13.992  0.0535  0.2067  0.0710
   30MPD2     N  475   1.862   2.101  13.952  0.1210 -0.1931 -0.2609
   30MPD2    H5  476   1.958   2.110  13.919  0.1797 -1.9084 -0.5346
   30MPD2    N1  477   1.932   1.623  13.872  0.3806  0.3229 -0.0840
   30MPD2    H7  478   1.890   1.536  13.901 -1.4991  0.6385 -1.8358
   31TMC2    C1  479   4.098   1.022  15.162 -0.7899 -0.5159 -0.0235
   31TMC2    C2  480   3.979   1.083  15.177  0.7414 -0.3290 -0.3619
   31TMC2    C3  481   3.904   1.055  15.289 -0.6272 -0.3394 -0.1266
   31TMC2    C4  482   4.141   0.923  15.243 -0.7547  0.3598 -0.4578
   31TMC2    C5  483   4.055   0.884  15.341 -0.5326 -0.1223  0.1539
   31TMC2    C6  484   3.935   0.949  15.369  1.0710 -0.7814  0.4485
   31TMC2     C  485   4.185   1.059  15.054 -0.6158  0.3300  0.5343
   31TMC2     O  486   4.168   1.177  15.026  0.0967 -0.2429  0.4824
   31TMC2     H  487   3.946   1.157  15.104 -0.9050  0.0122  0.7300
   31TMC2    H1  488   4.236   0.874  15.224 -1.1268 -0.2721 -0.6589
   31TMC2    H2  489   3.855   0.913  15.432 -0.3829  1.4352 -0.1508
   31TMC2    C7  490   4.119   0.789  15.433 -0.5990 -0.2659 -0.7000
   31TMC2    C8  491   3.778   1.118  15.298 -0.6142  0.0122 -0.4503
   31TMC2    O1  492   4.234   0.750  15.406  0.3598 -0.1318 -0.3619
   31TMC2    O2  493   3.673   1.064  15.329  0.1048 -0.2974  0.2168
   31TMC2    O5  494   3.809   1.247  15.312  0.8826  0.1207  0.8873
   31TMC2    H5  495   3.900   1.276  15.289  1.3851 -0.3874  2.2496
   32MPD2     C  496   4.538   0.994  14.698  0.1823 -0.5655 -0.0526
   32MPD2    C1  497   4.460   1.104  14.731  0.4777 -0.8717  0.1347
   32MPD2    C2  498   4.371   1.090  14.830  0.2857  0.1099  0.2840
   32MPD2    C3  499   4.343   0.968  14.892 -0.6114  0.6315  0.1235
   32MPD2    C4  500   4.397   0.854  14.837  0.4155  0.8391  0.9487
   32MPD2    C5  501   4.501   0.868  14.743  0.3795 -0.5494 -0.2959
   32MPD2     H  502   4.311   1.177  14.852  1.4274  0.3271  2.5027
   32MPD2    H1  503   4.377   0.760  14.888  0.2830 -0.6259 -1.8158
   32MPD2    H2  504   4.623   0.993  14.631 -1.3376 -0.0718 -1.9872
   32MPD2    H3  505   4.558   0.781  14.711  0.5628 -0.7337  0.5389
   32MPD2     N  506   4.245   0.949  14.990  1.1108 -0.0414  0.4419
   32MPD2    H5  507   4.236   0.854  15.023 -1.7300 -0.6808 -2.1689
   32MPD2    N1  508   4.491   1.226  14.670 -0.6347 -0.0070 -0.4758
   32MPD2    H7  509   4.568   1.224  14.604 -1.0147 -0.2490 -0.9171
   33TMC2    C1  510   4.058   3.890  10.222  0.6591  0.2675 -0.4295
   33TMC2    C2  511   4.027   3.878  10.090 -0.5042 -0.3171  0.4096
   33TMC2    C3  512   4.076   3.977  10.002  0.1922 -0.1525  0.6112
   33TMC2    C4  513   4.139   3.993  10.263 -0.0723 -0.7186 -0.1385
   33TMC2    C5  514   4.193   4.082  10.168 -0.3059 -0.7171 -0.0508
   33TMC2    C6  515   4.173   4.071  10.035  0.7324 -0.8768 -0.2832
   33TMC2     C  516   3.998   3.791  10.305 -0.4870  0.8375  0.3783
   33TMC2     O  517   3.981   3.679  10.264 -0.1193 -0.0388 -0.3477
   33TMC2     H  518   3.954   3.811  10.046 -0.5536  1.6048 -2.4383
   33TMC2    H1  519   4.170   3.984  10.366 -0.3290 -0.0688 -0.0036
   33TMC2    H2  520   4.230   4.125   9.960  1.1786 -0.5392  0.3025
   33TMC2    C7  521   4.302   4.173  10.204 -0.6980 -0.3234  0.0414
   33TMC2    C8  522   4.011   3.989   9.874 -0.9769 -0.5130  0.4501
   33TMC2    O1  523   4.392   4.206  10.131 -0.5713  0.2778  0.2049
   33TMC2    O2  524   3.964   3.892   9.819 -0.4138  0.3820 -0.8191
   33TMC2    O5  525   4.014   4.116   9.833  0.1794 -0.0134 -0.2631
   33TMC2    H5  526   4.030   4.192   9.893  0.7770  0.3207 -0.8420
   34MPD2     C  527   3.847   3.644  10.787 -0.5550  0.9786  0.3828
   34MPD2    C1  528   3.855   3.575  10.667  0.6923  0.6145 -0.2796
   34MPD2    C2  529   3.903   3.638  10.550  0.0691 -0.2114  0.1093
   34MPD2    C3  530   3.919   3.778  10.538  0.4208  0.3505  0.0741
   34MPD2    C4  531   3.904   3.844  10.660 -0.0719  0.2266  0.1047
   34MPD2    C5  532   3.870   3.777  10.774  0.3301  0.5919 -0.6684
   34MPD2     H  533   3.919   3.576  10.463 -0.1858  0.6894 -0.5857
   34MPD2    H1  534   3.939   3.947  10.668 -1.1264  0.5566  0.4250
   34MPD2    H2  535   3.823   3.598  10.882 -0.5361  1.9947  0.8861
   34MPD2    H3  536   3.868   3.819  10.873 -1.1007  0.5146 -0.6670
   34MPD2     N  537   3.965   3.843  10.427  0.6735 -0.0922 -0.0835
   34MPD2    H5  538   3.987   3.940  10.450  0.2737 -0.4235  1.6896
   34MPD2    N1  539   3.819   3.435  10.672  0.3828 -0.5354 -0.5668
   34MPD2    H7  540   3.783   3.398  10.759  1.7146 -0.3536  0.0592
   35TMC2    C1  541   0.705   4.439  11.064 -0.7484  0.1704 -1.2522
   35TMC2    C2  542   0.640   4.362  10.961 -0.0803 -0.1049  0.8058
   35TMC2    C3  543   0.505   4.327  10.990 -0.5276  0.1394  0.4123
   35TMC2    C4  544   0.635   4.474  11.178 -0.4851 -0.7010 -0.9387
   35TMC2    C5  545   0.513   4.424  11.206 -0.1517 -0.0073  0.3261
   35TMC2    C6  546   0.439   4.348  11.111 -0.6267 -0.8765  0.2051
   35TMC2     C  547   0.816   4.512  11.025 -0.8853 -0.6762  0.0530
   35TMC2     O  548   0.812   4.540  10.905  1.4096  0.4303  0.0432
   35TMC2     H  549   0.682   4.356  10.861 -2.0945  2.0780 -0.1690
   35TMC2    H1  550   0.681   4.551  11.238  0.3919 -1.8973 -0.0774
   35TMC2    H2  551   0.339   4.307  11.120 -0.0348 -2.0770  1.3404
   35TMC2    C7  552   0.474   4.420  11.342  0.2786  0.0739  0.2014
   35TMC2    C8  553   0.450   4.221  10.901 -0.0381  0.4525  0.2081
   35TMC2    O1  554   0.560   4.428  11.430 -0.2442 -0.6606  0.1118
   35TMC2    O2  555   0.333   4.181  10.913 -0.7170  0.3305  0.2116
   35TMC2    O5  556   0.555   4.143  10.851 -0.4775 -0.4442 -0.3710
   35TMC2    H5  557   0.644   4.182  10.864 -0.9886  1.0661 -1.4070
   36MPD2     C  558   1.263   0.022  11.055  1.0977  0.2042 -0.2159
   36MPD2    C1  559   1.238   4.705  11.179  0.1672 -0.4022  0.5255
   36MPD2    C2  560   1.116   4.636  11.203 -0.7526  0.0015  0.3825
   36MPD2    C3  561   1.022   4.630  11.102 -0.5839  0.3721  0.6740
   36MPD2    C4  562   1.040   4.708  10.982  0.0035  0.3932 -0.4958
   36MPD2    C5  563   1.162   0.022  10.960  0.7019  0.5475  0.4131
   36MPD2     H  564   1.095   4.576  11.291 -1.0410  0.9897  1.0017
   36MPD2    H1  565   0.962   4.711  10.907 -0.0147 -0.8235 -0.5278
   36MPD2    H2  566   1.354   0.077  11.033  1.3504  0.3923  1.3145
   36MPD2    H3  567   1.175   0.079  10.869  0.7232 -0.9992 -0.5447
   36MPD2     N  568   0.908   4.551  11.124  0.0728 -0.4573 -0.2237
   36MPD2    H5  569   0.900   4.505  11.214  1.1362  1.7706  1.0226
   36MPD2    N1  570   1.346   4.680  11.264  0.3981 -0.0080 -0.1222
   36MPD2    H7  571   1.426   0.001  11.258  0.7885 -0.6534 -1.5076
   37TMC2    C1  572   3.216   0.240  11.979  0.7195 -0.3370 -0.0130
   37TMC2    C2  573   3.112   0.287  11.913 -0.5398  0.4193  0.4794
   37TMC2    C3  574   3.128   0.405  11.843 -0.7873  0.4082 -0.5460
   37TMC2    C4  575   3.340   0.294  11.964 -1.0481 -0.0231  0.7814
   37TMC2    C5  576   3.356   0.403  11.883 -0.3806 -0.5879 -0.2521
   37TMC2    C6  577   3.248   0.466  11.826  0.6532 -0.1126 -0.9146
   37TMC2     C  578   3.199   0.118  12.060 -0.2907 -0.0793  0.5531
   37TMC2     O  579   3.129   0.029  12.016  0.1872  0.1974  0.8212
   37TMC2     H  580   3.014   0.240  11.917 -0.5313  0.4670  1.1929
   37TMC2    H1  581   3.433   0.248  11.995  0.5243  2.2625 -0.5726
   37TMC2    H2  582   3.263   0.566  11.788 -0.4840  0.4663  0.1728
   37TMC2    C7  583   3.488   0.468  11.904 -0.3431  0.6204 -0.4051
   37TMC2    C8  584   3.008   0.474  11.795 -0.0103 -0.1496 -0.0335
   37TMC2    O1  585   3.538   0.454  12.010  0.7255 -0.7817 -0.2615
   37TMC2    O2  586   2.903   0.441  11.848  0.2030 -0.0521  0.4272
   37TMC2    O5  587   3.034   0.591  11.735  0.5896  0.4654 -0.8818
   37TMC2    H5  588   3.117   0.603  11.685  0.9071 -0.0222 -0.4602
   38MPD2     C  589   3.207   4.627  12.515  0.3701  0.5916  0.0351
   38MPD2    C1  590   3.329   4.692  12.496  1.2442  0.5663  0.3689
   38MPD2    C2  591   3.346   0.032  12.385 -0.3277 -0.2687 -0.2318
   38MPD2    C3  592   3.253   0.039  12.282 -0.1958  0.3457  0.1114
   38MPD2    C4  593   3.130   4.706  12.304 -0.0446 -0.3828 -0.1971
   38MPD2    C5  594   3.104   4.644  12.424 -0.3187 -1.3513 -0.5597
   38MPD2     H  595   3.448   0.064  12.365  0.5559 -2.2048  1.2108
   38MPD2    H1  596   3.054   4.709  12.226 -0.3832  1.4002  0.1994
   38MPD2    H2  597   3.175   4.572  12.603  1.2382  0.6994  0.4179
   38MPD2    H3  598   3.006   4.598  12.436 -0.6124 -0.9524 -1.3845
   38MPD2     N  599   3.289   0.112  12.166 -0.2164  0.0905 -0.0046
   38MPD2    H5  600   3.357   0.187  12.175 -2.3748  2.1569 -1.1152
   38MPD2    N1  601   3.435   4.668  12.584  0.1126 -0.6510 -0.1923
   38MPD2    H7  602   3.520   4.714  12.551 -0.5750  0.1162 -0.8954
   39TMC2    C1  603   2.398   1.608   1.375 -0.3708 -0.2571 -0.4301
   39TMC2    C2  604   2.473   1.562   1.475 -0.1678  0.9601  0.6572
   39TMC2    C3  605   2.587   1.633   1.503  0.5092  0.2733  0.8430
   39TMC2    C4  606   2.415   1.731   1.316  0.5092  0.2233  0.5692
   39TMC2    C5  607   2.517   1.808   1.364  0.5901 -0.3496  0.0309
   39TMC2    C6  608   2.611   1.761   1.453 -0.4300 -0.2087  0.1615
   39TMC2     C  609   2.303   1.513   1.313 -0.3385  0.4702  0.0621
   39TMC2     O  610   2.211   1.564   1.254 -0.4641  0.1506  0.3435
   39TMC2     H  611   2.442   1.470   1.523  0.1964 -0.6091 -2.1197
   39TMC2    H1  612   2.359   1.767   1.230  2.6617  1.1278 -0.4448
   39TMC2    H2  613   2.708   1.805   1.472 -0.8150  1.9568 -2.8680
   39TMC2    C7  614   2.538   1.941   1.317 -0.3011  0.2718 -0.1717
   39TMC2    C8  615   2.638   1.584   1.628  0.2933 -0.0291  0.3709
   39TMC2    O1  616   2.476   1.987   1.222  0.3302 -0.3681 -0.1617
   39TMC2    O2  617   2.642   1.465   1.661  0.1092 -0.8034  0.2777
   39TMC2    O5  618   2.672   1.689   1.707  0.1127  0.0149 -0.2434
   39TMC2    H5  619   2.633   1.775   1.680  0.1168 -0.6884 -2.4616
   40MPD2     C  620   2.303   1.145   1.298  0.2237  0.0556  0.3585
   40MPD2    C1  621   2.252   1.267   1.293  0.5846 -0.9191 -0.2777
   40MPD2    C2  622   2.119   1.286   1.242 -0.0998 -0.0620 -0.5200
   40MPD2    C3  623   2.043   1.173   1.206  0.4827 -0.2426  0.4685
   40MPD2    C4  624   2.107   1.052   1.197 -0.7276 -0.0871 -0.8775
   40MPD2    C5  625   2.233   1.039   1.246  0.1457 -0.0612 -0.5841
   40MPD2     H  626   2.081   1.387   1.247  0.0742  0.0834 -1.9869
   40MPD2    H1  627   2.055   0.958   1.183 -2.4292  0.6376  0.5448
   40MPD2    H2  628   2.404   1.121   1.331 -0.4674  0.7193  2.9328
   40MPD2    H3  629   2.276   0.940   1.244 -0.6557 -0.3962 -1.1291
   40MPD2     N  630   1.903   1.182   1.179 -0.4915  0.2008  0.1180
   40MPD2    H5  631   1.863   1.104   1.127  1.0124 -0.3059 -0.2639
   40MPD2    N1  632   2.321   1.379   1.343 -0.2422 -0.4219  0.3860
   40MPD2    H7  633   2.412   1.355   1.382 -0.5294  0.6830  1.7604
   41TMC2    C1  634   0.236   0.340  14.036 -0.0123 -0.8113 -0.5277
   41TMC2    C2  635   0.140   0.436  13.995 -0.4515 -0.6674  1.0148
   41TMC2    C3  636   0.136   0.482  13.861  0.1995 -0.8491  0.0217
   41TMC2    C4  637   0.305   0.274  13.939  0.2641  0.1653  0.3731
   41TMC2    C5  638   0.302   0.328  13.808 -0.1682 -0.3874  0.2455
   41TMC2    C6  639   0.213   0.421  13.769 -0.3154 -0.2160 -0.1446
   41TMC2     C  640   0.249   0.297  14.168  0.4093 -0.6036 -0.1638
   41TMC2     O  641   0.284   0.178  14.182 -0.4903 -0.3550 -0.3167
   41TMC2     H  642   0.080   0.474  14.076  1.2051  1.9056  1.0369
   41TMC2    H1  643   0.379   0.201  13.971 -0.7230 -0.8091  0.4160
   41TMC2    H2  644   0.192   0.443  13.665  0.4008  2.7253  0.3385
   41TMC2    C7  645   0.419   0.296  13.719 -0.3565  0.0003  0.5732
   41TMC2    C8  646   0.062   0.602  13.833  0.6023 -0.4728  0.1545
   41TMC2    O1  647   0.498   0.224  13.776  0.2090  0.1388  0.0314
   41TMC2    O2  648   4.713   0.648  13.900 -0.4354 -0.2633 -0.3035
   41TMC2    O5  649   0.136   0.690  13.762 -0.2171  0.3431 -0.1910
   41TMC2    H5  650   0.229   0.664  13.748  0.1642  2.1843 -0.9151
   42MPD2     C  651   0.291   0.251  14.468 -0.5060 -0.7813  0.2087
   42MPD2    C1  652   0.238   0.368  14.409 -0.2905  0.2511 -0.3448
   42MPD2    C2  653   0.208   0.462  14.496 -0.1695 -0.6513 -0.0308
   42MPD2    C3  654   0.224   0.453  14.629  1.1482  0.6798 -0.4214
   42MPD2    C4  655   0.279   0.338  14.688 -0.1029 -0.0684 -0.1358
   42MPD2    C5  656   0.310   0.232  14.600 -0.0457 -0.0911 -0.6078
   42MPD2     H  657   0.158   0.546  14.449  3.8095  2.1291  0.6546
   42MPD2    H1  658   0.290   0.321  14.795 -0.3839 -0.9083 -0.2394
   42MPD2    H2  659   0.313   0.162  14.410 -3.8183 -1.9930  0.8343
   42MPD2    H3  660   0.346   0.138  14.640  0.0339  0.3241  0.2879
   42MPD2     N  661   0.183   0.561  14.714 -0.3050  0.5788  0.6921
   42MPD2    H5  662   0.199   0.536  14.811  3.3460 -2.1111 -0.6192
   42MPD2    N1  663   0.218   0.390  14.266  0.0005  0.3623  0.1383
   42MPD2    H7  664   0.170   0.475  14.241 -0.4054  0.8188  2.4658
   43TMC2    C1  665   2.383   2.281   0.978  1.0989  0.1961  0.1712
   43TMC2    C2  666   2.251   2.316   1.010  0.1548 -0.2601 -0.0587
   43TMC2    C3  667   2.222   2.434   1.071 -0.1918 -0.3544  0.2050
   43TMC2    C4  668   2.487   2.357   1.025  0.1939 -0.2991  0.1271
   43TMC2    C5  669   2.446   2.475   1.087 -0.5197  0.2540 -0.0194
   43TMC2    C6  670   2.317   2.517   1.113 -0.0348 -0.3703 -0.1223
   43TMC2     C  671   2.424   2.179   0.890  0.4238 -0.7291 -0.4883
   43TMC2     O  672   2.539   2.139   0.894 -0.1827 -0.2359  0.0153
   43TMC2     H  673   2.168   2.255   0.976  0.1719 -0.1497 -0.3016
   43TMC2    H1  674   2.592   2.337   1.007  0.5058  0.3488  1.1838
   43TMC2    H2  675   2.301   2.616   1.156  0.8957 -1.7209  3.3447
   43TMC2    C7  676   2.548   2.571   1.139 -0.4296 -0.3987 -0.4533
   43TMC2    C8  677   2.085   2.486   1.040  0.1510  0.1044 -0.8624
   43TMC2    O1  678   2.652   2.596   1.075 -0.0259 -0.3329 -0.8768
   43TMC2    O2  679   2.033   2.471   0.930 -0.1220  0.2191 -0.2018
   43TMC2    O5  680   2.074   2.590   1.120  0.1666 -0.1480 -0.2938
   43TMC2    H5  681   2.132   2.566   1.195 -0.9882 -1.0415  0.3102
   44MPD2     C  682   2.354   1.973   0.426  0.2095  0.2648 -0.3432
   44MPD2    C1  683   2.467   1.998   0.503  0.7026  0.7084  0.6152
   44MPD2    C2  684   2.458   2.041   0.634  0.6887 -0.5205  0.0944
   44MPD2    C3  685   2.336   2.062   0.690 -0.0590 -1.5150 -0.0116
   44MPD2    C4  686   2.223   2.036   0.621 -0.5350 -0.3067 -0.3229
   44MPD2    C5  687   2.231   1.996   0.488  0.8190  0.3626  0.2719
   44MPD2     H  688   2.554   2.068   0.676  0.3790  3.7678 -2.0108
   44MPD2    H1  689   2.126   2.055   0.665  0.1579  0.6752  0.7713
   44MPD2    H2  690   2.361   1.942   0.323 -0.3900  1.5300 -0.7635
   44MPD2    H3  691   2.141   1.990   0.428 -0.0383 -2.0804  1.7576
   44MPD2     N  692   2.325   2.129   0.807 -0.5190 -0.5337 -0.1631
   44MPD2    H5  693   2.230   2.147   0.836  0.0970 -0.0798  1.5657
   44MPD2    N1  694   2.591   1.981   0.446 -0.3430  0.6134  0.3226
   44MPD2    H7  695   2.674   1.981   0.505  0.0225 -0.0728 -0.1735
   45TMC2    C1  696   2.555   0.145   9.739  0.3868 -0.1613 -0.2031
   45TMC2    C2  697   2.561   0.040   9.825  0.2993 -0.0745 -1.1971
   45TMC2    C3  698   2.616   0.064   9.953  0.1877 -0.6515  0.4578
   45TMC2    C4  699   2.605   0.267   9.780 -0.1684 -0.1148 -0.1512
   45TMC2    C5  700   2.656   0.291   9.908  0.2603  0.8995  0.1461
   45TMC2    C6  701   2.667   0.184   9.993  0.0384  0.2115 -0.7102
   45TMC2     C  702   2.430   0.149   9.676  0.0113 -0.0696 -0.5274
   45TMC2     O  703   2.362   0.246   9.710  0.5768  0.9867  0.0862
   45TMC2     H  704   2.502   4.691   9.809 -1.8081  0.8552  1.4557
   45TMC2    H1  705   2.597   0.331   9.693 -0.0031  1.1809  0.7838
   45TMC2    H2  706   2.697   0.192  10.097 -1.9638 -0.5758 -0.0809
   45TMC2    C7  707   2.628   0.414   9.982 -0.1047 -0.3116  0.3570
   45TMC2    C8  708   2.600   4.698  10.055 -0.7898 -0.8835 -0.0405
   45TMC2    O1  709   2.683   0.439  10.089  0.2646 -0.1878  0.1020
   45TMC2    O2  710   2.507   4.615  10.051  0.3917  0.0227  0.1106
   45TMC2    O5  711   2.721   4.677  10.109 -0.2344  0.2287  0.1714
   45TMC2    H5  712   2.790   4.740  10.079  0.3073 -0.0854  0.7730
   46MPD2     C  713   2.265   4.658   9.434  0.1669 -0.4513  0.0025
   46MPD2    C1  714   2.276   0.022   9.524  0.1541 -0.2585  0.3922
   46MPD2    C2  715   2.163   0.089   9.550  0.5027  0.5023 -0.3991
   46MPD2    C3  716   2.041   0.063   9.481  0.1084 -0.1491  0.3573
   46MPD2    C4  717   2.032   4.691   9.402 -0.3321  0.1903  0.1056
   46MPD2    C5  718   2.142   4.624   9.379 -0.1686  0.2390 -0.2911
   46MPD2     H  719   2.167   0.176   9.615  0.3519  1.1068 -1.2093
   46MPD2    H1  720   1.939   4.648   9.366 -1.0137  0.7114  1.2491
   46MPD2    H2  721   2.355   4.601   9.413 -0.6933 -0.7519 -2.8451
   46MPD2    H3  722   2.130   4.533   9.321 -2.1039  1.4458 -1.7954
   46MPD2     N  723   1.933   0.150   9.512 -0.2794  0.5024  0.0594
   46MPD2    H5  724   1.955   0.225   9.576 -2.4218  2.1652 -1.1761
   46MPD2    N1  725   2.402   0.043   9.593  0.0031 -0.0690 -0.0687
   46MPD2    H7  726   2.482   4.722   9.580  2.0426  2.6076 -0.1447
   47TMC2    C1  727   0.389   1.260   9.330  0.1984 -0.0582  0.6552
   47TMC2    C2  728   0.445   1.183   9.236 -0.0109 -0.1253 -0.7367
   47TMC2    C3  729   0.364   1.147   9.131 -0.6605 -0.1043 -0.2633
   47TMC2    C4  730   0.252   1.284   9.328  0.3338  0.5913  0.2217
   47TMC2    C5  731   0.170   1.233   9.233 -0.4622 -0.0164 -1.1499
   47TMC2    C6  732   0.225   1.170   9.126  0.3332 -0.4603 -0.0833
   47TMC2     C  733   0.457   1.293   9.450  0.8253  0.2793  0.0497
   47TMC2     O  734   0.409   1.373   9.529  0.1233  0.0885  0.0370
   47TMC2     H  735   0.553   1.182   9.224 -0.1537  1.7767 -2.2473
   47TMC2    H1  736   0.214   1.321   9.423 -0.7926  1.9823 -0.7663
   47TMC2    H2  737   0.162   1.123   9.051 -1.8218  1.3450  0.6258
   47TMC2    C7  738   0.052   1.319   9.199  0.5765  0.2171 -0.3295
   47TMC2    C8  739   0.418   1.103   9.004  0.1784 -0.1857  0.1733
   47TMC2    O1  740   0.009   1.388   9.289  0.6491  0.6350 -0.2493
   47TMC2    O2  741   0.350   1.108   8.902  0.5233  0.7706  0.2290
   47TMC2    O5  742   0.507   1.002   9.033  0.3216 -0.3247 -0.0919
   47TMC2    H5  743   0.528   0.995   9.128 -1.7801  1.0837  0.4535
   48MPD2     C  744   0.653   1.306   9.673 -0.1639  0.3233 -0.1206
   48MPD2    C1  745   0.631   1.199   9.591  0.1677  0.4758  0.0547
   48MPD2    C2  746   0.689   1.081   9.625  0.5359 -0.4045  0.2148
   48MPD2    C3  747   0.760   1.066   9.745 -0.0882 -0.3232  0.5632
   48MPD2    C4  748   0.769   1.174   9.835 -0.0459 -0.1149  0.5501
   48MPD2    C5  749   0.718   1.298   9.794  0.2473 -0.2750 -0.0062
   48MPD2     H  750   0.678   0.989   9.569  2.1777 -1.5318  1.7201
   48MPD2    H1  751   0.817   1.174   9.933  0.8605  0.1556  0.1095
   48MPD2    H2  752   0.614   1.404   9.650 -2.7048 -0.7521 -0.4331
   48MPD2    H3  753   0.731   1.385   9.857  1.0409  0.5545 -1.3157
   48MPD2     N  754   0.813   0.939   9.780  0.0772  0.2772  0.2670
   48MPD2    H5  755   0.812   0.863   9.713 -0.7309  0.1203  0.4622
   48MPD2    N1  756   0.558   1.206   9.473  0.2577  0.7706  0.9002
   48MPD2    H7  757   0.579   1.137   9.401  1.3811  0.4542  1.5168
   49TMC2    C1  758   3.589   3.389   9.995 -0.3126  0.6716 -0.0226
   49TMC2    C2  759   3.621   3.310   9.889  0.2342 -0.1852 -0.0853
   49TMC2    C3  760   3.596   3.177   9.901  0.7057  0.1306 -0.3109
   49TMC2    C4  761   3.539   3.336  10.107 -0.1540 -0.0838  1.1691
   49TMC2    C5  762   3.526   3.200  10.114  0.2906  0.1619 -0.1200
   49TMC2    C6  763   3.568   3.113  10.014  0.4690  0.2940  0.3284
   49TMC2     C  764   3.613   3.536   9.983 -0.3275  0.1281 -0.2365
   49TMC2     O  765   3.639   3.567   9.870  0.5323  0.0979 -0.3439
   49TMC2     H  766   3.665   3.344   9.795 -0.0376 -1.4729 -0.6735
   49TMC2    H1  767   3.491   3.403  10.176 -1.3700  0.3334 -0.0800
   49TMC2    H2  768   3.549   3.007  10.008 -3.2433  1.0304 -0.5041
   49TMC2    C7  769   3.464   3.150  10.236 -0.5124  0.8820 -0.0177
   49TMC2    C8  770   3.630   3.102   9.791 -0.2712  1.2968 -0.2015
   49TMC2    O1  771   3.428   3.036  10.208 -0.2551 -0.0474  0.3003
   49TMC2    O2  772   3.546   3.031   9.744  0.0793 -0.0959 -0.2784
   49TMC2    O5  773   3.757   3.077   9.812  0.0084  0.1045 -0.2857
   49TMC2    H5  774   3.794   3.146   9.871  0.5035 -0.3310 -0.0817
   50MPD2     C  775   3.650   3.837  10.010  0.4410 -0.2125  0.0398
   50MPD2    C1  776   3.623   3.747  10.110 -0.1585 -0.2945  1.2397
   50MPD2    C2  777   3.631   3.793  10.244  0.3065 -0.8158  0.7162
   50MPD2    C3  778   3.649   3.930  10.269 -0.2657  0.5858 -0.6200
   50MPD2    C4  779   3.666   4.022  10.161  0.5228 -0.0592 -0.5047
   50MPD2    C5  780   3.670   3.974  10.033 -0.1724 -0.2270  0.0769
   50MPD2     H  781   3.617   3.726  10.328  0.2492 -0.2113  1.1849
   50MPD2    H1  782   3.674   4.128  10.181 -1.4127  0.2159 -1.2060
   50MPD2    H2  783   3.637   3.794   9.911 -1.0672  0.5624 -0.0917
   50MPD2    H3  784   3.675   4.035   9.944 -0.5946  0.1851  0.3342
   50MPD2     N  785   3.648   3.987  10.399 -0.2663 -0.2000  0.8939
   50MPD2    H5  786   3.668   4.087  10.400  0.6074 -0.3603 -0.1222
   50MPD2    N1  787   3.592   3.611  10.097  0.3860 -0.3073 -0.3356
   50MPD2    H7  788   3.584   3.558  10.183  0.1772  0.1825 -0.0535
   51TMC2    C1  789   3.730   2.144   0.574 -0.4570  0.0069  0.0522
   51TMC2    C2  790   3.622   2.209   0.620  0.0566  0.2929 -0.5683
   51TMC2    C3  791   3.626   2.259   0.743  0.5546  0.7985  0.3785
   51TMC2    C4  792   3.836   2.128   0.654 -0.3239 -0.4409 -0.2746
   51TMC2    C5  793   3.840   2.189   0.775  0.1134  0.5434 -0.1771
   51TMC2    C6  794   3.728   2.254   0.825  0.0286 -0.4265 -0.3456
   51TMC2     C  795   3.718   2.058   0.463  0.5994 -0.7400  0.3047
   51TMC2     O  796   3.608   2.057   0.413  0.3635 -0.3241 -0.2016
   51TMC2     H  797   3.533   2.232   0.563  0.0810  2.3178  0.2153
   51TMC2    H1  798   3.922   2.071   0.622 -1.1073 -1.5624 -0.4182
   51TMC2    H2  799   3.731   2.323   0.907 -0.6889 -0.2532 -0.4704
   51TMC2    C7  800   3.954   2.154   0.858  0.2432 -0.1713  0.0328
   51TMC2    C8  801   3.506   2.322   0.790  0.3913  0.1138  0.0179
   51TMC2    O1  802   4.028   2.069   0.809  0.3622 -0.1732 -0.3657
   51TMC2    O2  803   3.424   2.369   0.716 -0.0640 -0.3750 -0.2970
   51TMC2    O5  804   3.475   2.260   0.905 -0.1652 -0.2371 -0.4713
   51TMC2    H5  805   3.535   2.188   0.934 -1.3921 -1.5794 -1.3055
   52MPD2     C  806   3.862   1.718   0.112  0.1299  0.5023 -0.1523
   52MPD2    C1  807   3.748   1.719   0.188 -0.0187 -0.8299 -0.0177
   52MPD2    C2  808   3.736   1.820   0.281  0.5989  0.6112 -0.1769
   52MPD2    C3  809   3.839   1.911   0.306  0.9725 -0.9602  0.3434
   52MPD2    C4  810   3.952   1.905   0.230  0.2099  0.3792  0.7733
   52MPD2    C5  811   3.957   1.813   0.131 -0.6336 -0.1652 -0.6711
   52MPD2     H  812   3.641   1.819   0.333 -0.5925 -0.7283 -2.3841
   52MPD2    H1  813   4.019   1.987   0.254  1.6971 -0.3252 -1.0149
   52MPD2    H2  814   3.896   1.633   0.055 -1.0122  1.0376 -1.6261
   52MPD2    H3  815   4.040   1.812   0.061  0.6616 -1.4267  0.8880
   52MPD2     N  816   3.831   2.002   0.414 -0.4875  0.0186  0.7652
   52MPD2    H5  817   3.921   2.041   0.442 -0.3922 -2.1187  3.4053
   52MPD2    N1  818   3.652   1.616   0.176  0.1571 -0.0880 -0.1656
   52MPD2    H7  819   3.578   1.623   0.246 -0.2561  0.5187 -0.6655
   53TMC2    C1  820   4.099   0.765  12.143 -0.1799 -0.9469 -0.2901
   53TMC2    C2  821   4.233   0.743  12.154  0.4271 -0.0948  0.2492
   53TMC2    C3  822   4.272   0.694  12.276  0.0103  0.1450  0.1145
   53TMC2    C4  823   4.004   0.747  12.246  0.1199 -0.1173  0.4360
   53TMC2    C5  824   4.049   0.686  12.359  0.2666  0.5713  0.4266
   53TMC2    C6  825   4.180   0.663  12.375  1.2376  0.3599 -0.2276
   53TMC2     C  826   4.055   0.780  12.006 -0.2861  0.4976 -0.1612
   53TMC2     O  827   4.133   0.814  11.919  0.0965  0.6239 -0.1235
   53TMC2     H  828   4.301   0.738  12.070 -0.6781  2.7086 -0.7880
   53TMC2    H1  829   3.898   0.768  12.231  0.1425 -0.0643  0.3516
   53TMC2    H2  830   4.220   0.621  12.467 -2.3669  0.9397  1.6056
   53TMC2    C7  831   3.945   0.600  12.423 -0.4990  0.9977 -0.7476
   53TMC2    C8  832   4.406   0.641  12.289 -0.9658 -0.6019  0.1899
   53TMC2    O1  833   3.834   0.626  12.390 -0.8950 -0.2813  1.3209
   53TMC2    O2  834   4.428   0.547  12.360  0.1181  0.0769 -0.1849
   53TMC2    O5  835   4.489   0.740  12.250  0.6174 -0.6326 -0.0331
   53TMC2    H5  836   4.442   0.823  12.228 -0.0514 -0.9788  0.0800
   54MPD2     C  837   3.873   0.800  11.763  0.8719 -0.4000 -0.2878
   54MPD2    C1  838   3.842   0.729  11.880  0.1025 -0.1103  0.5219
   54MPD2    C2  839   3.729   0.646  11.889  0.3076 -0.0716 -0.4493
   54MPD2    C3  840   3.650   0.620  11.780  0.4686  0.5989 -0.2790
   54MPD2    C4  841   3.679   0.682  11.663 -0.2476  0.2471  0.0087
   54MPD2    C5  842   3.785   0.772  11.658 -0.2283  0.5039 -0.1027
   54MPD2     H  843   3.712   0.599  11.985  1.3992  2.2722  0.8872
   54MPD2    H1  844   3.623   0.667  11.571  2.0105  0.2621 -1.3710
   54MPD2    H2  845   3.954   0.870  11.746  0.8565 -0.0652  1.0393
   54MPD2    H3  846   3.793   0.831  11.568 -0.9931 -0.4655 -0.8037
   54MPD2     N  847   3.535   0.532  11.790 -0.3654  0.2468 -0.0659
   54MPD2    H5  848   3.489   0.522  11.700  0.3687  1.4725 -0.5889
   54MPD2    N1  849   3.928   0.734  11.996  0.5468 -0.0629  0.1013
   54MPD2    H7  850   3.890   0.681  12.074 -1.4302  1.2940  0.0589
   55TMC2    C1  851   0.581   2.353  17.613 -0.1329 -0.0549  0.1594
   55TMC2    C2  852   0.552   2.337  17.477  0.5719  0.1026 -0.2517
   55TMC2    C3  853   0.485   2.225  17.447 -0.0141 -0.4351  0.2730
   55TMC2    C4  854   0.546   2.261  17.704  0.6028 -0.7040 -0.6850
   55TMC2    C5  855   0.486   2.145  17.668  0.7165 -0.6141  0.2297
   55TMC2    C6  856   0.456   2.124  17.537  0.3677  0.2168 -0.0504
   55TMC2     C  857   0.588   2.487  17.657 -0.0177  0.1414 -0.3919
   55TMC2     O  858   0.532   2.508   0.002  0.2582  0.7612 -0.0436
   55TMC2     H  859   0.584   2.414  17.408 -1.5959  1.3606  0.1602
   55TMC2    H1  860   0.591   2.278   0.043  1.6188  2.3439 -1.6823
   55TMC2    H2  861   0.423   2.027  17.501  1.4366 -0.5642  1.0542
   55TMC2    C7  862   0.477   2.034   0.003 -0.2521  1.0518 -0.0065
   55TMC2    C8  863   0.464   2.193  17.311 -0.0772 -0.4233 -0.2461
   55TMC2    O1  864   0.476   1.921  17.709  0.0055 -0.0071  0.0221
   55TMC2    O2  865   0.460   2.074  17.273  0.0242  0.7296  0.4873
   55TMC2    O5  866   0.425   2.301  17.238  0.2209 -0.6809  0.3035
   55TMC2    H5  867   0.430   2.387  17.284 -0.6813  1.2821 -3.2551
   56MPD2     C  868   0.731   2.787  17.496 -0.5503 -0.0948 -0.1156
   56MPD2    C1  869   0.670   2.709  17.592  0.4071  0.2058 -1.1916
   56MPD2    C2  870   0.626   2.774  17.701  0.2485 -0.4412  0.0405
   56MPD2    C3  871   0.636   2.911  17.719  0.2131  0.3565  0.3285
   56MPD2    C4  872   0.697   2.988  17.621  1.6096  0.3135 -0.4832
   56MPD2    C5  873   0.741   2.927  17.507  0.1031  0.1676 -0.3731
   56MPD2     H  874   0.584   2.721   0.028 -0.6673  0.8066  0.3496
   56MPD2    H1  875   0.707   3.096  17.623 -1.2613  0.5553  1.0513
   56MPD2    H2  876   0.767   2.739  17.406  0.6343 -0.9243  0.7964
   56MPD2    H3  877   0.773   2.984  17.420 -2.6591  0.6463 -1.0835
   56MPD2     N  878   0.582   2.969   0.073 -0.0819 -0.2586  0.2873
   56MPD2    H5  879   0.549   2.913   0.151 -1.2976 -0.1212 -0.1195
   56MPD2    N1  880   0.652   2.574  17.568  0.1654  0.3911 -0.4668
   56MPD2    H7  881   0.691   2.530  17.486  0.1953 -0.4225 -0.0186
   57TMC2    C1  882   3.764   4.226  14.259 -0.2518  0.5400 -0.1073
   57TMC2    C2  883   3.834   4.179  14.371 -0.3054  0.6511 -0.0242
   57TMC2    C3  884   3.929   4.088  14.350 -0.4468  0.2474  0.1671
   57TMC2    C4  885   3.794   4.193  14.131  0.0544  0.3562 -0.3675
   57TMC2    C5  886   3.886   4.101  14.109  0.2250  0.0062  0.5593
   57TMC2    C6  887   3.954   4.045  14.222 -0.2860  0.3739  0.5105
   57TMC2     C  888   3.650   4.320  14.274  0.3074  0.4595  0.1955
   57TMC2     O  889   3.599   4.385  14.180 -0.1201  0.0112  0.1700
   57TMC2     H  890   3.805   4.200  14.473  1.6529  0.7573  0.5063
   57TMC2    H1  891   3.744   4.241  14.047  0.0088 -1.6278 -1.4700
   57TMC2    H2  892   4.043   3.989  14.197  0.2729  0.9485  1.2052
   57TMC2    C7  893   3.971   4.125  13.989 -0.1432  0.3538  0.9423
   57TMC2    C8  894   4.037   4.115  14.434 -0.2898  0.2755 -0.3703
   57TMC2    O1  895   3.925   4.213  13.918  0.1399 -0.0054 -0.5073
   57TMC2    O2  896   4.026   4.206  14.516 -0.1810 -0.1150 -0.7444
   57TMC2    O5  897   4.119   4.005  14.440 -0.2255 -0.0902  0.4135
   57TMC2    H5  898   4.081   3.930  14.389 -2.8761  0.0890  2.0819
   58MPD2     C  899   3.193   4.435  14.483  0.2930 -0.0630 -0.2292
   58MPD2    C1  900   3.229   4.385  14.361 -0.6585  1.0059 -0.6704
   58MPD2    C2  901   3.358   4.359  14.333  0.4904 -0.0072 -0.2971
   58MPD2    C3  902   3.456   4.366  14.428 -0.3932 -0.1204  0.3720
   58MPD2    C4  903   3.419   4.393  14.552  0.4137  0.4500 -0.3579
   58MPD2    C5  904   3.287   4.428  14.581  0.9556 -0.2753  0.4191
   58MPD2     H  905   3.386   4.329  14.233 -0.1966 -0.4739 -0.3506
   58MPD2    H1  906   3.497   4.402  14.626  0.5538  0.0335 -0.4569
   58MPD2    H2  907   3.094   4.468  14.510  1.6794  1.8858  2.4092
   58MPD2    H3  908   3.257   4.447  14.683  3.8626  1.7718  0.9002
   58MPD2     N  909   3.590   4.320  14.399 -0.4875  0.4238  0.5773
   58MPD2    H5  910   3.645   4.284  14.476  1.2389  1.1649 -0.3208
   58MPD2    N1  911   3.139   4.364  14.249 -0.4832 -0.5497 -0.1967
   58MPD2    H7  912   3.180   4.320  14.167 -0.5391  1.1294 -1.1167
   59TMC2    C1  913   1.521   4.131  12.619 -0.1065  0.2292  0.0222
   59TMC2    C2  914   1.498   4.001  12.668 -0.6925  0.1670 -0.1533
   59TMC2    C3  915   1.439   3.911  12.590 -0.6347 -0.3191 -0.5888
   59TMC2    C4  916   1.490   4.158  12.490 -0.5715  0.3458  1.1263
   59TMC2    C5  917   1.430   4.066  12.410 -0.1146  0.2617  0.4187
   59TMC2    C6  918   1.396   3.942  12.463 -0.5652  0.2725  0.2555
   59TMC2     C  919   1.597   4.225  12.695  0.5282 -0.0416  0.2200
   59TMC2     O  920   1.636   4.324  12.641  0.2939 -0.2872  0.4397
   59TMC2     H  921   1.523   3.974  12.770 -1.4446 -0.2722 -0.0840
   59TMC2    H1  922   1.520   4.253  12.447 -1.6394 -0.0703 -0.5129
   59TMC2    H2  923   1.334   3.874  12.406  0.4875  0.0921 -0.6724
   59TMC2    C7  924   1.330   4.123  12.319 -0.2330 -0.3357  0.6922
   59TMC2    C8  925   1.431   3.771  12.635  0.2640 -0.2692 -0.4765
   59TMC2    O1  926   1.212   4.086  12.331  0.4198 -0.0960  0.5017
   59TMC2    O2  927   1.480   3.733  12.742 -0.0479  0.4259  0.4186
   59TMC2    O5  928   1.427   3.693  12.527  0.2518  0.7336  0.5311
   59TMC2    H5  929   1.363   3.711  12.454 -0.0171  0.4953  0.7071
   60MPD2     C  930   1.684   4.383  12.929 -0.4519 -0.0070  0.4897
   60MPD2    C1  931   1.682   4.247  12.923  0.8529  0.3294  0.5050
   60MPD2    C2  932   1.718   4.174  13.033 -0.6497 -0.5298 -0.2342
   60MPD2    C3  933   1.758   4.241  13.148  0.4321 -0.3972 -0.5055
   60MPD2    C4  934   1.765   4.373  13.146 -0.4771 -1.0579  0.3636
   60MPD2    C5  935   1.727   4.443  13.044 -0.3189  0.0416 -0.9001
   60MPD2     H  936   1.714   4.066  13.023  0.2358 -0.5647 -0.1787
   60MPD2    H1  937   1.807   4.427  13.230  0.9166 -0.3525 -0.7876
   60MPD2    H2  938   1.656   4.444  12.845  1.3672  1.3603  0.8827
   60MPD2    H3  939   1.740   4.550  13.050  0.4377 -0.1272  0.4389
   60MPD2     N  940   1.808   4.169  13.260  0.4290 -0.1124 -0.3827
   60MPD2    H5  941   1.858   4.220  13.331  0.1031  0.8287 -0.8277
   60MPD2    N1  942   1.619   4.182  12.820 -0.3122  0.0344  0.5587
   60MPD2    H7  943   1.596   4.085  12.839 -0.4909 -0.1037 -0.3397
   61TMC2    C1  944   0.852   1.140  15.786 -0.3145 -0.3295  0.0289
   61TMC2    C2  945   0.848   1.147  15.925  0.2482  1.0297 -0.2767
   61TMC2    C3  946   0.853   1.263  15.987  0.2373  0.2573 -0.5267
   61TMC2    C4  947   0.856   1.259  15.712 -0.0004 -0.1236  0.6618
   61TMC2    C5  948   0.857   1.376  15.781  0.4093  0.4181  0.7947
   61TMC2    C6  949   0.856   1.387  15.921 -0.2918 -0.2188  1.0846
   61TMC2     C  950   0.930   1.027  15.729  0.0327 -0.8757 -0.6810
   61TMC2     O  951   0.946   0.935  15.808 -0.0457  0.6040 -0.2858
   61TMC2     H  952   0.850   1.061  15.991  1.9084  2.0466  0.9724
   61TMC2    H1  953   0.856   1.260  15.603 -2.7866  0.4478  0.6648
   61TMC2    H2  954   0.843   1.482  15.971 -0.2243  0.3876 -0.0379
   61TMC2    C7  955   0.898   1.503  15.711  0.1923 -0.1679  1.1115
   61TMC2    C8  956   0.842   1.262  16.130 -0.2132 -0.6052  0.4960
   61TMC2    O1  957   0.848   1.542  15.603 -0.1915  0.1572  0.2938
   61TMC2    O2  958   0.776   1.179  16.196 -0.0457  0.1834  0.5444
   61TMC2    O5  959   0.928   1.350  16.188  0.1142 -0.1317 -0.4718
   61TMC2    H5  960   0.981   1.401  16.123  0.2354  2.0363  1.3199
   62MPD2     C  961   1.099   0.843  15.574  0.0533 -0.1883 -0.0797
   62MPD2    C1  962   1.035   0.951  15.521  0.2360  0.2564  1.0549
   62MPD2    C2  963   1.056   0.983  15.388  0.2120 -1.4469 -0.0357
   62MPD2    C3  964   1.130   0.897  15.311 -0.1572 -0.3844 -0.5731
   62MPD2    C4  965   1.186   0.788  15.370 -0.4702 -0.4781  0.3042
   62MPD2    C5  966   1.172   0.756  15.501  0.6144 -0.1519  0.1483
   62MPD2     H  967   1.015   1.076  15.350  1.3670 -2.1579 -3.0191
   62MPD2    H1  968   1.247   0.722  15.309 -0.9428 -0.7227  0.0923
   62MPD2    H2  969   1.102   0.826  15.681 -2.2068  1.9251  0.3263
   62MPD2    H3  970   1.227   0.681  15.556  1.4405  1.0916  1.0173
   62MPD2     N  971   1.145   0.926  15.172 -1.0631 -0.7047  0.2843
   62MPD2    H5  972   1.079   0.987  15.123  0.6243  2.8913  2.4985
   62MPD2    N1  973   0.965   1.045  15.598  0.0642 -0.1891 -0.1822
   62MPD2    H7  974   0.932   1.134  15.563  0.9587 -0.0546 -0.6910
   63TMC2    C1  975   0.647   0.942  10.759  0.0210  0.3686 -0.3243
   63TMC2    C2  976   0.770   0.938  10.823  1.1167  0.2554 -0.3988
   63TMC2    C3  977   0.854   1.047  10.807  0.1292 -0.1287  0.6251
   63TMC2    C4  978   0.616   1.048  10.673 -0.0957 -0.0202  0.3259
   63TMC2    C5  979   0.708   1.141  10.648 -0.5373  0.0063  0.0805
   63TMC2    C6  980   0.824   1.148  10.718 -0.3496 -0.1018  0.5074
   63TMC2     C  981   0.593   0.820  10.727  0.1134 -0.0484  0.1173
   63TMC2     O  982   0.637   0.728  10.793 -0.5815 -0.1265  0.2129
   63TMC2     H  983   0.796   0.866  10.900  1.0156  2.9153  2.1337
   63TMC2    H1  984   0.522   1.062  10.621 -0.9177  0.3632  1.9388
   63TMC2    H2  985   0.893   1.229  10.695 -1.9322  1.3918  1.0726
   63TMC2    C7  986   0.682   1.228  10.533  0.2006 -1.0027 -0.5339
   63TMC2    C8  987   0.988   1.005  10.802 -0.2966 -0.6594  0.1675
   63TMC2    O1  988   0.598   1.197  10.450  0.3271 -0.4710  0.2550
   63TMC2    O2  989   1.027   0.897  10.757 -0.5042  0.0727 -0.0295
   63TMC2    O5  990   1.062   1.109  10.806  0.1868  0.1006 -0.2432
   63TMC2    H5  991   1.017   1.172  10.866  0.2262  1.3556 -1.5295
   64MPD2     C  992   0.279   0.529  10.443 -0.0592  1.2196 -0.1880
   64MPD2    C1  993   0.371   0.495  10.541 -1.0202  0.5782 -1.3681
   64MPD2    C2  994   0.452   0.591  10.600 -0.2263 -0.1846  0.1412
   64MPD2    C3  995   0.438   0.722  10.556  0.2699 -0.0494  0.0298
   64MPD2    C4  996   0.362   0.754  10.445  1.1766 -0.3380  0.2969
   64MPD2    C5  997   0.277   0.662  10.398 -0.5574  0.1169  0.5527
   64MPD2     H  998   0.521   0.571  10.680 -0.6545 -1.8449  0.0921
   64MPD2    H1  999   0.360   0.853  10.400  0.7469 -0.7911 -0.6792
   64MPD2    H2 1000   0.211   0.456  10.402  1.8239  0.0062 -1.1109
   64MPD2    H3 1001   0.218   0.684  10.309 -0.7486  2.1130  1.1792
   64MPD2     N 1002   0.508   0.827  10.619  0.4316 -0.1698  0.2912
   64MPD2    H5 1003   0.466   0.916  10.593 -0.0761 -0.9975 -1.6782
   64MPD2    N1 1004   0.386   0.366  10.595 -0.1180  0.1132 -0.2925
   64MPD2    H7 1005   0.470   0.343  10.647  0.9795  3.0004 -0.8355
   65TMC2    C1 1006   1.964   0.538  15.514 -0.4522 -0.4213  0.5921
   65TMC2    C2 1007   1.983   0.509  15.387 -0.1298  0.5183 -0.1602
   65TMC2    C3 1008   2.054   0.599  15.318 -0.2644 -0.8660  0.7751
   65TMC2    C4 1009   2.021   0.654  15.570 -0.2256 -0.3198 -0.1270
   65TMC2    C5 1010   2.087   0.746  15.496 -0.1039 -0.0012 -0.7465
   65TMC2    C6 1011   2.104   0.717  15.364 -0.8494  0.4944  0.5376
   65TMC2     C 1012   1.853   0.475  15.589 -0.3362 -0.0595  0.0329
   65TMC2     O 1013   1.815   0.545  15.682  0.7173  0.2337  0.4834
   65TMC2     H 1014   1.960   0.410  15.348  1.3517 -0.6790  2.0323
   65TMC2    H1 1015   2.013   0.673  15.676  0.1241  0.6715 -0.2839
   65TMC2    H2 1016   2.145   0.789  15.295  0.2714 -1.6122 -0.9841
   65TMC2    C7 1017   2.149   0.862  15.556 -0.1678  0.2506  0.1313
   65TMC2    C8 1018   2.074   0.573  15.175 -0.3537 -0.0009 -0.1184
   65TMC2    O1 1019   2.252   0.895  15.498  0.3510  0.0546  0.5328
   65TMC2    O2 1020   2.167   0.615  15.107 -0.0630  0.1184  0.1604
   65TMC2    O5 1021   1.966   0.513  15.125 -0.0824 -0.5509  0.0383
   65TMC2    H5 1022   1.896   0.483  15.187 -0.8502  1.5278  0.1703
   66MPD2     C 1023   1.668   0.285  15.720 -0.4255 -0.3878 -0.3829
   66MPD2    C1 1024   1.718   0.274  15.592 -0.0517  0.0649  0.1072
   66MPD2    C2 1025   1.660   0.177  15.510  0.5797  0.2435  0.6113
   66MPD2    C3 1026   1.555   0.090  15.546 -0.0449  0.1345 -0.0834
   66MPD2    C4 1027   1.513   0.101  15.678 -1.0583  1.1807 -0.8500
   66MPD2    C5 1028   1.563   0.202  15.760 -0.0510 -0.5585 -0.1137
   66MPD2     H 1029   1.706   0.166  15.413  0.7690 -1.3396  0.8777
   66MPD2    H1 1030   1.434   0.041  15.721  1.7701 -1.5136  0.6605
   66MPD2    H2 1031   1.704   0.368  15.780 -2.3146 -0.5041  0.9180
   66MPD2    H3 1032   1.527   0.208  15.863  1.9815 -0.2531  0.5831
   66MPD2     N 1033   1.493   0.003  15.455  0.2214 -0.5976  0.0580
   66MPD2    H5 1034   1.408   4.699  15.489  0.7603 -0.9659  0.9396
   66MPD2    N1 1035   1.805   0.363  15.534 -0.0712 -0.4648 -0.2640
   66MPD2    H7 1036   1.834   0.349  15.438  0.5121  0.2230 -0.1909
   67TMC2    C1 1037   1.691   4.520  13.814 -0.0745  0.8115 -0.3840
   67TMC2    C2 1038   1.593   4.600  13.862  0.1898  0.0147 -0.1995
   67TMC2    C3 1039   1.586   4.623  13.998 -0.5852 -0.0612 -0.1417
   67TMC2    C4 1040   1.785   4.464  13.897  0.2596 -0.4626 -0.0741
   67TMC2    C5 1041   1.757   4.464  14.031  0.2291 -0.3812 -0.4154
   67TMC2    C6 1042   1.650   4.540  14.082 -0.4048  0.2481 -0.4478
   67TMC2     C 1043   1.663   4.432  13.702  0.7792 -0.4497 -0.7050
   67TMC2     O 1044   1.753   4.358  13.667 -0.4545 -0.2291 -0.3470
   67TMC2     H 1045   1.529   4.661  13.799 -0.5053  0.1898  0.6730
   67TMC2    H1 1046   1.852   4.384  13.871  1.6500  0.6273  0.1785
   67TMC2    H2 1047   1.635   4.565  14.186  2.2060  1.6880 -0.3995
   67TMC2    C7 1048   1.809   4.358  14.112 -0.4051  0.1653 -0.0086
   67TMC2    C8 1049   1.472   4.692  14.040 -0.0004 -0.7067 -0.6764
   67TMC2    O1 1050   1.795   4.245  14.073  0.0917  0.6280 -0.2493
   67TMC2    O2 1051   1.405   4.648  14.135  0.0077  0.0610 -0.0242
   67TMC2    O5 1052   1.453   0.078  13.984  0.1493  0.1638 -0.0852
   67TMC2    H5 1053   1.537   0.103  13.941  0.2327 -0.3876 -0.2403
   68MPD2     C 1054   1.533   4.328  13.440  0.0282  0.7453  0.4996
   68MPD2    C1 1055   1.464   4.379  13.548 -0.4062 -0.4574 -0.3839
   68MPD2    C2 1056   1.325   4.395  13.538  0.3301  0.8000  0.3251
   68MPD2    C3 1057   1.251   4.368  13.425  0.5934 -0.1342 -0.6079
   68MPD2    C4 1058   1.323   4.310  13.316  0.4454  0.0964 -0.1803
   68MPD2    C5 1059   1.461   4.302  13.324  0.2459 -0.6446 -0.0023
   68MPD2     H 1060   1.280   4.445  13.623 -1.3914  1.3229 -0.8958
   68MPD2    H1 1061   1.291   4.285  13.216 -2.6537 -0.6002  0.9704
   68MPD2    H2 1062   1.640   4.330  13.429 -0.0493  1.7887 -0.0816
   68MPD2    H3 1063   1.516   4.268  13.237 -0.4620 -1.5250 -0.1099
   68MPD2     N 1064   1.114   4.390  13.408  0.1243 -0.4287  0.4354
   68MPD2    H5 1065   1.072   4.386  13.316  0.1491  2.1074  0.3095
   68MPD2    N1 1066   1.525   4.432  13.669  0.3536  0.5588 -0.3668
   68MPD2    H7 1067   1.456   4.481  13.724  0.7556 -0.7165  1.2955
   69TMC2    C1 1068   3.680   0.988  12.330 -1.3954 -0.6700  0.3484
   69TMC2    C2 1069   3.558   0.946  12.288 -0.4962 -0.2361 -0.1366
   69TMC2    C3 1070   3.523   0.966  12.156 -0.2908  1.0864 -0.0996
   69TMC2    C4 1071   3.767   1.056  12.245 -0.7861  0.4023  0.2663
   69TMC2    C5 1072   3.726   1.064  12.109  0.0218  0.0840  0.7029
   69TMC2    C6 1073   3.600   1.024  12.062 -0.2319 -0.5108 -0.0500
   69TMC2     C 1074   3.730   0.922  12.446  0.8750  0.0008 -0.1440
   69TMC2     O 1075   3.664   0.828  12.494 -0.2257 -0.3905  0.1512
   69TMC2     H 1076   3.483   0.908  12.356  1.5220 -1.3743  1.4588
   69TMC2    H1 1077   3.869   1.082  12.271 -0.9376  1.3661 -0.0908
   69TMC2    H2 1078   3.565   1.029  11.959 -0.3251 -1.2289 -0.0520
   69TMC2    C7 1079   3.830   1.096  12.013  0.1409  0.1279 -0.1797
   69TMC2    C8 1080   3.399   0.906  12.109  0.0257 -0.1072  0.3442
   69TMC2    O1 1081   3.947   1.084  12.046  0.2482  0.0267  0.2566
   69TMC2    O2 1082   3.299   0.972  12.077 -0.0435  0.2844  0.0411
   69TMC2    O5 1083   3.438   0.784  12.070 -0.2753  0.0599  0.0421
   69TMC2    H5 1084   3.526   0.756  12.103 -0.8494 -1.0507  0.6702
   70MPD2     C 1085   4.057   0.957  12.614  0.8746  0.2061  0.4999
   70MPD2    C1 1086   3.935   0.901  12.589 -0.3456 -0.7218 -0.8359
   70MPD2    C2 1087   3.897   0.787  12.666 -0.3805  0.4233  0.1447
   70MPD2    C3 1088   3.975   0.750  12.779 -0.3642  0.0597  0.1640
   70MPD2    C4 1089   4.103   0.802  12.792 -0.3843  0.5253  0.8089
   70MPD2    C5 1090   4.142   0.903  12.713  0.2258 -0.3629 -0.8106
   70MPD2     H 1091   3.804   0.733  12.654 -0.1546  0.0710 -0.0341
   70MPD2    H1 1092   4.171   0.761  12.866  0.9967 -0.7305 -1.1641
   70MPD2    H2 1093   4.100   1.037  12.555  0.8287 -0.2839 -0.1994
   70MPD2    H3 1094   4.238   0.947  12.736  0.2683  0.3871 -2.4343
   70MPD2     N 1095   3.939   0.646  12.868 -0.3738 -0.6177  0.0414
   70MPD2    H5 1096   4.010   0.622  12.937  1.5373  1.2436 -1.2708
   70MPD2    N1 1097   3.859   0.963  12.490  0.4383  0.1826  0.3006
   70MPD2    H7 1098   3.903   1.034  12.432  1.1422  0.0791  0.7112
   71TMC2    C1 1099   1.003   0.188   1.677 -0.8630  0.0981  0.0810
   71TMC2    C2 1100   1.052   0.083   1.752  1.2275  0.0370 -0.3188
   71TMC2    C3 1101   0.968   0.025   1.841  0.0205 -0.6584  0.8813
   71TMC2    C4 1102   0.883   0.253   1.698  0.6413 -0.3581 -0.4389
   71TMC2    C5 1103   0.805   0.194   1.793 -0.4250  0.4574 -0.1342
   71TMC2    C6 1104   0.843   0.079   1.859  0.4602 -0.6956 -0.0099
   71TMC2     C 1105   1.085   0.248   1.570  0.2356 -0.2293 -0.4385
   71TMC2     O 1106   1.034   0.308   1.476 -0.6933  0.6239  0.2133
   71TMC2     H 1107   1.135   0.019   1.723  1.2073 -0.2022  0.1508
   71TMC2    H1 1108   0.853   0.330   1.627  2.3552  1.6434  0.9922
   71TMC2    H2 1109   0.779   0.034   1.934  3.0359 -3.5596  0.5049
   71TMC2    C7 1110   0.682   0.253   1.833 -0.0614  0.0985  0.1859
   71TMC2    C8 1111   1.020   4.662   1.925 -0.0676 -0.0593 -0.5593
   71TMC2    O1 1112   0.629   0.207   1.930 -0.0206  0.2502 -0.0099
   71TMC2    O2 1113   0.939   4.602   1.996  0.2153  0.0769  0.5901
   71TMC2    O5 1114   1.152   4.689   1.962 -0.0369  0.1126 -0.3742
   71TMC2    H5 1115   1.197   0.028   1.927 -2.0569  0.4037 -2.2919
   72MPD2     C 1116   1.536   0.267   1.353  0.3621  0.6844  0.1084
   72MPD2    C1 1117   1.412   0.295   1.300 -0.3467 -0.0124 -0.2608
   72MPD2    C2 1118   1.305   0.285   1.380  0.0653  0.0405  0.0159
   72MPD2    C3 1119   1.316   0.225   1.503 -0.3327  0.3368 -0.4433
   72MPD2    C4 1120   1.444   0.199   1.555  0.5325  0.1883  0.2693
   72MPD2    C5 1121   1.556   0.224   1.480 -0.0845 -0.9983 -0.0681
   72MPD2     H 1122   1.208   0.326   1.352 -1.2050 -0.5858  3.4406
   72MPD2    H1 1123   1.449   0.148   1.650 -2.4000 -0.3743  0.1125
   72MPD2    H2 1124   1.629   0.284   1.299  0.0535  0.6166 -0.4430
   72MPD2    H3 1125   1.656   0.202   1.516 -0.4501 -1.0617  0.9002
   72MPD2     N 1126   1.211   0.211   1.589  0.6500  0.0186  0.1682
   72MPD2    H5 1127   1.231   0.178   1.683  0.3364  0.7604  0.4985
   72MPD2    N1 1128   1.404   0.348   1.162 -0.3179  0.6522  0.4423
   72MPD2    H7 1129   1.494   0.362   1.117 -0.0269  0.3188  0.9149
   73TMC2    C1 1130   1.450   2.937  14.217 -0.4151 -0.2998 -0.2366
   73TMC2    C2 1131   1.378   2.938  14.330 -0.3218  0.0343 -0.2410
   73TMC2    C3 1132   1.405   3.039  14.424  0.6464 -0.1247 -0.0444
   73TMC2    C4 1133   1.541   3.035  14.200  0.4549  0.4527  0.4743
   73TMC2    C5 1134   1.556   3.140  14.285 -0.2150 -0.3807 -0.0142
   73TMC2    C6 1135   1.491   3.141  14.403  0.3558 -0.4767  0.1154
   73TMC2     C 1136   1.362   2.930  14.096 -0.6067  0.5106  1.1004
   73TMC2     O 1137   1.395   3.011  14.007 -1.0485  0.0698  0.0238
   73TMC2     H 1138   1.304   2.863  14.354  1.2879 -0.2182  3.9611
   73TMC2    H1 1139   1.600   3.036  14.109 -0.1566  0.5070  0.0761
   73TMC2    H2 1140   1.499   3.233  14.461  0.3744  0.1661 -0.9122
   73TMC2    C7 1141   1.567   3.268  14.220  0.5741 -0.0135  0.6473
   73TMC2    C8 1142   1.309   3.053  14.529  0.3762 -0.2212 -0.3034
   73TMC2    O1 1143   1.636   3.357  14.269  0.4123 -0.2665  0.7079
   73TMC2    O2 1144   1.219   2.973  14.540 -0.6234  0.1255 -0.4499
   73TMC2    O5 1145   1.369   3.102  14.643 -0.5229 -0.2737 -0.1659
   73TMC2    H5 1146   1.465   3.122  14.638 -0.4928 -0.5804 -0.7435
   74MPD2     C 1147   0.964   2.798  13.798 -0.8133 -0.0071  0.5009
   74MPD2    C1 1148   1.028   2.920  13.809  0.0634 -0.6449  0.3518
   74MPD2    C2 1149   1.131   2.932  13.901  0.3261 -0.1456  0.2657
   74MPD2    C3 1150   1.154   2.833  13.996 -0.9016  0.2152  0.3574
   74MPD2    C4 1151   1.077   2.720  13.989 -0.5423  0.2961 -0.5427
   74MPD2    C5 1152   0.980   2.703  13.897  0.0849 -0.7168  0.1080
   74MPD2     H 1153   1.190   3.023  13.909 -0.5873  0.1009  4.1307
   74MPD2    H1 1154   1.085   2.637  14.058 -1.2309  0.4362 -0.2870
   74MPD2    H2 1155   0.886   2.779  13.724 -1.5303  1.5869  0.8521
   74MPD2    H3 1156   0.911   2.619  13.900  0.0863 -0.7480 -0.6738
   74MPD2     N 1157   1.257   2.847  14.100  0.1392  0.3540 -0.7024
   74MPD2    H5 1158   1.257   2.777  14.173 -4.0719  1.3728  0.3144
   74MPD2    N1 1159   0.981   3.031  13.730  0.2180  0.1975  0.3869
   74MPD2    H7 1160   0.911   3.020  13.657  1.7512 -0.5565 -0.9515
   75TMC2    C1 1161   0.881   4.411  13.453 -0.0700 -0.5173 -0.2918
   75TMC2    C2 1162   0.787   4.349  13.527  0.6981 -0.9257  0.1121
   75TMC2    C3 1163   0.657   4.338  13.485 -0.6369  0.3481 -0.4876
   75TMC2    C4 1164   0.851   4.458  13.329  0.1436  0.0068  0.3202
   75TMC2    C5 1165   0.727   4.447  13.290  0.0737 -0.1113 -0.0117
   75TMC2    C6 1166   0.625   4.388  13.365 -0.2042  0.2092  0.0943
   75TMC2     C 1167   1.020   4.411  13.507 -0.2695 -0.1410  0.4329
   75TMC2     O 1168   1.042   4.407  13.627 -0.3866 -0.5458  0.2493
   75TMC2     H 1169   0.815   4.299  13.619  0.5246 -0.9317  0.1624
   75TMC2    H1 1170   0.927   4.517  13.279 -0.4023  0.4066 -0.0421
   75TMC2    H2 1171   0.524   4.371  13.329  0.0067  0.4404 -0.6039
   75TMC2    C7 1172   0.692   4.478  13.150 -0.5512 -0.3079  0.5500
   75TMC2    C8 1173   0.560   4.235  13.537 -0.3382  0.1836 -0.2933
   75TMC2    O1 1174   0.576   4.489  13.126 -0.4152 -0.4149  0.2997
   75TMC2    O2 1175   0.498   4.165  13.464 -0.6040 -0.2319  0.3628
   75TMC2    O5 1176   0.610   4.190  13.654  0.1802  0.0942 -0.1454
   75TMC2    H5 1177   0.658   4.261  13.702  2.1078 -1.8515  0.8470
   76TMC2    C1 1178   4.598   0.353  12.119 -0.0544 -0.0720  0.3494
   76TMC2    C2 1179   4.467   0.319  12.094  0.0014 -0.2291 -0.1647
   76TMC2    C3 1180   4.404   0.235  12.184 -0.4146  0.1856 -0.2230
   76TMC2    C4 1181   4.661   0.315  12.237 -0.4065  0.6898 -0.0015
   76TMC2    C5 1182   4.591   0.238  12.322  0.4963 -0.5770 -0.2532
   76TMC2    C6 1183   4.462   0.189  12.299  0.2357 -0.4955 -0.0926
   76TMC2     C 1184   4.635   0.467  12.050  0.4532  0.3247  0.1860
   76TMC2     O 1185   4.584   0.498  11.939 -0.9267  0.1408 -0.1327
   76TMC2     H 1186   4.412   0.336  12.002  1.2231  0.2487 -0.8021
   76TMC2    H1 1187   0.028   0.334  12.247 -0.0906 -1.3697  0.4516
   76TMC2    H2 1188   4.419   0.120  12.371  0.8548  1.8926  2.5556
   76TMC2    C7 1189   4.658   0.161  12.420 -0.1315  0.1181  0.0217
   76TMC2    C8 1190   4.260   0.221  12.175  0.1371 -0.6394 -0.6516
   76TMC2    O1 1191   4.633   0.044  12.431  0.2228  0.4185  0.5195
   76TMC2    O2 1192   4.200   0.185  12.276  0.4182 -0.0018  0.8161
   76TMC2    O5 1193   4.229   0.170  12.047  0.2377  0.0130 -0.2298
   76TMC2    H5 1194   4.275   0.209  11.970 -0.3054 -0.7989 -0.9714
   77MPD2     C 1195   0.150   0.902  12.019  0.1801  0.0630 -0.2834
   77MPD2    C1 1196   0.030   0.864  11.959 -0.2922  0.5097 -0.9546
   77MPD2    C2 1197   4.716   0.749  12.002  0.8534 -0.4971  0.3072
   77MPD2    C3 1198   0.024   0.673  12.104 -0.2603  0.2854 -0.2095
   77MPD2    C4 1199   0.140   0.714  12.170  1.0174  0.5329  0.4906
   77MPD2    C5 1200   0.192   0.836  12.136 -0.1591  0.2737 -0.3664
   77MPD2     H 1201   4.620   0.730  11.955  0.7678 -0.4765  0.4770
   77MPD2    H1 1202   0.182   0.648  12.246  2.8041 -0.0202 -0.9585
   77MPD2    H2 1203   0.209   0.989  11.994 -0.3763  0.0465 -1.6512
   77MPD2    H3 1204   0.283   0.870  12.183  0.9426 -1.1033 -1.4952
   77MPD2     N 1205   4.715   0.547  12.135 -0.1489 -0.0520 -0.5929
   77MPD2    H5 1206   0.006   0.496  12.216  0.8616  0.5801 -0.5831
   77MPD2    N1 1207   4.699   0.945  11.869  0.2486  0.5575 -0.2480
   77MPD2    H7 1208   4.603   0.920  11.848 -0.2012  1.3097  0.9367
   78TMC2    C1 1209   1.500   4.006   0.942  0.2686  0.2086 -0.3407
   78TMC2    C2 1210   1.503   3.918   0.834  0.5662  0.3661 -0.8200
   78TMC2    C3 1211   1.603   3.932   0.744  0.2004  0.1937 -0.0095
   78TMC2    C4 1212   1.587   4.115   0.948  0.2115  0.3119 -0.1323
   78TMC2    C5 1213   1.682   4.125   0.848 -0.0222  0.0308 -0.5363
   78TMC2    C6 1214   1.693   4.034   0.745  0.0387  0.4418  0.1472
   78TMC2     C 1215   1.370   4.016   0.994 -0.3200 -0.4762  0.0152
   78TMC2     O 1216   1.295   3.920   0.975  0.1352  0.3949  0.3393
   78TMC2     H 1217   1.433   3.837   0.820 -2.0106  2.3224  0.7869
   78TMC2    H1 1218   1.585   4.190   1.026  1.7441  0.2101 -0.0072
   78TMC2    H2 1219   1.758   4.057   0.662  0.0404  1.0592  0.3235
   78TMC2    C7 1220   1.792   4.219   0.861 -0.8407  0.1640  0.1031
   78TMC2    C8 1221   1.642   3.811   0.671 -0.1832 -0.0559  0.7492
   78TMC2    O1 1222   1.890   4.208   0.792  0.1278 -0.8062  0.0919
   78TMC2    O2 1223   1.756   3.779   0.644 -0.1696 -0.3172 -0.1704
   78TMC2    O5 1224   1.532   3.798   0.596  0.2603 -0.3347 -0.1041
   78TMC2    H5 1225   1.455   3.856   0.616  1.3566  0.7641  0.9499
   79MPD1     C 1226   1.047   4.224   1.319  0.3028  0.2687 -0.4076
   79MPD1    C1 1227   1.038   4.096   1.265  0.8687 -0.2940 -0.3088
   79MPD1    C2 1228   1.137   4.063   1.176 -0.4287 -0.8859 -0.3147
   79MPD1    C3 1229   1.235   4.163   1.138  0.7757 -0.4170 -0.2381
   79MPD1    C4 1230   1.232   4.293   1.186 -0.7349 -0.5584  0.1685
   79MPD1    C5 1231   1.144   4.313   1.285  0.3397  0.2677  0.6394
   79MPD1     H 1232   1.138   3.966   1.129 -2.2083 -0.7343 -0.6384
   79MPD1    H1 1233   1.303   4.369   1.157 -0.8502 -0.3257  0.4857
   79MPD1    H2 1234   0.967   4.263   1.382 -0.1436 -0.0812 -0.7559
   79MPD1    H3 1235   1.149   4.410   1.333  1.2357  1.7992 -2.5363
   79MPD1     N 1236   1.343   4.133   1.058 -0.4683  0.2285 -0.5089
   79MPD1    H5 1237   1.398   4.213   1.028 -1.9583  0.8145 -1.6666
   79MPD1    N1 1238   0.941   3.999   1.300  0.0071 -0.2487  0.0174
   79MPD1    H6 1239   0.847   4.037   1.288  0.2188 -0.1582 -1.3438
   79MPD1    H7 1240   0.940   3.914   1.244 -0.0075  1.1737 -2.0915
   80TMC2    C1 1241   3.371   3.655  12.701 -0.8891 -0.3654 -0.6001
   80TMC2    C2 1242   3.339   3.537  12.638 -0.8045 -0.1470  0.0095
   80TMC2    C3 1243   3.205   3.509  12.648 -0.5665  0.8352 -0.7354
   80TMC2    C4 1244   3.286   3.728  12.783 -0.2129  0.1131  0.3198
   80TMC2    C5 1245   3.158   3.674  12.801  0.4994 -0.1270 -0.0404
   80TMC2    C6 1246   3.107   3.569  12.729 -0.4615 -0.1848  0.2069
   80TMC2     C 1247   3.510   3.673  12.724  0.0258 -0.2503  0.1384
   80TMC2     O 1248   3.584   3.571  12.732 -0.1373  0.0543  0.4367
   80TMC2     H 1249   3.402   3.473  12.578 -0.5205 -0.7281  0.9351
   80TMC2    H1 1250   3.316   3.820  12.832  1.0032 -0.9972  1.6559
   80TMC2    H2 1251   3.006   3.530  12.741 -0.1304 -0.7274  1.2525
   80TMC2    C7 1252   3.088   3.733  12.909 -0.4171 -0.2399 -0.0008
   80TMC2    C8 1253   3.159   3.385  12.595  0.4778  0.5275 -0.3841
   80TMC2    O1 1254   2.967   3.737  12.890 -0.1577  0.0797  0.5959
   80TMC2    O2 1255   3.047   3.385  12.540 -0.3700 -0.3694 -0.1179
   80TMC2    O5 1256   3.225   3.277  12.649  0.6136 -0.1030 -0.6252
   80TMC2    H5 1257   3.292   3.311  12.712 -1.3780  0.4133  1.1883
   81MPD2     C 1258   3.774   3.797  12.788 -0.7336 -0.6694  0.1097
   81MPD2    C1 1259   3.661   3.860  12.748 -0.9751  0.6655  0.5235
   81MPD2    C2 1260   3.675   3.996  12.731  0.0614  0.2134  0.9973
   81MPD2    C3 1261   3.786   4.063  12.766 -0.0289  0.0868 -0.3550
   81MPD2    C4 1262   3.898   3.999  12.809  0.6045  0.0206 -0.1309
   81MPD2    C5 1263   3.893   3.860  12.824 -0.2687 -0.6890  0.0619
   81MPD2     H 1264   3.581   4.042  12.702  0.7748  0.8415 -0.3333
   81MPD2    H1 1265   3.983   4.062  12.831 -0.9141  1.8573  0.4884
   81MPD2    H2 1266   3.765   3.692  12.811  0.3134 -1.2220 -2.0598
   81MPD2    H3 1267   3.975   3.803  12.866 -1.4104 -0.3962  2.7250
   81MPD2     N 1268   3.793   4.203  12.773  0.0975 -0.3132 -0.5382
   81MPD2    H5 1269   3.881   4.242  12.805  0.1141 -2.4577  1.9431
   81MPD2    N1 1270   3.537   3.807  12.727  0.1400  0.0284 -0.6008
   81MPD2    H7 1271   3.463   3.870  12.696 -1.2299 -0.3509  1.8553
   82TMC2    C1 1272   2.119   3.307  11.485  0.2486 -0.4529  0.5617
   82TMC2    C2 1273   2.250   3.294  11.467  0.7466 -0.2807  0.1815
   82TMC2    C3 1274   2.318   3.215  11.553  0.1033  0.1674  0.4911
   82TMC2    C4 1275   2.057   3.245  11.593 -0.2694  0.2276 -0.7730
   82TMC2    C5 1276   2.126   3.170  11.683  0.1638  0.3214 -0.0269
   82TMC2    C6 1277   2.260   3.151  11.658  0.8881 -0.1316 -0.4206
   82TMC2     C 1278   2.056   3.424  11.438  0.1385 -0.1395  0.0135
   82TMC2     O 1279   1.932   3.429  11.427 -0.2925  0.9274  0.4629
   82TMC2     H 1280   2.308   3.347  11.392  1.1130 -1.7252 -0.5585
   82TMC2    H1 1281   1.950   3.253  11.607 -0.4415 -2.1565 -0.8177
   82TMC2    H2 1282   2.325   3.096  11.725 -1.0415 -2.3574 -0.3854
   82TMC2    C7 1283   2.087   3.190  11.817  0.5005 -1.1452 -0.3691
   82TMC2    C8 1284   2.451   3.192  11.526 -0.1237 -0.6672 -1.2752
   82TMC2    O1 1285   1.991   3.264  11.832  0.6453 -0.1383 -0.6301
   82TMC2    O2 1286   2.525   3.135  11.604 -0.5208  0.3769 -0.2537
   82TMC2    O5 1287   2.471   3.176  11.392  0.6415  0.4515 -0.5338
   82TMC2    H5 1288   2.404   3.217  11.333  0.8723  0.7025 -0.6190
   83MPD2     C 1289   2.092   3.914  11.283 -0.0895 -0.4881 -0.2741
   83MPD2    C1 1290   1.987   3.831  11.283  0.1731  0.7999  0.1529
   83MPD2    C2 1291   1.997   3.699  11.329 -0.4655 -0.5177 -0.1147
   83MPD2    C3 1292   2.117   3.662  11.387 -0.5839 -0.0999  0.3708
   83MPD2    C4 1293   2.226   3.749  11.390  0.1879  1.2438  0.3180
   83MPD2    C5 1294   2.215   3.875  11.338 -0.0982 -0.1701 -0.9389
   83MPD2     H 1295   1.911   3.633  11.326 -0.7743 -0.1296  0.2912
   83MPD2    H1 1296   2.320   3.710  11.427 -0.8672 -2.0760 -0.5050
   83MPD2    H2 1297   2.087   4.019  11.257 -0.1693  0.1500  2.2786
   83MPD2    H3 1298   2.290   3.952  11.353  1.2142 -2.4453  4.2620
   83MPD2     N 1299   2.144   3.533  11.435 -0.5764 -0.3253 -0.5016
   83MPD2    H5 1300   2.239   3.522  11.470  0.2307  2.0922 -1.9829
   83MPD2    N1 1301   1.872   3.881  11.222 -0.0732  0.7042 -0.1535
   83MPD2    H7 1302   1.883   3.970  11.175  0.5058  0.5210 -0.3610
   84TMC2    C1 1303   3.546   4.031  10.857  0.4460  0.4587 -0.2762
   84TMC2    C2 1304   3.627   4.142  10.863  0.0534 -0.3559  0.7873
   84TMC2    C3 1305   3.708   4.174  10.764  1.0979 -0.3813 -0.2016
   84TMC2    C4 1306   3.548   3.954  10.749 -0.0087 -0.1949 -0.0340
   84TMC2    C5 1307   3.621   3.995  10.642 -0.1513  0.0920 -0.7250
   84TMC2    C6 1308   3.703   4.106  10.646  0.2107 -0.6150  0.7504
   84TMC2     C 1309   3.455   4.007  10.967  0.5631  0.3234  0.0796
   84TMC2     O 1310   3.500   4.002  11.080  0.0306  0.2666  0.2525
   84TMC2     H 1311   3.631   4.207  10.949 -0.0033  1.2847 -0.4346
   84TMC2    H1 1312   3.474   3.875  10.750 -1.6269  1.3457  0.5914
   84TMC2    H2 1313   3.781   4.124  10.573 -0.6569  1.3715  0.3050
   84TMC2    C7 1314   3.610   3.918  10.518  0.4116  0.9242 -0.0179
   84TMC2    C8 1315   3.758   4.306  10.767  0.4157 -0.1920  0.2563
   84TMC2    O1 1316   3.560   3.806  10.527  0.2003 -0.3736  0.5764
   84TMC2    O2 1317   3.690   4.401  10.729 -0.2135 -0.1300  0.0936
   84TMC2    O5 1318   3.840   4.304  10.878  0.8525  0.2848 -0.5132
   84TMC2    H5 1319   3.873   4.215  10.903  1.7050  0.5763 -0.5914
   85TMC2    C1 1320   4.454   1.080  16.169 -0.3281  0.5151  0.0380
   85TMC2    C2 1321   4.356   1.157  16.214  0.4859  0.1990  0.5238
   85TMC2    C3 1322   4.338   1.276  16.155  0.2021  0.6662  0.2187
   85TMC2    C4 1323   4.551   1.121  16.081 -0.6916 -0.1710  0.3004
   85TMC2    C5 1324   4.543   1.250  16.039 -0.1947 -0.9024  0.0148
   85TMC2    C6 1325   4.434   1.333  16.070  0.1181  0.0579  0.5338
   85TMC2     C 1326   4.465   0.941  16.204 -0.2958  0.5989 -0.0187
   85TMC2     O 1327   4.572   0.884  16.203 -0.7955  0.4040 -0.3659
   85TMC2     H 1328   4.289   1.130  16.296 -1.6363  1.1744 -0.8874
   85TMC2    H1 1329   4.623   1.046  16.051 -1.4747 -0.4563 -0.8746
   85TMC2    H2 1330   4.442   1.439  16.048  1.1773 -0.6005 -2.2008
   85TMC2    C7 1331   4.586   1.280  15.903 -0.6898  0.2839 -0.2577
   85TMC2    C8 1332   4.258   1.357  16.248 -0.2992 -0.5964 -0.3645
   85TMC2    O1 1333   4.528   1.370  15.842  0.1328  0.4953 -0.2758
   85TMC2    O2 1334   4.247   1.336  16.370  0.4822 -0.2788  0.2220
   85TMC2    O5 1335   4.163   1.389  16.155  0.1277  0.0440  0.1132
   85TMC2    H5 1336   4.189   1.350  16.069  1.2031  0.0766  0.4297
   86MPD2     C 1337   4.273   0.524  16.426 -0.4011 -0.1761  0.1961
   86MPD2    C1 1338   4.164   0.594  16.388  0.0657 -0.3412 -0.6110
   86MPD2    C2 1339   4.188   0.713  16.317 -0.5639  0.6971 -0.8979
   86MPD2    C3 1340   4.321   0.768  16.309 -1.0666 -0.4307 -0.4124
   86MPD2    C4 1341   4.428   0.694  16.358  0.2850 -0.5663 -0.4140
   86MPD2    C5 1342   4.399   0.573  16.416  0.5322  0.0471 -0.2158
   86MPD2     H 1343   4.104   0.769  16.278 -1.3736 -0.7878 -1.2711
   86MPD2    H1 1344   4.533   0.714  16.346  0.7923 -1.7540  1.9989
   86MPD2    H2 1345   4.264   0.431  16.480 -1.6687  0.3446  0.8689
   86MPD2    H3 1346   4.484   0.517  16.454 -1.2247 -1.3797  1.5976
   86MPD2     N 1347   4.339   0.888  16.241 -0.2902  0.2511 -0.0378
   86MPD2    H5 1348   4.253   0.939  16.223  0.3926  1.3830 -0.0873
   86MPD2    N1 1349   4.037   0.539  16.400  0.5965 -0.3578 -0.1989
   86MPD2    H7 1350   3.965   0.571  16.336 -0.8969 -0.8584  1.2235
   87TMC2    C1 1351   1.403   4.044   1.866 -0.9607 -0.3362  0.1528
   87TMC2    C2 1352   1.357   3.995   1.987 -0.3173  0.6648 -0.1600
   87TMC2    C3 1353   1.229   4.035   2.027 -0.0330 -0.3856  0.4103
   87TMC2    C4 1354   1.328   4.142   1.795 -0.3341  0.6369  0.9196
   87TMC2    C5 1355   1.203   4.177   1.843  0.1421 -0.4635  0.0076
   87TMC2    C6 1356   1.153   4.128   1.958  0.5989 -0.3806  0.3735
   87TMC2     C 1357   1.502   3.969   1.785  0.0882 -0.1718  0.1105
   87TMC2     O 1358   1.514   3.999   1.666  0.0361  0.6026  0.0293
   87TMC2     H 1359   1.408   3.918   2.043 -2.0549 -0.4183 -0.0721
   87TMC2    H1 1360   1.372   4.169   1.699  0.1499 -1.4645  0.5555
   87TMC2    H2 1361   1.055   4.161   1.991  1.8000  0.6767  2.8144
   87TMC2    C7 1362   1.142   4.293   1.779  0.0908 -0.1715  0.4234
   87TMC2    C8 1363   1.180   3.981   2.147 -0.3889  0.1565  0.0946
   87TMC2    O1 1364   1.215   4.338   1.692 -0.4145  1.3032  0.5110
   87TMC2    O2 1365   1.102   3.885   2.143  0.0359  0.1220  0.5331
   87TMC2    O5 1366   1.279   3.992   2.237  0.7188 -0.2004  0.0855
   87TMC2    H5 1367   1.328   4.075   2.221  2.3154 -1.8767 -3.5832
   88MPD2     C 1368   0.790   4.394   1.758  0.3589  0.4326  0.1650
   88MPD2    C1 1369   0.921   4.394   1.724  0.1020  0.7792 -0.0064
   88MPD2    C2 1370   0.966   4.491   1.642  0.3731 -0.2940 -0.4019
   88MPD2    C3 1371   0.875   4.580   1.582  0.2070  0.9275  0.0526
   88MPD2    C4 1372   0.744   4.573   1.616  0.2904  0.0349 -0.1516
   88MPD2    C5 1373   0.699   4.480   1.706 -0.1913 -0.3605 -0.4063
   88MPD2     H 1374   1.067   4.501   1.604  0.1646 -0.5499 -1.0354
   88MPD2    H1 1375   0.666   4.642   1.585 -1.7463 -1.4278  1.7406
   88MPD2    H2 1376   0.762   4.319   1.831  0.2611  0.6028  0.3030
   88MPD2    H3 1377   0.598   4.488   1.747 -0.3373  1.2445 -1.0591
   88MPD2     N 1378   0.895   4.658   1.464  0.3118  0.2415 -0.3887
   88MPD2    H5 1379   0.810   4.695   1.423  0.4445  1.5957  0.5416
   88MPD2    N1 1380   1.005   4.309   1.800 -0.4068 -0.2165 -0.4702
   88MPD2    H7 1381   0.958   4.248   1.866 -0.7737  2.1508  1.4606
   89TMC2    C1 1382   2.967   2.596   1.642  0.1530 -0.5575  0.7769
   89TMC2    C2 1383   2.923   2.536   1.765 -0.1478  0.1993  0.3019
   89TMC2    C3 1384   2.930   2.613   1.881 -1.2275 -0.0983 -0.2830
   89TMC2    C4 1385   3.004   2.724   1.632 -0.2674  0.1392 -0.4413
   89TMC2    C5 1386   3.020   2.792   1.750 -0.0888  0.4024 -0.0460
   89TMC2    C6 1387   2.989   2.734   1.875  0.3168 -0.0917 -0.2933
   89TMC2     C 1388   2.935   2.525   1.519  0.2276  1.0689 -0.0826
   89TMC2     O 1389   2.982   2.582   1.421 -0.1251 -1.1890  0.5537
   89TMC2     H 1390   2.885   2.434   1.770 -1.1932  0.4249 -2.8104
   89TMC2    H1 1391   3.049   2.746   1.536  1.8059  1.8570  0.9336
   89TMC2    H2 1392   3.017   2.793   1.961 -2.2193 -1.8196  1.7157
   89TMC2    C7 1393   3.061   2.933   1.741  0.1604  0.2373  0.2375
   89TMC2    C8 1394   2.882   2.569   2.009  0.0207  0.4120  0.3279
   89TMC2    O1 1395   3.072   2.988   1.850  0.4602  0.2583  0.0081
   89TMC2    O2 1396   2.911   2.630   2.112 -0.5294 -0.1827  0.6174
   89TMC2    O5 1397   2.780   2.480   1.994  0.0965 -0.2363 -0.1194
   89TMC2    H5 1398   2.764   2.458   1.900  1.2881  0.6775 -0.5382
   90MPD2     C 1399   2.693   2.173   1.237  0.0521  0.3179  0.5268
   90MPD2    C1 1400   2.676   2.138   1.365 -0.0900 -0.0762  0.1777
   90MPD2    C2 1401   2.738   2.212   1.469 -0.8154  0.6333  0.4029
   90MPD2    C3 1402   2.806   2.328   1.434 -0.0945 -0.0248 -0.5868
   90MPD2    C4 1403   2.813   2.369   1.298  0.3555  0.0753 -0.1134
   90MPD2    C5 1404   2.770   2.279   1.207  0.8200  0.0566 -0.1484
   90MPD2     H 1405   2.738   2.176   1.572 -0.2672 -0.6192 -0.0272
   90MPD2    H1 1406   2.851   2.466   1.269  0.5615  0.2327  0.6661
   90MPD2    H2 1407   2.645   2.129   1.150 -0.0687  1.1727  0.1615
   90MPD2    H3 1408   2.772   2.304   1.102 -1.3075 -0.6641 -0.3642
   90MPD2     N 1409   2.852   2.418   1.529 -0.2794  0.6367  0.1155
   90MPD2    H5 1410   2.813   2.399   1.621 -2.5669  1.2968 -0.7311
   90MPD2    N1 1411   2.619   2.008   1.399  0.2250 -0.2155 -0.6481
   90MPD2    H7 1412   2.631   1.972   1.493 -0.7559  1.4223  0.0965
   91TMC2    C1 1413   3.835   1.940  16.113 -0.3228  0.8479  0.3579
   91TMC2    C2 1414   3.892   1.940  16.237  0.5949 -0.2034  0.2222
   91TMC2    C3 1415   3.819   1.887  16.341 -0.4422  0.1087  0.4662
   91TMC2    C4 1416   3.708   1.881  16.092  0.4659  0.5461  0.0560
   91TMC2    C5 1417   3.644   1.819  16.196  0.3936  0.2881  0.4397
   91TMC2    C6 1418   3.699   1.820  16.320 -0.2430 -0.1960  0.3873
   91TMC2     C 1419   3.887   2.018  16.009  0.4595  0.3614 -0.6332
   91TMC2     O 1420   3.823   2.044  15.912  0.4591  0.0715 -0.6174
   91TMC2     H 1421   3.969   2.015  16.252 -0.1489  0.4179  0.9286
   91TMC2    H1 1422   3.659   1.896  15.996  2.0191  1.7638 -0.5613
   91TMC2    H2 1423   3.635   1.774  16.394 -2.9196 -0.4107 -2.0715
   91TMC2    C7 1424   3.554   1.711  16.166  0.7260 -0.2072 -0.6929
   91TMC2    C8 1425   3.887   1.881  16.464 -0.3253  0.6413  0.4090
   91TMC2    O1 1426   3.570   1.607  16.229  0.3409 -0.2043  0.8377
   91TMC2    O2 1427   4.007   1.884  16.484 -1.0060 -0.3795 -0.0256
   91TMC2    O5 1428   3.792   1.853  16.555  0.4232  1.1185  0.2698
   91TMC2    H5 1429   3.705   1.874  16.515  0.5056 -1.1066 -1.1532
   92MPD2     C 1430   4.073   2.168  15.821  0.0414  0.1305 -0.3711
   92MPD2    C1 1431   4.112   2.093  15.933 -0.1517 -0.1822 -0.1510
   92MPD2    C2 1432   4.241   2.090  15.965  0.0169 -0.3868  0.3009
   92MPD2    C3 1433   4.338   2.139  15.883 -0.0280 -0.0734  0.1654
   92MPD2    C4 1434   4.298   2.219  15.779  0.0003 -0.1020 -0.7994
   92MPD2    C5 1435   4.164   2.238  15.745 -0.2433 -0.4370 -0.4678
   92MPD2     H 1436   4.266   2.031  16.052 -0.1795  0.9281  1.2565
   92MPD2    H1 1437   4.370   2.265  15.712  0.3344 -0.9149 -0.9957
   92MPD2    H2 1438   3.967   2.182  15.803 -0.0253  3.6451  2.7685
   92MPD2    H3 1439   4.136   2.296  15.658 -1.7064 -2.9720 -1.6986
   92MPD2     N 1440   4.475   2.132  15.915 -0.3704  0.5031  0.4417
   92MPD2    H5 1441   4.531   2.188  15.851  1.3137 -1.8955 -0.1627
   92MPD2    N1 1442   4.021   2.027  16.022  0.7789 -0.3662  0.1607
   92MPD2    H7 1443   4.062   1.966  16.092 -1.3418 -1.3771  0.5121
   93TMC2    C1 1444   1.314   2.134  13.944  0.6211  0.5229  0.1703
   93TMC2    C2 1445   1.261   2.224  14.025 -0.8220 -0.0750  0.4280
   93TMC2    C3 1446   1.319   2.349  14.013  0.5222 -0.4112  0.1546
   93TMC2    C4 1447   1.398   2.158  13.844  0.0666  0.2714  1.2122
   93TMC2    C5 1448   1.449   2.287  13.830 -0.0383  0.4704 -0.7389
   93TMC2    C6 1449   1.404   2.384  13.917  0.3250  0.4739  0.4854
   93TMC2     C 1450   1.237   2.017  13.909 -0.4138  0.8376 -0.4067
   93TMC2     O 1451   1.298   1.920  13.869  0.2859 -0.4933  0.1244
   93TMC2     H 1452   1.199   2.188  14.107  0.9705  0.5835  2.0499
   93TMC2    H1 1453   1.437   2.077  13.783  1.0398  1.5827  0.0813
   93TMC2    H2 1454   1.453   2.480  13.930  1.6131 -0.2984  1.4388
   93TMC2    C7 1455   1.563   2.324  13.744 -0.2993  0.0526  0.4232
   93TMC2    C8 1456   1.303   2.447  14.117  0.5511 -0.2356  0.2550
   93TMC2    O1 1457   1.635   2.233  13.700  0.0713  0.2723 -0.4076
   93TMC2    O2 1458   1.387   2.528  14.158  0.0219 -0.0370 -0.5253
   93TMC2    O5 1459   1.186   2.416  14.182 -0.1266  0.2881 -0.1609
   93TMC2    H5 1460   1.114   2.367  14.136  0.3368 -1.9795  1.5257
   94MPD2     C 1461   1.013   1.826  13.847  0.2257 -0.1882 -0.7844
   94MPD2    C1 1462   0.997   1.953  13.889  0.2543  0.4051 -0.2395
   94MPD2    C2 1463   0.872   1.991  13.917 -0.7346  0.2315 -0.1743
   94MPD2    C3 1464   0.761   1.903  13.913  0.2403  0.0179 -0.0076
   94MPD2    C4 1465   0.779   1.778  13.869  0.2332 -0.0846  1.0259
   94MPD2    C5 1466   0.905   1.739  13.836  0.1752  0.2153 -0.1615
   94MPD2     H 1467   0.859   2.090  13.959  0.5404 -1.0783  3.3329
   94MPD2    H1 1468   0.693   1.712  13.862 -0.6660  0.9087  2.6592
   94MPD2    H2 1469   1.111   1.797  13.813  2.2179  3.3667  2.0116
   94MPD2    H3 1470   0.924   1.642  13.791 -2.8425 -0.0986 -0.7610
   94MPD2     N 1471   0.626   1.942  13.943 -0.3421  0.4221  0.2880
   94MPD2    H5 1472   0.562   1.864  13.932  0.4657 -0.1706 -0.2447
   94MPD2    N1 1473   1.103   2.044  13.906  0.1268 -0.1450  0.0306
   94MPD2    H7 1474   1.073   2.135  13.939  0.2259 -0.2806  0.4921
   95TMC2    C1 1475   0.867   3.779  15.343  0.4475 -0.5931 -0.0241
   95TMC2    C2 1476   0.911   3.685  15.257  0.4579 -0.0377  0.9105
   95TMC2    C3 1477   0.848   3.568  15.254  0.6511 -0.2512  0.0054
   95TMC2    C4 1478   0.786   3.742  15.443 -0.1254 -0.1886 -0.9417
   95TMC2    C5 1479   0.734   3.615  15.453  0.9064  0.2646  0.4711
   95TMC2    C6 1480   0.765   3.524  15.354 -0.1301 -0.1050 -0.4481
   95TMC2     C 1481   0.954   3.897  15.352 -0.3829 -0.1277  0.2901
   95TMC2     O 1482   1.011   3.924  15.249 -0.1259  0.0951 -0.0494
   95TMC2     H 1483   0.995   3.708  15.193 -0.7039  0.1919 -0.5507
   95TMC2    H1 1484   0.751   3.812  15.519  1.4609 -1.2779  0.8108
   95TMC2    H2 1485   0.710   3.432  15.340  0.2272 -0.6097  1.4850
   95TMC2    C7 1486   0.621   3.588  15.551 -0.6454 -0.6535 -0.0620
   95TMC2    C8 1487   0.867   3.487  15.133 -0.9743  0.4853 -0.8917
   95TMC2    O1 1488   0.561   3.687  15.587 -0.2067  0.3429  0.2825
   95TMC2    O2 1489   0.802   3.383  15.119  0.2460 -0.1791  0.3946
   95TMC2    O5 1490   0.920   3.555  15.032 -0.2621  0.2398  0.1130
   95TMC2    H5 1491   0.952   3.646  15.048 -0.1998  0.4354 -1.1331
   96MPD2     C 1492   1.067   4.321  15.616 -0.8525  0.5170  0.0939
   96MPD2    C1 1493   1.106   4.284  15.489  0.1900  0.1407 -0.1726
   96MPD2    C2 1494   1.075   4.158  15.443  0.1472 -0.3856 -0.0916
   96MPD2    C3 1495   0.996   4.072  15.519  0.6452  0.5285  0.3519
   96MPD2    C4 1496   0.953   4.116  15.644  0.4290 -0.3594  0.1620
   96MPD2    C5 1497   0.991   4.236  15.691  0.5435 -1.3823 -0.0829
   96MPD2     H 1498   1.101   4.130  15.342  0.0708  0.8281 -0.4550
   96MPD2    H1 1499   0.898   4.049  15.710 -2.7811  2.1582  0.0140
   96MPD2    H2 1500   1.091   4.417  15.662 -0.3859 -0.4448  1.8674
   96MPD2    H3 1501   0.959   4.272  15.788  0.1349 -1.4269 -0.2025
   96MPD2     N 1502   0.946   3.952  15.480 -0.6605  0.1659  0.6856
   96MPD2    H5 1503   0.897   3.897  15.549 -1.6780  2.2896  1.6416
   96MPD2    N1 1504   1.173   4.378  15.406  0.1168 -0.6559 -0.0239
   96MPD2    H7 1505   1.182   4.473  15.439 -2.4147 -0.6853  0.7790
   97TMC2    C1 1506   3.452   1.930   0.006  0.2128 -0.2896 -0.5119
   97TMC2    C2 1507   3.403   1.956  17.646  0.0444  0.4586 -0.0016
   97TMC2    C3 1508   3.460   2.059  17.572  0.3296  0.3584 -0.5305
   97TMC2    C4 1509   3.529   2.020   0.072  0.1732  0.5078  0.2454
   97TMC2    C5 1510   3.571   2.135   0.012 -0.2183 -0.4464 -0.1186
   97TMC2    C6 1511   3.540   2.145  17.641  0.2289 -0.0200  0.4080
   97TMC2     C 1512   3.385   1.833   0.084 -0.2799  0.2266  0.3933
   97TMC2     O 1513   3.370   1.853   0.202 -0.2710 -0.1866 -0.1436
   97TMC2     H 1514   3.322   1.898  17.602  0.1610  0.3022 -0.0106
   97TMC2    H1 1515   3.560   1.999   0.173  0.3665  0.3573  0.1563
   97TMC2    H2 1516   3.582   2.232  17.591  1.4733  0.3382  2.0681
   97TMC2    C7 1517   3.700   2.185   0.032 -0.2093 -0.1170  0.1667
   97TMC2    C8 1518   3.375   2.104  17.465  0.2308  0.5933 -0.1046
   97TMC2    O1 1519   3.713   2.265   0.124 -0.2198  0.0275  0.5906
   97TMC2    O2 1520   3.263   2.063  17.440 -0.3538  0.0158 -0.0204
   97TMC2    O5 1521   3.447   2.190  17.390 -0.6209 -0.1745 -0.0107
   97TMC2    H5 1522   3.544   2.190  17.404 -0.8979 -1.5249  1.9726
   98MPD2     C 1523   3.151   1.385   0.124 -0.0685 -0.0366  0.1807
   98MPD2    C1 1524   3.170   1.484   0.217 -0.6413  0.7600  0.3733
   98MPD2    C2 1525   3.222   1.602   0.180 -1.0904 -0.4098  0.1768
   98MPD2    C3 1526   3.274   1.615   0.054 -0.1977  0.5559 -0.7527
   98MPD2    C4 1527   3.263   1.509  17.722  0.4420  0.2544  0.1715
   98MPD2    C5 1528   3.190   1.399  17.756  0.3933  0.2167 -0.3966
   98MPD2     H 1529   3.214   1.691   0.241  0.5164 -0.2140  0.0929
   98MPD2    H1 1530   3.303   1.526  17.623  0.5261  0.4639  0.2434
   98MPD2    H2 1531   3.119   1.286   0.154 -2.7506  1.1665  1.3554
   98MPD2    H3 1532   3.179   1.320  17.683  0.8772 -0.3884  0.1807
   98MPD2     N 1533   3.359   1.719   0.016  0.0269 -0.5652  0.6157
   98MPD2    H5 1534   3.414   1.702  17.691  0.8569 -2.1743  1.4859
   98MPD2    N1 1535   3.127   1.454   0.351 -0.0409  0.1085 -0.7830
   98MPD2    H7 1536   3.076   1.366   0.356  0.2050  0.0117 -0.0849
   99TMC2    C1 1537   2.604   2.863   1.933 -1.2879  0.6053 -1.6160
   99TMC2    C2 1538   2.691   2.861   2.036  0.5444 -0.2203  0.2022
   99TMC2    C3 1539   2.641   2.853   2.162 -0.3125 -0.5095  0.2060
   99TMC2    C4 1540   2.468   2.861   1.955 -0.2470 -0.4993  0.0398
   99TMC2    C5 1541   2.424   2.867   2.086  0.5691  0.0613  0.1256
   99TMC2    C6 1542   2.510   2.859   2.191  0.2188 -0.5823  0.0577
   99TMC2     C 1543   2.660   2.878   1.803  0.1588 -0.3032  0.5823
   99TMC2     O 1544   2.759   2.946   1.798  0.2868  0.3964  0.1930
   99TMC2     H 1545   2.794   2.887   2.018 -0.4021  2.2134 -1.7369
   99TMC2    H1 1546   2.394   2.891   1.882 -0.9100  0.4587  1.1047
   99TMC2    H2 1547   2.479   2.861   2.295  2.5501 -2.1607  0.7810
   99TMC2    C7 1548   2.284   2.868   2.120 -0.2422 -0.2756  0.1659
   99TMC2    C8 1549   2.724   2.913   2.262  0.2902 -0.5604 -0.4382
   99TMC2    O1 1550   2.255   2.885   2.236  0.5474  0.4516  0.1322
   99TMC2    O2 1551   2.686   3.012   2.323  0.1673 -0.0279  0.2278
   99TMC2    O5 1552   2.846   2.856   2.267 -0.3199 -0.1903  0.4321
   99TMC2    H5 1553   2.847   2.777   2.208 -0.8525  0.2631 -0.1892
  100MPD2     C 1554   2.729   2.868   1.508  0.0008  0.4680 -0.0029
  100MPD2    C1 1555   2.630   2.796   1.569  0.0091  0.9026 -0.0342
  100MPD2    C2 1556   2.564   2.706   1.488  0.3428 -0.4145 -0.0940
  100MPD2    C3 1557   2.588   2.698   1.347  0.4246 -0.8959  0.1359
  100MPD2    C4 1558   2.685   2.786   1.288 -0.2279  0.1131 -0.2716
  100MPD2    C5 1559   2.755   2.863   1.374 -0.4995 -0.6254  0.1643
  100MPD2     H 1560   2.484   2.649   1.533  1.2778 -0.8927  0.9623
  100MPD2    H1 1561   2.694   2.794   1.180  2.2127  0.2715 -0.0702
  100MPD2    H2 1562   2.786   2.943   1.561 -0.7018  0.6261  0.5269
  100MPD2    H3 1563   2.831   2.929   1.334 -0.6269  0.4431  1.7211
  100MPD2     N 1564   2.516   2.606   1.272  0.2129  0.2079  0.4093
  100MPD2    H5 1565   2.449   2.549   1.322  1.9758 -0.8487  1.5572
  100MPD2    N1 1566   2.601   2.797   1.708  0.1435  0.6756  0.4170
  100MPD2    H7 1567   2.523   2.740   1.738  1.0083 -0.7106  0.0412
  101TMC2    C1 1568   2.418   4.570  13.366 -0.3359 -0.6346  0.2138
  101TMC2    C2 1569   2.354   4.652  13.456 -0.2144  0.1629  0.2290
  101TMC2    C3 1570   2.388   0.042  13.465  0.2996  0.0878  0.0574
  101TMC2    C4 1571   2.512   4.619  13.275  0.2587  0.4828  0.1767
  101TMC2    C5 1572   2.544   0.011  13.291 -0.9445  0.4742 -0.2339
  101TMC2    C6 1573   2.487   0.096  13.384  0.2807 -0.3779 -0.5774
  101TMC2     C 1574   2.385   4.430  13.382  0.3159 -0.4458 -0.6962
  101TMC2     O 1575   2.279   4.405  13.438 -0.1706 -0.4730 -0.4490
  101TMC2     H 1576   2.272   4.623  13.521 -1.2150 -0.5066 -1.3235
  101TMC2    H1 1577   2.543   4.561  13.189 -0.5754 -2.2507  1.7442
  101TMC2    H2 1578   2.519   0.199  13.395  1.3542 -0.7953  0.1719
  101TMC2    C7 1579   2.646   0.065  13.200  0.5930  0.0600  0.4247
  101TMC2    C8 1580   2.350   0.115  13.580  0.2094  0.2272 -0.0175
  101TMC2    O1 1581   2.730   4.726  13.159  0.2312  0.2382  0.3869
  101TMC2    O2 1582   2.308   0.070  13.685  0.0141 -0.2010  0.0833
  101TMC2    O5 1583   2.309   0.234  13.534  0.1179 -0.5595 -0.0155
  101TMC2    H5 1584   2.338   0.255  13.442 -1.1452 -0.3851 -0.3705
  102MPD2     C 1585   2.548   4.134  13.232  0.3240  0.0969  0.9175
  102MPD2    C1 1586   2.473   4.206  13.324 -0.3539  0.0135  0.2806
  102MPD2    C2 1587   2.381   4.131  13.404  0.0002 -0.2054 -0.0510
  102MPD2    C3 1588   2.357   4.001  13.379 -0.1339 -0.5197  0.1849
  102MPD2    C4 1589   2.433   3.932  13.293 -0.0785 -0.2012  0.2845
  102MPD2    C5 1590   2.535   3.997  13.220  0.3031 -0.0661  0.1893
  102MPD2     H 1591   2.326   4.185  13.481 -1.4139  0.4066 -1.5018
  102MPD2    H1 1592   2.410   3.828  13.271  0.4546 -0.1684 -0.4542
  102MPD2    H2 1593   2.614   4.183  13.162  0.1226  1.2420  1.5124
  102MPD2    H3 1594   2.588   3.935  13.149 -1.7847 -1.6191  0.0114
  102MPD2     N 1595   2.243   3.944  13.433 -0.4488 -0.3405  0.3399
  102MPD2    H5 1596   2.202   4.005  13.502 -1.7790  0.7461 -1.3928
  102MPD2    N1 1597   2.480   4.347  13.325  0.2370 -0.2732 -0.2028
  102MPD2    H7 1598   2.551   4.396  13.271 -1.5589  1.5568 -0.9050
  103TMC2    C1 1599   0.455   0.568  12.784  0.4872  0.4330  0.9856
  103TMC2    C2 1600   0.437   0.701  12.753 -0.1845 -0.3883  0.1339
  103TMC2    C3 1601   0.513   0.793  12.824 -0.0460  0.2932 -0.0732
  103TMC2    C4 1602   0.526   0.529  12.901  0.7064  0.6150  0.2641
  103TMC2    C5 1603   0.600   0.622  12.967 -1.0479  0.7558 -0.1501
  103TMC2    C6 1604   0.589   0.756  12.934  0.0140  0.2379  0.6759
  103TMC2     C 1605   0.414   0.465  12.694  0.3270 -0.3033 -0.5298
  103TMC2     O 1606   0.389   0.500  12.581 -0.3495 -0.4044  0.2672
  103TMC2     H 1607   0.379   0.729  12.666 -0.5174 -0.2360  0.4061
  103TMC2    H1 1608   0.543   0.424  12.926  1.2825  0.9704  1.3683
  103TMC2    H2 1609   0.650   0.824  12.992 -0.7875  1.8356 -0.3529
  103TMC2    C7 1610   0.651   0.594  13.101  0.4763  0.1290  0.1443
  103TMC2    C8 1611   0.469   0.932  12.803 -0.6779 -0.3039 -0.8124
  103TMC2    O1 1612   0.737   0.676  13.137  0.2206 -0.1141 -0.5877
  103TMC2    O2 1613   0.361   0.946  12.748  0.1779 -0.4830 -0.3943
  103TMC2    O5 1614   0.557   1.022  12.840  0.7651 -0.1048 -0.3390
  103TMC2    H5 1615   0.644   0.980  12.854  1.3934  0.8705 -1.3400
  104MPD2     C 1616   0.279   0.137  12.784 -0.2819  0.4764  0.4883
  104MPD2    C1 1617   0.296   0.249  12.710  0.6212 -0.0752 -0.2276
  104MPD2    C2 1618   0.210   0.264  12.604 -0.2259 -0.5110 -0.6548
  104MPD2    C3 1619   0.100   0.186  12.584 -0.3470 -0.3395 -1.0651
  104MPD2    C4 1620   0.088   0.066  12.655  0.7958 -0.5842 -0.2210
  104MPD2    C5 1621   0.177   0.045  12.759  0.2101  0.7311 -0.4960
  104MPD2     H 1622   0.213   0.356  12.545 -2.7428  1.0971  1.7206
  104MPD2    H1 1623   0.000   0.007  12.633 -0.0502 -0.6265  3.3345
  104MPD2    H2 1624   0.336   0.117  12.874 -0.1548 -2.3352 -0.2133
  104MPD2    H3 1625   0.182   4.704  12.831 -1.7591  2.1262  1.2053
  104MPD2     N 1626   0.026   0.231  12.479  0.3333  0.4976 -0.2188
  104MPD2    H5 1627   0.046   0.325  12.446  2.7943  0.0711  0.0794
  104MPD2    N1 1628   0.397   0.341  12.750 -0.0404  0.0122 -0.9099
  104MPD2    H7 1629   0.451   0.312  12.831 -0.4501 -0.6105 -0.8574
  105TMC2    C1 1630   1.994   3.506   1.107 -0.8345 -0.3506  0.2261
  105TMC2    C2 1631   1.887   3.544   1.033  0.4775 -0.0837  0.3976
  105TMC2    C3 1632   1.771   3.567   1.102  0.5764  0.3976  0.5240
  105TMC2    C4 1633   1.985   3.483   1.241  0.5095  0.2475 -0.2159
  105TMC2    C5 1634   1.864   3.511   1.299 -0.2501 -0.4703  0.2277
  105TMC2    C6 1635   1.753   3.551   1.233 -0.0088  0.6182 -0.2106
  105TMC2     C 1636   2.114   3.455   1.036  0.1557  1.0870  0.3934
  105TMC2     O 1637   2.198   3.399   1.110  0.3736  0.6954 -0.6131
  105TMC2     H 1638   1.896   3.566   0.928 -3.4815  0.8035  0.2288
  105TMC2    H1 1639   2.073   3.447   1.294 -0.7395  0.8093  2.2661
  105TMC2    H2 1640   1.657   3.566   1.281  0.2142 -0.7672  0.6711
  105TMC2    C7 1641   1.872   3.529   1.443 -0.5396  0.8716  0.1904
  105TMC2    C8 1642   1.666   3.615   1.017 -0.3699  0.3880 -0.1249
  105TMC2    O1 1643   1.968   3.483   1.503 -0.0681  0.1682  0.1659
  105TMC2    O2 1644   1.656   3.580   0.900  0.2496 -0.6030  0.3621
  105TMC2    O5 1645   1.593   3.710   1.085  0.2924  0.3445 -0.2844
  105TMC2    H5 1646   1.605   3.724   1.181 -1.6681 -1.8788  0.2978
  106MPD2     C 1647   2.390   3.261   0.637 -0.5703 -0.3442 -0.0437
  106MPD2    C1 1648   2.308   3.363   0.587 -1.1470  0.1152 -0.3403
  106MPD2    C2 1649   2.219   3.428   0.676  0.1904 -0.1079  0.4321
  106MPD2    C3 1650   2.207   3.397   0.808 -0.9461  0.3961  0.1194
  106MPD2    C4 1651   2.290   3.301   0.858  0.3976  0.9110  0.4255
  106MPD2    C5 1652   2.368   3.222   0.772 -0.7169 -0.6118  0.5051
  106MPD2     H 1653   2.154   3.500   0.627 -0.7752 -0.1065  1.6836
  106MPD2    H1 1654   2.281   3.259   0.958 -2.4095  0.4432 -0.0105
  106MPD2    H2 1655   2.458   3.198   0.582  0.9043  0.8575  0.3899
  106MPD2    H3 1656   2.430   3.146   0.818 -1.3386 -0.7775  1.0691
  106MPD2     N 1657   2.117   3.469   0.898 -0.0475 -0.0548  0.8043
  106MPD2    H5 1658   2.049   3.530   0.853  0.3595  0.0718  0.3599
  106MPD2    N1 1659   2.322   3.405   0.449 -0.1219 -0.9097 -0.0511
  106MPD2    H7 1660   2.288   3.498   0.425  1.3834 -0.5933 -0.9295
  107TMC2    C1 1661   2.868   4.102  11.745  0.3736 -0.7682 -0.8024
  107TMC2    C2 1662   2.969   4.192  11.772  0.7382 -0.1276  0.0620
  107TMC2    C3 1663   3.053   4.227  11.674  0.0457  0.5192  0.6593
  107TMC2    C4 1664   2.856   4.035  11.625 -0.8123 -0.4196 -0.0304
  107TMC2    C5 1665   2.958   4.059  11.535  0.1079 -0.1978  0.5192
  107TMC2    C6 1666   3.048   4.167  11.554 -0.2344  0.9464  0.9241
  107TMC2     C 1667   2.762   4.099  11.842  0.0252 -0.7810  0.0459
  107TMC2     O 1668   2.760   4.192  11.918 -0.3628  0.8947 -0.2149
  107TMC2     H 1669   2.974   4.251  11.863 -0.1361  0.9581 -0.6050
  107TMC2    H1 1670   2.777   3.962  11.605 -1.3263  0.1881 -0.2043
  107TMC2    H2 1671   3.097   4.219  11.472 -0.7682 -0.2543 -0.1374
  107TMC2    C7 1672   2.954   3.980  11.421 -0.4033 -0.1724 -0.2274
  107TMC2    C8 1673   3.136   4.346  11.670 -0.2379 -0.3461  0.9190
  107TMC2    O1 1674   2.859   3.903  11.403  0.2107 -0.2477  0.2701
  107TMC2    O2 1675   3.234   4.364  11.598  0.7208  0.1479  0.6092
  107TMC2    O5 1676   3.077   4.452  11.732  0.0905  1.0444  0.2719
  107TMC2    H5 1677   2.980   4.448  11.748 -0.2494 -0.2842 -2.0150
  108MPD2     C 1678   2.556   3.810  11.930 -0.0780 -0.3550  0.0469
  108MPD2    C1 1679   2.606   3.940  11.942 -0.6233  0.4073  0.3199
  108MPD2    C2 1680   2.563   4.022  12.044 -0.0602  0.5121 -1.0562
  108MPD2    C3 1681   2.472   3.971  12.136  0.7078 -0.2284 -0.2659
  108MPD2    C4 1682   2.426   3.839  12.126 -0.6439  0.0605 -0.2444
  108MPD2    C5 1683   2.466   3.762  12.019 -0.1209  0.1658 -0.4702
  108MPD2     H 1684   2.593   4.126  12.058  2.4611 -0.3174 -0.2767
  108MPD2    H1 1685   2.351   3.804  12.196 -2.7989  0.3688 -2.3953
  108MPD2    H2 1686   2.576   3.746  11.845  3.1523 -0.0150  0.5351
  108MPD2    H3 1687   2.423   3.664  12.006 -1.8143  0.8575 -0.0688
  108MPD2     N 1688   2.415   4.053  12.242  0.4027 -0.2084  1.1620
  108MPD2    H5 1689   2.347   4.006  12.300 -1.8029 -0.0899 -1.3032
  108MPD2    N1 1690   2.707   3.975  11.853  0.2552  0.0704  0.1347
  108MPD2    H7 1691   2.737   3.894  11.800  1.4779  0.2520  0.5409
  109TMC2    C1 1692   3.024   0.301   0.312  0.1209 -0.2893  0.4932
  109TMC2    C2 1693   3.104   0.294   0.200  0.5733 -0.1973 -0.0002
  109TMC2    C3 1694   3.212   0.374   0.194 -0.7057 -0.6668 -0.2638
  109TMC2    C4 1695   3.035   0.391   0.404  0.9219  0.6892 -0.8827
  109TMC2    C5 1696   3.140   0.478   0.391  0.1426 -0.3937 -0.8376
  109TMC2    C6 1697   3.228   0.471   0.282  0.6854  0.1103 -0.1649
  109TMC2     C 1698   2.889   0.251   0.304 -0.9001 -0.0678  0.4554
  109TMC2     O 1699   2.846   0.248   0.189 -0.1021 -0.0241  0.4447
  109TMC2     H 1700   3.086   0.211   0.132  0.0855  0.4046 -0.6035
  109TMC2    H1 1701   2.952   0.420   0.467  1.7027  2.1689 -0.5169
  109TMC2    H2 1702   3.316   0.534   0.274 -0.7290  2.0409 -0.4727
  109TMC2    C7 1703   3.158   0.588   0.488  0.1009  0.9982 -0.4865
  109TMC2    C8 1704   3.308   0.335   0.098  0.6819 -0.4678 -0.3795
  109TMC2    O1 1705   3.225   0.689   0.455 -0.3652  0.3420  0.0180
  109TMC2    O2 1706   3.283   0.315  17.739 -0.1924  0.0440 -0.5026
  109TMC2    O5 1707   3.401   0.273   0.172  0.2929  0.5102  0.1552
  109TMC2    H5 1708   3.391   0.282   0.269  0.9303  0.4628  0.2253
  110MPD2     C 1709   2.458   0.085   0.521 -0.2953 -0.6924  0.4862
  110MPD2    C1 1710   2.560   0.076   0.615  0.2523  0.0711  0.4993
  110MPD2    C2 1711   2.687   0.119   0.578 -0.2357  0.4845  0.4353
  110MPD2    C3 1712   2.705   0.187   0.465  0.2847 -1.1470  0.4502
  110MPD2    C4 1713   2.603   0.198   0.372  0.3933  0.4983  0.5858
  110MPD2    C5 1714   2.482   0.150   0.403 -0.1627 -0.1347 -0.6879
  110MPD2     H 1715   2.763   0.133   0.654 -1.0331 -1.2413  1.5505
  110MPD2    H1 1716   2.609   0.250   0.277  0.4323 -0.0856  0.2720
  110MPD2    H2 1717   2.369   0.026   0.540  0.3703 -1.9072 -0.1519
  110MPD2    H3 1718   2.401   0.145   0.332  0.9110 -0.3310 -1.9090
  110MPD2     N 1719   2.841   0.207   0.423  0.4990  0.0238 -0.3112
  110MPD2    H5 1720   2.910   0.199   0.496 -0.9584 -2.6222  0.7453
  110MPD2    N1 1721   2.533   4.731   0.719 -0.1294  0.2232  0.0925
  110MPD2    H7 1722   2.443   4.686   0.729  0.6526 -1.9352 -2.8941
  111TMC2    C1 1723   2.460   0.943  12.217  0.3512 -0.6287  0.1952
  111TMC2    C2 1724   2.372   0.969  12.321  0.5721 -0.2534 -0.5105
  111TMC2    C3 1725   2.406   0.913  12.446 -0.0623 -0.1488 -0.0674
  111TMC2    C4 1726   2.561   0.852  12.219  0.3437 -1.2142  0.3394
  111TMC2    C5 1727   2.589   0.804  12.342 -0.3337 -0.5716  0.5318
  111TMC2    C6 1728   2.516   0.831  12.454  1.4392  0.0787  0.0396
  111TMC2     C 1729   2.416   0.978  12.082  0.1849  0.4070 -0.1418
  111TMC2     O 1730   2.497   1.007  11.999  0.0495  0.8457  0.7365
  111TMC2     H 1731   2.283   1.030  12.313  0.6284 -0.1682 -0.4802
  111TMC2    H1 1732   2.615   0.822  12.130 -0.4695 -1.4840 -0.0631
  111TMC2    H2 1733   2.545   0.780  12.545 -0.6225 -1.2670 -0.0715
  111TMC2    C7 1734   2.709   0.714  12.349 -0.3975  0.1145 -0.0311
  111TMC2    C8 1735   2.366   0.982  12.567 -0.2703 -0.7141 -0.6804
  111TMC2    O1 1736   2.719   0.642  12.447 -0.2499  0.3042 -0.5224
  111TMC2    O2 1737   2.319   1.096  12.569  0.4162  0.2422 -0.4927
  111TMC2    O5 1738   2.399   0.906  12.673  0.0758  0.2551 -0.6039
  111TMC2    H5 1739   2.399   0.809  12.658 -1.2146  0.4565 -1.8647
  112MPD2     C 1740   2.018   1.094  11.777 -0.7035  0.1279 -1.3112
  112MPD2    C1 1741   2.148   1.064  11.735  0.9177  0.2290 -0.6909
  112MPD2    C2 1742   2.238   1.022  11.834 -0.2414  0.4691  0.2545
  112MPD2    C3 1743   2.195   1.019  11.965  0.1415 -0.8862 -0.3433
  112MPD2    C4 1744   2.066   1.044  12.002  0.8128 -0.2075  0.1532
  112MPD2    C5 1745   1.976   1.085  11.907  0.8130 -0.6238  0.3242
  112MPD2     H 1746   2.339   0.986  11.814 -0.5735 -1.1321  1.5411
  112MPD2    H1 1747   2.036   1.040  12.106 -1.5942  0.9955 -0.4798
  112MPD2    H2 1748   1.941   1.129  11.710 -2.0184  0.8016  0.5306
  112MPD2    H3 1749   1.879   1.121  11.941  1.0437  0.9623 -0.7249
  112MPD2     N 1750   2.276   0.991  12.078  0.2177 -0.4513  0.0638
  112MPD2    H5 1751   2.223   0.960  12.159 -0.9732 -0.4537 -0.7190
  112MPD2    N1 1752   2.192   1.072  11.599 -0.4916 -0.7529 -0.4358
  112MPD2    H7 1753   2.286   1.045  11.571  0.1406  1.8300 -0.8739
  113TMC2    C1 1754   1.343   2.965   0.780 -0.0185 -0.1787 -0.2145
  113TMC2    C2 1755   1.282   3.072   0.719  0.0944 -0.4965  0.4115
  113TMC2    C3 1756   1.197   3.055   0.618  0.2181  0.7290  0.3009
  113TMC2    C4 1757   1.293   2.834   0.760  0.2265  0.2884  0.3219
  113TMC2    C5 1758   1.190   2.827   0.667 -0.9087  0.1331  0.3686
  113TMC2    C6 1759   1.146   2.935   0.591  0.2212  0.8412 -0.1663
  113TMC2     C 1760   1.419   2.996   0.895  0.0055  0.5584  0.0730
  113TMC2     O 1761   1.378   3.088   0.962  0.3874 -0.3704 -0.0076
  113TMC2     H 1762   1.304   3.174   0.748  0.7299 -1.0413  1.8498
  113TMC2    H1 1763   1.321   2.748   0.819 -0.6611 -0.2907 -0.0925
  113TMC2    H2 1764   1.060   2.930   0.525  1.8305 -3.3111 -1.9188
  113TMC2    C7 1765   1.145   2.691   0.625  0.8255  0.3291  0.0019
  113TMC2    C8 1766   1.178   3.169   0.540 -0.3023 -0.1856  0.5494
  113TMC2    O1 1767   1.097   2.685   0.508  0.1777  0.6328 -0.0088
  113TMC2    O2 1768   1.151   3.282   0.585 -0.1953  0.0729 -0.1621
  113TMC2    O5 1769   1.159   3.129   0.411 -0.5299  0.1649 -0.4578
  113TMC2    H5 1770   1.192   3.038   0.394  2.2885  1.2163 -0.5300
  114MPD2     C 1771   1.797   2.849   1.228  0.2193 -0.2871 -0.4903
  114MPD2    C1 1772   1.709   2.957   1.237 -0.2795 -0.2969 -0.1788
  114MPD2    C2 1773   1.617   2.977   1.132  0.2537 -0.0667 -1.2924
  114MPD2    C3 1774   1.609   2.893   1.023  0.0749  0.7799 -0.4873
  114MPD2    C4 1775   1.699   2.793   1.008  0.4144  0.3360  0.1628
  114MPD2    C5 1776   1.785   2.773   1.110  0.7295  0.3848  0.2401
  114MPD2     H 1777   1.545   3.057   1.141  1.7839  1.0442  0.9219
  114MPD2    H1 1778   1.713   2.723   0.927  0.6046  0.8644 -0.2631
  114MPD2    H2 1779   1.877   2.829   1.298  1.2283 -2.7218 -2.3315
  114MPD2    H3 1780   1.856   2.695   1.086  0.0302  0.1186 -0.9760
  114MPD2     N 1781   1.513   2.901   0.917 -0.2175 -0.6654  0.5743
  114MPD2    H5 1782   1.523   2.831   0.844 -2.6667  0.5755 -0.9827
  114MPD2    N1 1783   1.714   3.054   1.343  0.5796  0.4242  0.1461
  114MPD2    H7 1784   1.646   3.128   1.348  1.0030  0.6832  2.0204
  115TMC2    C1 1785   1.859   0.834  17.633  0.1136  0.6490  0.1194
  115TMC2    C2 1786   1.988   0.796  17.655 -0.5231  0.2256  0.2711
  115TMC2    C3 1787   2.084   0.886  17.644  0.1741  0.3583  0.2519
  115TMC2    C4 1788   1.824   0.965  17.627 -0.5260  0.0106  0.1844
  115TMC2    C5 1789   1.927   1.057  17.607  0.8919 -0.1064 -0.2896
  115TMC2    C6 1790   2.055   1.021  17.627 -0.3807  0.4460  0.0692
  115TMC2     C 1791   1.759   0.729  17.603 -0.6609  0.1780  0.2713
  115TMC2     O 1792   1.811   0.620  17.589 -0.4080 -0.1893 -0.0401
  115TMC2     H 1793   2.021   0.694  17.666 -1.1156 -0.1236 -1.2051
  115TMC2    H1 1794   1.723   1.002  17.615 -0.3080  0.5118 -0.1144
  115TMC2    H2 1795   2.124   1.101  17.650 -1.2170  1.9690 -2.7211
  115TMC2    C7 1796   1.896   1.201  17.621  0.4330 -0.8072 -0.0257
  115TMC2    C8 1797   2.219   0.847  17.656 -0.3480  0.4219  0.0078
  115TMC2    O1 1798   1.781   1.240  17.649  0.2996  0.8439 -0.2010
  115TMC2    O2 1799   2.247   0.744  17.715 -0.0078  0.0464  0.2679
  115TMC2    O5 1800   2.319   0.930  17.622  0.3930 -0.4965 -0.1533
  115TMC2    H5 1801   2.294   1.001  17.559  3.2451  0.6379  0.0166
  116MPD2     C 1802   1.295   0.590  17.477  0.0741  0.1044  0.3420
  116MPD2    C1 1803   1.411   0.516  17.467  1.0814  0.2336  0.1492
  116MPD2    C2 1804   1.530   0.581  17.491 -0.4747 -0.0357  0.0969
  116MPD2    C3 1805   1.527   0.711  17.527  0.1417  0.2773 -0.3606
  116MPD2    C4 1806   1.412   0.783  17.528 -0.2096 -0.0472  0.1696
  116MPD2    C5 1807   1.291   0.720  17.504  0.5620  0.5598 -0.4778
  116MPD2     H 1808   1.619   0.521  17.504 -1.3747 -1.3802  0.0024
  116MPD2    H1 1809   1.410   0.890  17.549 -1.4775 -0.2020  0.8432
  116MPD2    H2 1810   1.198   0.546  17.460  0.4280 -0.5319 -0.0145
  116MPD2    H3 1811   1.193   0.766  17.498  1.2759  1.9643 -1.3896
  116MPD2     N 1812   1.636   0.783  17.579 -0.6274 -0.8457  0.1114
  116MPD2    H5 1813   1.616   0.878  17.609  0.9370 -0.1984 -0.9004
  116MPD2    N1 1814   1.402   0.385  17.419  0.3099 -0.0923  0.0733
  116MPD2    H7 1815   1.308   0.353  17.395 -0.2813  0.5305  1.5859
  117TMC2    C1 1816   0.281   3.248  14.394 -0.2937  0.4426  0.2011
  117TMC2    C2 1817   0.204   3.319  14.477  0.7667  1.1547 -1.0512
  117TMC2    C3 1818   0.251   3.437  14.503 -0.5988 -0.5526  0.2037
  117TMC2    C4 1819   0.391   3.291  14.331 -0.4083 -0.1135  0.2717
  117TMC2    C5 1820   0.437   3.419  14.356  0.2183  0.0902  0.2007
  117TMC2    C6 1821   0.365   3.491  14.439  0.2462  0.4467 -0.4981
  117TMC2     C 1822   0.228   3.119  14.345  0.0637 -0.1575  0.2542
  117TMC2     O 1823   0.308   3.044  14.292 -0.1925  0.3618 -0.5526
  117TMC2     H 1824   0.139   3.274  14.552  0.1643 -1.3918 -3.1130
  117TMC2    H1 1825   0.445   3.230  14.259  0.4815  0.4866  0.4325
  117TMC2    H2 1826   0.404   3.590  14.461  0.0205  0.1535  1.2331
  117TMC2    C7 1827   0.524   3.474  14.254  0.3119  0.4528  0.1150
  117TMC2    C8 1828   0.207   3.499  14.625 -0.0355 -0.6062 -0.4003
  117TMC2    O1 1829   0.587   3.400  14.180  0.8805 -0.0984  0.0064
  117TMC2    O2 1830   0.101   3.482  14.683 -0.1291  0.1249  0.2527
  117TMC2    O5 1831   0.316   3.532  14.692 -1.2365 -0.3844  0.5071
  117TMC2    H5 1832   0.395   3.519  14.635 -1.2306  0.8061  0.2396
  118MPD2     C 1833   0.415   3.777  14.088 -0.3573 -0.2199 -0.1453
  118MPD2    C1 1834   0.499   3.677  14.122 -0.9247  0.6387  0.0524
  118MPD2    C2 1835   0.632   3.676  14.082 -0.1540  0.3023  0.0176
  118MPD2    C3 1836   0.675   3.785  14.012 -0.4144  0.5801 -0.4275
  118MPD2    C4 1837   0.583   3.882  13.973  0.6493 -0.0796  0.9911
  118MPD2    C5 1838   0.452   3.880  14.000  0.1079  0.1237 -0.6076
  118MPD2     H 1839   0.710   3.608  14.115  0.3873  0.0805 -1.7489
  118MPD2    H1 1840   0.619   3.964  13.912 -0.3691 -2.3633 -2.7079
  118MPD2    H2 1841   0.312   3.769  14.121 -0.0301 -1.0462  0.6653
  118MPD2    H3 1842   0.383   3.957  13.968 -0.2453  0.9698  2.1949
  118MPD2     N 1843   0.808   3.818  13.974  0.1779 -0.4620  0.3093
  118MPD2    H5 1844   0.823   3.905  13.925 -1.3589 -0.6491 -0.4925
  118MPD2    N1 1845   0.451   3.583  14.213 -0.5882 -0.1232 -0.1072
  118MPD2    H7 1846   0.357   3.593  14.250 -0.4311 -1.3559  0.6374
  119TMC2    C1 1847   3.057   3.551  13.394  0.0993 -0.9610 -0.9613
  119TMC2    C2 1848   3.117   3.484  13.288  0.2823  0.3320 -0.0022
  119TMC2    C3 1849   3.036   3.420  13.195 -0.3970  0.1960  0.6632
  119TMC2    C4 1850   2.916   3.550  13.411  0.4318  0.3628 -0.4157
  119TMC2    C5 1851   2.844   3.492  13.304  0.1506 -0.1713 -0.3803
  119TMC2    C6 1852   2.899   3.438  13.191  0.2716 -0.7612  0.4151
  119TMC2     C 1853   3.139   3.600  13.502  0.5386 -0.5868 -0.0787
  119TMC2     O 1854   3.255   3.558  13.499 -0.1884  0.2263  0.4417
  119TMC2     H 1855   3.225   3.481  13.278  0.1931 -4.4940  0.6584
  119TMC2    H1 1856   2.867   3.589  13.499 -0.7640 -0.8685 -0.5348
  119TMC2    H2 1857   2.836   3.383  13.122  0.0957  0.3272 -0.3045
  119TMC2    C7 1858   2.705   3.486  13.318 -0.0855  0.4680  0.7456
  119TMC2    C8 1859   3.105   3.353  13.081  0.3845 -0.6491  0.6593
  119TMC2    O1 1860   2.644   3.508  13.215  0.1133  0.5565  0.3267
  119TMC2    O2 1861   3.225   3.326  13.091 -0.2851  0.1759  0.6027
  119TMC2    O5 1862   3.033   3.339  12.970 -0.3932 -0.3523  0.3910
  119TMC2    H5 1863   2.953   3.395  12.962 -0.3001  0.1152  2.5576
  120MPD2     C 1864   3.288   3.903  13.872  0.0080 -0.4670 -0.0550
  120MPD2    C1 1865   3.163   3.955  13.827  0.1126  0.2278 -0.0946
  120MPD2    C2 1866   3.098   3.875  13.739  0.6241 -0.6571  0.3477
  120MPD2    C3 1867   3.145   3.757  13.686 -0.8577 -0.1653 -0.7597
  120MPD2    C4 1868   3.269   3.712  13.733 -0.0948 -0.3667  0.3810
  120MPD2    C5 1869   3.343   3.788  13.824 -0.1508  0.2474 -0.4787
  120MPD2     H 1870   3.006   3.913  13.696  0.2411 -1.0163  0.8552
  120MPD2    H1 1871   3.306   3.612  13.711  1.1172 -0.4815  2.9230
  120MPD2    H2 1872   3.346   3.957  13.946  0.9005  0.5690 -1.5287
  120MPD2    H3 1873   3.444   3.760  13.851  0.5295  2.6369 -0.5841
  120MPD2     N 1874   3.079   3.698  13.579  0.1229 -0.0621  0.4034
  120MPD2    H5 1875   2.987   3.732  13.556  1.5334  1.8383 -2.3691
  120MPD2    N1 1876   3.110   4.072  13.881  0.1710  0.6976  0.3459
  120MPD2    H7 1877   3.174   4.119  13.945 -0.6460  1.4305  0.6324
  121TMC2    C1 1878   4.469   0.804  14.030  0.1585 -0.1953 -0.8065
  121TMC2    C2 1879   4.465   0.675  14.064 -0.1157 -0.0289 -0.6476
  121TMC2    C3 1880   4.342   0.618  14.085  0.0192  0.0980 -0.0570
  121TMC2    C4 1881   4.352   0.880  14.038  0.1884  0.0848 -0.0625
  121TMC2    C5 1882   4.233   0.820  14.071 -0.0542  0.2986 -0.1695
  121TMC2    C6 1883   4.223   0.684  14.080 -0.8299  0.0369 -0.1646
  121TMC2     C 1884   4.589   0.877  14.059  0.2440 -0.3568 -0.0658
  121TMC2     O 1885   4.661   0.826  14.144 -0.0386  0.5610 -0.8189
  121TMC2     H 1886   4.554   0.614  14.061 -1.0218 -1.3519 -0.4656
  121TMC2    H1 1887   4.357   0.988  14.035 -0.4278  0.0797 -1.0206
  121TMC2    H2 1888   4.125   0.639  14.072 -0.5892 -0.5161  0.0200
  121TMC2    C7 1889   4.105   0.899  14.053  0.6772  0.7138 -0.1132
  121TMC2    C8 1890   4.326   0.474  14.097 -0.4010  0.1864 -0.4199
  121TMC2    O1 1891   4.119   0.996  13.988 -0.5109 -0.2845 -0.0099
  121TMC2    O2 1892   4.273   0.423  14.194 -0.2679 -1.0246 -0.1777
  121TMC2    O5 1893   4.415   0.418  14.012  0.1763 -0.1415  0.9570
  121TMC2    H5 1894   4.442   0.490  13.950 -2.9876 -0.3266 -0.6456
  122MPD2     C 1895   0.037   1.099  14.138  0.4862  0.0919 -0.2733
  122MPD2    C1 1896   4.683   1.110  14.036 -0.6441 -0.5507 -0.0200
  122MPD2    C2 1897   4.696   1.220  13.951 -0.1832  0.5085  0.7272
  122MPD2    C3 1898   0.047   1.325  13.972  0.6094  0.4006 -0.3938
  122MPD2    C4 1899   0.119   1.320  14.089 -0.0201 -0.7613 -0.3058
  122MPD2    C5 1900   0.127   1.201  14.163  0.3292 -0.3464 -0.1771
  122MPD2     H 1901   4.637   1.224  13.860  0.8081  0.2378  0.0722
  122MPD2    H1 1902   0.195   1.394  14.110 -2.2405  1.4846 -0.2054
  122MPD2    H2 1903   0.049   1.011  14.200  0.4893 -0.3596 -0.9248
  122MPD2    H3 1904   0.196   1.181  14.244  1.1876  2.5463 -0.1847
  122MPD2     N 1905   0.068   1.441  13.897 -0.4494 -1.1715 -0.4701
  122MPD2    H5 1906   0.118   1.517  13.939 -1.1775  0.2608 -2.1818
  122MPD2    N1 1907   4.599   0.999  14.002 -0.1637  0.1550 -0.0493
  122MPD2    H7 1908   4.532   1.025  13.930 -0.8030  1.9130  1.1894
  123TMC2    C1 1909   3.220   0.433  10.309 -0.0495 -0.6954  0.1329
  123TMC2    C2 1910   3.153   0.552  10.270  0.4329 -0.0243 -0.3117
  123TMC2    C3 1911   3.147   0.585  10.138 -0.4915  0.2163  0.4730
  123TMC2    C4 1912   3.278   0.359  10.211  0.2212 -0.8139  0.2501
  123TMC2    C5 1913   3.266   0.398  10.078  0.7864 -0.3612  0.7404
  123TMC2    C6 1914   3.198   0.510  10.037  0.2533 -0.1660 -0.2313
  123TMC2     C 1915   3.175   0.365  10.427 -0.1622 -0.5897  0.0947
  123TMC2     O 1916   3.154   0.428  10.529  0.3613 -0.4725  0.1653
  123TMC2     H 1917   3.093   0.596  10.350  1.9479 -0.1381  0.8803
  123TMC2    H1 1918   3.330   0.267  10.236  0.3729 -0.6183  0.6547
  123TMC2    H2 1919   3.159   0.524   9.937 -0.1043  0.9386  0.0576
  123TMC2    C7 1920   3.291   0.292   9.975 -0.4372  0.9884  0.5401
  123TMC2    C8 1921   3.031   0.656  10.102  0.1372 -0.4873  0.1139
  123TMC2    O1 1922   3.326   0.182  10.022 -0.0617 -0.1657 -0.6381
  123TMC2    O2 1923   2.970   0.655   9.997 -0.6487  0.6381  0.2214
  123TMC2    O5 1924   3.028   0.760  10.189 -0.2402  0.0332 -0.1208
  123TMC2    H5 1925   3.102   0.747  10.253 -1.3382 -0.8724  0.9748
  124MPD2     C 1926   2.998   4.650  10.605 -0.7647  0.0148 -0.5313
  124MPD2    C1 1927   3.038   4.632  10.471  0.2694  0.2900  0.3363
  124MPD2    C2 1928   3.085   0.007  10.409  0.3306  0.0259  1.3155
  124MPD2    C3 1929   3.093   0.130  10.468  0.0441  0.4168  0.0968
  124MPD2    C4 1930   3.055   0.146  10.600 -0.4440  0.5437  0.0222
  124MPD2    C5 1931   2.996   0.033  10.663  0.2696 -0.1534 -0.3334
  124MPD2     H 1932   3.126   0.010  10.309  1.6996  0.0352  1.8791
  124MPD2    H1 1933   3.063   0.238  10.658 -0.5104  0.6685 -0.1676
  124MPD2    H2 1934   2.966   4.572  10.673  0.6256 -0.1672 -0.0756
  124MPD2    H3 1935   2.953   0.041  10.762 -1.1907  2.3219 -1.1557
  124MPD2     N 1936   3.140   0.237  10.390 -0.0119 -0.1090 -0.0315
  124MPD2    H5 1937   3.151   0.216  10.291  0.0164 -0.2069 -0.0069
  124MPD2    N1 1938   3.024   4.514  10.400  0.0230  0.1538  0.1347
  124MPD2    H7 1939   2.958   4.448  10.440 -0.5174  1.2075  0.9790
  125TMC2    C1 1940   4.144   1.930   9.360  0.6011  0.0568  0.3647
  125TMC2    C2 1941   4.095   2.033   9.285 -0.1293  0.6901  0.2021
  125TMC2    C3 1942   4.123   2.041   9.156 -0.2720 -0.2476 -1.0820
  125TMC2    C4 1943   4.216   1.834   9.300  1.0686 -0.1838 -0.1935
  125TMC2    C5 1944   4.239   1.837   9.163 -0.0845 -0.4661 -0.4828
  125TMC2    C6 1945   4.186   1.941   9.091 -0.0442 -0.7410 -1.0417
  125TMC2     C 1946   4.101   1.908   9.496  0.1624 -0.1777 -0.4344
  125TMC2     O 1947   3.989   1.951   9.516  0.9852 -0.1529 -0.0079
  125TMC2     H 1948   4.030   2.106   9.332 -1.3905 -0.6947  0.5877
  125TMC2    H1 1949   4.242   1.739   9.346 -0.9857 -0.3023  0.7328
  125TMC2    H2 1950   4.212   1.966   8.989  0.1329 -0.5765 -0.9565
  125TMC2    C7 1951   4.267   1.711   9.092  0.0193  0.3106  0.1129
  125TMC2    C8 1952   4.055   2.150   9.089  0.5974  0.7803 -0.0464
  125TMC2    O1 1953   4.198   1.690   8.991 -0.5974 -0.5477  0.2850
  125TMC2    O2 1954   4.057   2.258   9.140  0.2969 -0.2855  0.0737
  125TMC2    O5 1955   4.024   2.121   8.959 -0.2903 -0.1530 -0.0049
  125TMC2    H5 1956   4.002   2.029   8.933 -0.4158  0.4332 -1.9948
  126MPD1     C 1957   4.172   1.778   9.984 -0.4399  0.1494  0.0660
  126MPD1    C1 1958   4.277   1.730   9.914  0.6804  0.2222  1.0165
  126MPD1    C2 1959   4.274   1.749   9.781  0.0695  0.3142  0.1853
  126MPD1    C3 1960   4.180   1.824   9.718 -0.5843  0.1373 -0.2022
  126MPD1    C4 1961   4.070   1.873   9.790  0.4666  0.4406 -0.2293
  126MPD1    C5 1962   4.067   1.845   9.924 -0.3037 -0.1055  0.3495
  126MPD1     H 1963   4.348   1.692   9.725 -0.8915  1.1183 -1.9303
  126MPD1    H1 1964   3.993   1.934   9.745 -0.9336 -1.2403 -0.0947
  126MPD1    H2 1965   4.161   1.772  10.092  0.8929  1.0162  0.2475
  126MPD1    H3 1966   3.989   1.885   9.987  1.7737 -1.0100  3.5353
  126MPD1     N 1967   4.196   1.839   9.581 -0.3178 -0.0124  0.1908
  126MPD1    H5 1968   4.277   1.798   9.537  0.8220  1.0118  1.2997
  126MPD1    N1 1969   4.362   1.641   9.975  0.2645  0.2276 -0.2363
  126MPD1    H6 1970   4.448   1.625   9.923 -0.2201  2.0824 -1.6277
  126MPD1    H7 1971   4.365   1.657  10.075  1.3033  0.2374 -0.2718
  127TMC2    C1 1972   0.395   4.602  10.280  0.3337  0.3367  0.0359
  127TMC2    C2 1973   0.465   4.492  10.327 -0.3074 -0.2057  0.1460
  127TMC2    C3 1974   0.391   4.390  10.387 -0.6884 -0.3296  0.1449
  127TMC2    C4 1975   0.262   4.613  10.291  0.1883 -0.2274 -1.0312
  127TMC2    C5 1976   0.196   4.504  10.339 -0.2720  0.1942 -0.4579
  127TMC2    C6 1977   0.256   4.392  10.389  0.8484 -0.3565  0.4224
  127TMC2     C 1978   0.467   4.690  10.194  0.0911 -0.3970  0.1203
  127TMC2     O 1979   0.587   4.694  10.209  0.5887 -0.5310  0.1948
  127TMC2     H 1980   0.573   4.484  10.321 -0.5890 -1.4837 -3.2244
  127TMC2    H1 1981   0.209   4.704  10.263  0.8582  0.9569  1.6365
  127TMC2    H2 1982   0.195   4.314  10.434 -0.3973 -0.5754 -1.6487
  127TMC2    C7 1983   0.062   4.536  10.373 -0.3076  0.1260  0.0010
  127TMC2    C8 1984   0.457   4.286  10.464 -0.4284 -0.6572  0.5030
  127TMC2    O1 1985   0.033   4.653  10.381 -0.5713 -0.8161 -0.6429
  127TMC2    O2 1986   0.567   4.251  10.427  0.0586  0.5232 -0.9109
  127TMC2    O5 1987   0.382   4.232  10.562  0.2048  0.0797  0.3931
  127TMC2    H5 1988   0.319   4.296  10.600 -3.7158 -1.6933 -3.1874
  128MPD2     C 1989   0.354   0.107   9.875 -0.2376 -0.1032  0.6750
  128MPD2    C1 1990   0.440   0.084   9.987 -0.1080 -0.0046 -0.0244
  128MPD2    C2 1991   0.557   0.163   9.990  0.7475  0.0812 -0.2203
  128MPD2    C3 1992   0.569   0.266   9.895  0.1129 -0.1086 -0.3693
  128MPD2    C4 1993   0.494   0.270   9.786  0.4279  0.3043 -0.0070
  128MPD2    C5 1994   0.385   0.193   9.777 -0.1317 -0.4003  0.4844
  128MPD2     H 1995   0.623   0.157  10.076  0.1289 -0.1862  0.2383
  128MPD2    H1 1996   0.511   0.326   9.695 -0.8741  0.6492 -0.0290
  128MPD2    H2 1997   0.256   0.063   9.867 -0.3409 -0.0026  1.4113
  128MPD2    H3 1998   0.313   0.200   9.697 -0.1047 -1.2500  0.3796
  128MPD2     N 1999   0.677   0.359   9.920  0.1401 -0.4670  0.0911
  128MPD2    H5 2000   0.750   0.343   9.989  0.2618 -0.9792 -0.1600
  128MPD2    N1 2001   0.388   4.739  10.087 -0.4912 -0.5656 -0.2154
  128MPD2    H7 2002   0.301   4.693  10.062 -0.5512  0.0134 -1.0615
  129TMC2    C1 2003   3.396   0.489   0.825 -0.6060  0.4497  0.1716
  129TMC2    C2 2004   3.412   0.444   0.697  0.7070 -0.0623 -0.4588
  129TMC2    C3 2005   3.382   0.311   0.675  0.9396  0.8747  0.8915
  129TMC2    C4 2006   3.382   0.397   0.926 -0.4335  0.3174  0.2741
  129TMC2    C5 2007   3.369   0.263   0.895  0.1221 -0.6476  0.6541
  129TMC2    C6 2008   3.356   0.220   0.768  0.7846  0.1089  0.1409
  129TMC2     C 2009   3.409   0.629   0.851 -0.1524  1.1545  0.6297
  129TMC2     O 2010   3.421   0.660   0.970 -0.5659 -0.3414  0.0297
  129TMC2     H 2011   3.431   0.507   0.611  0.8025 -2.4168 -2.1668
  129TMC2    H1 2012   3.364   0.428   1.028 -0.8364  0.0399  0.2862
  129TMC2    H2 2013   3.351   0.113   0.748  4.3192 -0.2307  1.0394
  129TMC2    C7 2014   3.364   0.168   1.007  0.1210  0.1968 -0.2675
  129TMC2    C8 2015   3.389   0.268   0.536  0.0729 -0.1233  0.3006
  129TMC2    O1 2016   3.319   0.054   0.986  0.4552 -0.5643  0.2320
  129TMC2    O2 2017   3.446   0.329   0.444 -0.3035  0.2501 -0.1681
  129TMC2    O5 2018   3.290   0.176   0.507 -0.5044 -0.2084 -0.7056
  129TMC2    H5 2019   3.221   0.169   0.576 -0.4912  1.5514 -0.5126
  130MPD2     C 2020   3.477   0.916   0.853 -0.2970  0.6952  0.1731
  130MPD2    C1 2021   3.453   0.850   0.738 -0.6034 -0.1337 -0.0996
  130MPD2    C2 2022   3.459   0.918   0.617 -0.2858 -0.1366  0.5362
  130MPD2    C3 2023   3.480   1.053   0.608 -0.1314  0.2890 -0.1192
  130MPD2    C4 2024   3.493   1.123   0.720  0.0069 -0.5854  0.1114
  130MPD2    C5 2025   3.486   1.058   0.843 -0.1679 -0.5566 -0.4140
  130MPD2     H 2026   3.425   0.855   0.536 -0.1725  1.3280 -0.6572
  130MPD2    H1 2027   3.533   1.224   0.713 -0.7469 -0.3469 -0.7521
  130MPD2    H2 2028   3.479   0.868   0.950  3.6570  0.2364 -0.1234
  130MPD2    H3 2029   3.502   1.109   0.938  1.3476  0.1969 -1.0663
  130MPD2     N 2030   3.477   1.111   0.476  0.1402 -1.0520 -0.4337
  130MPD2    H5 2031   3.486   1.039   0.405  0.4389 -1.4128 -0.0312
  130MPD2    N1 2032   3.428   0.712   0.743  0.1004  0.2270 -0.1733
  130MPD2    H7 2033   3.411   0.677   0.649 -0.7566 -0.5501  0.2758
  131TMC2    C1 2034   2.833   4.718   9.399  0.2888  0.3009 -0.4206
  131TMC2    C2 2035   2.771   4.665   9.292  0.0805  0.0827  0.6966
  131TMC2    C3 2036   2.680   0.013   9.232  0.0718  0.3707 -0.1986
  131TMC2    C4 2037   2.799   0.102   9.447  0.5736  0.2333 -0.3088
  131TMC2    C5 2038   2.721   0.186   9.375  0.2806  0.1020  0.3398
  131TMC2    C6 2039   2.651   0.140   9.267  0.0480 -0.2872  0.2153
  131TMC2     C 2040   2.899   4.625   9.488 -0.3848  0.2797 -0.8886
  131TMC2     O 2041   2.904   4.647   9.605 -0.1441  0.2397  0.3265
  131TMC2     H 2042   2.773   4.560   9.268 -1.4600  0.3718 -0.7572
  131TMC2    H1 2043   2.850   0.135   9.537 -1.2915  1.8779  0.1612
  131TMC2    H2 2044   2.603   0.204   9.194  0.4277  1.4638  1.4968
  131TMC2    C7 2045   2.674   0.300   9.442 -0.0106  0.0383 -0.2992
  131TMC2    C8 2046   2.623   4.704   9.111  0.3160 -0.0339 -0.8853
  131TMC2    O1 2047   2.562   0.336   9.411  0.7575  0.1380 -0.3977
  131TMC2    O2 2048   2.507   4.662   9.094  0.2002  0.2472  0.7386
  131TMC2    O5 2049   2.730   4.648   9.048  0.3824  0.0622 -0.1712
  131TMC2    H5 2050   2.815   4.692   9.071  1.1633 -0.6171 -1.7699
  132MPD2     C 2051   3.065   4.290   9.432 -0.0845  0.1400 -0.5190
  132MPD2    C1 2052   2.990   4.390   9.496  0.2329  0.0853 -0.2796
  132MPD2    C2 2053   2.973   4.364   9.633 -0.1888 -0.5594  0.9183
  132MPD2    C3 2054   3.016   4.251   9.695  0.1546 -0.3747  0.7789
  132MPD2    C4 2055   3.086   4.158   9.630 -0.9388 -0.4323  0.1044
  132MPD2    C5 2056   3.116   4.184   9.502 -0.4359  0.1546 -0.5188
  132MPD2     H 2057   2.919   4.429   9.701 -1.0106  0.6287 -0.8922
  132MPD2    H1 2058   3.131   4.074   9.682 -0.6631  0.4157  1.2155
  132MPD2    H2 2059   3.094   4.299   9.328  0.8900  1.1399 -0.1575
  132MPD2    H3 2060   3.185   4.111   9.461 -0.0043  0.5819 -0.5415
  132MPD2     N 2061   3.003   4.256   9.836  0.0316 -0.3049 -0.9311
  132MPD2    H5 2062   2.973   4.343   9.880 -0.3974 -1.2117  0.5841
  132MPD2    N1 2063   2.951   4.514   9.427  0.3620 -0.5029 -0.7851
  132MPD2    H7 2064   2.949   4.508   9.326  0.5025  1.3396 -0.8963
  133TMC2    C1 2065   0.811   0.432   9.180 -0.2740  0.3403 -0.7598
  133TMC2    C2 2066   0.822   0.420   9.047  0.4003 -0.2057 -0.4362
  133TMC2    C3 2067   0.731   0.474   8.965 -0.2676  0.5649 -0.4527
  133TMC2    C4 2068   0.706   0.498   9.241 -0.7129 -1.3612  0.5327
  133TMC2    C5 2069   0.619   0.561   9.152  0.6053  0.7379  0.5155
  133TMC2    C6 2070   0.629   0.559   9.015 -0.8069 -0.0047 -0.9476
  133TMC2     C 2071   0.912   0.369   9.267 -0.6304  0.0472 -0.2046
  133TMC2     O 2072   1.024   0.351   9.230 -0.1849 -0.1327 -0.2144
  133TMC2     H 2073   0.913   0.377   9.007  0.6900 -0.5923  0.6505
  133TMC2    H1 2074   0.684   0.505   9.347 -3.8252 -0.6761 -0.1408
  133TMC2    H2 2075   0.560   0.620   8.957 -0.4295  0.1838 -1.1957
  133TMC2    C7 2076   0.523   0.648   9.212 -0.3211  0.4096  0.1169
  133TMC2    C8 2077   0.747   0.475   8.825  0.2904 -0.2717 -0.3008
  133TMC2    O1 2078   0.546   0.674   9.332 -0.3489 -0.5249  0.4451
  133TMC2    O2 2079   0.694   0.558   8.751  0.0303  0.1885 -0.2904
  133TMC2    O5 2080   0.827   0.370   8.789  0.4025 -0.0916  0.1983
  133TMC2    H5 2081   0.839   0.300   8.856 -0.2503  1.2593  1.7282
  134MPD2     C 2082   0.873   0.288   9.632  0.2605  0.3726  0.3484
  134MPD2    C1 2083   0.944   0.318   9.515  0.4646 -0.5784 -0.4009
  134MPD2    C2 2084   1.084   0.318   9.518 -0.4310  0.5614 -0.8780
  134MPD2    C3 2085   1.159   0.294   9.629  0.6819  0.1201 -0.4068
  134MPD2    C4 2086   1.082   0.262   9.737 -0.0596  0.0541  0.3235
  134MPD2    C5 2087   0.946   0.251   9.741  0.5287  0.1280  1.0152
  134MPD2     H 2088   1.136   0.326   9.423  0.8386 -1.7379 -0.3763
  134MPD2    H1 2089   1.128   0.233   9.831 -2.6620 -2.6562  0.7662
  134MPD2    H2 2090   0.768   0.261   9.626  0.9812 -1.6860 -3.0653
  134MPD2    H3 2091   0.906   0.215   9.834 -0.5770  1.1856  0.9560
  134MPD2     N 2092   1.298   0.308   9.634 -0.1227  0.0917  0.1911
  134MPD2    H5 2093   1.349   0.297   9.721 -0.9335 -0.0625  0.6467
  134MPD2    N1 2094   0.870   0.356   9.401 -0.0142  0.2714  0.3717
  134MPD2    H7 2095   0.770   0.356   9.415  0.0904 -2.0449  1.0151
  135TMC2    C1 2096   4.454   2.066   9.878 -0.1788  0.4860 -0.5389
  135TMC2    C2 2097   4.561   1.988   9.913 -0.4867  0.0899  0.1422
  135TMC2    C3 2098   4.559   1.945  10.045  0.8078  0.4301 -0.2402
  135TMC2    C4 2099   4.356   2.094   9.970  0.5461  0.8413  0.0249
  135TMC2    C5 2100   4.370   2.061  10.100  0.0237  0.0325  0.5133
  135TMC2    C6 2101   4.474   1.988  10.139  0.2658  0.5679 -0.1682
  135TMC2     C 2102   4.433   2.127   9.742  0.3122  1.0719 -0.6018
  135TMC2     O 2103   4.358   2.228   9.731  0.0530 -0.6490  0.8919
  135TMC2     H 2104   4.635   1.952   9.843 -1.9036  0.0401 -1.3450
  135TMC2    H1 2105   4.274   2.161   9.944  0.0955  0.4387  0.4288
  135TMC2    H2 2106   4.478   1.972  10.246  1.4337  1.5789 -0.0588
  135TMC2    C7 2107   4.255   2.083  10.178 -0.4465  0.3114  0.3248
  135TMC2    C8 2108   4.671   1.854  10.073  0.3644  0.2303  0.2991
  135TMC2    O1 2109   4.197   2.190  10.156 -0.1010  0.1543  0.0684
  135TMC2    O2 2110   0.023   1.834   9.995  0.2199 -0.0327  0.2104
  135TMC2    O5 2111   4.648   1.786  10.189 -0.3584  0.6764  0.4121
  135TMC2    H5 2112   4.552   1.792  10.211  0.0234  2.0002  1.7470
  136MPD2     C 2113   4.410   2.183   9.443  0.6294  0.1100 -0.1800
  136MPD2    C1 2114   4.469   2.072   9.499 -0.4356  0.0223  0.8742
  136MPD2    C2 2115   4.526   1.980   9.411  0.1712  0.4898  0.6167
  136MPD2    C3 2116   4.536   2.010   9.270 -0.7436  0.6140 -0.5718
  136MPD2    C4 2117   4.472   2.121   9.224 -0.4310 -0.2926 -0.0780
  136MPD2    C5 2118   4.401   2.202   9.303  0.2222  0.4858 -0.0314
  136MPD2     H 2119   4.574   1.887   9.439 -0.6815 -0.3101 -0.5838
  136MPD2    H1 2120   4.482   2.141   9.118  1.8773  1.1631  0.4163
  136MPD2    H2 2121   4.357   2.256   9.505 -1.4709 -1.5044 -0.0700
  136MPD2    H3 2122   4.357   2.287   9.252 -4.2144 -1.9924 -0.3382
  136MPD2     N 2123   4.619   1.938   9.186 -0.3997 -0.0685  0.2660
  136MPD2    H5 2124   4.605   1.968   9.089 -0.8512 -0.2539  0.2757
  136MPD2    N1 2125   4.488   2.052   9.643  0.1773 -0.2761 -0.6753
  136MPD2    H7 2126   4.532   1.962   9.660  2.4276  0.0634 -4.6394
  137TMC2    C1 2127   4.051   0.037   9.877  0.3412 -0.3084  0.1479
  137TMC2    C2 2128   4.061   4.644   9.901 -1.2092 -0.1131  0.6795
  137TMC2    C3 2129   3.989   4.582  10.001  0.5983 -0.9073  0.0552
  137TMC2    C4 2130   3.963   0.105   9.958 -1.1413  0.0773  0.0370
  137TMC2    C5 2131   3.878   0.042  10.049 -0.3441 -0.0905  0.0786
  137TMC2    C6 2132   3.897   4.652  10.082  0.3836  0.1143  0.9852
  137TMC2     C 2133   4.172   0.110   9.859 -0.0634 -0.6546  0.4804
  137TMC2     O 2134   4.182   0.230   9.885  0.1373  0.4186 -0.3047
  137TMC2     H 2135   4.114   4.577   9.835 -0.3710 -0.7103  1.9615
  137TMC2    H1 2136   3.960   0.211   9.938  0.9794  0.1831  0.2133
  137TMC2    H2 2137   3.830   4.602  10.151  1.3322 -1.8595  0.4676
  137TMC2    C7 2138   3.814   0.128  10.147  0.2670 -0.8456  0.0856
  137TMC2    C8 2139   4.001   4.438  10.027 -0.4331  0.0178  0.4951
  137TMC2    O1 2140   3.810   0.081  10.260  0.7694 -0.4627 -0.1777
  137TMC2    O2 2141   4.009   4.357   9.938  0.1176 -0.1331 -0.1057
  137TMC2    O5 2142   4.033   4.423  10.157  0.0957  0.0097  0.4301
  137TMC2    H5 2143   4.045   4.509  10.203  0.9858 -0.8923  1.8903
  138MPD2     C 2144   4.514   0.010   9.743 -0.5762 -0.3363  0.0356
  138MPD2    C1 2145   4.412   0.076   9.815 -0.0522 -0.1463  0.1810
  138MPD2    C2 2146   4.455   0.187   9.888  0.2994  0.2276  0.2216
  138MPD2    C3 2147   4.585   0.239   9.878  1.0436  0.4491  0.6653
  138MPD2    C4 2148   4.681   0.162   9.819  0.6896 -0.6918 -0.0617
  138MPD2    C5 2149   4.645   0.043   9.755 -0.7386 -0.2029  0.1156
  138MPD2     H 2150   4.389   0.247   9.950  1.0972  1.1903  0.1473
  138MPD2    H1 2151   0.045   0.189   9.824  0.7357 -1.0197  0.8484
  138MPD2    H2 2152   4.491   4.666   9.678  1.0961  0.4345 -1.5482
  138MPD2    H3 2153   4.719   4.719   9.709 -0.6727 -0.4388  0.5585
  138MPD2     N 2154   4.613   0.358   9.947  0.3005  0.9254  0.4355
  138MPD2    H5 2155   4.540   0.411   9.993  0.4050  0.8272  0.7149
  138MPD2    N1 2156   4.278   0.026   9.813 -0.2947 -0.0105  0.8202
  138MPD2    H7 2157   4.261   4.677   9.767  1.1366  0.4234 -0.5290
  139TMC2    C1 2158   0.035   4.122  13.810  0.1822  0.0803  0.7237
  139TMC2    C2 2159   0.142   4.197  13.760  0.6999  0.2988  0.5272
  139TMC2    C3 2160   0.117   4.329  13.732  0.3152 -0.1650 -0.4241
  139TMC2    C4 2161   4.644   4.165  13.811 -0.1572 -0.5109 -0.0346
  139TMC2    C5 2162   4.627   4.300  13.791  0.2651 -0.4261  0.1533
  139TMC2    C6 2163   4.730   4.381  13.749 -0.0271  0.2887 -0.2918
  139TMC2     C 2164   0.073   3.988  13.846 -0.3364  0.5176  0.0142
  139TMC2     O 2165   0.174   3.944  13.790  0.6397  0.2001  0.2452
  139TMC2     H 2166   0.244   4.165  13.746  0.6046 -0.4199  1.4824
  139TMC2    H1 2167   4.561   4.098  13.828 -0.2365 -0.2402  0.6556
  139TMC2    H2 2168   4.713   4.487  13.736 -3.4573 -0.1759  0.3648
  139TMC2    C7 2169   4.508   4.359  13.854  0.3233 -0.0181 -0.4303
  139TMC2    C8 2170   0.202   4.396  13.633  0.3244 -0.5011 -0.1514
  139TMC2    O1 2171   4.470   4.457  13.794  0.2697 -0.1894  0.0250
  139TMC2    O2 2172   0.161   4.474  13.552 -0.8737  0.4369  0.3476
  139TMC2    O5 2173   0.326   4.382  13.673 -0.0570  0.5959  0.6165
  139TMC2    H5 2174   0.345   4.335  13.757 -1.1929 -1.4529 -0.2652
  140MPD2     C 2175   4.638   3.741  14.052  0.4103  0.2521  0.3571
  140MPD2    C1 2176   0.001   3.793  13.981 -0.3373 -0.8064  0.0150
  140MPD2    C2 2177   0.104   3.703  13.947  0.0942 -0.0324 -0.4126
  140MPD2    C3 2178   0.105   3.571  13.991 -0.4760  0.6954  0.7044
  140MPD2    C4 2179   4.728   3.518  14.054  0.0229 -0.4290 -0.3269
  140MPD2    C5 2180   4.630   3.602  14.089  0.7920 -0.7649  1.2801
  140MPD2     H 2181   0.195   3.746  13.908 -0.0243  0.2852 -0.3344
  140MPD2    H1 2182   4.718   3.414  14.084 -2.6658 -0.0613  0.0157
  140MPD2    H2 2183   4.547   3.796  14.075 -1.0524 -1.3609 -1.4441
  140MPD2    H3 2184   4.535   3.558  14.118  1.2855 -1.6468  1.5645
  140MPD2     N 2185   0.220   3.492  13.964  0.1078 -0.4480  0.0236
  140MPD2    H5 2186   0.284   3.524  13.892 -1.0048 -1.3181 -1.3586
  140MPD2    N1 2187   4.726   3.923  13.931  0.0361 -0.4987 -0.3019
  140MPD2    H7 2188   4.640   3.963  13.967 -0.5168 -1.3083 -0.7061
  141TMC2    C1 2189   0.169   0.784  14.783  0.6795 -0.6247  0.2786
  141TMC2    C2 2190   0.077   0.773  14.888  0.0090  0.4343  0.1662
  141TMC2    C3 2191   0.069   0.883  14.969  0.4747 -0.0818 -0.4614
  141TMC2    C4 2192   0.231   0.902  14.753  0.2972  0.0515  0.5576
  141TMC2    C5 2193   0.209   1.014  14.833  0.2944 -0.2936  0.3727
  141TMC2    C6 2194   0.125   1.006  14.941  0.7290  0.1999  0.6403
  141TMC2     C 2195   0.148   0.688  14.679  0.3685 -0.1140 -0.5910
  141TMC2     O 2196   0.157   0.741  14.569  0.4292 -0.6764 -0.0867
  141TMC2     H 2197   0.020   0.685  14.916  0.4096  0.8436  2.2767
  141TMC2    H1 2198   0.292   0.912  14.664 -0.6844 -0.1503 -0.1416
  141TMC2    H2 2199   0.093   1.089  15.003 -0.2781  0.6892 -0.5402
  141TMC2    C7 2200   0.292   1.135  14.813  0.6175 -0.7019 -0.3464
  141TMC2    C8 2201   4.718   0.872  15.080  0.5779  0.1816  0.2218
  141TMC2    O1 2202   0.245   1.242  14.835  0.1465 -0.1065  0.1322
  141TMC2    O2 2203   4.684   0.769  15.127  0.0809  0.2255  0.3599
  141TMC2    O5 2204   4.674   0.995  15.128  0.1620 -0.0271 -0.6338
  141TMC2    H5 2205   4.670   1.064  15.058  1.4148  0.8449  0.1561
  142TMC2    C1 2206   3.433   4.210   9.769 -0.5148 -0.1370 -0.3087
  142TMC2    C2 2207   3.509   4.172   9.660  0.1604  0.4158  0.0770
  142TMC2    C3 2208   3.523   4.270   9.558 -0.0975 -0.4418 -0.6958
  142TMC2    C4 2209   3.393   4.341   9.785 -0.2306 -0.8305  0.2745
  142TMC2    C5 2210   3.409   4.427   9.679 -0.3199 -0.0157  0.6147
  142TMC2    C6 2211   3.459   4.391   9.558  0.5356  0.5643  0.0690
  142TMC2     C 2212   3.378   4.113   9.860  0.4696  0.3603 -0.0408
  142TMC2     O 2213   3.372   3.999   9.822 -0.0012 -0.0862 -0.4346
  142TMC2     H 2214   3.540   4.068   9.658  2.0644  1.0383 -2.1510
  142TMC2    H1 2215   3.354   4.381   9.877 -1.7543 -3.0216  0.5889
  142TMC2    H2 2216   3.460   4.446   9.465  1.5321  0.5352  0.0578
  142TMC2    C7 2217   3.363   4.563   9.708 -0.2437 -0.1041 -0.4117
  142TMC2    C8 2218   3.583   4.229   9.434 -0.4814  0.3028  0.3857
  142TMC2    O1 2219   3.272   4.571   9.788  0.4333  0.2672 -0.0631
  142TMC2    O2 2220   3.558   4.283   9.328  0.1530 -0.0523 -0.1075
  142TMC2    O5 2221   3.622   4.099   9.446  0.4814 -0.3743 -0.0066
  142TMC2    H5 2222   3.655   4.067   9.533  0.6252 -0.4065 -0.0738
  143MPD2     C 2223   3.313   3.953  10.351 -0.3091 -0.9692  0.3708
  143MPD2    C1 2224   3.296   3.886  10.232  0.5245  0.8885 -0.2690
  143MPD2    C2 2225   3.301   3.962  10.111  0.9187 -0.6525 -0.4805
  143MPD2    C3 2226   3.322   4.095  10.105  0.4763 -0.3327  0.1826
  143MPD2    C4 2227   3.351   4.159  10.225  0.2169 -0.2131  0.1594
  143MPD2    C5 2228   3.350   4.089  10.346  0.1115 -0.7076 -0.4071
  143MPD2     H 2229   3.267   3.917  10.018  3.6336 -0.5099 -1.5529
  143MPD2    H1 2230   3.396   4.257  10.230 -0.9090  0.3292 -0.2799
  143MPD2    H2 2231   3.297   3.907  10.448  2.2412 -3.3846 -0.3435
  143MPD2    H3 2232   3.380   4.134  10.440  0.4480 -0.6112 -0.5609
  143MPD2     N 2233   3.358   4.164   9.990 -0.4008  0.1863 -0.6700
  143MPD2    H5 2234   3.392   4.257  10.011 -2.6979  1.5026 -2.8799
  143MPD2    N1 2235   3.244   3.753  10.235 -0.4343 -0.5740  0.3997
  143MPD2    H7 2236   3.242   3.714  10.329 -1.0072 -1.1733  0.1412
  144TMC2    C1 2237   1.741   1.816   0.686  0.1937  0.0754 -0.0911
  144TMC2    C2 2238   1.804   1.720   0.616 -0.0437  0.4655  0.4149
  144TMC2    C3 2239   1.936   1.700   0.632  0.1877  0.4165 -0.5837
  144TMC2    C4 2240   1.801   1.879   0.795 -0.1388  0.8508  0.1530
  144TMC2    C5 2241   1.943   1.873   0.791  0.0917  0.5842  0.8672
  144TMC2    C6 2242   2.006   1.780   0.714  0.3571 -0.2041 -0.0632
  144TMC2     C 2243   1.600   1.841   0.643  0.6308 -0.4374  0.2876
  144TMC2     O 2244   1.536   1.752   0.593  0.9944 -0.5169 -0.1535
  144TMC2     H 2245   1.749   1.663   0.542 -0.8153  0.8461  0.6897
  144TMC2    H1 2246   1.748   1.960   0.843 -0.8314  0.4555  0.0689
  144TMC2    H2 2247   2.114   1.771   0.722  0.4623  1.2907  0.1642
  144TMC2    C7 2248   2.025   1.927   0.896 -0.4994 -0.2706  1.0970
  144TMC2    C8 2249   2.004   1.609   0.549 -0.0106  0.6156 -0.1802
  144TMC2    O1 2250   2.142   1.889   0.898  0.0117  0.1296 -0.3112
  144TMC2    O2 2251   2.112   1.634   0.486 -1.2660 -0.0103  0.3826
  144TMC2    O5 2252   1.942   1.492   0.557  0.0311 -0.1388  0.6765
  144TMC2    H5 2253   1.872   1.497   0.625  0.6133 -1.4372  1.3681
  145MPD2     C 2254   1.281   2.204   0.451  0.0809 -0.5556 -0.3544
  145MPD2    C1 2255   1.292   2.065   0.427  0.3354 -0.2014 -0.3302
  145MPD2    C2 2256   1.393   1.988   0.484 -0.9940 -0.1164 -0.0203
  145MPD2    C3 2257   1.471   2.049   0.581  0.2129 -0.1207  0.0583
  145MPD2    C4 2258   1.463   2.192   0.599 -0.0172  0.1033 -0.8235
  145MPD2    C5 2259   1.366   2.263   0.541  0.0876  0.3028 -0.2771
  145MPD2     H 2260   1.394   1.882   0.461  4.3408  0.2513 -1.5550
  145MPD2    H1 2261   1.529   2.243   0.668  0.4996 -3.0861  1.0572
  145MPD2    H2 2262   1.204   2.265   0.405  0.4089 -0.3840 -0.6642
  145MPD2    H3 2263   1.370   2.371   0.552  1.0038  0.2299  0.1272
  145MPD2     N 2264   1.570   1.976   0.647  0.2586 -0.0488  0.3030
  145MPD2    H5 2265   1.636   2.031   0.701 -0.0598  0.2852  0.3509
  145MPD2    N1 2266   1.210   2.002   0.327 -0.7036  0.9355  0.4394
  145MPD2    H7 2267   1.229   1.904   0.311 -0.8210  0.8917  0.5680
  146TMC2    C1 2268   2.241   1.420  12.467  0.0865  0.6279  0.0150
  146TMC2    C2 2269   2.170   1.419  12.347 -0.0119 -0.3053  0.3151
  146TMC2    C3 2270   2.239   1.380  12.230 -0.1475 -0.1178  0.6132
  146TMC2    C4 2271   2.372   1.381  12.483  0.7248  0.5880  0.1035
  146TMC2    C5 2272   2.435   1.348  12.360 -0.7718 -0.3116  0.1193
  146TMC2    C6 2273   2.372   1.345  12.241 -0.0873 -0.3132 -0.0977
  146TMC2     C 2274   2.159   1.430  12.587  0.1790 -0.3886  0.5763
  146TMC2     O 2275   2.062   1.499  12.577 -0.6419 -0.2444 -0.1204
  146TMC2     H 2276   2.069   1.457  12.341 -0.7801 -2.1564  1.4407
  146TMC2    H1 2277   2.417   1.384  12.582 -1.8880 -0.2969  1.3357
  146TMC2    H2 2278   2.425   1.322  12.149  0.4408  0.1723  0.0875
  146TMC2    C7 2279   2.566   1.284  12.362 -0.8675 -0.2409  0.6365
  146TMC2    C8 2280   2.167   1.356  12.106 -0.3110 -0.5367 -0.1921
  146TMC2    O1 2281   2.620   1.286  12.253  0.0152 -0.0292 -0.0561
  146TMC2    O2 2282   2.230   1.359  12.005 -0.1237  0.1336 -0.2781
  146TMC2    O5 2283   2.035   1.360  12.122 -0.1207  1.0113 -0.1700
  146TMC2    H5 2284   2.005   1.330  12.211 -2.9631 -1.6829 -2.0337
  147MPD2     C 2285   2.928   0.965  12.531 -0.4106  0.4149 -0.3488
  147MPD2    C1 2286   2.822   0.969  12.619  0.0682  0.1066 -0.4824
  147MPD2    C2 2287   2.715   1.051  12.601 -0.2773 -0.1869 -0.2766
  147MPD2    C3 2288   2.700   1.117  12.485 -0.0717 -0.1576 -0.6206
  147MPD2    C4 2289   2.806   1.118  12.397 -0.1586 -0.4125  0.0820
  147MPD2    C5 2290   2.917   1.043  12.416  0.0475  0.2892 -0.2473
  147MPD2     H 2291   2.637   1.057  12.676  1.5878  1.3532  1.5435
  147MPD2    H1 2292   2.818   1.193  12.319  0.0057  0.4398  0.9274
  147MPD2    H2 2293   3.013   0.900  12.546 -2.5009 -2.7751 -2.1770
  147MPD2    H3 2294   3.000   1.040  12.347  1.1614 -0.5962  1.1372
  147MPD2     N 2295   2.596   1.212  12.477  0.2636 -0.1517 -0.2329
  147MPD2    H5 2296   2.531   1.220  12.555  0.9332  1.2131  0.1768
  147MPD2    N1 2297   2.836   0.885  12.726 -0.6743 -0.1565 -0.0495
  147MPD2    H7 2298   2.920   0.826  12.724 -1.1304 -0.8094  0.0283
  148TMC2    C1 2299   2.280   0.231  10.558  0.6177  0.4911  0.3770
  148TMC2    C2 2300   2.271   0.337  10.643 -0.3649  0.3018  0.3102
  148TMC2    C3 2301   2.372   0.342  10.735 -0.3885 -0.6923 -0.1847
  148TMC2    C4 2302   2.392   0.143  10.558  0.3203 -0.3084 -0.1987
  148TMC2    C5 2303   2.487   0.163  10.656  0.0707 -0.0761 -0.1865
  148TMC2    C6 2304   2.474   0.257  10.756  1.1147 -0.3667 -0.4963
  148TMC2     C 2305   2.160   0.191  10.488 -0.0341  0.2683 -0.1665
  148TMC2     O 2306   2.075   0.275  10.457  0.7633 -0.3162 -0.0330
  148TMC2     H 2307   2.209   0.421  10.614 -0.5487  0.0122 -0.1411
  148TMC2    H1 2308   2.403   0.066  10.483  3.1344  1.1956 -1.2992
  148TMC2    H2 2309   2.562   0.284  10.813  2.1204 -0.4747 -2.0160
  148TMC2    C7 2310   2.579   0.051  10.668 -0.6426  0.4939  0.0828
  148TMC2    C8 2311   2.357   0.470  10.809  0.2835 -0.5681 -0.2582
  148TMC2    O1 2312   2.604   4.735  10.561  0.3985  0.0673  0.1883
  148TMC2    O2 2313   2.270   0.555  10.786  0.1183 -0.8706  0.5199
  148TMC2    O5 2314   2.419   0.441  10.926  0.0820 -0.2022  0.3739
  148TMC2    H5 2315   2.452   0.349  10.937 -2.1269 -1.0952 -0.5505
  149MPD2     C 2316   2.010   0.042  10.282 -0.4441 -0.2946  0.0965
  149MPD2    C1 2317   2.097   4.719  10.362 -0.4562  0.0542  0.3048
  149MPD2    C2 2318   2.098   4.581  10.366  1.4842  0.3125  0.8549
  149MPD2    C3 2319   2.016   4.505  10.279  0.1723  0.6564 -0.8416
  149MPD2    C4 2320   1.930   4.568  10.201 -0.0657 -0.5678 -0.2258
  149MPD2    C5 2321   1.924   4.706  10.205  0.0692 -0.1680  0.2594
  149MPD2     H 2322   2.162   4.538  10.442  0.5823 -2.4193  0.0734
  149MPD2    H1 2323   1.869   4.517  10.127 -0.5138  0.0435 -0.2757
  149MPD2    H2 2324   2.014   0.149  10.266  1.8444 -0.8922 -3.3961
  149MPD2    H3 2325   1.854   0.015  10.139  0.4874 -0.5953 -0.5052
  149MPD2     N 2326   2.008   4.362  10.288 -0.2844 -0.2218  0.5431
  149MPD2    H5 2327   1.940   4.324  10.223  1.2122 -1.1106 -0.5036
  149MPD2    N1 2328   2.170   0.050  10.454  0.0910 -0.4218  0.8855
  149MPD2    H7 2329   2.246   0.004  10.503 -1.0220 -2.9812  0.1627
  150TMC2    C1 2330   4.735   4.192  12.409 -0.1246  0.6156  0.6419
  150TMC2    C2 2331   0.033   4.230  12.282  0.6284  0.2428 -0.2095
  150TMC2    C3 2332   0.169   4.230  12.248  0.5424 -0.2319  0.2436
  150TMC2    C4 2333   0.090   4.168  12.503 -0.1219  0.2665  0.4913
  150TMC2    C5 2334   0.225   4.176  12.479  0.1025 -0.9995  0.2672
  150TMC2    C6 2335   0.264   4.208  12.349 -0.5611  0.3417 -0.3633
  150TMC2     C 2336   4.601   4.172  12.435  0.2214 -0.5696  0.0632
  150TMC2     O 2337   4.519   4.222  12.360 -0.1558  0.3870  0.5810
  150TMC2     H 2338   4.697   4.245  12.207 -0.0389 -0.0621  0.4088
  150TMC2    H1 2339   0.059   4.171  12.607  0.2860 -1.8359  0.6796
  150TMC2    H2 2340   0.362   4.252  12.333  0.2016 -2.2608 -2.8018
  150TMC2    C7 2341   0.323   4.192  12.591  0.5534 -0.1128  0.7087
  150TMC2    C8 2342   0.217   4.303  12.138 -0.1881  0.6335 -0.3690
  150TMC2    O1 2343   0.428   4.244  12.561 -0.5488  0.2479  0.0554
  150TMC2    O2 2344   0.333   4.316  12.106 -0.3410  0.1938  0.1260
  150TMC2    O5 2345   0.119   4.392  12.095  0.4529  0.0227  0.3810
  150TMC2    H5 2346   0.031   4.387  12.138  0.4356 -1.0086  0.2193
  151MPD2     C 2347   4.234   3.878  12.654  0.1008 -0.6398 -0.4026
  151MPD2    C1 2348   4.224   3.993  12.583 -0.1575 -0.2972 -0.0301
  151MPD2    C2 2349   4.343   4.057  12.549 -0.6131 -0.3602  0.0645
  151MPD2    C3 2350   4.469   4.011  12.584  0.3577 -0.3034  0.5024
  151MPD2    C4 2351   4.469   3.907  12.673 -0.7763  0.8882 -0.8059
  151MPD2    C5 2352   4.354   3.844  12.706 -0.7857  0.0718  0.9427
  151MPD2     H 2353   4.333   4.150  12.495 -0.9731 -1.1598 -1.2429
  151MPD2    H1 2354   4.565   3.865  12.703 -1.1043  0.9215  0.2648
  151MPD2    H2 2355   4.147   3.817  12.678 -0.0261 -0.3348 -0.0830
  151MPD2    H3 2356   4.350   3.751  12.762  0.9241 -1.2364 -1.1019
  151MPD2     N 2357   4.590   4.074  12.542  0.5533 -0.1602  0.2750
  151MPD2    H5 2358   4.672   4.040  12.591  1.9310  1.2138 -1.0520
  151MPD2    N1 2359   4.092   4.036  12.537  0.7562 -0.0316  0.1887
  151MPD2    H7 2360   4.014   3.972  12.539  0.6589  0.0989  0.6733
  152TMC2    C1 2361   4.297   3.936  13.170 -0.5867 -0.1868 -0.7143
  152TMC2    C2 2362   4.413   3.862  13.156  0.5680  0.7491 -0.1345
  152TMC2    C3 2363   4.515   3.903  13.072  0.1997  0.3753  0.0378
  152TMC2    C4 2364   4.280   4.048  13.093  0.5652 -0.3125  0.5464
  152TMC2    C5 2365   4.379   4.076  13.000 -0.1247 -0.1833 -0.9584
  152TMC2    C6 2366   4.497   4.016  12.990  0.2319 -0.0136 -0.5019
  152TMC2     C 2367   4.191   3.903  13.266 -0.4555  0.1869 -0.2775
  152TMC2     O 2368   4.114   4.001  13.285  0.0355  0.6208 -0.1979
  152TMC2     H 2369   4.425   3.771  13.215 -1.9281 -0.5038 -1.5759
  152TMC2    H1 2370   4.191   4.110  13.095  0.3438 -0.5041 -2.8832
  152TMC2    H2 2371   4.575   4.029  12.915  0.7378 -2.7814 -0.4584
  152TMC2    C7 2372   4.349   4.177  12.898  0.2338 -0.1854  0.4606
  152TMC2    C8 2373   4.621   3.812  13.034  0.0256  0.2395  0.7495
  152TMC2    O1 2374   4.233   4.222  12.899  0.4653 -0.4918 -0.5189
  152TMC2    O2 2375   4.651   3.804  12.917 -0.2185  0.2186  0.1683
  152TMC2    O5 2376   4.649   3.727  13.134  0.0054  0.3058 -0.4767
  152TMC2    H5 2377   4.634   3.762  13.225 -1.4321 -1.4044 -0.0445
  153MPD2     C 2378   4.165   3.640  13.517 -0.7557 -0.3032  0.6262
  153MPD2    C1 2379   4.131   3.749  13.442 -0.3077  0.1753  0.2019
  153MPD2    C2 2380   4.031   3.828  13.493  0.1950  0.6421 -0.4188
  153MPD2    C3 2381   3.976   3.807  13.619  0.7171  0.6194 -1.0664
  153MPD2    C4 2382   4.009   3.698  13.694 -0.7629  0.3159  0.0930
  153MPD2    C5 2383   4.105   3.617  13.644  0.2372  0.6959  0.5173
  153MPD2     H 2384   3.987   3.905  13.430 -2.2547 -0.5675 -0.2107
  153MPD2    H1 2385   3.969   3.671  13.792  0.8688 -0.3483  0.5748
  153MPD2    H2 2386   4.245   3.572  13.491  1.4317  2.3596  0.3569
  153MPD2    H3 2387   4.139   3.530  13.699 -0.9467  1.0661  1.8622
  153MPD2     N 2388   3.864   3.883  13.647  0.6094  0.2618 -0.1019
  153MPD2    H5 2389   3.835   3.951  13.578 -1.0396 -1.8450 -1.5032
  153MPD2    N1 2390   4.196   3.779  13.320  0.4580 -0.0896  0.2423
  153MPD2    H7 2391   4.264   3.715  13.280 -1.8844 -2.3365 -0.0747
  154TMC2    C1 2392   2.004   3.049   0.991 -0.2418 -0.1258  0.2212
  154TMC2    C2 2393   2.034   3.088   1.118  0.5043 -0.3826 -0.0165
  154TMC2    C3 2394   2.161   3.055   1.155  0.7971  0.9917 -0.0449
  154TMC2    C4 2395   2.085   2.965   0.915  0.0497 -0.3358  0.5804
  154TMC2    C5 2396   2.201   2.920   0.971  0.1802  0.3534 -0.1213
  154TMC2    C6 2397   2.247   2.965   1.090  0.0874  0.2700 -0.3915
  154TMC2     C 2398   1.890   3.118   0.940 -0.7242 -0.0452  0.1832
  154TMC2     O 2399   1.851   3.214   1.002 -0.2482 -0.3729  0.8371
  154TMC2     H 2400   1.973   3.157   1.175  2.2988  2.0737 -1.0645
  154TMC2    H1 2401   2.067   2.939   0.811  0.3178 -1.8507  0.9091
  154TMC2    H2 2402   2.333   2.935   1.148 -1.2566 -0.9561  0.9820
  154TMC2    C7 2403   2.288   2.824   0.905 -0.2330 -0.3175 -0.1720
  154TMC2    C8 2404   2.202   3.120   1.275 -0.1181 -0.0289  0.0482
  154TMC2    O1 2405   2.405   2.823   0.949  0.9386  0.3944 -0.0873
  154TMC2    O2 2406   2.113   3.133   1.353 -0.3411 -0.0662  0.5140
  154TMC2    O5 2407   2.331   3.095   1.310 -0.0817 -0.1280  0.3466
  154TMC2    H5 2408   2.382   3.113   1.228 -1.4081  1.5862 -0.1017
  155MPD2     C 2409   1.705   3.040   0.622  0.0372 -0.0191  0.8173
  155MPD2    C1 2410   1.747   3.115   0.731 -0.9423  0.8224 -0.6665
  155MPD2    C2 2411   1.688   3.241   0.751 -0.7718  0.0308  0.3846
  155MPD2    C3 2412   1.599   3.285   0.654 -0.0768  0.3229  0.2263
  155MPD2    C4 2413   1.571   3.212   0.542  0.4238 -0.6165  0.6078
  155MPD2    C5 2414   1.618   3.090   0.529  0.0899 -0.0911  0.0121
  155MPD2     H 2415   1.709   3.299   0.840 -1.1733 -0.0423  0.5240
  155MPD2    H1 2416   1.500   3.244   0.467  0.8246 -0.9882  0.0748
  155MPD2    H2 2417   1.755   2.946   0.603 -1.9535 -0.8445 -0.2491
  155MPD2    H3 2418   1.601   3.035   0.437 -0.5006  1.5160 -0.8408
  155MPD2     N 2419   1.534   3.406   0.676  0.4425 -0.9084 -0.5364
  155MPD2    H5 2420   1.563   3.449   0.763 -0.1205 -0.7394 -0.4344
  155MPD2    N1 2421   1.851   3.067   0.817 -0.0798 -0.3807  0.5577
  155MPD2    H7 2422   1.895   2.979   0.792 -1.0712 -0.8493  0.4858
  156TMC2    C1 2423   4.446   1.778  11.953 -0.0099  0.5179  0.3087
  156TMC2    C2 2424   4.496   1.650  11.934  0.0205 -0.1796 -0.2199
  156TMC2    C3 2425   4.475   1.578  11.822 -0.3153 -0.2567  0.0722
  156TMC2    C4 2426   4.352   1.818  11.865 -0.1809 -0.1556 -0.2836
  156TMC2    C5 2427   4.332   1.744  11.744  0.7517  0.2103  0.0718
  156TMC2    C6 2428   4.396   1.621  11.721  0.0659  0.4885  0.2514
  156TMC2     C 2429   4.491   1.872  12.057  0.3087  0.3512  0.1858
  156TMC2     O 2430   4.421   1.972  12.072 -0.2704 -0.0994  0.4227
  156TMC2     H 2431   4.581   1.614  11.990 -1.2643 -0.6441  1.4486
  156TMC2    H1 2432   4.297   1.909  11.888  1.9291  1.5152 -1.8632
  156TMC2    H2 2433   4.386   1.569  11.626 -1.2595  0.6736  0.3014
  156TMC2    C7 2434   4.233   1.785  11.647  0.3512 -0.0463  0.1544
  156TMC2    C8 2435   4.548   1.454  11.815 -0.2080  0.0631 -0.9509
  156TMC2    O1 2436   4.198   1.707  11.564  0.2563  0.1057  0.0957
  156TMC2    O2 2437   4.548   1.384  11.918  0.2159 -0.0637 -0.4721
  156TMC2    O5 2438   4.661   1.482  11.749  0.4314 -0.2105 -0.1117
  156TMC2    H5 2439   4.659   1.542  11.672  0.1354  0.3163  0.3125
  157MPD2     C 2440   0.032   1.843  12.294 -0.1767 -0.5945  0.5193
  157MPD2    C1 2441   4.674   1.903  12.218 -0.0405 -0.5430  0.4371
  157MPD2    C2 2442   4.633   2.032  12.257 -0.1402  0.9077 -0.2107
  157MPD2    C3 2443   4.681   2.087  12.376  1.3339 -0.1549  0.6142
  157MPD2    C4 2444   0.039   2.024  12.451  0.3365  0.6772 -0.2432
  157MPD2    C5 2445   0.078   1.895  12.412 -0.4123 -0.2981 -0.2831
  157MPD2     H 2446   4.550   2.085  12.211 -0.9394 -0.6957 -0.6359
  157MPD2    H1 2447   0.082   2.068  12.540  1.5281  1.0895 -1.0311
  157MPD2    H2 2448   0.049   1.738  12.273  1.5072 -0.4144  1.0165
  157MPD2    H3 2449   0.159   1.846  12.465 -0.0384 -1.2675 -1.7506
  157MPD2     N 2450   4.625   2.209  12.417 -0.0267 -0.1658 -0.3329
  157MPD2    H5 2451   4.557   2.258  12.360  0.9094  3.7545  1.8989
  157MPD2    N1 2452   4.600   1.829  12.121  0.3638  0.0533  0.0076
  157MPD2    H7 2453   4.632   1.735  12.105 -1.8673 -0.6279 -0.3964
  158TMC2    C1 2454   4.559   0.529  13.268 -0.3764  0.1776 -0.0807
  158TMC2    C2 2455   4.586   0.624  13.175  0.5775 -0.3056 -0.4068
  158TMC2    C3 2456   4.491   0.671  13.093 -0.2388 -0.9868  0.3787
  158TMC2    C4 2457   4.426   0.490  13.271  0.8107 -0.1120 -0.1793
  158TMC2    C5 2458   4.328   0.546  13.191 -0.5043 -0.3685 -0.0259
  158TMC2    C6 2459   4.360   0.631  13.098  0.0252 -0.0178 -0.9537
  158TMC2     C 2460   4.667   0.454  13.341  0.3581 -0.7425 -0.3016
  158TMC2     O 2461   0.046   0.458  13.303 -0.3775  0.2725  0.1521
  158TMC2     H 2462   4.692   0.645  13.171  0.7694 -1.1062  0.3673
  158TMC2    H1 2463   4.398   0.411  13.339 -0.1346 -1.0810 -1.6815
  158TMC2    H2 2464   4.283   0.676  13.037  1.7730  1.2719 -2.2276
  158TMC2    C7 2465   4.185   0.541  13.223 -0.1707 -0.0072  0.0840
  158TMC2    C8 2466   4.546   0.724  12.969 -0.0497 -0.2643 -0.0384
  158TMC2    O1 2467   4.111   0.617  13.160 -0.1867 -0.0960 -0.3275
  158TMC2    O2 2468   4.666   0.744  12.949  0.2776 -0.4193  0.5252
  158TMC2    O5 2469   4.473   0.680  12.870  0.2447 -0.4846 -0.2612
  158TMC2    H5 2470   4.402   0.621  12.903  0.5333 -1.6147 -1.6785
  159MPD2     C 2471   0.095   0.117  13.697 -0.1125 -0.1470  0.2589
  159MPD2    C1 2472   4.706   0.151  13.733  0.1898 -0.0868  0.3022
  159MPD2    C2 2473   4.641   0.240  13.654  0.6679 -0.6826 -0.6968
  159MPD2    C3 2474   4.697   0.287  13.534  0.2444  0.2558  0.5064
  159MPD2    C4 2475   0.081   0.232  13.490  0.2043  0.0013 -0.7347
  159MPD2    C5 2476   0.144   0.155  13.577  0.7619  0.8428  0.2061
  159MPD2     H 2477   4.545   0.279  13.687  0.0730 -3.2577  0.5696
  159MPD2    H1 2478   0.121   0.241  13.390  0.8513  0.9604 -0.3778
  159MPD2    H2 2479   0.148   0.045  13.758 -2.6048 -0.4674  2.0609
  159MPD2    H3 2480   0.231   0.100  13.544  0.6635  0.5095  0.4994
  159MPD2     N 2481   4.617   0.378  13.448  0.5269 -0.0707 -0.2422
  159MPD2    H5 2482   4.522   0.393  13.479  0.8545 -3.1285  2.1724
  159MPD2    N1 2483   4.652   0.105  13.856  0.2544 -0.2166 -0.5704
  159MPD2    H7 2484   4.717   0.044  13.904  0.4046 -1.1028 -1.9089
  160TMC2    C1 2485   0.539   2.557   1.539 -0.4533 -0.0637  1.1317
  160TMC2    C2 2486   0.621   2.523   1.641 -0.9890  0.5884  0.4236
  160TMC2    C3 2487   0.745   2.469   1.611  0.0264 -0.0463  0.0593
  160TMC2    C4 2488   0.585   2.550   1.407 -0.4463  1.3979  0.0227
  160TMC2    C5 2489   0.704   2.480   1.387  0.3711  0.4231  0.1461
  160TMC2    C6 2490   0.781   2.429   1.486 -0.0804 -0.4598 -0.2956
  160TMC2     C 2491   0.441   2.651   1.583  0.0465  0.4981  0.6378
  160TMC2     O 2492   0.474   2.719   1.683  0.3397 -0.4627 -0.4660
  160TMC2     H 2493   0.588   2.537   1.744 -0.6716  0.2569  0.5707
  160TMC2    H1 2494   0.532   2.595   1.324  0.6667 -1.0912 -2.0030
  160TMC2    H2 2495   0.884   2.399   1.469  0.5275  1.9436 -0.7763
  160TMC2    C7 2496   0.771   2.506   1.266 -1.0644  0.0280  0.7773
  160TMC2    C8 2497   0.807   2.388   1.708  0.9356  0.1448  0.1099
  160TMC2    O1 2498   0.843   2.415   1.222 -0.4951 -0.0045  0.2919
  160TMC2    O2 2499   0.851   2.441   1.810 -0.2555 -0.3628  0.2607
  160TMC2    O5 2500   0.727   2.279   1.707  0.0309  0.3261 -0.6013
  160TMC2    H5 2501   0.682   2.260   1.622  1.6540  2.9048 -2.0679
  161MPD2     C 2502   0.318   2.914   1.563 -0.4987 -0.1164 -0.0201
  161MPD2    C1 2503   0.301   2.817   1.471 -0.8846  0.3421  0.7202
  161MPD2    C2 2504   0.252   2.848   1.348  0.8870  0.3673 -0.5757
  161MPD2    C3 2505   0.217   2.981   1.323 -0.0568 -0.2050  0.5954
  161MPD2    C4 2506   0.260   3.083   1.409  0.0499 -0.1324  0.3429
  161MPD2    C5 2507   0.310   3.049   1.530 -0.3749  0.1342  0.0363
  161MPD2     H 2508   0.251   2.777   1.266 -0.2935 -0.6914  0.3573
  161MPD2    H1 2509   0.241   3.189   1.401 -1.0190 -0.1520  2.7567
  161MPD2    H2 2510   0.356   2.894   1.663  2.8154 -1.3845 -1.5560
  161MPD2    H3 2511   0.330   3.121   1.608  1.2663  0.8145 -1.0062
  161MPD2     N 2512   0.155   3.022   1.203 -0.7564 -0.2876 -0.1331
  161MPD2    H5 2513   0.149   3.123   1.193  1.0558 -0.3658 -2.0467
  161MPD2    N1 2514   0.359   2.687   1.481 -0.3741  0.0514 -0.1669
  161MPD2    H7 2515   0.349   2.618   1.408 -0.4542 -0.9315  0.7697
  162TMC2    C1 2516   2.083   4.129   1.173 -0.4386 -0.1420 -0.8048
  162TMC2    C2 2517   1.951   4.144   1.194 -0.0355  0.3470  0.2347
  162TMC2    C3 2518   1.916   4.253   1.273 -0.1677  0.1459 -0.0872
  162TMC2    C4 2519   2.177   4.214   1.214  0.2614 -0.1525  0.2802
  162TMC2    C5 2520   2.135   4.322   1.283 -0.4578 -0.2004  0.0086
  162TMC2    C6 2521   2.002   4.350   1.300  0.0482 -0.0190  0.5866
  162TMC2     C 2522   2.120   3.999   1.110  0.6614  0.1324 -0.4262
  162TMC2     O 2523   2.055   3.902   1.141  0.2822 -0.2688 -0.3183
  162TMC2     H 2524   1.884   4.077   1.142  1.4329 -2.1030  1.4886
  162TMC2    H1 2525   2.282   4.184   1.212 -0.1697 -1.6700  0.6324
  162TMC2    H2 2526   1.964   4.448   1.326  0.9267  0.0735  1.5219
  162TMC2    C7 2527   2.224   4.433   1.308 -0.6164  0.0624 -0.1673
  162TMC2    C8 2528   1.783   4.263   1.330 -0.3615  0.0218  0.5127
  162TMC2    O1 2529   2.176   4.541   1.343  0.2520 -0.0351 -0.4353
  162TMC2    O2 2530   1.682   4.223   1.269 -0.7217  0.0661 -0.2918
  162TMC2    O5 2531   1.791   4.324   1.445  0.6187 -0.0468 -0.1943
  162TMC2    H5 2532   1.883   4.342   1.473  0.4414  1.3319 -0.5101
  163MPD2     C 2533   2.454   3.716   0.857  0.5154  0.2838  0.3241
  163MPD2    C1 2534   2.478   3.848   0.818  0.4540 -0.0557  0.9364
  163MPD2    C2 2535   2.402   3.951   0.878 -0.4760  0.7144  0.2693
  163MPD2    C3 2536   2.302   3.921   0.969 -0.0861 -0.2846  0.0883
  163MPD2    C4 2537   2.285   3.786   0.999  1.0886 -0.3252  0.1413
  163MPD2    C5 2538   2.363   3.687   0.947  0.9198 -0.1789 -0.2999
  163MPD2     H 2539   2.418   4.057   0.860 -1.8972  0.6890 -1.1535
  163MPD2    H1 2540   2.228   3.766   1.089 -0.1058  1.0610 -0.3104
  163MPD2    H2 2541   2.510   3.631   0.818 -0.2291 -0.3542  0.6548
  163MPD2    H3 2542   2.354   3.589   0.992  0.4215  0.6243  1.3343
  163MPD2     N 2543   2.226   4.022   1.025 -0.3725  0.5815 -0.0204
  163MPD2    H5 2544   2.247   4.121   1.012  2.5938  0.1708  1.7396
  163MPD2    N1 2545   2.582   3.872   0.726 -0.1789  0.4550  0.1616
  163MPD2    H7 2546   2.631   3.792   0.688  1.1918  1.2863  0.1952
  164TMC2    C1 2547   2.987   4.685  11.342 -0.9308 -0.5805  0.0270
  164TMC2    C2 2548   3.064   4.695  11.453  0.7289 -0.5924 -0.5280
  164TMC2    C3 2549   3.065   0.072  11.523 -0.4588  0.5612 -0.5754
  164TMC2    C4 2550   2.906   0.039  11.305 -0.7152  0.2588  0.5459
  164TMC2    C5 2551   2.911   0.160  11.373  0.5168  0.1310  0.1419
  164TMC2    C6 2552   2.987   0.180  11.489 -0.2625 -0.0535 -0.6599
  164TMC2     C 2553   2.999   4.559  11.280  1.1028 -0.4132  0.2139
  164TMC2     O 2554   3.010   4.454  11.347 -0.3643 -0.0444  0.2387
  164TMC2     H 2555   3.147   4.626  11.464  1.5659  0.2173 -1.7741
  164TMC2    H1 2556   2.862   0.032  11.206 -0.8158 -1.7850  0.7350
  164TMC2    H2 2557   3.003   0.276  11.536  1.0629  1.3387 -3.8931
  164TMC2    C7 2558   2.809   0.254  11.338 -0.0519  0.2802  0.0786
  164TMC2    C8 2559   3.177   0.110  11.605 -0.6014  1.3580  0.0966
  164TMC2    O1 2560   2.726   0.205  11.261 -0.3249  0.2797 -0.1404
  164TMC2    O2 2561   3.214   0.226  11.618 -0.1731  0.1588  0.0994
  164TMC2    O5 2562   3.187   0.001  11.682  0.5214  0.2923 -0.2065
  164TMC2    H5 2563   3.116   4.675  11.668 -0.0583  1.1548 -1.3075
  165TMC2    C1 2564   4.468   1.819   1.108  0.1600 -0.8806 -0.0740
  165TMC2    C2 2565   4.474   1.691   1.051  0.3528  0.5669 -0.3455
  165TMC2    C3 2566   4.584   1.615   1.051  0.5006 -0.0044 -0.6945
  165TMC2    C4 2567   4.581   1.880   1.141  0.8289  0.1530 -0.6870
  165TMC2    C5 2568   4.690   1.798   1.149 -0.1267 -0.4397  0.0604
  165TMC2    C6 2569   4.695   1.667   1.108 -0.2271  0.3432 -0.4244
  165TMC2     C 2570   4.344   1.893   1.096  0.1253 -0.0498 -0.9505
  165TMC2     O 2571   4.261   1.852   1.014  0.0938 -0.9363 -0.3907
  165TMC2     H 2572   4.383   1.649   1.009  2.2634 -1.0470 -2.8667
  165TMC2    H1 2573   4.587   1.987   1.151 -2.0563  0.0009  2.6683
  165TMC2    H2 2574   0.042   1.604   1.122 -0.4171  0.8495  2.9861
  165TMC2    C7 2575   0.076   1.857   1.198 -0.2359 -0.6754 -0.2782
  165TMC2    C8 2576   4.581   1.472   1.032 -0.0709 -0.6834  0.1742
  165TMC2    O1 2577   0.176   1.784   1.201  0.0415 -0.7940  0.1768
  165TMC2    O2 2578   4.668   1.402   1.083 -0.1600 -0.6968  0.0324
  165TMC2    O5 2579   4.493   1.437   0.935  0.9799  0.0135 -0.0869
  165TMC2    H5 2580   4.441   1.504   0.888  0.2714 -1.3529 -1.2265
  166MPD2     C 2581   4.079   2.324   1.141  0.0493  0.7149 -0.3362
  166MPD2    C1 2582   4.069   2.222   1.059 -0.1813  0.3752  0.0314
  166MPD2    C2 2583   4.141   2.108   1.068 -0.7337  0.1689 -0.5536
  166MPD2    C3 2584   4.249   2.117   1.150  0.2999 -0.0830  0.5824
  166MPD2    C4 2585   4.267   2.220   1.231  0.3395  0.1395  0.1729
  166MPD2    C5 2586   4.184   2.323   1.226 -0.3465 -1.1968  0.6105
  166MPD2     H 2587   4.113   2.018   1.014  1.8537 -1.3975  0.7208
  166MPD2    H1 2588   4.359   2.215   1.288  1.3863  2.8221 -1.3055
  166MPD2    H2 2589   4.016   2.412   1.132 -0.4746  0.6998  2.9347
  166MPD2    H3 2590   4.207   2.410   1.287 -1.6805 -0.9629  0.7907
  166MPD2     N 2591   4.350   2.020   1.162 -0.3762  0.5442 -0.0414
  166MPD2    H5 2592   4.421   2.037   1.233 -1.3186  0.4996  0.9174
  166MPD2    N1 2593   3.974   2.241   0.959 -0.0189  0.1230 -0.3040
  166MPD2    H7 2594   3.916   2.325   0.959 -0.3516 -0.1148 -1.0481
  167TMC2    C1 2595   2.028   0.266  13.067 -0.4542 -0.6636 -0.1209
  167TMC2    C2 2596   1.894   0.274  13.046 -0.2546 -0.4531 -0.3545
  167TMC2    C3 2597   1.824   0.156  13.061 -0.7126 -0.4412 -0.4279
  167TMC2    C4 2598   2.084   0.149  13.113  0.2997  0.9895  1.0181
  167TMC2    C5 2599   1.999   0.046  13.149  0.8573 -0.3685 -0.5077
  167TMC2    C6 2600   1.865   0.059  13.141 -0.2734 -0.6356  0.6324
  167TMC2     C 2601   2.119   0.370  13.018  0.3282  0.0949 -0.3080
  167TMC2     O 2602   2.238   0.351  13.040  0.1440  0.4493 -0.6403
  167TMC2     H 2603   1.851   0.356  12.988 -1.3936 -0.6940  0.1443
  167TMC2    H1 2604   2.192   0.152  13.119  0.1154  2.2787  3.4004
  167TMC2    H2 2605   1.810   4.708  13.159 -0.4585 -0.3619  1.4337
  167TMC2    C7 2606   2.053   4.654  13.141 -0.6382  0.4196 -0.2180
  167TMC2    C8 2607   1.692   0.154  13.002  0.1793  0.0401 -0.2030
  167TMC2    O1 2608   2.000   4.573  13.209 -0.1184 -0.4326  0.0303
  167TMC2    O2 2609   1.654   0.228  12.915 -0.1965  0.2283  0.4529
  167TMC2    O5 2610   1.607   0.074  13.080 -0.0052 -0.0411  0.2550
  167TMC2    H5 2611   1.654   0.032  13.155  0.7697 -0.8833 -0.6901
  168MPD2     C 2612   2.255   0.641  13.013 -0.4575  0.0385  0.3768
  168MPD2    C1 2613   2.126   0.614  12.982  0.4053 -0.3242 -0.2850
  168MPD2    C2 2614   2.053   0.715  12.923 -0.4121 -0.4429 -0.0587
  168MPD2    C3 2615   2.101   0.843  12.904 -0.0178 -0.6693  0.1325
  168MPD2    C4 2616   2.230   0.867  12.944  0.0958 -0.0032  0.3577
  168MPD2    C5 2617   2.303   0.766  12.998 -0.1663  0.1454  0.0162
  168MPD2     H 2618   1.954   0.697  12.883 -0.7066  2.0058 -0.4016
  168MPD2    H1 2619   2.276   0.962  12.919  3.1517 -1.4644  0.4148
  168MPD2    H2 2620   2.325   0.564  13.046  0.2414 -0.0278 -1.2662
  168MPD2    H3 2621   2.408   0.777  13.022  0.9819 -1.9769 -4.0165
  168MPD2     N 2622   2.029   0.946  12.838 -0.1610  1.0601  0.0621
  168MPD2    H5 2623   2.084   1.016  12.789  0.1276 -0.4939 -1.8764
  168MPD2    N1 2624   2.056   0.492  12.995  0.3966  0.0587  0.2671
  168MPD2    H7 2625   1.957   0.488  12.972 -0.0764  0.8485  2.1549
  169MPD1     C 2626   4.438   0.358  10.436 -0.9250  0.1692 -0.3360
  169MPD1    C1 2627   4.555   0.292  10.462  1.2918 -0.6616  0.0249
  169MPD1    C2 2628   4.581   0.174  10.394 -0.1217  0.8620  0.1437
  169MPD1    C3 2629   4.490   0.119  10.302  0.4263 -0.3219  0.0636
  169MPD1    C4 2630   4.378   0.191  10.274 -0.7597  0.4436  0.2315
  169MPD1    C5 2631   4.352   0.306  10.342  0.4490 -0.0357  0.0073
  169MPD1     H 2632   4.674   0.124  10.419  0.0742  2.1908  2.1209
  169MPD1    H1 2633   4.296   0.151  10.215  0.7626 -0.2834 -1.3831
  169MPD1    H2 2634   4.411   0.445  10.495 -2.6486 -1.4752  1.2611
  169MPD1    H3 2635   4.252   0.347  10.335  0.3844 -0.0025  1.0286
  169MPD1     N 2636   4.529   0.002  10.234 -0.5341  0.4439  0.1029
  169MPD1    H5 2637   4.608   4.693  10.273 -0.7661 -0.1788 -0.2121
  169MPD1    N1 2638   4.630   0.335  10.567  0.0274  0.4672  0.0606
  169MPD1    H6 2639   4.729   0.314  10.562 -0.0108 -0.2595  2.1589
  169MPD1    H7 2640   4.628   0.436  10.580 -1.7857  0.4967 -0.4123
  170MPD1     C 2641   3.575   1.761  12.844  0.0718  0.7241  0.1724
  170MPD1    C1 2642   3.601   1.891  12.880 -0.1866  0.4619 -0.3035
  170MPD1    C2 2643   3.580   1.934  13.012  0.0997 -0.4954 -1.2719
  170MPD1    C3 2644   3.537   1.845  13.104  0.4090 -0.0519  0.1535
  170MPD1    C4 2645   3.506   1.721  13.067 -0.1287 -0.0341  0.4672
  170MPD1    C5 2646   3.518   1.680  12.933 -0.4138 -0.5233 -0.2704
  170MPD1     H 2647   3.593   2.036  13.045  0.8028 -0.9756 -0.0598
  170MPD1    H1 2648   3.460   1.654  13.139  0.7863 -1.2583 -0.0774
  170MPD1    H2 2649   3.595   1.711  12.751 -0.4454  1.8043 -0.5208
  170MPD1    H3 2650   3.481   1.583  12.902 -0.1979 -0.6566 -0.1109
  170MPD1     N 2651   3.519   1.885  13.237 -0.0089  0.1549 -0.0270
  170MPD1    H5 2652   3.514   1.986  13.247  0.5278  0.0287  1.4241
  170MPD1    N1 2653   3.665   1.979  12.787 -0.1928  0.4732  0.1030
  170MPD1    H6 2654   3.620   1.963  12.697 -0.3748 -0.5200  0.3665
  170MPD1    H7 2655   3.666   2.076  12.817  0.5641  0.4490  0.1668
  171MPD1     C 2656   2.091   2.895  15.650 -0.1045  0.6391 -0.0368
  171MPD1    C1 2657   2.083   2.863  15.789  0.0668 -0.3548 -0.1012
  171MPD1    C2 2658   2.184   2.785  15.833  0.4066 -0.2637 -1.3315
  171MPD1    C3 2659   2.291   2.747  15.750 -0.0672  0.4520  0.0507
  171MPD1    C4 2660   2.282   2.770  15.617 -0.3964 -0.4215 -1.0454
  171MPD1    C5 2661   2.187   2.851  15.566  0.8705 -0.0328 -0.7974
  171MPD1     H 2662   2.188   2.758  15.938 -1.3855  1.0506 -0.9190
  171MPD1    H1 2663   2.361   2.730  15.553  0.6476  0.9280 -0.6013
  171MPD1    H2 2664   2.019   2.964  15.608  0.5209  0.8789 -0.7153
  171MPD1    H3 2665   2.192   2.878  15.461  1.7518 -1.4011 -1.1076
  171MPD1     N 2666   2.399   2.678  15.795  0.0452 -0.1779 -0.1224
  171MPD1    H5 2667   2.453   2.632  15.721  2.4339  1.5211  0.5768
  171MPD1    N1 2668   1.965   2.882  15.863 -0.1124 -0.8318  0.5592
  171MPD1    H6 2669   1.974   2.879  15.964  2.3571 -0.9531  0.3222
  171MPD1    H7 2670   1.910   2.962  15.832 -0.1973 -0.3236  2.0274
  172MPD1     C 2671   1.558   1.828  17.130 -1.0626 -0.3640 -0.0869
  172MPD1    C1 2672   1.632   1.733  17.199 -0.0524 -0.1896 -0.5524
  172MPD1    C2 2673   1.611   1.729  17.334 -0.2253 -0.8813  0.1111
  172MPD1    C3 2674   1.504   1.799  17.392 -0.3599  0.3096 -0.6843
  172MPD1    C4 2675   1.422   1.879  17.322 -0.4339 -0.0139 -0.1773
  172MPD1    C5 2676   1.449   1.890  17.189  0.2250 -0.6023 -0.2665
  172MPD1     H 2677   1.685   1.667  17.382  1.9804 -0.1954 -2.4401
  172MPD1    H1 2678   1.350   1.945  17.368 -0.4401  1.3425 -2.1438
  172MPD1    H2 2679   1.586   1.842  17.026 -3.1014 -1.5683 -0.8068
  172MPD1    H3 2680   1.400   1.966  17.129 -0.6968 -2.6098 -2.0803
  172MPD1     N 2681   1.487   1.792  17.534  0.6238 -0.3439 -0.1619
  172MPD1    H5 2682   1.410   1.851  17.564 -0.1204 -0.9766 -0.8321
  172MPD1    N1 2683   1.735   1.675  17.129  0.3997 -0.4260 -0.3551
  172MPD1    H6 2684   1.699   1.650  17.037 -1.2902  2.4944 -0.4863
  172MPD1    H7 2685   1.783   1.599  17.176 -0.2752  0.1150  1.1792
  173MPD1     C 2686   2.970   2.762  13.583 -0.0824  0.3876 -0.4659
  173MPD1    C1 2687   3.060   2.748  13.686  0.0829 -0.0644 -0.1732
  173MPD1    C2 2688   3.031   2.659  13.787 -0.5560  0.4153  0.8830
  173MPD1    C3 2689   2.922   2.574  13.790 -0.9512 -0.3843 -0.1642
  173MPD1    C4 2690   2.852   2.564  13.668  0.2926 -0.2523 -0.4799
  173MPD1    C5 2691   2.873   2.664  13.574  0.4819 -0.4781 -0.1418
  173MPD1     H 2692   3.099   2.653  13.872 -0.9405  0.5940  1.2061
  173MPD1    H1 2693   2.767   2.499  13.651 -1.9550  2.2580  1.1923
  173MPD1    H2 2694   2.981   2.833  13.502 -2.7566 -1.0189 -2.0364
  173MPD1    H3 2695   2.796   2.668  13.496  1.0048  0.8021 -0.6047
  173MPD1     N 2696   2.889   2.490  13.898  0.3206  0.0997 -0.2540
  173MPD1    H5 2697   2.945   2.498  13.982  2.0753  2.1035 -1.6202
  173MPD1    N1 2698   3.171   2.833  13.680  0.4031  0.5934 -0.4566
  173MPD1    H6 2699   3.125   2.922  13.661  2.0683  1.2942 -1.1400
  173MPD1    H7 2700   3.198   2.833  13.778 -0.8903  1.9380 -0.1059
  174MPD1     C 2701   3.428   1.979  14.395 -0.1070  0.4534  0.0429
  174MPD1    C1 2702   3.332   2.026  14.489 -0.8568  0.3762  0.4059
  174MPD1    C2 2703   3.222   2.100  14.437  0.6669 -0.0934 -0.3205
  174MPD1    C3 2704   3.204   2.107  14.295  0.1099 -0.6048 -0.1185
  174MPD1    C4 2705   3.305   2.064  14.212  0.1986 -0.0131  0.0897
  174MPD1    C5 2706   3.413   1.991  14.264 -0.3942  0.2567 -0.0506
  174MPD1     H 2707   3.154   2.155  14.501 -1.0398  0.3559 -2.5246
  174MPD1    H1 2708   3.306   2.072  14.104 -3.7385 -0.6525  0.0092
  174MPD1    H2 2709   3.521   1.934  14.429  0.1166  1.1235  0.3028
  174MPD1    H3 2710   3.499   1.966  14.203 -0.5953 -0.4253 -0.0552
  174MPD1     N 2711   3.082   2.153  14.238 -0.3487  0.0880 -0.5482
  174MPD1    H5 2712   3.078   2.166  14.137  0.6613  0.3674 -0.5487
  174MPD1    N1 2713   3.370   2.025  14.628 -0.0886  0.4300 -0.4869
  174MPD1    H6 2714   3.289   2.018  14.689  1.1384  0.7835  1.1808
  174MPD1    H7 2715   3.429   1.944  14.647  0.1269  0.2468 -1.9466
  175MPD1     C 2716   1.210   2.971  15.735 -0.2755  0.0242  0.2313
  175MPD1    C1 2717   1.078   2.965  15.778  0.3519  0.0528 -0.8539
  175MPD1    C2 2718   1.054   2.904  15.902 -0.3431 -0.5612 -0.2458
  175MPD1    C3 2719   1.147   2.839  15.973 -0.1316  1.2352  1.7456
  175MPD1    C4 2720   1.278   2.839  15.925 -0.6317  0.3830 -0.6070
  175MPD1    C5 2721   1.305   2.904  15.803  1.1320  0.7664 -0.5864
  175MPD1     H 2722   0.951   2.906  15.936 -0.4388 -1.8272 -0.4822
  175MPD1    H1 2723   1.358   2.790  15.979 -0.8797 -0.8321 -1.3545
  175MPD1    H2 2724   1.237   3.027  15.646 -0.1283  0.5290  0.5935
  175MPD1    H3 2725   1.402   2.890  15.755  2.0592 -0.7945  1.7631
  175MPD1     N 2726   1.118   2.771  16.095 -0.8513  0.0581  0.3645
  175MPD1    H5 2727   1.198   2.736  16.146  0.2950 -0.4212 -1.7270
  175MPD1    N1 2728   0.984   3.054  15.723  0.4885  0.0277  0.3029
  175MPD1    H6 2729   0.980   3.059  15.621  0.1928 -0.1192  0.3093
  175MPD1    H7 2730   0.888   3.045  15.755  0.2688  0.3691 -0.2553
  176MPD1     C 2731   2.600   4.457   0.088 -0.0125  0.4779  0.3614
  176MPD1    C1 2732   2.631   4.565   0.163  0.6313  0.5901 -0.8855
  176MPD1    C2 2733   2.694   4.671   0.102  0.7192  0.4274  0.1822
  176MPD1    C3 2734   2.748   4.665  17.738  0.3360 -0.2576 -0.1174
  176MPD1    C4 2735   2.741   4.543  17.670  0.6629  0.4000  0.1414
  176MPD1    C5 2736   2.671   4.442  17.729  0.2378  0.2283 -0.3337
  176MPD1     H 2737   2.700   0.025   0.155  3.4159 -0.2680  1.0850
  176MPD1    H1 2738   2.764   4.543  17.564  0.2134 -0.4954  0.0483
  176MPD1    H2 2739   2.540   4.375   0.126  0.4351  0.3636  0.8367
  176MPD1    H3 2740   2.657   4.344  17.686  0.6299  0.2066 -0.4076
  176MPD1     N 2741   2.801   0.043  17.683  0.2803 -0.0006  0.6563
  176MPD1    H5 2742   2.807   0.120  17.749  1.3406  0.2182  0.2981
  176MPD1    N1 2743   2.565   4.580   0.276  0.0320 -0.1026 -0.2064
  176MPD1    H6 2744   2.578   4.491   0.324  0.1744  0.2502  0.4148
  176MPD1    H7 2745   2.616   4.649   0.331 -0.6586 -0.6597  1.1410
  177MPD1     C 2746   1.339   0.611  10.579 -0.4327  0.5355  0.5557
  177MPD1    C1 2747   1.343   0.730  10.506  0.4274  0.4950 -0.8644
  177MPD1    C2 2748   1.283   0.739  10.377  0.4566  0.4537 -0.4194
  177MPD1    C3 2749   1.210   0.633  10.330  0.6818  0.2551 -0.4841
  177MPD1    C4 2750   1.192   0.523  10.414 -0.3567  0.3869 -0.5964
  177MPD1    C5 2751   1.260   0.508  10.533  0.6308  0.0329  0.2618
  177MPD1     H 2752   1.276   0.834  10.325  0.8660 -0.9058 -2.9389
  177MPD1    H1 2753   1.136   0.439  10.375  0.7006 -0.2570 -0.7228
  177MPD1    H2 2754   1.388   0.613  10.676  0.5541 -0.7397  0.0844
  177MPD1    H3 2755   1.231   0.421  10.591 -1.1048  0.4253 -0.0035
  177MPD1     N 2756   1.146   0.641  10.201  0.3861  0.6132 -0.0527
  177MPD1    H5 2757   1.168   0.724  10.147  2.1044 -0.0892 -0.4318
  177MPD1    N1 2758   1.418   0.835  10.555  0.9663  0.1196  0.0859
  177MPD1    H6 2759   1.375   0.926  10.538 -2.1526 -1.4572 -0.5515
  177MPD1    H7 2760   1.441   0.829  10.654 -2.5505 -1.8122  0.7981
  178MPD1     C 2761   3.412   1.608  17.422 -0.2269 -0.4623  0.9217
  178MPD1    C1 2762   3.524   1.573  17.493 -0.4391  0.9908 -0.5379
  178MPD1    C2 2763   3.570   1.444  17.490 -0.0085 -0.1919  0.0864
  178MPD1    C3 2764   3.495   1.349  17.418  0.4895  0.2000  0.2696
  178MPD1    C4 2765   3.377   1.382  17.354 -0.5501 -0.2738 -0.1303
  178MPD1    C5 2766   3.348   1.514  17.350 -0.2792 -0.6656 -0.0156
  178MPD1     H 2767   3.664   1.418  17.536 -0.1966  1.4518  1.3563
  178MPD1    H1 2768   3.316   1.318  17.291 -0.8271  2.2091 -2.3885
  178MPD1    H2 2769   3.393   1.714  17.415  0.0296 -0.4632  0.2008
  178MPD1    H3 2770   3.261   1.541  17.291  0.0525 -0.7344 -0.5351
  178MPD1     N 2771   3.528   1.212  17.417 -0.7875 -0.4371 -0.2118
  178MPD1    H5 2772   3.460   1.150  17.373 -0.6070  0.2100 -1.4113
  178MPD1    N1 2773   3.589   1.667  17.562 -0.3682 -0.0746  0.4808
  178MPD1    H6 2774   3.621   1.745  17.504 -1.8065  0.1670  0.0284
  178MPD1    H7 2775   3.659   1.643  17.632  3.3983  0.8220 -2.9276
  179MPD1     C 2776   2.379   4.173  16.633  0.1865  0.6446  0.7840
  179MPD1    C1 2777   2.487   4.188  16.713 -0.7858  0.0765 -0.2870
  179MPD1    C2 2778   2.591   4.101  16.690  0.4000 -0.5225 -0.4813
  179MPD1    C3 2779   2.583   4.005  16.590 -0.1445  0.0236 -0.2722
  179MPD1    C4 2780   2.468   3.991  16.521 -0.3890 -1.1439 -0.4003
  179MPD1    C5 2781   2.367   4.077  16.538  0.2629  0.1280  0.0052
  179MPD1     H 2782   2.684   4.128  16.738 -0.4303  0.7851  0.3795
  179MPD1    H1 2783   2.450   3.908  16.454 -2.3846 -0.7988 -0.2897
  179MPD1    H2 2784   2.297   4.243  16.642  0.6302  0.9030  2.8668
  179MPD1    H3 2785   2.281   4.080  16.473  0.3038  0.0054 -0.0543
  179MPD1     N 2786   2.690   3.920  16.549 -0.5118 -0.2422  0.9648
  179MPD1    H5 2787   2.668   3.846  16.483  1.0538  0.6981 -0.6070
  179MPD1    N1 2788   2.515   4.305  16.784 -0.7010 -0.1087 -0.1565
  179MPD1    H6 2789   2.430   4.340  16.829 -1.1663  0.2616 -1.3104
  179MPD1    H7 2790   2.578   4.284  16.861 -0.0207 -0.8301 -0.9180
  180MPD1     C 2791   3.441   0.545  15.130 -0.1412  0.0469 -0.2601
  180MPD1    C1 2792   3.300   0.532  15.146 -0.5362 -0.1488 -0.0831
  180MPD1    C2 2793   3.224   0.611  15.069 -0.2382 -0.7006  0.5754
  180MPD1    C3 2794   3.282   0.695  14.972  0.0139 -0.0535  0.2644
  180MPD1    C4 2795   3.418   0.708  14.965  0.0822  1.0215  0.8005
  180MPD1    C5 2796   3.500   0.633  15.046  0.3517  0.5592 -0.0540
  180MPD1     H 2797   3.116   0.610  15.080 -0.5257  0.4073 -2.0141
  180MPD1    H1 2798   3.468   0.777  14.897 -1.2027 -1.3890 -2.5665
  180MPD1    H2 2799   3.511   0.493  15.195 -1.3498  0.1398  1.1056
  180MPD1    H3 2800   3.608   0.643  15.053  0.3846  0.7392 -0.9173
  180MPD1     N 2801   3.198   0.766  14.885  0.1200 -0.4359  0.1790
  180MPD1    H5 2802   3.099   0.747  14.900  0.2132 -1.2133 -0.1871
  180MPD1    N1 2803   3.244   0.457  15.244 -0.2240  0.0074  0.3291
  180MPD1    H6 2804   3.149   0.424  15.225  0.0168  1.1398 -2.8573
  180MPD1    H7 2805   3.286   0.368  15.270  1.1265  0.7637  0.7377
  181MPD1     C 2806   4.178   3.512   9.922  0.2068  0.0705  0.0313
  181MPD1    C1 2807   4.193   3.384   9.884 -0.3426  0.2661  0.0975
  181MPD1    C2 2808   4.285   3.300   9.933  0.2848  0.1355 -0.2378
  181MPD1    C3 2809   4.380   3.352  10.027 -0.0430  0.5950  0.0083
  181MPD1    C4 2810   4.363   3.484  10.069  0.2115 -0.2375 -0.1242
  181MPD1    C5 2811   4.264   3.568  10.016  0.3460 -0.0570 -0.1572
  181MPD1     H 2812   4.287   3.195   9.905  0.5591  0.2057 -0.4765
  181MPD1    H1 2813   4.423   3.525  10.150  2.3302 -0.2847 -1.6871
  181MPD1    H2 2814   4.095   3.574   9.891  0.9307  1.4069  0.7889
  181MPD1    H3 2815   4.260   3.668  10.057 -0.0150  0.3797 -1.2693
  181MPD1     N 2816   4.483   3.271  10.084  0.4276  0.4806  0.5163
  181MPD1    H5 2817   4.538   3.317  10.156  0.8745  1.1432 -0.2580
  181MPD1    N1 2818   4.092   3.333   9.799  0.4437  0.1797 -0.3927
  181MPD1    H6 2819   4.034   3.400   9.748 -0.9488  0.5738  1.7066
  181MPD1    H7 2820   4.119   3.277   9.719  1.7077 -0.7136  0.6729
  182MPD1     C 2821   1.574   0.792   1.336 -0.2182  0.3708  0.4744
  182MPD1    C1 2822   1.609   0.925   1.346 -0.2752  0.1240  0.0602
  182MPD1    C2 2823   1.521   1.030   1.322  0.8054  0.3748 -0.3603
  182MPD1    C3 2824   1.395   0.996   1.275 -0.2883  0.1419  0.0661
  182MPD1    C4 2825   1.359   0.864   1.254  0.5608  0.6064 -0.1061
  182MPD1    C5 2826   1.447   0.762   1.289  0.7425  0.3403 -0.4491
  182MPD1     H 2827   1.544   1.134   1.339 -1.0729  0.9388 -1.3345
  182MPD1    H1 2828   1.260   0.828   1.228  0.1160 -1.4374  4.3281
  182MPD1    H2 2829   1.633   0.701   1.345  1.4055  1.4792  1.2252
  182MPD1    H3 2830   1.414   0.659   1.291  1.9041 -0.0093  0.7789
  182MPD1     N 2831   1.281   1.087   1.266 -0.0244  0.1361  0.0626
  182MPD1    H5 2832   1.198   1.042   1.230  0.7173 -0.9393 -0.3053
  182MPD1    N1 2833   1.749   0.947   1.363 -0.0924 -0.3577  0.7623
  182MPD1    H6 2834   1.768   1.040   1.398  1.3489 -0.1007 -0.7677
  182MPD1    H7 2835   1.798   0.882   1.424 -1.2382 -2.5136 -0.5827
  183MPD1     C 2836   0.471   2.578   8.839 -0.0717  0.4530 -0.3386
  183MPD1    C1 2837   0.411   2.698   8.885 -0.0369  0.3368 -0.5631
  183MPD1    C2 2838   0.425   2.737   9.018  0.0851 -0.2507 -0.4618
  183MPD1    C3 2839   0.447   2.643   9.116 -0.4082  0.1769  0.1053
  183MPD1    C4 2840   0.489   2.518   9.071 -0.3277 -0.1901  0.1429
  183MPD1    C5 2841   0.514   2.490   8.942 -0.2384  0.1438 -0.2783
  183MPD1     H 2842   0.410   2.840   9.048  1.6886 -0.4463  1.0094
  183MPD1    H1 2843   0.532   2.441   9.134  0.3498 -0.0599 -0.1520
  183MPD1    H2 2844   0.485   2.556   8.734 -0.9747 -0.9805 -0.1521
  183MPD1    H3 2845   0.549   2.395   8.904 -0.8507 -0.2742  0.2109
  183MPD1     N 2846   0.437   2.683   9.252  0.0561  0.1717  0.3644
  183MPD1    H5 2847   0.427   2.784   9.252 -2.0442 -0.0362 -0.4516
  183MPD1    N1 2848   0.379   2.793   8.785  1.2246 -0.2594  0.0826
  183MPD1    H6 2849   0.309   2.861   8.814  2.5289  0.3073  1.8828
  183MPD1    H7 2850   0.347   2.746   8.701  2.0785  1.0196 -0.9577
  184MPD1     C 2851   0.686   4.675   9.080  0.4047 -0.0137  0.0251
  184MPD1    C1 2852   0.738   4.738   9.189 -0.2712  0.0904  0.0665
  184MPD1    C2 2853   0.660   0.075   9.270 -0.5047 -0.1094  0.8310
  184MPD1    C3 2854   0.516   0.067   9.242 -0.1018 -0.3279  0.4165
  184MPD1    C4 2855   0.472   4.727   9.139 -0.0263  0.4350  0.5984
  184MPD1    C5 2856   0.556   4.672   9.053  0.3936 -0.0273  0.3020
  184MPD1     H 2857   0.705   0.136   9.348 -1.4045 -0.7786  1.8823
  184MPD1    H1 2858   0.367   4.730   9.110 -0.3171  0.1692  1.6033
  184MPD1    H2 2859   0.748   4.609   9.020 -0.3590  1.1621 -2.0770
  184MPD1    H3 2860   0.509   4.615   8.973 -3.0956 -1.0757  3.0771
  184MPD1     N 2861   0.424   0.150   9.308  0.1407 -0.1870 -0.6241
  184MPD1    H5 2862   0.328   0.127   9.282 -0.1822 -2.5003  2.5468
  184MPD1    N1 2863   0.879   0.011   9.196  0.1723  0.1181  0.2496
  184MPD1    H6 2864   0.932   4.667   9.174 -0.1365  0.2700 -1.0753
  184MPD1    H7 2865   0.916   0.048   9.283  2.1733  0.2190 -0.6502
  185MPD1     C 2866   4.191   0.318   9.498 -0.8504  0.3001  0.1820
  185MPD1    C1 2867   4.268   0.207   9.491  0.6564 -0.4597 -0.3948
  185MPD1    C2 2868   4.404   0.223   9.483 -0.2951  0.0490  0.2181
  185MPD1    C3 2869   4.464   0.347   9.489  0.6186 -0.3129  0.2493
  185MPD1    C4 2870   4.384   0.463   9.515 -0.8734  0.1353 -0.4498
  185MPD1    C5 2871   4.251   0.440   9.519  0.1862 -0.7666  0.6068
  185MPD1     H 2872   4.476   0.142   9.480  1.7699  1.8309  1.3649
  185MPD1    H1 2873   4.427   0.562   9.519  1.9218 -1.1215  0.1829
  185MPD1    H2 2874   4.084   0.312   9.513 -0.7104  1.4275  1.6490
  185MPD1    H3 2875   4.184   0.522   9.545  1.0820  0.6600 -1.6260
  185MPD1     N 2876   4.610   0.365   9.489 -0.3643 -0.2214 -0.3523
  185MPD1    H5 2877   4.642   0.461   9.486  0.3454 -0.4440  0.0272
  185MPD1    N1 2878   4.212   0.082   9.454 -0.2416  0.7133  0.3507
  185MPD1    H6 2879   4.122   0.068   9.500  0.5276 -0.3360  1.5364
  185MPD1    H7 2880   4.275   0.007   9.482 -0.5738 -0.0332 -0.9288
  186MPD1     C 2881   3.674   3.776  15.832  0.3200 -0.1267  0.3963
  186MPD1    C1 2882   3.623   3.719  15.954  0.0761  0.2067 -0.0470
  186MPD1    C2 2883   3.636   3.795  16.073 -0.2284 -0.7548 -0.2799
  186MPD1    C3 2884   3.700   3.917  16.075  0.0853 -0.6314  0.2096
  186MPD1    C4 2885   3.757   3.965  15.960  0.3809  0.4788 -0.6085
  186MPD1    C5 2886   3.744   3.888  15.841  0.4953  0.1459  0.1352
  186MPD1     H 2887   3.584   3.767  16.163 -0.3437 -0.0843 -0.1385
  186MPD1    H1 2888   3.794   4.067  15.959  0.5105  0.4343  0.4642
  186MPD1    H2 2889   3.653   3.738  15.733  0.4440  1.0096 -0.0652
  186MPD1    H3 2890   3.790   3.925  15.750  1.5755 -0.1801  0.5491
  186MPD1     N 2891   3.712   3.999  16.188 -0.3544  0.2769 -0.0089
  186MPD1    H5 2892   3.748   4.092  16.170 -1.0579  0.5927  0.1884
  186MPD1    N1 2893   3.538   3.611  15.938 -0.1465  1.2196  0.3086
  186MPD1    H6 2894   3.568   3.561  15.854  1.9619  0.5481  1.4779
  186MPD1    H7 2895   3.535   3.549  16.019 -2.0302 -0.4131 -0.9837
  187MPD1     C 2896   2.671   1.249   0.264  0.6283  0.2629  0.2943
  187MPD1    C1 2897   2.797   1.213   0.208 -0.4118  0.1277 -0.0625
  187MPD1    C2 2898   2.809   1.204   0.066  0.5928  0.2256 -0.2383
  187MPD1    C3 2899   2.698   1.211  17.742 -0.5377 -0.2981 -0.0090
  187MPD1    C4 2900   2.577   1.210   0.045 -0.5553 -0.0487  0.4406
  187MPD1    C5 2901   2.568   1.232   0.182  0.3249  0.7017 -0.1165
  187MPD1     H 2902   2.909   1.188   0.027  0.1664  1.6580 -1.9098
  187MPD1    H1 2903   2.486   1.219  17.745 -0.1365  0.3310 -0.1472
  187MPD1    H2 2904   2.655   1.278   0.367  1.2827 -1.5674  0.9054
  187MPD1    H3 2905   2.471   1.241   0.230 -1.2809 -1.5722 -2.8841
  187MPD1     N 2906   2.702   1.206  17.605  0.4070  0.0300 -0.0459
  187MPD1    H5 2907   2.611   1.204  17.559  0.5948  1.9816 -0.4849
  187MPD1    N1 2908   2.907   1.211   0.296 -0.4618  0.3621  0.0466
  187MPD1    H6 2909   2.880   1.156   0.377  2.1410 -0.0994  0.5880
  187MPD1    H7 2910   2.984   1.160   0.253 -0.3034  0.2502  0.4695
  188MPD1     C 2911   2.499   1.804  10.341 -0.3696  0.0183  0.8666
  188MPD1    C1 2912   2.436   1.756  10.223  0.0269  0.2203 -0.3698
  188MPD1    C2 2913   2.389   1.632  10.235 -0.6320 -0.0073  0.0845
  188MPD1    C3 2914   2.402   1.552  10.339 -0.2117  0.3411  0.1644
  188MPD1    C4 2915   2.478   1.596  10.449 -0.3734 -0.2542  0.2105
  188MPD1    C5 2916   2.535   1.721  10.448  0.3121 -0.5089  0.1404
  188MPD1     H 2917   2.347   1.591  10.144 -1.1658 -0.0564  0.3544
  188MPD1    H1 2918   2.496   1.542  10.541  1.8421 -0.1279 -0.1353
  188MPD1    H2 2919   2.552   1.898  10.343  0.1231 -0.1942 -1.9546
  188MPD1    H3 2920   2.580   1.773  10.531  0.7368  0.1108 -0.4777
  188MPD1     N 2921   2.339   1.427  10.351 -0.5732  0.1576  0.3035
  188MPD1    H5 2922   2.358   1.378  10.438  1.7912 -0.8127 -0.7604
  188MPD1    N1 2923   2.437   1.825  10.099  0.0405  0.8127 -0.4523
  188MPD1    H6 2924   2.367   1.792  10.032 -0.1760  0.7289 -0.1900
  188MPD1    H7 2925   2.421   1.924  10.117  0.4622  0.7453  0.3109
  189MPD1     C 2926   0.165   2.395   0.756 -0.2825  0.3695  0.0149
  189MPD1    C1 2927   0.118   2.510   0.805  0.3846 -0.6456  0.0303
  189MPD1    C2 2928   4.740   2.555   0.746 -0.1180  0.4288 -0.3293
  189MPD1    C3 2929   4.676   2.489   0.642  0.1919 -0.2580 -1.0250
  189MPD1    C4 2930   4.725   2.366   0.595 -0.0615 -0.7469  0.2015
  189MPD1    C5 2931   0.104   2.329   0.645 -0.3277 -0.1153  0.4066
  189MPD1     H 2932   4.695   2.642   0.791  1.4738  1.9611 -1.7123
  189MPD1    H1 2933   4.673   2.298   0.527 -0.4153 -0.3268  0.0511
  189MPD1    H2 2934   0.252   2.353   0.805 -0.8041 -0.7102  0.0049
  189MPD1    H3 2935   0.143   2.230   0.623 -0.2770  0.0756 -0.3855
  189MPD1     N 2936   4.557   2.549   0.592  0.0472  0.1467 -0.5626
  189MPD1    H5 2937   4.534   2.644   0.621  0.1938 -0.6046  2.0586
  189MPD1    N1 2938   0.172   2.579   0.914 -0.3104  0.2908 -0.8739
  189MPD1    H6 2939   0.266   2.611   0.891 -0.0526  0.7273  0.8198
  189MPD1    H7 2940   0.127   2.665   0.945  1.3659  0.6167  0.6829
  190MPD1     C 2941   2.923   0.866  15.927 -0.1641 -0.2665 -0.0661
  190MPD1    C1 2942   2.985   0.848  16.054  0.8095  0.5066 -0.3099
  190MPD1    C2 2943   3.107   0.780  16.054  0.0345 -0.1297  0.2610
  190MPD1    C3 2944   3.184   0.763  15.941 -0.3962  0.3328 -1.1379
  190MPD1    C4 2945   3.132   0.796  15.820  0.6947  0.4157 -0.2500
  190MPD1    C5 2946   3.004   0.848  15.815 -0.5747  0.0233 -0.4186
  190MPD1     H 2947   3.151   0.747  16.148  0.5817  0.8845  0.3705
  190MPD1    H1 2948   3.177   0.780  15.723 -1.7057 -2.3898 -0.8836
  190MPD1    H2 2949   2.824   0.910  15.924 -0.3421 -0.6425  0.3099
  190MPD1    H3 2950   2.963   0.871  15.717  1.9466 -0.0513 -1.4982
  190MPD1     N 2951   3.316   0.719  15.956 -0.2625  0.0866 -0.8538
  190MPD1    H5 2952   3.340   0.691  16.051  0.5472  1.7035 -0.5800
  190MPD1    N1 2953   2.903   0.863  16.170 -0.1787  0.0010 -0.0956
  190MPD1    H6 2954   2.952   0.895  16.253 -2.3026  0.7382  0.8631
  190MPD1    H7 2955   2.833   0.933  16.148 -0.4483  0.4265  2.1698
  191MPD1     C 2956   2.143   2.120  13.125  0.8625 -0.1855 -0.4421
  191MPD1    C1 2957   2.023   2.183  13.108 -0.6044  0.1188  0.0302
  191MPD1    C2 2958   2.022   2.311  13.056  0.1004 -0.2540 -0.0163
  191MPD1    C3 2959   2.145   2.373  13.014  0.3591  0.4481  0.8218
  191MPD1    C4 2960   2.266   2.300  13.023 -0.0951  0.6201 -0.5316
  191MPD1    C5 2961   2.261   2.171  13.084 -0.2046 -0.6000  0.2923
  191MPD1     H 2962   1.929   2.366  13.060  1.8709  2.6832  1.5502
  191MPD1    H1 2963   2.361   2.334  12.984 -0.4292  1.1564 -0.8767
  191MPD1    H2 2964   2.151   2.025  13.176  0.6565 -0.4506 -0.8962
  191MPD1    H3 2965   2.355   2.120  13.103  0.6834  2.0736  3.0839
  191MPD1     N 2966   2.132   2.501  12.953 -0.0538 -0.6595 -0.8467
  191MPD1    H5 2967   2.041   2.545  12.951  1.1980  1.9581  0.0440
  191MPD1    N1 2968   1.907   2.131  13.168 -0.4626 -0.1947  0.1280
  191MPD1    H6 2969   1.911   2.031  13.186 -0.4356 -0.1168  0.5539
  191MPD1    H7 2970   1.820   2.158  13.124 -0.6812 -0.0797  0.6277
  192MPD1     C 2971   1.412   2.796  12.692  0.2592  0.6759 -0.0332
  192MPD1    C1 2972   1.480   2.898  12.638  0.2604 -0.4124  0.5600
  192MPD1    C2 2973   1.617   2.919  12.673 -0.6967 -0.9298 -0.3463
  192MPD1    C3 2974   1.682   2.832  12.767 -0.1820  0.9563  0.3358
  192MPD1    C4 2975   1.606   2.729  12.817  0.0794 -0.0551  0.2929
  192MPD1    C5 2976   1.473   2.710  12.778 -0.5675  0.1876  0.1959
  192MPD1     H 2977   1.668   2.995  12.616 -1.1197 -1.4209 -1.3880
  192MPD1    H1 2978   1.661   2.659  12.880 -2.4074 -1.2438  1.1630
  192MPD1    H2 2979   1.308   2.774  12.674  0.7614 -0.7049 -1.2741
  192MPD1    H3 2980   1.423   2.624  12.822  2.2771 -1.5180  0.0664
  192MPD1     N 2981   1.820   2.829  12.798  0.5346 -0.7648  0.1931
  192MPD1    H5 2982   1.848   2.748  12.852 -1.9597 -0.7766  1.4990
  192MPD1    N1 2983   1.415   2.984  12.553 -0.3340  0.3376 -0.1704
  192MPD1    H6 2984   1.483   3.033  12.495 -0.4085 -0.9505 -1.3420
  192MPD1    H7 2985   1.373   3.066  12.597 -0.3176  0.0078  0.4602
  193MPD1     C 2986   2.212   2.144  16.196 -0.2301 -0.2393  0.2337
  193MPD1    C1 2987   2.168   2.272  16.229 -0.6059 -0.1408 -0.1228
  193MPD1    C2 2988   2.216   2.339  16.336  0.0972 -0.0204 -0.5037
  193MPD1    C3 2989   2.304   2.273  16.423 -0.7257 -0.6351  0.1224
  193MPD1    C4 2990   2.342   2.144  16.397 -0.2932  0.5935  0.9071
  193MPD1    C5 2991   2.293   2.079  16.285 -0.8991 -0.3483 -0.5467
  193MPD1     H 2992   2.189   2.442  16.356 -1.5471 -0.3115 -1.1859
  193MPD1    H1 2993   2.412   2.086  16.457  0.5707  0.6203 -0.0677
  193MPD1    H2 2994   2.173   2.094  16.109 -0.4611  1.2685 -0.5342
  193MPD1    H3 2995   2.328   1.983  16.248  2.1029  0.7018 -0.4642
  193MPD1     N 2996   2.365   2.337  16.535 -0.0948  0.1080 -0.0135
  193MPD1    H5 2997   2.407   2.273  16.602 -2.6041  0.1813  1.6378
  193MPD1    N1 2998   2.095   2.343  16.136 -0.0390  0.2762  0.0467
  193MPD1    H6 2999   2.058   2.431  16.170 -1.6208 -0.3168 -0.1302
  193MPD1    H7 3000   2.029   2.292  16.078  0.2757 -1.4622  1.1993
  194MPD1     C 3001   0.600   0.112  16.229  0.3836 -0.2800 -0.2263
  194MPD1    C1 3002   0.724   0.115  16.293 -0.6200  0.0045  0.4153
  194MPD1    C2 3003   0.752   0.022  16.395  0.4402  0.1122  0.4937
  194MPD1    C3 3004   0.653   4.681  16.445 -0.2015 -0.4663 -0.1454
  194MPD1    C4 3005   0.534   4.669  16.373 -0.1533  0.1705 -0.2629
  194MPD1    C5 3006   0.507   0.028  16.282 -0.3493  0.6069 -0.3223
  194MPD1     H 3007   0.851   0.009  16.437 -0.2388  0.1543  2.1210
  194MPD1    H1 3008   0.454   4.607  16.410 -0.1971  0.4019  0.0349
  194MPD1    H2 3009   0.566   0.186  16.158  4.4679  0.8939 -0.9441
  194MPD1    H3 3010   0.405   0.033  16.245 -0.7942 -2.4675  0.5082
  194MPD1     N 3011   0.660   4.579  16.542  0.2083  0.0157 -0.5312
  194MPD1    H5 3012   0.590   4.506  16.548  1.4496 -1.0262  1.4018
  194MPD1    N1 3013   0.827   0.189  16.236 -0.0288 -0.1276  0.0244
  194MPD1    H6 3014   0.904   0.216  16.296  0.5712 -2.4727  0.3078
  194MPD1    H7 3015   0.802   0.256  16.163  0.2773 -0.5779 -0.4986
  195MPD1     C 3016   2.578   1.631   0.706  0.6029  0.0659 -0.2764
  195MPD1    C1 3017   2.447   1.610   0.654 -0.7484  0.2141 -0.0192
  195MPD1    C2 3018   2.409   1.481   0.618  0.2438 -0.1730  0.1652
  195MPD1    C3 3019   2.498   1.378   0.632 -0.2382 -0.2875  0.6188
  195MPD1    C4 3020   2.622   1.399   0.684 -0.2589  0.3239  0.4163
  195MPD1    C5 3021   2.664   1.524   0.714 -0.5479 -0.1287  0.0586
  195MPD1     H 3022   2.308   1.466   0.581 -0.3037 -1.5858  2.2809
  195MPD1    H1 3023   2.693   1.318   0.692  3.3053  3.3746 -0.4824
  195MPD1    H2 3024   2.607   1.730   0.740 -1.0119  0.4905 -0.0994
  195MPD1    H3 3025   2.763   1.549   0.749 -0.3713  1.2575 -1.4071
  195MPD1     N 3026   2.467   1.242   0.587 -0.3148 -0.2853 -0.3394
  195MPD1    H5 3027   2.535   1.171   0.615  0.3052  1.0373  1.5068
  195MPD1    N1 3028   2.356   1.716   0.651  0.2214 -0.0879 -0.3019
  195MPD1    H6 3029   2.278   1.687   0.592  1.9014 -0.3375 -2.4033
  195MPD1    H7 3030   2.392   1.807   0.623  1.6641 -0.7060 -0.4391
  196MPD1     C 3031   0.726   0.546   0.416 -0.8461  0.1279  0.2948
  196MPD1    C1 3032   0.853   0.561   0.368  0.5398 -0.0577  0.8584
  196MPD1    C2 3033   0.964   0.547   0.451  0.2348  0.3348 -0.3814
  196MPD1    C3 3034   0.951   0.539   0.589 -0.0203 -0.0209 -0.2431
  196MPD1    C4 3035   0.821   0.523   0.637 -0.3239  0.3915 -0.0166
  196MPD1    C5 3036   0.711   0.537   0.552 -0.3736 -0.0116 -0.1846
  196MPD1     H 3037   1.060   0.555   0.401  1.7619 -4.0229  1.8586
  196MPD1    H1 3038   0.794   0.529   0.742  1.3502  1.5939  0.3549
  196MPD1    H2 3039   0.641   0.546   0.348 -0.7248 -1.6965  0.1446
  196MPD1    H3 3040   0.616   0.500   0.589 -1.4919  1.1798 -1.8953
  196MPD1     N 3041   1.061   0.532   0.683  0.3279  0.5788 -0.2120
  196MPD1    H5 3042   1.044   0.546   0.782 -0.3499 -0.4614 -0.1828
  196MPD1    N1 3043   0.871   0.566   0.228  0.1120 -0.5228  0.1938
  196MPD1    H6 3044   0.797   0.621   0.186 -0.7828 -0.4014  1.9341
  196MPD1    H7 3045   0.954   0.605   0.183  0.0885 -1.1213 -0.3796
  197MPD1     C 3046   1.229   3.172  17.126 -0.1804  0.0415 -0.3945
  197MPD1    C1 3047   1.124   3.105  17.053 -0.8242 -0.6672 -0.7271
  197MPD1    C2 3048   1.027   3.185  16.982  0.2759  0.2625  0.3557
  197MPD1    C3 3049   1.035   3.326  16.983 -0.2106 -0.3265 -0.6414
  197MPD1    C4 3050   1.125   3.385  17.069 -0.0646 -0.4599  0.3266
  197MPD1    C5 3051   1.222   3.307  17.131  0.4240  0.0424  0.4897
  197MPD1     H 3052   0.942   3.136  16.936  1.1002 -0.1792 -0.7137
  197MPD1    H1 3053   1.139   3.492  17.079 -1.7237 -0.4209  2.1862
  197MPD1    H2 3054   1.316   3.119  17.163  0.0701  0.9345  0.2830
  197MPD1    H3 3055   1.301   3.357  17.186 -0.5625  1.3149  0.7499
  197MPD1     N 3056   0.953   3.410  16.908 -0.3553  0.2022 -0.0928
  197MPD1    H5 3057   0.975   3.509  16.918  0.8299 -0.2878  2.0059
  197MPD1    N1 3058   1.103   2.967  17.066  0.7293 -0.4988  0.8018
  197MPD1    H6 3059   1.069   2.924  16.980  0.2246  0.2322  0.6408
  197MPD1    H7 3060   1.191   2.917  17.079  1.5109  1.3782  2.7206
  198MPD1     C 3061   2.674   1.379  14.879  0.1333  0.5978  0.0546
  198MPD1    C1 3062   2.681   1.335  15.004  0.3454  0.3631 -0.5258
  198MPD1    C2 3063   2.762   1.391  15.097 -0.6053  0.5494 -0.0534
  198MPD1    C3 3064   2.812   1.523  15.070  0.3894  0.2546  0.0614
  198MPD1    C4 3065   2.788   1.580  14.949 -0.1158  0.2037  0.5523
  198MPD1    C5 3066   2.724   1.506  14.848 -0.4727 -0.4584  0.5045
  198MPD1     H 3067   2.782   1.332  15.186 -1.6076 -0.6094 -0.6049
  198MPD1    H1 3068   2.831   1.677  14.928  0.7094 -0.1781  0.4827
  198MPD1    H2 3069   2.639   1.327  14.791  0.2570 -0.7926  0.8237
  198MPD1    H3 3070   2.721   1.532  14.743 -2.7133 -2.0066  0.1907
  198MPD1     N 3071   2.876   1.588  15.180  0.0900  0.0789  0.6773
  198MPD1    H5 3072   2.872   1.545  15.271  1.1696  0.1294  0.7462
  198MPD1    N1 3073   2.645   1.203  15.026  0.0434  0.2734 -0.5314
  198MPD1    H6 3074   2.625   1.189  15.125 -0.6134  1.2681 -0.5156
  198MPD1    H7 3075   2.724   1.146  14.996  0.0742  0.0726 -0.0617
  199MPD1     C 3076   0.467   3.001  10.123  0.0769  0.0109 -0.5316
  199MPD1    C1 3077   0.412   3.118  10.175  0.6243  0.4475  0.1240
  199MPD1    C2 3078   0.316   3.183  10.103  0.0274  0.5712  0.3328
  199MPD1    C3 3079   0.256   3.129   9.995  0.6685  0.1890  0.0654
  199MPD1    C4 3080   0.300   3.006   9.950 -0.1527  0.0466 -0.5467
  199MPD1    C5 3081   0.410   2.951  10.011 -0.7596 -0.0547 -0.3252
  199MPD1     H 3082   0.286   3.280  10.141  0.8124  1.2142 -0.6862
  199MPD1    H1 3083   0.254   2.954   9.866 -0.5742 -2.9026  1.4893
  199MPD1    H2 3084   0.557   2.954  10.162  1.0339  0.4737 -2.1726
  199MPD1    H3 3085   0.458   2.858   9.980  0.0785  0.0852  0.5525
  199MPD1     N 3086   0.146   3.185   9.929 -0.0569  0.7648 -0.1976
  199MPD1    H5 3087   0.109   3.138   9.847 -0.2357 -2.0126  1.4830
  199MPD1    N1 3088   0.470   3.182  10.293 -0.1484 -0.0957 -0.3048
  199MPD1    H6 3089   0.400   3.241  10.338  0.6577  0.8839 -0.3363
  199MPD1    H7 3090   0.529   3.125  10.353  0.5855 -0.2349 -1.1702
  200MPD1     C 3091   3.719   3.229  15.832 -0.1266 -0.3269 -0.5736
  200MPD1    C1 3092   3.588   3.203  15.791 -0.2831  0.0689 -0.1240
  200MPD1    C2 3093   3.576   3.161  15.660  0.4366  0.1045  0.4035
  200MPD1    C3 3094   3.677   3.175  15.572 -0.1412 -0.3091  0.1787
  200MPD1    C4 3095   3.808   3.203  15.610  1.1273 -0.0611  0.4081
  200MPD1    C5 3096   3.821   3.221  15.739 -0.0607  0.2091  0.4770
  200MPD1     H 3097   3.475   3.133  15.631 -0.3094  2.7475  0.4560
  200MPD1    H1 3098   3.890   3.217  15.540  0.1509  1.6119 -0.3936
  200MPD1    H2 3099   3.745   3.266  15.930 -3.6091 -1.3935  0.7771
  200MPD1    H3 3100   3.923   3.237  15.774 -0.5515 -0.0926  2.0455
  200MPD1     N 3101   3.644   3.136  15.437 -1.3082 -0.2694 -0.3167
  200MPD1    H5 3102   3.545   3.124  15.414 -1.1640  2.5030 -2.3814
  200MPD1    N1 3103   3.477   3.183  15.879  0.3365 -0.5942  0.5649
  200MPD1    H6 3104   3.388   3.159  15.834  0.6813 -0.6200 -0.1031
  200MPD1    H7 3105   3.469   3.259  15.946 -0.9506 -2.4291  2.4808
  201MPD1     C 3106   1.253   2.051  13.541 -0.0956  0.0313 -0.8555
  201MPD1    C1 3107   1.210   1.925  13.566 -0.0484  0.4974  0.0585
  201MPD1    C2 3108   1.298   1.818  13.561 -0.5978  0.5818  0.1485
  201MPD1    C3 3109   1.427   1.840  13.538  0.5680  0.6330 -0.7075
  201MPD1    C4 3110   1.472   1.972  13.508  0.3015  0.4592  0.4054
  201MPD1    C5 3111   1.386   2.074  13.516  0.3440 -0.6327 -0.7712
  201MPD1     H 3112   1.264   1.716  13.576 -0.6519  0.6473  0.4687
  201MPD1    H1 3113   1.571   2.003  13.476  1.2369  0.6361  3.4334
  201MPD1    H2 3114   1.185   2.134  13.532  0.2724  0.2903 -1.2378
  201MPD1    H3 3115   1.412   2.177  13.493  3.8874 -1.7088 -1.6089
  201MPD1     N 3116   1.522   1.734  13.549 -0.0432  0.4461 -0.2547
  201MPD1    H5 3117   1.483   1.647  13.584  1.7850 -0.0057  0.6970
  201MPD1    N1 3118   1.075   1.897  13.562 -0.1382  0.0063 -0.1886
  201MPD1    H6 3119   1.059   1.809  13.610  0.5803  1.1939  2.2550
  201MPD1    H7 3120   1.013   1.965  13.606  2.6748  1.2224  1.8956
  202MPD1     C 3121   1.062   1.557   9.087  0.9305  0.6207 -0.5487
  202MPD1    C1 3122   0.969   1.646   9.144 -0.5058  0.2632 -0.9731
  202MPD1    C2 3123   1.018   1.718   9.253  0.5595  0.3410 -0.1580
  202MPD1    C3 3124   1.129   1.667   9.331 -0.2310  0.0533 -0.8186
  202MPD1    C4 3125   1.200   1.559   9.285 -0.0762  0.0915  0.1649
  202MPD1    C5 3126   1.166   1.508   9.160 -0.0623  0.1398 -0.2160
  202MPD1     H 3127   0.948   1.785   9.302  0.3643 -0.8693  1.2253
  202MPD1    H1 3128   1.289   1.521   9.334 -0.6418 -0.7192  0.5681
  202MPD1    H2 3129   1.059   1.519   8.985 -0.4828  1.7058 -0.9180
  202MPD1    H3 3130   1.236   1.443   9.110  1.6385  2.0572 -0.3566
  202MPD1     N 3131   1.167   1.720   9.455  0.5635  0.6466  0.2714
  202MPD1    H5 3132   1.251   1.675   9.491 -0.1315 -0.3703  0.6154
  202MPD1    N1 3133   0.870   1.709   9.067 -0.2438 -0.4214 -0.5604
  202MPD1    H6 3134   0.808   1.759   9.131 -0.7149 -0.1232 -1.2540
  202MPD1    H7 3135   0.821   1.649   9.002  1.8009 -1.6893 -0.9219
  203MPD1     C 3136   4.729   2.712  12.579 -0.5561 -0.1917  0.2670
  203MPD1    C1 3137   0.085   2.645  12.508 -0.1607 -0.2974  0.7124
  203MPD1    C2 3138   0.148   2.541  12.562  0.0544  0.0862 -0.8396
  203MPD1    C3 3139   0.147   2.518  12.694  0.5131  0.1703 -0.3033
  203MPD1    C4 3140   0.074   2.606  12.774  0.1210 -0.7076 -0.0879
  203MPD1    C5 3141   4.728   2.691  12.712 -0.9955  0.1061  0.4058
  203MPD1     H 3142   0.206   2.478  12.497  2.0795  1.1094 -0.0289
  203MPD1    H1 3143   0.081   2.601  12.882 -1.5839  1.9537  0.1574
  203MPD1    H2 3144   4.666   2.786  12.531  1.1521  0.0170 -1.6594
  203MPD1    H3 3145   4.667   2.751  12.778 -2.5669 -1.2548  0.1994
  203MPD1     N 3146   0.220   2.408  12.748  0.4132  0.9049 -0.6836
  203MPD1    H5 3147   0.276   2.352  12.684 -0.1996 -0.2160 -0.2500
  203MPD1    N1 3148   0.096   2.661  12.370  0.1692  0.2276  0.9328
  203MPD1    H6 3149   0.189   2.638  12.335 -0.1469 -1.3506  1.1286
  203MPD1    H7 3150   0.078   2.759  12.349  1.3361 -0.3336 -2.6546
  204MPD1     C 3151   0.043   3.487   0.012  0.4376 -0.4629  0.2969
  204MPD1    C1 3152   0.154   3.500  17.698 -0.5257  0.4793  0.1075
  204MPD1    C2 3153   0.219   3.384  17.659  0.5137  0.6107  0.1214
  204MPD1    C3 3154   0.163   3.259  17.675  0.3645  0.1730  0.5315
  204MPD1    C4 3155   0.041   3.250  17.739  0.4066 -0.5205 -0.4304
  204MPD1    C5 3156   4.717   3.367   0.020  0.1733 -0.6593  0.1975
  204MPD1     H 3157   0.319   3.391  17.616  0.8631  1.4880  1.0633
  204MPD1    H1 3158   4.730   3.157  17.758  0.5249 -0.3893  0.4917
  204MPD1    H2 3159   4.727   3.566   0.060 -0.4754 -0.5254 -0.6747
  204MPD1    H3 3160   4.618   3.362   0.063 -0.0814 -1.0331 -0.4184
  204MPD1     N 3161   0.227   3.150  17.614 -0.2409 -0.0419  0.1242
  204MPD1    H5 3162   0.311   3.163  17.558 -0.4053 -1.3395 -0.4093
  204MPD1    N1 3163   0.222   3.632  17.703  0.0444  0.5690  0.2862
  204MPD1    H6 3164   0.290   3.633  17.627  0.6178 -1.5603  0.7481
  204MPD1    H7 3165   0.169   3.719  17.710  1.2714  1.3679 -0.4640
  205MPD1     C 3166   4.234   2.131  16.709 -0.5451  0.0116 -0.1225
  205MPD1    C1 3167   4.298   2.006  16.697  0.2309  0.5778  0.4190
  205MPD1    C2 3168   4.408   1.981  16.785 -0.1742 -0.1853 -0.9573
  205MPD1    C3 3169   4.440   2.063  16.890 -0.5421 -0.1973 -0.0482
  205MPD1    C4 3170   4.369   2.182  16.896  0.7261 -0.4230 -0.6811
  205MPD1    C5 3171   4.278   2.221  16.800  0.1230  0.1521 -0.7641
  205MPD1     H 3172   4.469   1.893  16.771  0.8478  0.3200  0.4261
  205MPD1    H1 3173   4.391   2.251  16.977  0.0167  0.4419 -1.2261
  205MPD1    H2 3174   4.157   2.163  16.639 -0.5161  0.0265 -0.1475
  205MPD1    H3 3175   4.228   2.317  16.798 -1.5051 -0.7273 -2.8663
  205MPD1     N 3176   4.537   2.032  16.988  0.3206 -0.6322 -0.4099
  205MPD1    H5 3177   4.561   2.103  17.057 -0.4143  0.7373 -1.5474
  205MPD1    N1 3178   4.269   1.932  16.580 -0.3902  0.1819  0.4397
  205MPD1    H6 3179   4.173   1.940  16.549 -0.2274 -0.8115 -0.3235
  205MPD1    H7 3180   4.287   1.832  16.592  2.0247  0.2680 -2.6460
  206MPD1     C 3181   0.128   4.701  16.540  0.6059 -0.4897 -0.1231
  206MPD1    C1 3182   0.136   0.098  16.547  0.0117 -0.1083 -0.2073
  206MPD1    C2 3183   0.109   0.172  16.428 -0.2643 -0.3991  0.3762
  206MPD1    C3 3184   0.080   0.111  16.304 -0.3169 -1.0512  0.6834
  206MPD1    C4 3185   0.092   4.711  16.305  0.1353 -0.0302 -0.1046
  206MPD1    C5 3186   0.109   4.641  16.418  0.2734  0.1229  0.5082
  206MPD1     H 3187   0.108   0.279  16.449 -2.2926 -0.1248 -1.0679
  206MPD1    H1 3188   0.079   4.655  16.213 -0.2651 -0.2749  0.1034
  206MPD1    H2 3189   0.134   4.636  16.627  0.7374 -2.4052 -1.5547
  206MPD1    H3 3190   0.105   4.533  16.414  0.0543  0.2512 -3.3550
  206MPD1     N 3191   0.048   0.190  16.195 -0.4917  0.3031 -0.2211
  206MPD1    H5 3192   0.062   0.148  16.104  1.9956  1.0368 -0.1953
  206MPD1    N1 3193   0.138   0.169  16.668  0.0524  0.5769 -0.1931
  206MPD1    H6 3194   0.172   0.111  16.743 -0.4249  2.5539  1.5561
  206MPD1    H7 3195   0.194   0.254  16.670  0.3311  0.3487  1.6695
  207MPD1     C 3196   3.168   2.723   9.858  0.8319  0.1397 -0.0486
  207MPD1    C1 3197   3.264   2.817   9.837  0.1434  0.4936 -0.5382
  207MPD1    C2 3198   3.237   2.939   9.881 -0.0533 -0.1795  0.0010
  207MPD1    C3 3199   3.120   2.963   9.952 -0.0340 -0.3943 -0.0958
  207MPD1    C4 3200   3.025   2.869   9.973 -0.5816 -0.8883  0.7394
  207MPD1    C5 3201   3.057   2.744   9.928  0.0231  0.3260  0.2994
  207MPD1     H 3202   3.312   3.017   9.868  1.6460 -1.4429  2.1090
  207MPD1    H1 3203   2.930   2.887  10.023 -1.1773  0.0890 -0.7620
  207MPD1    H2 3204   3.181   2.618   9.831  0.1393 -0.6385  2.6518
  207MPD1    H3 3205   2.998   2.655   9.948  0.3057 -0.1353 -0.9522
  207MPD1     N 3206   3.092   3.088  10.015 -0.7536 -0.2261 -0.5393
  207MPD1    H5 3207   3.004   3.091  10.066 -1.3424 -1.2817 -1.5000
  207MPD1    N1 3208   3.375   2.783   9.752 -0.4607  0.3571 -1.0090
  207MPD1    H6 3209   3.438   2.711   9.787  0.0422  2.1337  1.7173
  207MPD1    H7 3210   3.432   2.867   9.746  3.4508 -2.2785 -0.8453
  208MPD1     C 3211   1.489   1.398   0.008  0.0277  0.6670  0.4209
  208MPD1    C1 3212   1.462   1.404   0.144  0.5071  0.1205  0.2647
  208MPD1    C2 3213   1.332   1.397   0.185 -0.0934 -0.3266  0.1949
  208MPD1    C3 3214   1.229   1.417   0.093  0.0690 -0.8946 -0.5410
  208MPD1    C4 3215   1.256   1.422  17.717 -0.0994 -0.4557  0.3177
  208MPD1    C5 3216   1.387   1.416  17.680 -0.4860  0.4070 -0.4815
  208MPD1     H 3217   1.310   1.398   0.292 -1.1336 -1.3253 -0.0175
  208MPD1    H1 3218   1.182   1.427  17.638 -0.5148 -1.4351  0.6390
  208MPD1    H2 3219   1.588   1.386  17.724  0.1785  1.4494  0.5525
  208MPD1    H3 3220   1.403   1.399  17.574 -0.1257 -0.0416 -0.3578
  208MPD1     N 3221   1.099   1.422   0.144 -0.2666  0.1970 -0.0272
  208MPD1    H5 3222   1.085   1.407   0.243  2.0042 -0.8765  0.1503
  208MPD1    N1 3223   1.564   1.388   0.237 -0.3424  0.2316 -0.1464
  208MPD1    H6 3224   1.658   1.410   0.206  0.2760 -2.8373 -0.4364
  208MPD1    H7 3225   1.540   1.449   0.315  0.0649  1.8735 -1.2979
  209MPD1     C 3226   2.534   2.302  10.654 -0.1407  0.0272 -0.2710
  209MPD1    C1 3227   2.513   2.428  10.609  0.3811 -0.0477  0.5680
  209MPD1    C2 3228   2.566   2.533  10.680 -0.4185  0.0100  0.6972
  209MPD1    C3 3229   2.628   2.521  10.805  0.1364  0.0890  0.2578
  209MPD1    C4 3230   2.651   2.393  10.846 -0.0399 -0.0092 -0.0812
  209MPD1    C5 3231   2.595   2.290  10.778  0.8905 -0.1634 -1.0104
  209MPD1     H 3232   2.547   2.629  10.634 -3.8664 -1.2158 -0.4572
  209MPD1    H1 3233   2.696   2.375  10.943  1.6156 -0.6703 -0.9807
  209MPD1    H2 3234   2.498   2.213  10.603 -0.1863  0.7144 -1.4410
  209MPD1    H3 3235   2.605   2.190  10.818  1.2739 -0.7137 -2.4922
  209MPD1     N 3236   2.679   2.637  10.875  0.4160 -0.6120 -0.6508
  209MPD1    H5 3237   2.674   2.719  10.817  0.1561  0.5737  1.0631
  209MPD1    N1 3238   2.471   2.449  10.477  0.2186 -0.0610 -0.0709
  209MPD1    H6 3239   2.430   2.541  10.464  2.7807  1.0047 -0.5237
  209MPD1    H7 3240   2.392   2.389  10.452  1.1575 -1.1288 -0.4663
  210MPD1     C 3241   2.942   2.780  11.853 -0.1579 -0.2109 -0.0115
  210MPD1    C1 3242   2.934   2.905  11.785 -0.0434  0.0219 -0.1916
  210MPD1    C2 3243   2.940   2.901  11.648  0.0939  0.3547  0.7910
  210MPD1    C3 3244   2.951   2.778  11.574 -0.6025  0.5816 -0.3233
  210MPD1    C4 3245   2.968   2.662  11.638  0.0396  0.3978  0.0647
  210MPD1    C5 3246   2.968   2.663  11.775 -0.0213  0.2555 -0.3724
  210MPD1     H 3247   2.951   3.000  11.604  0.8755  1.0289  2.4958
  210MPD1    H1 3248   2.968   2.567  11.588  1.8051  0.7061 -0.5085
  210MPD1    H2 3249   2.929   2.774  11.960 -0.1924 -0.7201 -0.0434
  210MPD1    H3 3250   2.968   2.570  11.830  0.3499  0.3163 -0.2729
  210MPD1     N 3251   2.950   2.773  11.433  0.1856  0.5456 -0.3296
  210MPD1    H5 3252   2.925   2.679  11.404  0.0705  0.4640  0.0358
  210MPD1    N1 3253   2.926   3.026  11.854  0.1190 -0.3004 -0.0221
  210MPD1    H6 3254   2.898   3.026  11.952 -3.1363  2.0440 -0.9270
  210MPD1    H7 3255   2.867   3.095  11.807  0.9534 -2.1889 -3.8275
  211MPD1     C 3256   0.650   1.827  15.634 -0.2118  0.3390 -0.1875
  211MPD1    C1 3257   0.680   1.945  15.694  0.6336 -0.0943  0.7400
  211MPD1    C2 3258   0.583   2.019  15.756  0.0060 -0.3241 -0.7002
  211MPD1    C3 3259   0.455   1.979  15.764  0.2299 -0.1784 -0.6634
  211MPD1    C4 3260   0.417   1.867  15.691 -0.5605  0.5340  0.4338
  211MPD1    C5 3261   0.515   1.800  15.621 -0.3301  0.5418 -0.5741
  211MPD1     H 3262   0.621   2.099  15.819 -0.2597  0.1742 -1.1750
  211MPD1    H1 3263   0.319   1.823  15.677  0.8648 -1.7020 -2.2873
  211MPD1    H2 3264   0.724   1.769  15.580  1.5483  1.2819  1.2007
  211MPD1    H3 3265   0.496   1.706  15.569  2.1440 -1.0126  1.3270
  211MPD1     N 3266   0.361   2.052  15.847  0.3004 -0.0750 -0.0903
  211MPD1    H5 3267   0.396   2.130  15.901 -0.7003  0.1551  0.2210
  211MPD1    N1 3268   0.812   1.986  15.696  0.5208 -0.3352 -0.2151
  211MPD1    H6 3269   0.815   2.082  15.731  0.5289 -1.5858  3.2749
  211MPD1    H7 3270   0.857   1.967  15.608  1.9108 -3.0222  1.0957
  212MPD1     C 3271   0.030   0.223  17.026 -0.6598  0.1082  0.5995
  212MPD1    C1 3272   0.084   0.104  17.068 -0.2173  0.1592 -0.4323
  212MPD1    C2 3273   4.740   0.001  17.107 -0.0686  0.0000 -0.1704
  212MPD1    C3 3274   4.601   0.023  17.107 -0.2171  0.2296  0.2608
  212MPD1    C4 3275   4.549   0.149  17.075  0.4526 -0.2040 -0.0203
  212MPD1    C5 3276   4.636   0.249  17.041 -0.1520  0.5898 -0.3703
  212MPD1     H 3277   0.043   4.645  17.131 -0.3760 -0.4050 -1.2333
  212MPD1    H1 3278   4.441   0.163  17.075  0.2890 -1.4612 -1.0517
  212MPD1    H2 3279   0.090   0.311  17.005  1.4595 -1.4981 -0.0308
  212MPD1    H3 3280   4.599   0.348  17.018  2.4445  1.2601 -1.6310
  212MPD1     N 3281   4.512   4.658  17.122 -0.1644  0.4719  0.1108
  212MPD1    H5 3282   4.412   4.677  17.122 -0.4771 -1.1927 -1.3648
  212MPD1    N1 3283   0.222   0.083  17.061  0.2550 -0.3156  1.1972
  212MPD1    H6 3284   0.243   4.729  17.029 -1.7506  0.8826 -3.6345
  212MPD1    H7 3285   0.286   0.143  17.010 -0.8134  2.8203  3.5600
  213MPD1     C 3286   2.743   1.500  15.530 -0.8236  0.3191 -0.3880
  213MPD1    C1 3287   2.775   1.376  15.478  0.0718  0.0292 -0.0738
  213MPD1    C2 3288   2.668   1.303  15.423  0.1258  0.2107  0.1906
  213MPD1    C3 3289   2.541   1.331  15.445 -0.3529 -0.4166  0.3899
  213MPD1    C4 3290   2.510   1.444  15.513 -0.2268 -0.3449 -0.5193
  213MPD1    C5 3291   2.613   1.528  15.557  0.2023 -0.6581 -0.4491
  213MPD1     H 3292   2.676   1.205  15.375  0.4484 -1.3222  3.3771
  213MPD1    H1 3293   2.413   1.476  15.550  0.8861  0.1360  1.9594
  213MPD1    H2 3294   2.812   1.575  15.567  0.0918 -0.9664  0.5572
  213MPD1    H3 3295   2.591   1.611  15.623  0.7487 -0.5953 -0.3454
  213MPD1     N 3296   2.442   1.256  15.374  0.0093 -0.4175  0.3238
  213MPD1    H5 3297   2.478   1.181  15.316  1.5543  2.2007 -2.1052
  213MPD1    N1 3298   2.903   1.355  15.415  0.1978  0.2961 -0.3814
  213MPD1    H6 3299   2.973   1.399  15.474  0.4610  0.5636 -0.8895
  213MPD1    H7 3300   2.917   1.254  15.409  0.4004  0.2875  0.2216
  214MPD1     C 3301   1.674   0.758  15.470 -0.1086  0.2763 -0.7613
  214MPD1    C1 3302   1.715   0.737  15.335 -0.1835 -0.4280 -0.2276
  214MPD1    C2 3303   1.784   0.838  15.271  0.3768  0.4140  0.0882
  214MPD1    C3 3304   1.815   0.958  15.328  0.0876 -0.3937 -0.5361
  214MPD1    C4 3305   1.773   0.976  15.460  0.0432  0.5638 -0.3457
  214MPD1    C5 3306   1.700   0.878  15.528  0.4203 -0.7446  0.4180
  214MPD1     H 3307   1.822   0.821  15.171  0.9868  2.1402  0.0263
  214MPD1    H1 3308   1.779   1.070  15.515  1.8182 -0.0899  0.5975
  214MPD1    H2 3309   1.628   0.687  15.538  0.8822 -2.6293 -3.0968
  214MPD1    H3 3310   1.674   0.892  15.632 -0.7725 -0.7225  0.1173
  214MPD1     N 3311   1.893   1.053  15.272  0.4320 -0.3934  0.7620
  214MPD1    H5 3312   1.911   1.141  15.319 -0.4200  1.5739 -2.5903
  214MPD1    N1 3313   1.713   0.611  15.280  0.0130  0.3681 -0.0638
  214MPD1    H6 3314   1.706   0.619  15.179  1.1752 -1.3564 -0.2912
  214MPD1    H7 3315   1.640   0.553  15.321 -0.7938  2.5294  1.5588
  215MPD1     C 3316   2.122   1.942  10.699 -0.3157  0.0619  0.2427
  215MPD1    C1 3317   2.094   1.952  10.833 -0.5811  0.5230 -0.4714
  215MPD1    C2 3318   2.114   2.074  10.900  0.3221  0.0751 -0.0806
  215MPD1    C3 3319   2.168   2.188  10.838  0.3106 -0.1288 -0.2890
  215MPD1    C4 3320   2.206   2.169  10.706  0.0715 -0.5029 -0.4418
  215MPD1    C5 3321   2.187   2.052  10.639 -0.1561  0.3115 -0.0899
  215MPD1     H 3322   2.074   2.089  11.000  1.2954  0.2182  0.2894
  215MPD1    H1 3323   2.259   2.234  10.638  0.1700 -0.7660 -0.6136
  215MPD1    H2 3324   2.087   1.862  10.636 -1.4799  0.5781  0.2397
  215MPD1    H3 3325   2.221   2.046  10.536 -0.2373  3.6478 -0.3241
  215MPD1     N 3326   2.200   2.313  10.902  0.8230  0.3232 -0.1134
  215MPD1    H5 3327   2.193   2.321  11.003 -0.6470  0.9648 -0.2734
  215MPD1    N1 3328   2.018   1.851  10.894 -0.6058  0.5481 -0.2694
  215MPD1    H6 3329   2.043   1.755  10.874 -0.0260  0.9428 -1.4079
  215MPD1    H7 3330   2.007   1.856  10.995 -0.2776 -0.7410 -0.1787
  216MPD1     C 3331   4.656   4.206  16.305  0.3017  0.1581 -0.0006
  216MPD1    C1 3332   4.702   4.078  16.312  0.3597 -0.7162  0.2754
  216MPD1    C2 3333   4.738   4.017  16.434 -0.2920  0.4197  0.1090
  216MPD1    C3 3334   4.712   4.092  16.548 -0.2537 -0.1800 -0.2339
  216MPD1    C4 3335   4.675   4.232  16.538 -0.4745 -0.1509 -0.1192
  216MPD1    C5 3336   4.636   4.278  16.418  0.2797  0.0321  0.0158
  216MPD1     H 3337   0.047   3.920  16.435 -0.3018  0.4598  2.8203
  216MPD1    H1 3338   4.653   4.295  16.622  1.6631  0.0215  0.2880
  216MPD1    H2 3339   4.631   4.252  16.211  1.2266  0.3775 -0.1307
  216MPD1    H3 3340   4.590   4.376  16.422 -1.1107 -0.6381  0.5926
  216MPD1     N 3341   4.716   4.028  16.674  0.3682 -0.1759 -0.1054
  216MPD1    H5 3342   4.722   3.927  16.668  2.0612  0.0314 -1.8972
  216MPD1    N1 3343   0.003   4.014  16.195  0.0165  0.2581  0.3365
  216MPD1    H6 3344   4.681   4.048  16.122 -0.9291 -0.2453  0.8991
  216MPD1    H7 3345   0.006   3.916  16.221 -2.5592  0.3800  1.1024
  217MPD1     C 3346   4.588   1.460   8.338  0.1399 -0.3847  0.3507
  217MPD1    C1 3347   4.523   1.563   8.401 -0.1114 -0.3578  0.6425
  217MPD1    C2 3348   4.578   1.627   8.512 -0.1946 -0.4311  0.5782
  217MPD1    C3 3349   4.694   1.563   8.556 -1.0397  0.3390  0.1736
  217MPD1    C4 3350   0.015   1.454   8.504  0.5786 -0.0162  0.6548
  217MPD1    C5 3351   4.704   1.408   8.385 -0.0184  0.3174  0.1086
  217MPD1     H 3352   4.524   1.710   8.557 -1.8230 -1.3878  0.3896
  217MPD1    H1 3353   0.105   1.405   8.541 -0.3887 -1.3372  1.2619
  217MPD1    H2 3354   4.557   1.423   8.240 -0.4802 -0.3890  0.5485
  217MPD1    H3 3355   0.020   1.323   8.349 -0.2126  0.6111 -0.8848
  217MPD1     N 3356   0.006   1.602   8.679 -0.3751  0.1299  0.7021
  217MPD1    H5 3357   0.072   1.538   8.723  1.1111  2.1191  1.3280
  217MPD1    N1 3358   4.400   1.610   8.352  0.1052  0.4695 -0.3075
  217MPD1    H6 3359   4.336   1.537   8.319  2.1142 -0.0039 -3.1124
  217MPD1    H7 3360   4.348   1.664   8.421 -0.0818  0.8372 -0.7430
  218MPD1     C 3361   1.487   2.300  12.983 -0.5730 -0.4011  0.3655
  218MPD1    C1 3362   1.509   2.180  12.920  0.4255  0.3996 -0.2358
  218MPD1    C2 3363   1.633   2.164  12.849 -0.2592  0.0699 -0.3503
  218MPD1    C3 3364   1.722   2.270  12.826 -0.3096 -0.3681 -0.2033
  218MPD1    C4 3365   1.687   2.391  12.882 -0.2159  0.4759 -0.2891
  218MPD1    C5 3366   1.577   2.407  12.960 -0.3729  0.4070 -0.1336
  218MPD1     H 3367   1.654   2.062  12.821  1.8484  0.6599 -0.8907
  218MPD1    H1 3368   1.760   2.471  12.877  1.9223 -1.5250 -1.1321
  218MPD1    H2 3369   1.395   2.318  13.037 -1.8187 -0.0758 -1.8642
  218MPD1    H3 3370   1.562   2.507  13.000  1.8995  0.8322 -0.3362
  218MPD1     N 3371   1.841   2.252  12.754  0.1852  0.2286 -0.0773
  218MPD1    H5 3372   1.856   2.157  12.723 -1.2797 -0.6456  1.9043
  218MPD1    N1 3373   1.434   2.062  12.941 -0.0482 -0.4241  0.1078
  218MPD1    H6 3374   1.433   1.996  12.863 -0.5286  1.3715 -1.4069
  218MPD1    H7 3375   1.337   2.085  12.965  0.2482  0.6536  0.2308
  219MPD1     C 3376   2.833   2.665  12.478  0.1577  0.1025 -0.2585
  219MPD1    C1 3377   2.721   2.680  12.398 -0.5948 -0.4011 -0.1990
  219MPD1    C2 3378   2.614   2.593  12.420 -0.2133  0.3086 -0.0620
  219MPD1    C3 3379   2.606   2.506  12.526  0.0085  0.0584 -1.0799
  219MPD1    C4 3380   2.717   2.495  12.603  0.2510  0.6765  0.1374
  219MPD1    C5 3381   2.828   2.571  12.575  0.3062 -1.4427  0.5729
  219MPD1     H 3382   2.532   2.584  12.351 -0.9047 -1.5925  1.0088
  219MPD1    H1 3383   2.740   2.424  12.681  0.4263 -1.1541 -1.5981
  219MPD1    H2 3384   2.923   2.725  12.469  1.4118 -1.6781  0.3968
  219MPD1    H3 3385   2.915   2.546  12.634  0.4752 -2.3755 -0.0665
  219MPD1     N 3386   2.491   2.422  12.549  0.1513 -0.0285  0.0369
  219MPD1    H5 3387   2.502   2.348  12.617 -0.4198  0.5150  0.7254
  219MPD1    N1 3388   2.740   2.748  12.277 -0.3876 -0.2193  0.1469
  219MPD1    H6 3389   2.651   2.758  12.231 -0.7318 -0.9528  0.6402
  219MPD1    H7 3390   2.794   2.834  12.282  0.6253 -0.9253  1.3963
  220MPD1     C 3391   1.501   3.192   9.515 -0.7426  0.1970 -0.0095
  220MPD1    C1 3392   1.435   3.108   9.611 -0.3936  0.6382  0.0897
  220MPD1    C2 3393   1.474   3.118   9.744 -0.4704 -0.3721  0.2592
  220MPD1    C3 3394   1.589   3.185   9.779  0.7042  0.1427  0.0046
  220MPD1    C4 3395   1.657   3.262   9.683  0.6146 -0.4540 -0.0096
  220MPD1    C5 3396   1.609   3.273   9.556  0.5704 -0.5540 -0.5703
  220MPD1     H 3397   1.423   3.058   9.818  0.2161  1.5491  2.2899
  220MPD1    H1 3398   1.747   3.315   9.714  0.0717 -0.4968  1.6220
  220MPD1    H2 3399   1.457   3.205   9.417  1.0963  1.1619 -0.7136
  220MPD1    H3 3400   1.653   3.345   9.489  1.7782 -0.2093  0.6074
  220MPD1     N 3401   1.628   3.183   9.914 -0.2767  0.2591  0.6900
  220MPD1    H5 3402   1.571   3.128   9.977 -0.1386  1.1958  1.6372
  220MPD1    N1 3403   1.320   3.039   9.575 -0.3767  0.1762 -0.1093
  220MPD1    H6 3404   1.303   2.961   9.639  1.6479  1.1143  1.5757
  220MPD1    H7 3405   1.333   3.003   9.481  0.3099 -2.4442  0.9762
  221MPD1     C 3406   0.505   0.199  16.773 -0.0823 -0.6145 -0.0506
  221MPD1    C1 3407   0.422   0.288  16.847 -0.4632  0.1265 -0.9875
  221MPD1    C2 3408   0.340   0.375  16.777 -0.0029 -0.2042 -0.6536
  221MPD1    C3 3409   0.358   0.398  16.636 -0.4240 -0.5805 -0.6571
  221MPD1    C4 3410   0.442   0.315  16.567 -0.1843 -0.0498  0.8166
  221MPD1    C5 3411   0.516   0.222  16.637 -0.2675  0.2160  0.2094
  221MPD1     H 3412   0.282   0.444  16.838  1.6534 -0.0305  0.7264
  221MPD1    H1 3413   0.459   0.334  16.462 -0.1576  1.7380  1.1477
  221MPD1    H2 3414   0.563   0.125  16.827  2.0506 -0.3413 -1.9788
  221MPD1    H3 3415   0.585   0.161  16.580 -1.2545 -1.2992  0.6208
  221MPD1     N 3416   0.295   0.501  16.559 -0.3858 -0.3370  0.7961
  221MPD1    H5 3417   0.316   0.500  16.459 -1.8650 -1.5036  0.4970
  221MPD1    N1 3418   0.409   0.262  16.982  0.0699  0.7216 -0.1951
  221MPD1    H6 3419   0.496   0.234  17.026 -0.3683 -0.1764  0.0838
  221MPD1    H7 3420   0.381   0.348  17.029 -1.8212  0.2639 -0.5234
  222MPD1     C 3421   0.584   4.233   0.342 -0.2635  0.1080 -0.3366
  222MPD1    C1 3422   0.453   4.194   0.348 -0.1245 -0.2226 -0.0292
  222MPD1    C2 3423   0.369   4.233   0.240 -0.2295  0.2262  0.5560
  222MPD1    C3 3424   0.408   4.324   0.145 -0.5032  0.0926  0.2703
  222MPD1    C4 3425   0.538   4.363   0.149 -0.6573 -0.3407  0.2649
  222MPD1    C5 3426   0.630   4.315   0.241 -0.4025  0.7604 -0.0962
  222MPD1     H 3427   0.269   4.191   0.236  0.1746 -0.5859 -0.9995
  222MPD1    H1 3428   0.567   4.432   0.071 -0.5357  1.3638  1.8161
  222MPD1    H2 3429   0.654   4.189   0.412  3.4078 -0.5801 -4.3900
  222MPD1    H3 3430   0.733   4.349   0.240  0.1743 -0.9964 -1.0840
  222MPD1     N 3431   0.317   4.376   0.046 -0.2720  0.8297  0.6437
  222MPD1    H5 3432   0.354   4.435  17.731  0.4478 -1.9674 -1.2523
  222MPD1    N1 3433   0.414   4.096   0.437  0.2385  0.1792  0.0121
  222MPD1    H6 3434   0.454   4.089   0.530 -1.7656  0.9838  0.9290
  222MPD1    H7 3435   0.313   4.089   0.447  0.4406 -0.9703  1.1200
  223MPD1     C 3436   0.359   4.530  16.819 -1.0358 -0.3924  0.4199
  223MPD1    C1 3437   0.258   4.436  16.836 -0.3315 -0.2466  0.1245
  223MPD1    C2 3438   0.208   4.410  16.962  0.2224 -0.3890 -0.2112
  223MPD1    C3 3439   0.269   4.461  17.075  0.8845  0.5645  0.5046
  223MPD1    C4 3440   0.382   4.534  17.064 -0.3387 -0.2327  0.4704
  223MPD1    C5 3441   0.418   4.574  16.932 -0.1248 -0.4319  0.4835
  223MPD1     H 3442   0.113   4.358  16.971  1.5202 -2.7125 -0.0067
  223MPD1    H1 3443   0.428   4.579  17.151  0.7285 -0.3207 -0.0521
  223MPD1    H2 3444   0.396   4.555  16.720 -0.4081  0.2653  0.8194
  223MPD1    H3 3445   0.507   4.637  16.928 -0.0149 -0.4990  1.8369
  223MPD1     N 3446   0.211   4.437  17.201 -0.6011  0.6994  0.4918
  223MPD1    H5 3447   0.111   4.423  17.190 -0.5017  0.4442 -0.1193
  223MPD1    N1 3448   0.183   4.387  16.730  0.4601 -0.3224  0.3340
  223MPD1    H6 3449   0.241   4.358  16.652  1.3075 -0.3476  0.9789
  223MPD1    H7 3450   0.121   4.308  16.749 -0.3944 -0.3932 -2.7277
  224MPD1     C 3451   0.168   2.020   8.986 -0.2400  0.0521  1.0621
  224MPD1    C1 3452   0.109   2.117   9.060 -0.4571 -0.4681  0.1573
  224MPD1    C2 3453   0.167   2.147   9.186  0.3787 -0.0770  0.8286
  224MPD1    C3 3454   0.290   2.099   9.221  0.2467 -0.7362  0.7692
  224MPD1    C4 3455   0.341   1.993   9.146 -0.3686 -0.1110 -0.2627
  224MPD1    C5 3456   0.279   1.953   9.031  0.5781 -0.2230  0.3590
  224MPD1     H 3457   0.104   2.211   9.247  1.1568  0.3354  1.2079
  224MPD1    H1 3458   0.446   1.967   9.157  0.4773  2.7197 -1.6716
  224MPD1    H2 3459   0.130   2.001   8.887 -0.7747 -0.4524  1.3657
  224MPD1    H3 3460   0.319   1.870   8.975 -0.9114 -0.5938 -0.1401
  224MPD1     N 3461   0.350   2.131   9.337 -0.2241 -0.0708  0.6214
  224MPD1    H5 3462   0.421   2.066   9.371  1.4745  1.6812  0.4471
  224MPD1    N1 3463   0.007   2.187   8.996  0.4085 -0.2256 -0.1354
  224MPD1    H6 3464   4.679   2.138   8.938 -0.2479  1.8201 -1.1034
  224MPD1    H7 3465   4.688   2.245   9.056 -0.2432 -1.0709  0.0285
  225MPD1     C 3466   2.015   3.493  12.635  0.0844  0.3859 -0.6049
  225MPD1    C1 3467   1.951   3.370  12.635 -0.0990  0.0634 -0.6321
  225MPD1    C2 3468   1.813   3.364  12.657 -0.5688  0.4167  0.4611
  225MPD1    C3 3469   1.743   3.481  12.682  0.0754  0.5040  0.5500
  225MPD1    C4 3470   1.807   3.602  12.683  0.1666 -0.1746  0.1789
  225MPD1    C5 3471   1.937   3.607  12.653 -0.0662  0.3065  0.0087
  225MPD1     H 3472   1.774   3.263  12.670 -1.2448  0.7167  0.7732
  225MPD1    H1 3473   1.758   3.699  12.690 -2.2785 -1.3593 -0.5547
  225MPD1    H2 3474   2.123   3.504  12.625  0.1050 -1.4870 -2.2990
  225MPD1    H3 3475   1.985   3.703  12.636 -0.6667  0.8234  1.2544
  225MPD1     N 3476   1.606   3.483  12.699 -0.3490  0.3654  0.0303
  225MPD1    H5 3477   1.566   3.572  12.729  1.1202  1.6249 -1.7811
  225MPD1    N1 3478   2.011   3.253  12.591 -0.2250 -0.1329 -0.5228
  225MPD1    H6 3479   2.105   3.246  12.631  0.0623  3.5264 -0.5359
  225MPD1    H7 3480   1.951   3.177  12.622  0.5168 -1.1150 -1.5202
  226MPD1     C 3481   0.256   4.594   9.524 -0.4555  0.9683  0.6092
  226MPD1    C1 3482   0.372   4.526   9.542  0.6449  0.2874  0.5163
  226MPD1    C2 3483   0.370   4.396   9.587  0.5267  0.5221 -0.3741
  226MPD1    C3 3484   0.250   4.332   9.609 -0.7290  0.7165  0.4831
  226MPD1    C4 3485   0.140   4.403   9.605  0.0797 -0.2126  0.0866
  226MPD1    C5 3486   0.137   4.533   9.561 -0.5134 -0.5652  0.0889
  226MPD1     H 3487   0.465   4.344   9.589 -1.7672 -3.5682  0.7127
  226MPD1    H1 3488   0.045   4.356   9.629 -0.0132 -0.8964 -1.5969
  226MPD1    H2 3489   0.261   4.699   9.497  1.5246  0.3670 -1.3761
  226MPD1    H3 3490   0.046   4.590   9.544  0.6631  0.8063 -1.6158
  226MPD1     N 3491   0.265   4.202   9.647 -0.1483 -0.4125 -0.0828
  226MPD1    H5 3492   0.359   4.163   9.648 -0.0437 -0.1969 -1.1828
  226MPD1    N1 3493   0.490   4.573   9.489  0.1884  0.3543 -0.2018
  226MPD1    H6 3494   0.493   4.673   9.473  2.0703  0.3859  0.3320
  226MPD1    H7 3495   0.572   4.533   9.535 -0.7054 -0.2617  0.8541
  227MPD1     C 3496   0.976   3.613   9.915  0.0660 -0.4368 -0.2284
  227MPD1    C1 3497   0.887   3.515   9.887  0.1517 -0.7911  0.1264
  227MPD1    C2 3498   0.760   3.550   9.849  0.4807  0.2976  0.0625
  227MPD1    C3 3499   0.726   3.681   9.847  0.0267  0.3285 -0.5851
  227MPD1    C4 3500   0.818   3.777   9.890  0.0786 -0.4810  0.2149
  227MPD1    C5 3501   0.943   3.743   9.931 -0.8423  0.0885  0.9132
  227MPD1     H 3502   0.700   3.467   9.812  1.0217 -0.0567 -0.0149
  227MPD1    H1 3503   0.790   3.881   9.886 -0.6499 -0.6903 -0.1684
  227MPD1    H2 3504   1.082   3.593   9.924  0.1402 -0.3739 -0.9490
  227MPD1    H3 3505   1.019   3.816   9.958  0.6928 -1.2669  0.2514
  227MPD1     N 3506   0.594   3.712   9.800  0.1861 -0.4606  0.2867
  227MPD1    H5 3507   0.528   3.642   9.768  0.4316 -0.3068 -0.5327
  227MPD1    N1 3508   0.928   3.383   9.867 -0.3815  0.2814 -0.1371
  227MPD1    H6 3509   1.018   3.358   9.909 -0.6100 -0.4852 -0.1117
  227MPD1    H7 3510   0.862   3.311   9.895  2.5882 -2.3242  0.2647
  228MPD1     C 3511   3.585   0.766  13.291  0.8943  0.1396  0.1185
  228MPD1    C1 3512   3.480   0.800  13.372  0.4008  0.0053 -0.3950
  228MPD1    C2 3513   3.354   0.775  13.325 -0.8352 -0.1034  0.1856
  228MPD1    C3 3514   3.329   0.726  13.204 -0.1178  0.2006 -0.1277
  228MPD1    C4 3515   3.437   0.686  13.121 -0.3162  0.1300  0.4051
  228MPD1    C5 3516   3.561   0.717  13.163 -0.5821  0.2230  0.1876
  228MPD1     H 3517   3.274   0.796  13.395 -1.2561  0.8262 -0.5718
  228MPD1    H1 3518   3.422   0.647  13.021  3.4812 -0.3174  0.0223
  228MPD1    H2 3519   3.684   0.798  13.319  0.8496  1.5414 -1.3244
  228MPD1    H3 3520   3.647   0.700  13.099  0.4129  1.0369  1.2936
  228MPD1     N 3521   3.192   0.706  13.165 -0.3079  0.3822 -0.0959
  228MPD1    H5 3522   3.119   0.724  13.233  0.0281  0.7955  0.1498
  228MPD1    N1 3523   3.493   0.889  13.481  0.5633 -0.4902  0.5142
  228MPD1    H6 3524   3.428   0.857  13.552 -2.2517  0.1701 -1.7365
  228MPD1    H7 3525   3.591   0.890  13.508  0.7603  2.7110 -0.3502
  229MPD1     C 3526   3.014   4.616  14.847 -0.3075  0.0519 -0.4953
  229MPD1    C1 3527   3.052   4.668  14.974 -0.4098  0.0778 -0.7900
  229MPD1    C2 3528   3.056   4.583  15.080  0.6568  0.3385  0.2439
  229MPD1    C3 3529   3.022   4.445  15.068 -0.3006 -0.4892  0.2371
  229MPD1    C4 3530   2.991   4.397  14.939 -0.4223 -0.7369 -0.1462
  229MPD1    C5 3531   3.001   4.482  14.830  0.6376  0.4758 -0.1668
  229MPD1     H 3532   3.079   4.622  15.179  1.3954  3.0056 -0.9802
  229MPD1    H1 3533   2.978   4.291  14.918 -1.3787 -0.9587  1.5474
  229MPD1    H2 3534   3.011   4.682  14.761 -2.2253  1.5744  0.7494
  229MPD1    H3 3535   2.993   4.431  14.735  2.5072 -0.7112  0.3106
  229MPD1     N 3536   3.032   4.349  15.172 -0.2032  0.7338  0.0126
  229MPD1    H5 3537   3.028   4.249  15.158  1.2690  0.2792  2.8212
  229MPD1    N1 3538   3.063   0.065  14.994 -0.2451  0.2767 -0.0961
  229MPD1    H6 3539   3.118   0.106  14.919 -0.1764 -1.2268 -0.8797
  229MPD1    H7 3540   3.106   0.083  15.084  0.5922 -2.6754  0.0990
  230MPD1     C 3541   3.158   4.488  16.162 -0.4463  0.2170  0.2009
  230MPD1    C1 3542   3.087   4.554  16.066  0.0390 -0.0169 -0.2124
  230MPD1    C2 3543   3.085   4.493  15.938  0.0590  0.6506 -0.0445
  230MPD1    C3 3544   3.141   4.375  15.906  1.0530  0.2546  0.1657
  230MPD1    C4 3545   3.200   4.305  16.008 -0.4757 -0.3658 -0.4700
  230MPD1    C5 3546   3.210   4.365  16.128  0.1519  0.1355  0.0893
  230MPD1     H 3547   3.038   4.552  15.861 -1.4420  0.0542  0.4100
  230MPD1    H1 3548   3.225   4.202  15.990  2.3002  0.1346  0.6200
  230MPD1    H2 3549   3.180   4.536  16.256 -1.1697  1.2059 -0.1400
  230MPD1    H3 3550   3.250   4.308  16.211  0.5225 -0.3817 -0.4443
  230MPD1     N 3551   3.125   4.319  15.776 -0.7910  0.4117  0.4560
  230MPD1    H5 3552   3.067   4.376  15.716 -1.4502  1.7120  2.3585
  230MPD1    N1 3553   3.055   4.689  16.082 -0.2595 -0.1837 -0.1092
  230MPD1    H6 3554   2.982   4.728  16.023  0.5907 -2.7110 -2.8137
  230MPD1    H7 3555   3.021   4.715  16.175 -2.1176 -0.6934 -0.6518
  231MPD1     C 3556   1.795   1.358  15.541 -0.5266  0.2613  0.1451
  231MPD1    C1 3557   1.725   1.317  15.432 -0.0957  0.1583  0.2024
  231MPD1    C2 3558   1.765   1.370  15.307  0.5748  0.3779  0.3980
  231MPD1    C3 3559   1.881   1.441  15.295  0.0121 -0.0325 -0.1349
  231MPD1    C4 3560   1.961   1.466  15.404 -0.0953  0.1685  0.4767
  231MPD1    C5 3561   1.917   1.428  15.525 -0.4510 -0.4209 -0.3650
  231MPD1     H 3562   1.693   1.358  15.227  0.7308 -2.7282  0.7220
  231MPD1    H1 3563   2.056   1.517  15.396  0.9857 -1.3033  4.0573
  231MPD1    H2 3564   1.772   1.324  15.642  2.0729 -0.8092  0.3924
  231MPD1    H3 3565   1.979   1.445  15.612 -1.1660 -0.9725  0.2556
  231MPD1     N 3566   1.912   1.495  15.169  0.1359 -0.4782 -0.1872
  231MPD1    H5 3567   1.833   1.493  15.105  1.6048  0.2604 -2.0487
  231MPD1    N1 3568   1.600   1.252  15.440 -0.1087 -0.2085 -0.5968
  231MPD1    H6 3569   1.528   1.306  15.487  1.4952 -0.5254  2.2604
  231MPD1    H7 3570   1.553   1.217  15.357  1.0608  0.7306 -1.6536
  232MPD1     C 3571   3.930   2.887   0.036 -0.1810 -0.1861  0.0307
  232MPD1    C1 3572   3.889   2.930   0.158  0.4325 -0.1650 -0.5278
  232MPD1    C2 3573   3.758   2.964   0.172  0.3590  0.0814 -0.2040
  232MPD1    C3 3574   3.676   2.977   0.061 -0.4453 -1.5897 -0.7840
  232MPD1    C4 3575   3.732   2.958  17.697  0.0929 -0.0136 -0.1867
  232MPD1    C5 3576   3.856   2.908  17.685 -0.1905 -0.0827  0.4177
  232MPD1     H 3577   3.714   2.987   0.268 -1.7857 -1.0703 -0.9125
  232MPD1    H1 3578   3.679   2.972  17.603 -1.3175 -0.6445  0.5136
  232MPD1    H2 3579   4.035   2.859   0.026  0.0688  0.2390  1.4537
  232MPD1    H3 3580   3.895   2.891  17.585  2.1005  1.6575  1.0014
  232MPD1     N 3581   3.548   3.021   0.091  0.7186 -0.0148  0.0212
  232MPD1    H5 3582   3.531   3.036   0.190 -0.1216 -0.7051 -0.0208
  232MPD1    N1 3583   3.971   2.926   0.269 -0.1956 -0.0229 -0.1623
  232MPD1    H6 3584   3.938   2.970   0.355  1.2399  0.9063 -0.0900
  232MPD1    H7 3585   4.069   2.947   0.254 -0.1195  0.2254  0.6849
  233MPD1     C 3586   0.423   2.604   2.012 -0.3030 -0.2227  0.4573
  233MPD1    C1 3587   0.322   2.589   1.918  0.2480  0.0239 -0.1904
  233MPD1    C2 3588   0.298   2.468   1.863 -0.4416 -0.0826 -0.5507
  233MPD1    C3 3589   0.393   2.366   1.878 -0.5856 -0.4938 -0.3996
  233MPD1    C4 3590   0.510   2.390   1.957 -0.7818 -0.6599  0.0377
  233MPD1    C5 3591   0.515   2.500   2.029 -0.0340 -0.6423 -0.2142
  233MPD1     H 3592   0.215   2.466   1.794  0.6444  0.0586 -1.8706
  233MPD1    H1 3593   0.587   2.318   1.983  0.3523  1.2125  1.7832
  233MPD1    H2 3594   0.439   2.692   2.073 -1.5969  0.0653  0.3817
  233MPD1    H3 3595   0.600   2.518   2.094 -0.7630 -1.3528  0.9206
  233MPD1     N 3596   0.375   2.234   1.816  0.1148  0.3364 -0.1528
  233MPD1    H5 3597   0.451   2.169   1.833 -0.0276 -0.2823 -1.8264
  233MPD1    N1 3598   0.236   2.695   1.892  0.2687  0.0308  0.0954
  233MPD1    H6 3599   0.210   2.707   1.794  0.1789  1.5710  0.3019
  233MPD1    H7 3600   0.270   2.786   1.923  2.8113 -0.6928 -0.5993
  234MPD1     C 3601   1.212   0.636   9.663 -0.0843 -0.1927 -0.4946
  234MPD1    C1 3602   1.236   0.731   9.754 -0.6636 -0.3274  0.2668
  234MPD1    C2 3603   1.221   0.866   9.726  0.4900 -0.0910 -0.0739
  234MPD1    C3 3604   1.163   0.898   9.608 -0.7659  0.5660 -0.6465
  234MPD1    C4 3605   1.139   0.795   9.518 -0.0398  0.1985  0.2379
  234MPD1    C5 3606   1.164   0.662   9.541 -0.4511 -0.3303  0.0488
  234MPD1     H 3607   1.235   0.941   9.803 -2.8651  1.2599 -0.8183
  234MPD1    H1 3608   1.099   0.809   9.418 -1.0721 -0.8504  0.5054
  234MPD1    H2 3609   1.253   0.537   9.681  1.1138  0.0948 -1.7014
  234MPD1    H3 3610   1.159   0.585   9.464  1.9090  1.1502 -1.5736
  234MPD1     N 3611   1.143   1.032   9.582  0.3515  0.3516 -0.4663
  234MPD1    H5 3612   1.204   1.090   9.639 -1.3751  2.0964 -0.4249
  234MPD1    N1 3613   1.302   0.698   9.872 -0.2626 -0.0695 -0.6680
  234MPD1    H6 3614   1.270   0.609   9.910  0.3540 -0.2580 -0.5964
  234MPD1    H7 3615   1.283   0.774   9.937 -1.2203 -1.1415  0.3012
  235MPD1     C 3616   2.812   3.578  10.567  0.0405 -0.0309 -0.2195
  235MPD1    C1 3617   2.800   3.577  10.429 -0.2029 -0.1096  0.9388
  235MPD1    C2 3618   2.835   3.696  10.360 -0.1432 -0.5474  0.2657
  235MPD1    C3 3619   2.889   3.807  10.421  0.6900  0.1763  0.3024
  235MPD1    C4 3620   2.915   3.799  10.555 -0.8326  0.2178  0.0257
  235MPD1    C5 3621   2.864   3.688  10.623  1.0218 -0.1528  0.6273
  235MPD1     H 3622   2.830   3.702  10.252  1.4351 -1.9709  0.1201
  235MPD1    H1 3623   2.950   3.880  10.618  1.7297  0.1659 -1.3439
  235MPD1    H2 3624   2.792   3.489  10.626  0.0414 -1.2387 -2.0440
  235MPD1    H3 3625   2.889   3.681  10.728  3.0835  0.0424  0.1498
  235MPD1     N 3626   2.924   3.917  10.343  0.0136  0.1272  0.0358
  235MPD1    H5 3627   2.898   3.911  10.245  3.0678 -1.5998 -0.6755
  235MPD1    N1 3628   2.741   3.466  10.363  0.3498 -0.3601 -0.3735
  235MPD1    H6 3629   2.772   3.376  10.400 -2.4613 -1.8537 -1.6060
  235MPD1    H7 3630   2.740   3.453  10.262 -3.0422 -0.9334 -0.2517
  236MPD1     C 3631   1.669   3.882   9.710  0.1340 -0.4482  0.2748
  236MPD1    C1 3632   1.693   3.774   9.793 -0.0666 -0.5174  0.0499
  236MPD1    C2 3633   1.730   3.807   9.923 -0.2839  0.6247  0.2096
  236MPD1    C3 3634   1.738   3.938   9.961  0.3385  0.4938  0.0275
  236MPD1    C4 3635   1.712   4.039   9.876  0.0359  0.2374  0.0740
  236MPD1    C5 3636   1.683   4.013   9.745  0.3405  0.4019 -0.1356
  236MPD1     H 3637   1.754   3.724   9.989 -2.7270  0.0916  0.4626
  236MPD1    H1 3638   1.724   4.142   9.907 -0.2895  0.6620 -1.1865
  236MPD1    H2 3639   1.633   3.864   9.609 -1.4065  0.5701  0.6493
  236MPD1    H3 3640   1.666   4.092   9.673 -0.2402  2.4787  2.2858
  236MPD1     N 3641   1.785   3.979  10.081 -0.2288 -0.2414  0.3233
  236MPD1    H5 3642   1.798   4.078  10.097 -2.4543  0.5651 -2.9156
  236MPD1    N1 3643   1.668   3.637   9.756 -0.0494  0.0698 -0.0348
  236MPD1    H6 3644   1.662   3.615   9.657 -0.4833  2.5797 -0.5780
  236MPD1    H7 3645   1.728   3.571   9.806 -0.8426 -1.6611 -1.3943
  237MPD1     C 3646   2.621   2.652  15.097  0.5540 -0.0101  0.0309
  237MPD1    C1 3647   2.540   2.767  15.107  0.3747 -0.0868 -0.2783
  237MPD1    C2 3648   2.409   2.742  15.143 -0.1461 -0.6408  0.3250
  237MPD1    C3 3649   2.357   2.626  15.194 -0.1482 -0.1278 -1.1505
  237MPD1    C4 3650   2.443   2.520  15.201 -0.4203  0.2425  0.1167
  237MPD1    C5 3651   2.565   2.529  15.144  0.4751  0.0887 -0.2555
  237MPD1     H 3652   2.332   2.817  15.129  0.5702  0.0860  0.2798
  237MPD1    H1 3653   2.409   2.426  15.244  1.9342 -0.3428  0.6852
  237MPD1    H2 3654   2.719   2.647  15.050  0.7371 -0.8309  0.5066
  237MPD1    H3 3655   2.641   2.452  15.155 -0.6856 -1.1690 -1.0627
  237MPD1     N 3656   2.241   2.615  15.260 -0.0838 -0.5163 -0.6175
  237MPD1    H5 3657   2.224   2.527  15.307 -0.5248  0.4240  0.9584
  237MPD1    N1 3658   2.583   2.883  15.044  0.1635 -0.8596 -0.2288
  237MPD1    H6 3659   2.549   2.969  15.086  0.4221  0.5123 -2.8352
  237MPD1    H7 3660   2.683   2.886  15.062 -0.4832 -1.1066  3.2971
  238MPD1     C 3661   3.385   1.902  15.232 -0.1848 -0.0529 -0.1120
  238MPD1    C1 3662   3.373   1.795  15.321 -0.3663 -0.0611  0.3067
  238MPD1    C2 3663   3.311   1.677  15.277 -0.9084  0.4987 -0.2509
  238MPD1    C3 3664   3.264   1.670  15.150 -0.7380 -0.4839  0.0066
  238MPD1    C4 3665   3.258   1.781  15.065 -0.1485 -0.5444 -0.1081
  238MPD1    C5 3666   3.318   1.892  15.111  0.4772  0.2936  0.1763
  238MPD1     H 3667   3.327   1.585  15.333  1.3151  1.6799  1.0431
  238MPD1    H1 3668   3.207   1.782  14.969  0.5343  1.0584 -0.4527
  238MPD1    H2 3669   3.437   1.996  15.251  1.1717 -0.7827 -0.1777
  238MPD1    H3 3670   3.323   1.978  15.046 -0.9062  0.3968  0.1996
  238MPD1     N 3671   3.204   1.559  15.091 -0.1137  0.7600 -0.1123
  238MPD1    H5 3672   3.185   1.575  14.993  0.6358 -0.7014 -0.5012
  238MPD1    N1 3673   3.447   1.803  15.444 -0.5204 -0.4279  0.0228
  238MPD1    H6 3674   3.401   1.752  15.520 -0.4049 -1.4068 -0.5732
  238MPD1    H7 3675   3.471   1.899  15.471 -1.5373 -0.6668  1.8283
  239MPD1     C 3676   3.817   2.238  14.845  0.3030 -0.3875 -0.5028
  239MPD1    C1 3677   3.793   2.365  14.808 -0.8697 -0.0619  0.5264
  239MPD1    C2 3678   3.730   2.388  14.686  0.2206 -0.3753  0.2166
  239MPD1    C3 3679   3.699   2.284  14.607 -0.0163 -0.5757  1.0878
  239MPD1    C4 3680   3.732   2.155  14.642 -0.0333  0.1542 -0.4239
  239MPD1    C5 3681   3.797   2.132  14.762  0.5223 -0.1106 -0.9221
  239MPD1     H 3682   3.701   2.490  14.665  1.2392 -0.3033 -0.8527
  239MPD1    H1 3683   3.719   2.060  14.593 -1.8700  0.1222  0.1449
  239MPD1    H2 3684   3.873   2.216  14.935  1.6907 -0.7990 -1.4631
  239MPD1    H3 3685   3.835   2.031  14.776  1.3767  0.5692  1.6640
  239MPD1     N 3686   3.624   2.304  14.489  0.8136  0.7141  0.0070
  239MPD1    H5 3687   3.621   2.223  14.428 -1.3924  0.2162  0.7587
  239MPD1    N1 3688   3.815   2.470  14.895  0.5712 -0.1413 -0.9491
  239MPD1    H6 3689   3.844   2.551  14.841  3.0551 -1.3414 -1.4476
  239MPD1    H7 3690   3.872   2.452  14.977  0.9480  2.5610 -0.6390
  240MPD1     C 3691   3.063   1.819  13.641 -0.2170  0.2377 -0.1325
  240MPD1    C1 3692   2.953   1.880  13.694 -0.0380 -0.3413 -0.2581
  240MPD1    C2 3693   2.946   1.872  13.832  0.2041 -0.3576 -0.5112
  240MPD1    C3 3694   3.035   1.805  13.912  0.2880 -0.1920  0.0529
  240MPD1    C4 3695   3.148   1.750  13.855 -0.4092 -0.7010 -0.5625
  240MPD1    C5 3696   3.159   1.760  13.722  0.0787  0.5874  0.2991
  240MPD1     H 3697   2.852   1.904  13.876 -0.9778 -1.6465 -2.0867
  240MPD1    H1 3698   3.225   1.696  13.907 -0.1082 -0.6441 -0.9463
  240MPD1    H2 3699   3.090   1.825  13.536 -1.0599  3.1423 -0.1652
  240MPD1    H3 3700   3.247   1.710  13.683  1.2322  1.4286  1.7871
  240MPD1     N 3701   2.994   1.788  14.045  0.0008  0.4948 -0.0255
  240MPD1    H5 3702   2.905   1.824  14.079  1.4550  2.8545  1.2829
  240MPD1    N1 3703   2.847   1.926  13.612  0.0135 -0.1371  0.4323
  240MPD1    H6 3704   2.869   1.942  13.514  1.5995  0.2188  0.8513
  240MPD1    H7 3705   2.795   2.000  13.658  0.6665  1.2949 -1.1224
  241MPD1     C 3706   3.677   1.686  14.764  0.3598  0.6951  1.1058
  241MPD1    C1 3707   3.567   1.710  14.845  0.4296  0.9909  0.2170
  241MPD1    C2 3708   3.443   1.690  14.781  0.5276  0.3841  0.4140
  241MPD1    C3 3709   3.424   1.684  14.644 -0.7984 -0.6755  0.2143
  241MPD1    C4 3710   3.535   1.670  14.566 -1.1305  0.0896 -0.1646
  241MPD1    C5 3711   3.662   1.663  14.626 -1.0843 -0.7955  0.0974
  241MPD1     H 3712   3.355   1.702  14.842  0.8790  0.0543  0.9821
  241MPD1    H1 3713   3.537   1.661  14.458  1.1196  0.4722 -0.1630
  241MPD1    H2 3714   3.777   1.699  14.803  0.8428  0.0458  0.0984
  241MPD1    H3 3715   3.744   1.638  14.560 -0.9334 -1.5450  0.5637
  241MPD1     N 3716   3.301   1.678  14.568  0.2337  0.0427  0.3248
  241MPD1    H5 3717   3.305   1.673  14.466 -2.6487  0.0893  0.2187
  241MPD1    N1 3718   3.577   1.715  14.982  0.1103  0.5335  0.1004
  241MPD1    H6 3719   3.661   1.763  15.012 -0.1941  0.9556  0.2759
  241MPD1    H7 3720   3.498   1.767  15.020 -0.5879 -0.8056  0.5108
  242MPD1     C 3721   2.208   0.013  16.180 -0.1704 -0.0431 -0.4715
  242MPD1    C1 3722   2.171   4.652  16.100  0.4714 -0.2721  0.3229
  242MPD1    C2 3723   2.212   4.661  15.969  0.2762  0.0601 -0.0207
  242MPD1    C3 3724   2.287   0.029  15.916 -0.9353 -0.4258 -0.8009
  242MPD1    C4 3725   2.318   0.135  15.999  0.1019  0.1915 -0.2772
  242MPD1    C5 3726   2.285   0.115  16.132  0.8179  0.6874  0.6726
  242MPD1     H 3727   2.192   4.577  15.903 -0.9416  0.1032  0.3008
  242MPD1    H1 3728   2.365   0.228  15.970  1.6667  0.2032  2.2913
  242MPD1    H2 3729   2.203   4.737  16.287 -1.8427 -0.0894 -0.5453
  242MPD1    H3 3730   2.320   0.186  16.206  0.9436  0.7133  0.5873
  242MPD1     N 3731   2.323   0.044  15.777  0.1518 -0.4580  0.2389
  242MPD1    H5 3732   2.393   0.114  15.755  0.3953 -0.7536  0.0730
  242MPD1    N1 3733   2.118   4.535  16.147  0.4336 -0.3601  0.0346
  242MPD1    H6 3734   2.082   4.478  16.071 -0.7024  0.9297 -0.3895
  242MPD1    H7 3735   2.053   4.548  16.224  0.9973 -0.9439  0.6078
  243MPD1     C 3736   0.084   3.621  17.316 -1.0492 -0.2733  0.0058
  243MPD1    C1 3737   0.089   3.556  17.196 -0.4455  0.7992 -0.5786
  243MPD1    C2 3738   0.011   3.442  17.181 -0.7051 -0.0114  0.3786
  243MPD1    C3 3739   4.676   3.394  17.287  0.1943  0.7202 -1.3878
  243MPD1    C4 3740   4.676   3.465  17.410  0.0209  0.4772 -0.1051
  243MPD1    C5 3741   0.008   3.578  17.419  0.1918 -0.4919  0.0830
  243MPD1     H 3742   0.012   3.376  17.094 -0.3832  1.4186 -0.6960
  243MPD1    H1 3743   4.618   3.424  17.491 -0.2195  0.9931 -0.0170
  243MPD1    H2 3744   0.155   3.704  17.319  1.7056 -2.5596 -2.6307
  243MPD1    H3 3745   0.003   3.624  17.517 -2.0908 -0.4495 -0.0691
  243MPD1     N 3746   4.613   3.270  17.278  0.2099 -0.2075 -0.0508
  243MPD1    H5 3747   4.622   3.235  17.183 -2.2588 -1.0076 -0.0010
  243MPD1    N1 3748   0.193   3.589  17.101 -0.0889 -0.2867  0.0443
  243MPD1    H6 3749   0.178   3.563  17.004  0.3698 -2.9955  0.7022
  243MPD1    H7 3750   0.210   3.689  17.107 -0.4906 -0.2712  1.0058
  244MPD1     C 3751   4.617   2.523   0.171 -0.1308 -0.2739 -0.2555
  244MPD1    C1 3752   4.648   2.654   0.196 -0.1868 -0.4309 -0.0816
  244MPD1    C2 3753   4.663   2.738   0.086  0.0192 -0.1395 -0.0927
  244MPD1    C3 3754   4.643   2.693  17.718  0.1936  0.2223 -0.1160
  244MPD1    C4 3755   4.612   2.562  17.695 -0.0708 -0.1872  0.4506
  244MPD1    C5 3756   4.607   2.477   0.039  0.4984  0.4037  0.4915
  244MPD1     H 3757   4.698   2.838   0.104 -1.9204  0.1257  2.2615
  244MPD1    H1 3758   4.588   2.521  17.597 -0.6515 -0.6313  0.7868
  244MPD1    H2 3759   4.615   2.442   0.242  1.5890 -1.0198 -1.0760
  244MPD1    H3 3760   4.582   2.375   0.014 -1.3201  1.2883 -1.2828
  244MPD1     N 3761   4.654   2.789  17.617  0.3822 -0.2456  0.1437
  244MPD1    H5 3762   4.667   2.887  17.639 -0.1075  0.1494 -1.3332
  244MPD1    N1 3763   4.661   2.701   0.330 -0.0837 -0.2498 -0.6326
  244MPD1    H6 3764   4.669   2.620   0.392  2.1008  0.9866  0.7320
  244MPD1    H7 3765   0.001   2.761   0.348  0.9728 -1.1630 -2.4187
  245MPD1     C 3766   1.188   4.262  12.662 -0.3814 -0.1014  0.3297
  245MPD1    C1 3767   1.238   4.383  12.642  0.0236 -0.0403  0.0250
  245MPD1    C2 3768   1.279   4.464  12.745 -0.6200  0.1640  1.0989
  245MPD1    C3 3769   1.225   4.443  12.872  0.4456  0.5085  0.3131
  245MPD1    C4 3770   1.167   4.324  12.893 -0.0722  0.3803 -0.1584
  245MPD1    C5 3771   1.152   4.232  12.792 -0.0831 -0.0779  0.2528
  245MPD1     H 3772   1.336   4.552  12.718 -0.7407 -0.6715 -1.8555
  245MPD1    H1 3773   1.132   4.296  12.991  1.3992  1.1286  0.5909
  245MPD1    H2 3774   1.186   4.186  12.584 -0.7896  0.9778 -0.7076
  245MPD1    H3 3775   1.129   4.129  12.816  0.1660  0.3172  2.2086
  245MPD1     N 3776   1.262   4.528  12.978  0.2168  0.7196  0.9205
  245MPD1    H5 3777   1.328   4.597  12.945 -0.0687 -0.7609 -2.7449
  245MPD1    N1 3778   1.268   4.413  12.512  0.6480 -0.5867  0.1097
  245MPD1    H6 3779   1.205   4.374  12.442  0.7967 -0.0751 -0.3191
  245MPD1    H7 3780   1.259   4.513  12.493 -1.2305 -0.2783  2.6474
  246MPD1     C 3781   0.077   0.881   9.229 -0.1313  0.0296  0.9021
  246MPD1    C1 3782   0.094   0.824   9.102  0.2635 -0.2065  0.0105
  246MPD1    C2 3783   0.205   0.745   9.080 -0.1704  0.2461  0.0597
  246MPD1    C3 3784   0.305   0.743   9.174  0.9377  0.1571  0.4456
  246MPD1    C4 3785   0.295   0.810   9.296 -0.2317 -0.6720 -0.1647
  246MPD1    C5 3786   0.178   0.875   9.327  0.2013 -0.2841 -0.1561
  246MPD1     H 3787   0.219   0.693   8.986  0.1963 -1.1018  0.8598
  246MPD1    H1 3788   0.366   0.806   9.378  0.8797  2.3250 -0.9883
  246MPD1    H2 3789   4.727   0.939   9.244 -1.1826 -0.4782 -3.6527
  246MPD1    H3 3790   0.169   0.918   9.426 -1.6385 -1.0424  0.0092
  246MPD1     N 3791   0.420   0.677   9.132  0.1574 -0.1788 -0.8959
  246MPD1    H5 3792   0.421   0.638   9.038 -1.3152 -1.4427 -0.3869
  246MPD1    N1 3793   4.719   0.804   9.028 -0.5075 -0.2783 -0.3319
  246MPD1    H6 3794   4.655   0.884   9.030 -1.1362 -0.7600 -1.1016
  246MPD1    H7 3795   0.008   0.768   8.937 -0.5937 -0.6187 -0.2241
  247MPD1     C 3796   0.254   3.285  15.730 -0.4093 -0.2123 -0.0368
  247MPD1    C1 3797   0.252   3.426  15.717 -0.3106 -0.5284 -0.1320
  247MPD1    C2 3798   0.373   3.484  15.681  0.0104  0.6245  0.3108
  247MPD1    C3 3799   0.475   3.405  15.620 -0.0553 -0.0555 -0.6124
  247MPD1    C4 3800   0.466   3.267  15.619 -0.3517  0.2977  0.0490
  247MPD1    C5 3801   0.352   3.204  15.669  0.5267 -0.0523 -0.4063
  247MPD1     H 3802   0.377   3.592  15.674  2.0187  0.4398 -1.1485
  247MPD1    H1 3803   0.543   3.203  15.578 -0.2404  1.3692 -1.4237
  247MPD1    H2 3804   0.169   3.238  15.778  0.1754  0.6390  1.8415
  247MPD1    H3 3805   0.344   3.096  15.658  0.8525 -0.0040 -1.1319
  247MPD1     N 3806   0.586   3.459  15.557 -0.4450 -0.6075 -0.2192
  247MPD1    H5 3807   0.649   3.394  15.511 -1.5477 -2.4839  0.8720
  247MPD1    N1 3808   0.149   3.506  15.768 -0.4559 -0.4087  0.4305
  247MPD1    H6 3809   0.165   3.603  15.740  0.3825 -1.3802 -2.4123
  247MPD1    H7 3810   0.057   3.477  15.735 -1.2450  0.8927  1.4593
  248MPD1     C 3811   2.418   2.403   0.635  0.4829  0.4618  0.2605
  248MPD1    C1 3812   2.290   2.437   0.614 -0.2688 -0.2558 -0.5559
  248MPD1    C2 3813   2.230   2.546   0.679 -0.3773 -0.2448 -0.0282
  248MPD1    C3 3814   2.303   2.624   0.762 -0.0117 -0.2147  0.3018
  248MPD1    C4 3815   2.439   2.601   0.768  0.5190  1.0845 -0.4995
  248MPD1    C5 3816   2.492   2.495   0.704  0.1450  0.2548  0.2808
  248MPD1     H 3817   2.125   2.572   0.665 -0.7131 -0.6762  1.6675
  248MPD1    H1 3818   2.499   2.675   0.820  0.6910  1.8024 -1.7042
  248MPD1    H2 3819   2.456   2.319   0.577  0.3343 -0.6981  1.8245
  248MPD1    H3 3820   2.599   2.479   0.707  0.0874 -0.1133  0.4603
  248MPD1     N 3821   2.228   2.725   0.831 -0.1631  0.4385  0.5250
  248MPD1    H5 3822   2.127   2.730   0.823 -0.0829  0.5593 -0.4751
  248MPD1    N1 3823   2.211   2.344   0.545  0.2975  0.4214  0.6571
  248MPD1    H6 3824   2.127   2.384   0.505 -0.8681 -1.7022  0.9649
  248MPD1    H7 3825   2.264   2.300   0.470 -0.1292 -2.0694  1.8128
  249MPD1     C 3826   3.409   3.089  10.744 -0.7161 -0.4428 -0.2171
  249MPD1    C1 3827   3.430   3.227  10.720  0.1820 -0.3127 -0.3540
  249MPD1    C2 3828   3.451   3.267  10.583 -0.5388  0.2873  0.3935
  249MPD1    C3 3829   3.434   3.181  10.475 -0.0688  0.0745 -0.7328
  249MPD1    C4 3830   3.399   3.050  10.504  0.1298  0.2073 -0.0163
  249MPD1    C5 3831   3.379   3.011  10.634 -0.9545 -0.6939 -0.7090
  249MPD1     H 3832   3.487   3.368  10.567 -2.1979  0.5369 -1.7294
  249MPD1    H1 3833   3.382   2.970  10.432  2.2322 -1.5204  1.4197
  249MPD1    H2 3834   3.415   3.046  10.843  0.2654 -1.7531 -0.8437
  249MPD1    H3 3835   3.371   2.903  10.645  1.6525 -0.9374 -1.2519
  249MPD1     N 3836   3.465   3.229  10.349 -0.0072 -0.1940 -0.3070
  249MPD1    H5 3837   3.515   3.317  10.343 -0.4922 -0.0469 -2.0173
  249MPD1    N1 3838   3.462   3.320  10.820  0.5581 -0.1421 -0.3761
  249MPD1    H6 3839   3.415   3.291  10.906  0.8765  0.0163 -0.1486
  249MPD1    H7 3840   3.435   3.414  10.792 -2.1244 -1.1798 -1.1943
  250MPD2     C 3841   4.539   3.339  13.085  0.2576  0.1911 -0.3694
  250MPD2    C1 3842   4.490   3.313  13.210  0.1460  0.2874  0.0621
  250MPD2    C2 3843   4.385   3.225  13.215  0.0119 -0.0960  0.0630
  250MPD2    C3 3844   4.323   3.164  13.105 -0.6845 -0.0702  0.1847
  250MPD2    C4 3845   4.373   3.205  12.984  0.0788  0.5032 -0.2353
  250MPD2    C5 3846   4.480   3.289  12.978 -0.0331 -0.0624 -0.1869
  250MPD2     H 3847   4.334   3.206  13.309 -0.0307 -2.0900 -0.3449
  250MPD2    H1 3848   4.334   3.163  12.892 -2.4580 -0.2880  1.1987
  250MPD2    H2 3849   4.613   3.419  13.076 -0.5132  0.7257 -2.0634
  250MPD2    H3 3850   4.519   3.311  12.879  1.8953 -0.6265  0.4413
  250MPD2     N 3851   4.214   3.076  13.109  0.6517  0.4687 -0.5804
  250MPD2    H5 3852   4.192   3.024  13.193  0.7127 -0.3188 -1.0539
  250MPD2    N1 3853   4.550   3.373  13.323  0.2160  0.3610 -0.2400
  250MPD2    H7 3854   4.645   3.407  13.310  0.2022  1.1224  1.5477
  251TMC3    C1 3855   4.568   3.471  13.540 -0.5399 -0.5853  0.3745
  251TMC3    C2 3856   4.506   3.578  13.607 -0.4279 -0.0892  0.2327
  251TMC3    C3 3857   4.592   3.672  13.654  0.3221 -0.8024 -0.0935
  251TMC3    C4 3858   4.700   3.456  13.537  0.2483 -0.9042 -0.3147
  251TMC3    C5 3859   0.036   3.566  13.573  0.2901  0.0408  0.2115
  251TMC3    C6 3860   4.728   3.672  13.632 -0.1479 -0.2730  0.8527
  251TMC3     C 3861   4.489   3.393  13.446 -0.4358  0.1166 -0.2671
  251TMC3     O 3862   4.379   3.361  13.479 -0.2774 -0.0178 -0.0799
  251TMC3     H 3863   4.400   3.573  13.627 -0.3296 -1.8320  0.3007
  251TMC3    H1 3864   0.004   3.374  13.482  0.5073 -1.6604  1.0105
  251TMC3    H2 3865   0.054   3.749  13.670 -1.4195  0.3985  1.7199
  251TMC3    C7 3866   0.179   3.548  13.574  0.0599  0.1346 -0.5378
  251TMC3    C8 3867   4.547   3.806  13.676  0.8277 -0.1951 -0.7577
  251TMC3    O1 3868   0.211   3.433  13.591 -0.6286  0.2460 -0.1521
  251TMC3    O2 3869   4.625   3.884  13.626  0.5445 -0.1861  0.1019
  252TMC3    C1 3870   4.526   4.574  10.059 -0.2259 -0.0049 -0.3572
  252TMC3    C2 3871   4.662   4.577  10.056 -0.5935  0.0162  0.2776
  252TMC3    C3 3872   4.722   4.470   9.986 -0.1451 -0.0688 -0.2965
  252TMC3    C4 3873   4.453   4.489   9.985  0.2708 -0.5565 -0.7188
  252TMC3    C5 3874   4.519   4.389   9.909 -0.3968  0.5598  0.4940
  252TMC3    C6 3875   4.653   4.370   9.918  0.1820 -0.7099  0.5057
  252TMC3     C 3876   4.455   4.679  10.131  0.2892 -0.5365 -0.4965
  252TMC3     O 3877   4.336   4.692  10.111  0.1327  0.7982 -0.2211
  252TMC3     H 3878   4.722   4.664  10.078 -0.3098  0.0668 -0.7009
  252TMC3    H1 3879   4.352   4.520   9.963  0.2921 -1.2194 -1.7170
  252TMC3    H2 3880   4.705   4.305   9.849 -0.5792  0.1715 -0.8963
  252TMC3    C7 3881   4.438   4.311   9.823 -0.2915  0.2679 -0.5949
  252TMC3    C8 3882   0.124   4.488   9.964 -0.2383 -0.6167  0.0776
  252TMC3    O1 3883   4.330   4.355   9.784 -0.4409 -0.3228 -0.3572
  252TMC3    O2 3884   0.162   4.606   9.960 -0.4085  0.0675  0.2919
  253MPD2     C 3885   1.193   2.708  15.084 -0.2193  0.0904  0.0097
  253MPD2    C1 3886   1.090   2.787  15.132 -0.0978 -1.0226 -0.3335
  253MPD2    C2 3887   1.049   2.778  15.263 -0.1398  0.3898 -0.4140
  253MPD2    C3 3888   1.113   2.689  15.347  0.2676 -0.0609 -0.6477
  253MPD2    C4 3889   1.220   2.608  15.298 -0.1696  0.0718 -0.3248
  253MPD2    C5 3890   1.264   2.625  15.170 -0.1536  0.5285 -0.2139
  253MPD2     H 3891   0.961   2.826  15.305 -1.3921 -2.2040 -0.0423
  253MPD2    H1 3892   1.267   2.554  15.379  0.6048  0.1014 -0.7626
  253MPD2    H2 3893   1.235   2.725  14.986 -0.4483  0.5302 -0.0137
  253MPD2    H3 3894   1.349   2.570  15.131  2.3101  3.0684  1.5868
  253MPD2     N 3895   1.089   2.678  15.487  0.3206 -0.8150  0.1543
  253MPD2    H5 3896   1.150   2.614  15.537  0.6638  0.6192  1.5662
  253MPD2    N1 3897   1.014   2.875  15.049  0.0672  0.2687  0.2202
  253MPD2    H7 3898   0.943   2.921  15.104 -2.6517 -2.2495 -1.2240
  254TMC3    C1 3899   0.970   2.677  15.690  0.8608 -0.6103 -0.0428
  254TMC3    C2 3900   0.848   2.699  15.746  0.4717  0.1050 -0.1121
  254TMC3    C3 3901   0.806   2.628  15.854  0.5043  0.4867 -0.0251
  254TMC3    C4 3902   1.053   2.579  15.741 -0.4953 -0.0395  0.8464
  254TMC3    C5 3903   1.013   2.508  15.856 -0.4534 -0.0353 -0.5888
  254TMC3    C6 3904   0.888   2.530  15.903  0.0878  0.6306  0.5063
  254TMC3     C 3905   0.981   2.732  15.556  0.4473 -0.1501 -0.6763
  254TMC3     O 3906   0.884   2.804  15.522 -0.1572 -0.2397  0.2385
  254TMC3     H 3907   0.782   2.773  15.702  1.3655  0.5011 -0.7811
  254TMC3    H1 3908   1.159   2.571  15.718 -0.8087  1.0744 -1.0536
  254TMC3    H2 3909   0.856   2.480  15.994 -0.4968 -2.1505 -1.2360
  254TMC3    C7 3910   1.113   2.466  15.951 -0.2728 -0.2721 -0.8193
  254TMC3    C8 3911   0.674   2.637  15.912  0.1178  0.1069  0.1142
  254TMC3    O1 3912   1.072   2.414  16.051  0.0317  0.5430 -0.2392
  254TMC3    O2 3913   0.645   2.558  15.998  0.6972 -0.3269  0.0580
  255MPD2     C 3914   3.982   0.745  10.366 -0.4143  0.0904  1.0074
  255MPD2    C1 3915   4.063   0.848  10.396 -0.8451 -0.0778  0.2715
  255MPD2    C2 3916   4.198   0.826  10.380 -0.2851  0.0263  0.1561
  255MPD2    C3 3917   4.244   0.709  10.318 -0.6406  0.1132 -0.2956
  255MPD2    C4 3918   4.151   0.618  10.276 -0.1471 -0.0130 -1.0495
  255MPD2    C5 3919   4.020   0.628  10.311  0.8190  0.0762 -0.3428
  255MPD2     H 3920   4.279   0.886  10.420  0.8143 -1.0957 -0.3835
  255MPD2    H1 3921   4.188   0.528  10.229  2.8281  0.5158  0.3099
  255MPD2    H2 3922   3.874   0.747  10.369 -0.4070  0.2654  1.1326
  255MPD2    H3 3923   3.949   0.548  10.293  0.3782 -0.4998  3.8777
  255MPD2     N 3924   4.385   0.688  10.300  0.3866 -0.2086 -0.0965
  255MPD2    H5 3925   4.450   0.751  10.346  0.4386 -0.7645  0.5990
  255MPD2    N1 3926   4.009   0.957  10.457 -0.4532 -0.2977 -0.1490
  255MPD2    H7 3927   3.908   0.962  10.465 -0.4828 -0.5366 -0.3840
  256TMC3    C1 3928   3.981   1.195  10.498 -0.2268  0.8702  0.2007
  256TMC3    C2 3929   4.038   1.316  10.507  0.4673  0.4145 -0.0879
  256TMC3    C3 3930   3.957   1.429  10.514 -0.2010  0.0724 -0.2011
  256TMC3    C4 3931   3.843   1.179  10.490  0.2486  0.4464 -0.5736
  256TMC3    C5 3932   3.765   1.288  10.491  0.2565  0.8107  0.1171
  256TMC3    C6 3933   3.819   1.413  10.498 -0.5048  1.0582  0.3056
  256TMC3     C 3934   4.071   1.079  10.479 -0.1989  0.0676 -0.4843
  256TMC3     O 3935   4.191   1.093  10.483  0.2652  0.0167 -0.0358
  256TMC3     H 3936   4.145   1.329  10.520  0.3142  1.1595  0.4120
  256TMC3    H1 3937   3.786   1.086  10.493  0.0853  0.6184  1.7234
  256TMC3    H2 3938   3.744   1.491  10.490 -0.0060  1.5129  0.0729
  256TMC3    C7 3939   3.666   1.269  10.391  0.2462 -0.5209  0.1936
  256TMC3    C8 3940   4.017   1.554  10.477 -0.6398 -0.3765 -0.3481
  256TMC3    O1 3941   3.693   1.179  10.308 -0.1322  0.2866  0.2582
  256TMC3    O2 3942   4.129   1.536  10.431 -0.6056 -0.1973 -0.5885
  257MPD2     C 3943   2.936   2.420  13.368  0.1960 -0.0144  0.7311
  257MPD2    C1 3944   3.061   2.451  13.327  0.7491 -0.0267  0.2125
  257MPD2    C2 3945   3.173   2.377  13.361 -0.9479  0.0946  0.1147
  257MPD2    C3 3946   3.147   2.274  13.446  0.2837  0.0231 -0.7532
  257MPD2    C4 3947   3.026   2.246  13.499  0.4846 -0.0112  0.2223
  257MPD2    C5 3948   2.913   2.315  13.460 -0.6665 -0.3597 -0.2677
  257MPD2     H 3949   3.272   2.401  13.325 -2.1466  1.0548 -2.5584
  257MPD2    H1 3950   3.006   2.167  13.571  1.1083  1.2400  1.7559
  257MPD2    H2 3951   2.845   2.471  13.336  0.6279  0.1113 -0.2981
  257MPD2    H3 3952   2.816   2.287  13.499  0.4839 -2.3942  1.1515
  257MPD2     N 3953   3.261   2.191  13.483 -0.1758 -0.0734 -0.4301
  257MPD2    H5 3954   3.340   2.199  13.419 -0.0192  0.5551 -0.1532
  257MPD2    N1 3955   3.070   2.564  13.241  0.4238  0.1140  0.3581
  257MPD2    H7 3956   2.987   2.604  13.199  0.3336 -0.3462  0.0971
  258TMC3    C1 3957   3.378   2.016  13.602  0.0369 -0.2936 -0.1534
  258TMC3    C2 3958   3.420   1.968  13.479  0.6459 -0.4212 -0.6884
  258TMC3    C3 3959   3.495   1.856  13.477  0.5813 -0.4100 -0.4288
  258TMC3    C4 3960   3.419   1.966  13.719  0.3267 -0.2219  0.2835
  258TMC3    C5 3961   3.498   1.859  13.715 -0.5397 -0.2705 -0.0539
  258TMC3    C6 3962   3.523   1.791  13.597 -0.4448 -0.3616  0.0420
  258TMC3     C 3963   3.275   2.121  13.602 -0.1116  0.2305  0.4956
  258TMC3     O 3964   3.211   2.142  13.703 -0.7859 -0.1750 -0.1211
  258TMC3     H 3965   3.377   2.004  13.386 -2.1827 -0.1781  0.7262
  258TMC3    H1 3966   3.368   1.996  13.810  0.5417  1.3841 -0.1343
  258TMC3    H2 3967   3.577   1.698  13.595  1.3669  0.6621  1.2116
  258TMC3    C7 3968   3.504   1.776  13.838  0.5404  0.8592  0.4628
  258TMC3    C8 3969   3.520   1.792  13.346  0.1985 -0.1002 -0.3008
  258TMC3    O1 3970   3.470   1.658  13.834 -0.3544 -0.4877 -0.0482
  258TMC3    O2 3971   3.559   1.677  13.349  0.1117 -0.0550 -0.6916
  259MPD2     C 3972   2.814   3.637   1.209  0.6237  0.0229 -0.5020
  259MPD2    C1 3973   2.801   3.497   1.212  0.4806  0.8412  0.6081
  259MPD2    C2 3974   2.794   3.436   1.092 -0.0300 -0.1485 -0.2815
  259MPD2    C3 3975   2.787   3.498   0.972  0.0361  0.9247 -0.0065
  259MPD2    C4 3976   2.783   3.638   0.969 -0.8390  0.2895 -0.2216
  259MPD2    C5 3977   2.798   3.707   1.090  0.3931  0.6867  0.0839
  259MPD2     H 3978   2.822   3.331   1.083  1.6858  0.2765  0.1134
  259MPD2    H1 3979   2.776   3.694   0.876  0.5476 -0.2260 -0.6355
  259MPD2    H2 3980   2.837   3.702   1.292 -1.1863  0.6742 -0.4927
  259MPD2    H3 3981   2.803   3.815   1.093  1.8579  0.6088  0.8244
  259MPD2     N 3982   2.779   3.411   0.860 -0.1224  0.4747 -0.5194
  259MPD2    H5 3983   2.782   3.310   0.866 -0.1438  0.3975 -1.7461
  259MPD2    N1 3984   2.803   3.438   1.345  0.0799 -0.2235  0.0494
  259MPD2    H7 3985   2.838   3.493   1.422  0.5102 -0.3983 -0.0194
  260TMC3    C1 3986   2.735   3.351   0.635  0.6481 -0.4001  0.4533
  260TMC3    C2 3987   2.721   3.392   0.503  0.3891  1.2667 -0.6748
  260TMC3    C3 3988   2.724   3.298   0.413  0.3877 -0.1290  0.4822
  260TMC3    C4 3989   2.731   3.221   0.673  0.1654  0.1146  0.4748
  260TMC3    C5 3990   2.718   3.129   0.567  0.0282 -0.0920 -0.6165
  260TMC3    C6 3991   2.718   3.167   0.439  0.2734  0.3127 -0.5208
  260TMC3     C 3992   2.748   3.459   0.732  0.6605 -0.0430 -0.6510
  260TMC3     O 3993   2.718   3.571   0.693  0.0625 -0.7244 -0.2045
  260TMC3     H 3994   2.713   3.498   0.481 -2.9395  0.8207 -1.6747
  260TMC3    H1 3995   2.764   3.183   0.769  1.2057 -0.2951 -0.0420
  260TMC3    H2 3996   2.701   3.097   0.358  0.3912  1.5751 -1.6490
  260TMC3    C7 3997   2.778   2.999   0.579  0.4703  0.3815  0.7301
  260TMC3    C8 3998   2.740   3.346   0.269  0.3755  0.0305 -0.2248
  260TMC3    O1 3999   2.730   2.923   0.498 -0.1237 -0.4694 -0.3437
  260TMC3    O2 4000   2.710   3.459   0.239 -0.3797 -0.9860 -0.1412
  261MPD2     C 4001   3.944   2.613  12.484 -0.2301  0.5302 -0.6306
  261MPD2    C1 4002   3.902   2.734  12.530 -0.7664  1.5067 -0.1521
  261MPD2    C2 4003   3.854   2.830  12.441  0.0156 -0.3493  0.0867
  261MPD2    C3 4004   3.851   2.815  12.306 -0.6574  0.8146 -0.9133
  261MPD2    C4 4005   3.904   2.699  12.265  0.2758 -0.1021  0.4232
  261MPD2    C5 4006   3.952   2.605  12.348  0.2805 -0.6925 -0.0561
  261MPD2     H 4007   3.839   2.924  12.492 -1.3092 -0.8294  0.5756
  261MPD2    H1 4008   3.920   2.688  12.158  0.2100 -2.7881  0.7045
  261MPD2    H2 4009   3.989   2.535  12.545  1.3425  0.4440 -1.9241
  261MPD2    H3 4010   4.000   2.516  12.310 -0.9811 -1.7128  0.7647
  261MPD2     N 4011   3.811   2.923  12.224  0.1159 -0.0888  0.0474
  261MPD2    H5 4012   3.805   3.015  12.267  3.0488 -0.3990  1.1194
  261MPD2    N1 4013   3.922   2.777  12.664 -0.3143 -0.2564  0.4572
  261MPD2    H7 4014   3.898   2.870  12.697  0.4721  0.5204 -1.1541
  262TMC3    C1 4015   3.800   3.056  12.021  0.2294  0.3941  0.3948
  262TMC3    C2 4016   3.773   3.161  12.101  0.0711  0.4871  0.0168
  262TMC3    C3 4017   3.831   3.280  12.068 -0.1351  0.3491 -0.3869
  262TMC3    C4 4018   3.874   3.064  11.907  0.1681  0.3717 -0.0830
  262TMC3    C5 4019   3.926   3.186  11.876  0.4498  0.0342 -0.7137
  262TMC3    C6 4020   3.913   3.291  11.959  1.0513 -0.2471  0.1275
  262TMC3     C 4021   3.812   2.931  12.089 -0.2906  0.3696  0.4335
  262TMC3     O 4022   3.818   2.833  12.010 -0.5354  0.5443  0.0028
  262TMC3     H 4023   3.731   3.152  12.201 -0.7811 -1.5962 -0.5420
  262TMC3    H1 4024   3.885   2.979  11.841  1.9121  1.1374 -0.7964
  262TMC3    H2 4025   3.942   3.391  11.929 -0.5874  0.6023  1.3963
  262TMC3    C7 4026   3.995   3.215  11.753  0.5866  0.5932 -0.2265
  262TMC3    C8 4027   3.799   3.406  12.135 -0.1826  0.8653  0.1716
  262TMC3    O1 4028   3.997   3.118  11.670 -0.4893 -0.2819  0.3718
  262TMC3    O2 4029   3.855   3.507  12.088  0.1181  0.2358  0.2433
  263MPD2     C 4030   0.036   2.166  11.954  0.1477  0.0744  0.9161
  263MPD2    C1 4031   0.102   2.077  11.868  0.2426  0.2279  0.4026
  263MPD2    C2 4032   0.096   2.100  11.729 -0.3567 -0.8623 -0.4311
  263MPD2    C3 4033   0.022   2.209  11.675 -0.1810 -0.4950 -0.1776
  263MPD2    C4 4034   4.685   2.283  11.763  0.6225 -0.1297 -0.4887
  263MPD2    C5 4035   4.703   2.268  11.898 -0.0476  0.3178  0.1187
  263MPD2     H 4036   0.145   2.037  11.655  0.5479 -1.2818  0.5234
  263MPD2    H1 4037   4.608   2.351  11.729 -0.1891 -1.0237 -0.4671
  263MPD2    H2 4038   0.060   2.168  12.059 -0.7477  0.1035  1.1246
  263MPD2    H3 4039   4.654   2.342  11.960 -2.3152 -1.9260  0.9946
  263MPD2     N 4040   0.029   2.229  11.533 -0.5189 -0.0348 -0.6800
  263MPD2    H5 4041   0.101   2.178  11.482  0.4736  0.5361  0.1365
  263MPD2    N1 4042   0.163   1.965  11.922  0.0106  0.1913 -0.0961
  263MPD2    H7 4043   0.157   1.965  12.024  1.6805  0.7944 -0.0005
  264TMC3    C1 4044   4.731   2.330  11.319 -0.3694 -0.3471 -0.1978
  264TMC3    C2 4045   4.631   2.368  11.242 -0.2278  0.2061 -0.5677
  264TMC3    C3 4046   4.664   2.420  11.121  0.9172 -0.7282  0.0554
  264TMC3    C4 4047   0.126   2.336  11.287 -0.2819  0.6736 -0.8662
  264TMC3    C5 4048   0.151   2.371  11.160  0.0314 -0.3946  0.3078
  264TMC3    C6 4049   0.046   2.398  11.072  0.2633  0.0014  0.0519
  264TMC3     C 4050   4.692   2.314  11.458 -0.5098 -0.2955  0.4890
  264TMC3     O 4051   4.590   2.376  11.479 -0.2039  0.3150 -0.2130
  264TMC3     H 4052   4.528   2.364  11.277 -0.6328 -0.6177 -1.8487
  264TMC3    H1 4053   0.202   2.295  11.353  1.1202 -0.1155 -2.9625
  264TMC3    H2 4054   0.077   2.433  10.974  0.0899 -2.6598 -0.9683
  264TMC3    C7 4055   0.271   2.445  11.134 -0.1448 -0.3874 -0.3094
  264TMC3    C8 4056   4.651   2.566  11.122 -0.3046  0.5525  0.1587
  264TMC3    O1 4057   0.296   2.460  11.014 -0.0082  0.3547 -0.7108
  264TMC3    O2 4058   4.709   2.625  11.032  0.6453 -0.1982 -0.1728
  265MPD2     C 4059   2.652   2.047  15.668  0.9042 -0.2134 -0.2559
  265MPD2    C1 4060   2.678   2.168  15.606  0.5757  0.4275 -0.8557
  265MPD2    C2 4061   2.682   2.180  15.467 -0.6419  0.0127 -0.5792
  265MPD2    C3 4062   2.656   2.072  15.383 -0.2416  0.0713 -0.4191
  265MPD2    C4 4063   2.613   1.958  15.450  0.8581 -0.0019  0.5628
  265MPD2    C5 4064   2.620   1.941  15.583 -0.7994 -0.2693 -0.2978
  265MPD2     H 4065   2.708   2.272  15.414  1.7060 -1.0473 -1.2601
  265MPD2    H1 4066   2.592   1.874  15.383 -0.4625  0.2829  0.6183
  265MPD2    H2 4067   2.642   2.031  15.774 -1.4391  0.2288 -0.4150
  265MPD2    H3 4068   2.598   1.847  15.634  1.4457 -0.0135  1.1496
  265MPD2     N 4069   2.664   2.070  15.237 -0.4951 -0.4702  0.0099
  265MPD2    H5 4070   2.630   1.983  15.197  1.5746 -1.4077  0.2435
  265MPD2    N1 4071   2.692   2.278  15.690  0.8150  0.2830  0.1395
  265MPD2    H7 4072   2.681   2.370  15.650 -1.8864  0.1464  0.5289
  266TMC3    C1 4073   2.705   2.406  15.882  0.3343  0.8028  0.0307
  266TMC3    C2 4074   2.763   2.421  16.001  0.0132  0.3625 -0.2648
  266TMC3    C3 4075   2.721   2.513  16.094 -0.2087  0.0700  0.1498
  266TMC3    C4 4076   2.602   2.480  15.839  0.1622  0.0193 -0.0402
  266TMC3    C5 4077   2.562   2.573  15.930 -0.6817  0.5031  0.0496
  266TMC3    C6 4078   2.618   2.590  16.058 -0.0537  0.2579  0.3047
  266TMC3     C 4079   2.738   2.279  15.822 -0.2278 -0.4575 -0.4716
  266TMC3     O 4080   2.788   2.194  15.892  0.2158  0.3145  0.3052
  266TMC3     H 4081   2.839   2.352  16.036  0.5514  0.8527 -0.4676
  266TMC3    H1 4082   2.557   2.467  15.741 -0.4296 -2.7937  0.6077
  266TMC3    H2 4083   2.590   2.673  16.123  2.3512  1.1329  0.2395
  266TMC3    C7 4084   2.428   2.635  15.923  0.5074 -0.4176  0.0236
  266TMC3    C8 4085   2.803   2.547  16.210 -0.3601 -0.1395  0.5728
  266TMC3    O1 4086   2.383   2.668  16.036  0.1725 -0.4476 -0.6715
  266TMC3    O2 4087   2.913   2.493  16.218  0.2861 -0.5491 -0.5857
  267MPD2     C 4088   0.004   3.854  17.755  0.0705 -0.6612  0.0014
  267MPD2    C1 4089   0.100   3.919  17.686 -0.2243  0.4011 -0.1555
  267MPD2    C2 4090   0.068   3.945  17.555 -0.0280  0.3528  0.5770
  267MPD2    C3 4091   4.688   3.895  17.499  0.6730 -0.4424  0.5596
  267MPD2    C4 4092   4.598   3.833  17.574 -0.1911  0.0223  0.4574
  267MPD2    C5 4093   4.628   3.809  17.701 -0.1396  0.5108  0.2976
  267MPD2     H 4094   0.140   3.996  17.491  0.9322  1.4640  2.5337
  267MPD2    H1 4095   4.507   3.799  17.526 -0.4013 -0.5394  1.2576
  267MPD2    H2 4096   0.006   3.826   0.101 -0.7739 -0.0712  0.1735
  267MPD2    H3 4097   4.551   3.770   0.008 -0.8106  1.1963 -0.0903
  267MPD2     N 4098   4.654   3.926  17.364 -0.0198  0.4751  0.0567
  267MPD2    H5 4099   4.578   3.866  17.332  1.7522 -1.4892 -0.4774
  267MPD2    N1 4100   0.217   3.960   0.001  0.3299 -0.6844 -0.5910
  267MPD2    H7 4101   0.218   3.923   0.096 -1.1479  1.5191  0.2626
  268TMC3    C1 4102   0.446   4.005   0.031  0.2950 -0.2805  0.4845
  268TMC3    C2 4103   0.551   4.080  17.741  0.5188 -0.6237 -0.2503
  268TMC3    C3 4104   0.672   4.059   0.033 -0.2988  0.0740  0.6577
  268TMC3    C4 4105   0.470   3.913   0.130 -0.4503  0.6906 -0.7223
  268TMC3    C5 4106   0.599   3.887   0.173  0.0093 -0.5819  0.0048
  268TMC3    C6 4107   0.702   3.961   0.123  0.1121 -0.5536 -0.1731
  268TMC3     C 4108   0.330   4.016  17.704 -0.3884  0.3304 -0.7581
  268TMC3     O 4109   0.346   4.067  17.595 -0.1017  0.0755 -0.3177
  268TMC3     H 4110   0.537   4.167  17.677 -0.9939 -0.6740  0.0025
  268TMC3    H1 4111   0.390   3.852   0.171  0.3843 -1.0344 -1.6586
  268TMC3    H2 4112   0.805   3.943   0.153 -0.2977 -2.1609  0.2547
  268TMC3    C7 4113   0.637   3.803   0.289 -0.2352  0.3508 -0.2258
  268TMC3    C8 4114   0.783   4.140  17.739  0.4611  0.3781 -0.5627
  268TMC3    O1 4115   0.754   3.772   0.290  0.6036 -0.3117 -0.0390
  268TMC3    O2 4116   0.882   4.133   0.051 -0.2029  0.1221  0.7343
  269MPD2     C 4117   0.621   2.978  15.308 -0.2731 -0.0123  0.0643
  269MPD2    C1 4118   0.490   2.957  15.365 -0.4822  0.8785  0.3167
  269MPD2    C2 4119   0.396   3.055  15.350  0.1703 -0.1304  0.2374
  269MPD2    C3 4120   0.436   3.178  15.292  0.0226  0.6075  0.5327
  269MPD2    C4 4121   0.552   3.193  15.227  0.1133 -0.0605 -0.4219
  269MPD2    C5 4122   0.642   3.089  15.226  0.5567 -0.1711  0.4248
  269MPD2     H 4123   0.300   3.040  15.399 -0.9410 -0.4505 -2.0467
  269MPD2    H1 4124   0.591   3.274  15.166  1.2392 -0.1701  0.1608
  269MPD2    H2 4125   0.691   2.896  15.317  1.7045  2.1168  3.9755
  269MPD2    H3 4126   0.738   3.111  15.181  0.1178 -1.6054 -1.2364
  269MPD2     N 4127   0.338   3.281  15.290  0.9409  0.1149 -0.2994
  269MPD2    H5 4128   0.256   3.263  15.348 -0.5505 -1.5417 -2.9578
  269MPD2    N1 4129   0.472   2.837  15.442  0.2843  1.1052 -0.1833
  269MPD2    H7 4130   0.548   2.770  15.441 -0.6008  0.1303 -1.3418
  270TMC3    C1 4131   0.357   2.664  15.555 -0.1704 -0.2922 -0.2033
  270TMC3    C2 4132   0.238   2.598  15.557 -0.1665 -0.1107  0.3354
  270TMC3    C3 4133   0.236   2.470  15.599  0.7551 -0.3718  0.8082
  270TMC3    C4 4134   0.479   2.598  15.569  0.1086  0.0972  0.4704
  270TMC3    C5 4135   0.473   2.465  15.605 -0.1089  0.3190 -0.2312
  270TMC3    C6 4136   0.350   2.404  15.630 -0.1520 -0.3256 -0.2528
  270TMC3     C 4137   0.353   2.798  15.504  0.9185 -1.1736  0.0857
  270TMC3     O 4138   0.242   2.851  15.512  0.5600 -0.2838  0.1566
  270TMC3     H 4139   0.142   2.640  15.530  0.2385  0.1986 -0.6385
  270TMC3    H1 4140   0.576   2.645  15.573  0.5558 -0.4290 -3.7670
  270TMC3    H2 4141   0.344   2.300  15.657  4.5987 -0.1476  1.3596
  270TMC3    C7 4142   0.597   2.396  15.626 -0.8747 -0.2228 -0.7576
  270TMC3    C8 4143   0.121   2.386  15.555 -0.1040 -0.7693  0.4233
  270TMC3    O1 4144   0.616   2.349  15.737 -0.1260 -0.4211  0.5071
  270TMC3    O2 4145   0.098   2.288  15.624 -0.5820  0.4762 -0.5798
  271MPD2     C 4146   3.777   2.593  13.908 -0.2601 -0.3260 -0.6732
  271MPD2    C1 4147   3.753   2.696  13.995 -0.4903 -0.1835 -0.2174
  271MPD2    C2 4148   3.683   2.809  13.954  0.5235 -0.0322  0.6005
  271MPD2    C3 4149   3.647   2.822  13.825 -0.0795  0.6199  0.2802
  271MPD2    C4 4150   3.650   2.710  13.741 -0.5872  0.2486  0.0649
  271MPD2    C5 4151   3.716   2.600  13.785  0.1580 -0.4506  0.6964
  271MPD2     H 4152   3.673   2.892  14.023  2.8169  1.2629 -0.6066
  271MPD2    H1 4153   3.604   2.703  13.643 -0.4125  0.5368 -0.0364
  271MPD2    H2 4154   3.820   2.502  13.949 -0.6679 -0.0610  0.3530
  271MPD2    H3 4155   3.714   2.506  13.730  1.7725  0.1963 -0.4702
  271MPD2     N 4156   3.587   2.934  13.768 -0.3875  0.5201 -0.3610
  271MPD2    H5 4157   3.539   2.915  13.681 -0.1670  0.1344 -0.3993
  271MPD2    N1 4158   3.801   2.690  14.131  0.0475 -0.3649  0.0604
  271MPD2    H7 4159   3.800   2.771  14.192 -1.3311 -0.6089  0.3655
  272TMC3    C1 4160   3.950   2.629  14.297 -0.2580  1.0825 -0.1047
  272TMC3    C2 4161   4.085   2.622  14.285 -0.4146 -0.3193  0.2616
  272TMC3    C3 4162   4.156   2.589  14.394 -0.0035 -0.5154  0.7192
  272TMC3    C4 4163   3.893   2.651  14.417  1.0485  0.4762  0.7751
  272TMC3    C5 4164   3.974   2.652  14.528  0.2951  0.4799  0.1225
  272TMC3    C6 4165   4.106   2.616  14.520 -0.0267 -0.0946  0.1982
  272TMC3     C 4166   3.870   2.582  14.187  0.0690 -0.0120 -0.8432
  272TMC3     O 4167   3.895   2.471  14.142 -0.3849 -0.1583 -0.5057
  272TMC3     H 4168   4.129   2.601  14.187  2.0703  2.0627  0.8856
  272TMC3    H1 4169   3.786   2.670  14.419  1.1522  1.3503 -1.3446
  272TMC3    H2 4170   4.164   2.607  14.611 -1.2233 -1.0627  0.8571
  272TMC3    C7 4171   3.914   2.698  14.652  0.0680 -0.6043 -0.5938
  272TMC3    C8 4172   4.293   2.574  14.372 -0.5066 -0.0163  0.1205
  272TMC3    O1 4173   3.793   2.698  14.660  0.0244 -0.1001  0.3927
  272TMC3    O2 4174   4.343   2.634  14.276  0.0093 -0.2305 -0.0138
  273MPD2     C 4175   0.587   1.186  11.960  0.4263 -0.1374 -0.4532
  273MPD2    C1 4176   0.707   1.179  11.897 -0.0852  0.4071  0.0386
  273MPD2    C2 4177   0.717   1.098  11.789  0.4830  0.8778  0.4630
  273MPD2    C3 4178   0.608   1.048  11.714 -0.6035 -0.0077  0.0513
  273MPD2    C4 4179   0.483   1.078  11.772 -0.3188 -0.7402  0.5734
  273MPD2    C5 4180   0.475   1.146  11.893  0.2554 -0.2326  0.1295
  273MPD2     H 4181   0.816   1.069  11.755 -0.4996  0.0921 -1.7690
  273MPD2    H1 4182   0.397   1.048  11.714 -1.4803  2.5620  0.6271
  273MPD2    H2 4183   0.569   1.253  12.044 -0.0758  0.2098 -0.8350
  273MPD2    H3 4184   0.377   1.166  11.935  1.5235 -0.0580  3.0471
  273MPD2     N 4185   0.640   0.996  11.585 -0.6229 -0.5391  0.3494
  273MPD2    H5 4186   0.737   0.993  11.556 -0.3638 -2.8024  1.4280
  273MPD2    N1 4187   0.815   1.239  11.966  0.2446  0.1016  0.3737
  273MPD2    H7 4188   0.787   1.272  12.058 -0.7336 -2.6978  1.0971
  274TMC3    C1 4189   0.640   1.024  11.370 -0.3819  0.3319  0.2490
  274TMC3    C2 4190   0.559   1.062  11.261 -1.0043  0.8326 -0.1056
  274TMC3    C3 4191   0.612   1.157  11.180 -0.1574  0.0083  1.1146
  274TMC3    C4 4192   0.764   1.082  11.389 -0.2271  0.5755  0.2450
  274TMC3    C5 4193   0.796   1.182  11.307 -0.1217 -0.2832  0.0652
  274TMC3    C6 4194   0.733   1.212  11.196  0.4969 -0.0698  0.0581
  274TMC3     C 4195   0.558   0.979  11.485 -0.6439  0.0247 -1.0798
  274TMC3     O 4196   0.438   0.987  11.481 -0.2500 -0.1669 -0.3261
  274TMC3     H 4197   0.461   1.019  11.247 -1.2474  0.9662  1.2117
  274TMC3    H1 4198   0.839   1.047  11.460  1.0319 -1.3447 -2.0225
  274TMC3    H2 4199   0.779   1.291  11.138 -0.1693  1.8757  2.2078
  274TMC3    C7 4200   0.874   1.283  11.369 -0.2164 -0.1615  0.3312
  274TMC3    C8 4201   0.533   1.181  11.058  0.7077 -1.1405  0.0389
  274TMC3    O1 4202   0.943   1.360  11.300 -0.4761  0.1535  0.3240
  274TMC3    O2 4203   0.449   1.094  11.027  0.2956  0.0304 -0.0439
  275MPD2     C 4204   0.388   4.155  14.225 -0.1834  0.0981  0.2559
  275MPD2    C1 4205   0.427   4.039  14.287  0.2840 -0.0095 -0.3929
  275MPD2    C2 4206   0.330   3.953  14.331 -0.6166  0.3470  0.6480
  275MPD2    C3 4207   0.196   3.985  14.318  0.4350 -0.5179 -0.5268
  275MPD2    C4 4208   0.158   4.092  14.242  0.1862  0.1155  0.4804
  275MPD2    C5 4209   0.255   4.176  14.203 -0.0745  0.4115  0.6184
  275MPD2     H 4210   0.358   3.865  14.388 -1.8858 -1.7599 -2.0229
  275MPD2    H1 4211   0.054   4.099  14.212  0.0070  0.1269  1.1059
  275MPD2    H2 4212   0.463   4.222  14.184 -1.3509  1.0170 -0.3755
  275MPD2    H3 4213   0.230   4.262  14.142  0.5480  0.5034  0.4953
  275MPD2     N 4214   0.090   3.895  14.357  0.3128  0.1266 -0.7644
  275MPD2    H5 4215   4.735   3.929  14.365 -0.1411 -1.0646 -1.1966
  275MPD2    N1 4216   0.563   4.006  14.313 -0.1657 -0.3594 -0.0344
  275MPD2    H7 4217   0.587   3.931  14.377  0.7419  0.6693  0.8271
  276TMC3    C1 4218   0.797   4.034  14.331 -0.3164  0.4043  0.2504
  276TMC3    C2 4219   0.834   3.903  14.325  0.9487  0.1726  0.0393
  276TMC3    C3 4220   0.962   3.872  14.360  0.1230  0.5930 -0.6118
  276TMC3    C4 4221   0.882   4.134  14.360 -0.0224  0.4478 -0.2771
  276TMC3    C5 4222   1.004   4.091  14.402  0.2422 -0.3076 -0.3251
  276TMC3    C6 4223   1.048   3.965  14.406  0.1045 -0.1075 -0.4657
  276TMC3     C 4224   0.674   4.077  14.280  1.1601  0.7337  0.3471
  276TMC3     O 4225   0.679   4.183  14.215 -0.2806  0.5329 -0.2639
  276TMC3     H 4226   0.771   3.825  14.285  1.5790  0.4958 -1.5772
  276TMC3    H1 4227   0.850   4.237  14.376  0.5483  0.7388 -0.9933
  276TMC3    H2 4228   1.149   3.937  14.432 -0.9603 -0.8377  2.8553
  276TMC3    C7 4229   1.072   4.190  14.481  0.1270 -0.2699  0.3563
  276TMC3    C8 4230   1.026   3.737  14.330  0.0282  0.1134  0.0850
  276TMC3    O1 4231   1.143   4.144  14.572  0.1314 -0.0482 -0.4051
  276TMC3    O2 4232   1.143   3.741  14.294 -0.1206 -0.5712 -0.5586
  277MPD2     C 4233   2.483   3.050  12.929  0.6568 -0.4313 -0.5216
  277MPD2    C1 4234   2.361   3.037  12.985  0.3970 -0.6325 -0.1822
  277MPD2    C2 4235   2.336   2.928  13.063  0.1075 -0.1440  0.3628
  277MPD2    C3 4236   2.437   2.850  13.105  0.2923 -0.1056  0.8428
  277MPD2    C4 4237   2.565   2.862  13.049 -0.2826 -0.1230 -0.4259
  277MPD2    C5 4238   2.588   2.970  12.967 -0.0961 -0.1618  0.4377
  277MPD2     H 4239   2.246   2.918  13.122  0.4892 -1.6420  0.6884
  277MPD2    H1 4240   2.650   2.797  13.066 -1.9473 -2.6110 -1.5047
  277MPD2    H2 4241   2.503   3.123  12.852 -1.2072 -0.1546 -0.7449
  277MPD2    H3 4242   2.686   2.985  12.923 -0.3784  0.9954  0.2039
  277MPD2     N 4243   2.393   2.750  13.186 -0.2260 -0.2333 -0.0824
  277MPD2    H5 4244   2.296   2.758  13.213 -0.5732 -1.7319 -0.8421
  277MPD2    N1 4245   2.271   3.141  12.968  0.2938 -0.1230 -0.1809
  277MPD2    H7 4246   2.300   3.219  12.909 -0.0759  0.4263  0.3648
  278TMC3    C1 4247   2.409   2.575  13.338 -0.5962 -0.1821 -0.0079
  278TMC3    C2 4248   2.425   2.444  13.333 -0.0995 -0.3473 -0.2060
  278TMC3    C3 4249   2.335   2.372  13.407  0.1322  0.5051 -0.6712
  278TMC3    C4 4250   2.316   2.641  13.412  0.4315 -0.0578  0.3205
  278TMC3    C5 4251   2.229   2.563  13.485 -0.1380 -0.4609 -0.2702
  278TMC3    C6 4252   2.240   2.430  13.493 -0.3083 -0.8520  0.4801
  278TMC3     C 4253   2.481   2.656  13.245 -0.1444 -0.2141 -0.2423
  278TMC3     O 4254   2.593   2.627  13.205  0.1784 -0.3351  0.9299
  278TMC3     H 4255   2.506   2.394  13.280 -0.0557  0.3240 -0.7840
  278TMC3    H1 4256   2.308   2.749  13.413  3.0105  0.1106  0.8962
  278TMC3    H2 4257   2.177   2.367  13.555  0.9120  0.0893  2.6616
  278TMC3    C7 4258   2.106   2.625  13.532 -0.0399 -0.8894 -0.0819
  278TMC3    C8 4259   2.380   2.244  13.442  0.3711  0.5603  0.9343
  278TMC3    O1 4260   2.103   2.741  13.565 -0.5549  0.0045 -0.2883
  278TMC3    O2 4261   2.502   2.239  13.448 -0.2621  0.5141  0.2826
  279MPD2     C 4262   2.087   1.761   0.210 -0.7370  0.1873  0.3478
  279MPD2    C1 4263   1.994   1.866   0.187  0.4578  0.0602 -0.3426
  279MPD2    C2 4264   2.030   1.975   0.116  0.0127  0.4304 -0.1532
  279MPD2    C3 4265   2.160   1.994   0.064 -0.7525 -0.7783  0.2144
  279MPD2    C4 4266   2.246   1.882   0.079 -0.8132  0.0948 -0.2245
  279MPD2    C5 4267   2.208   1.774   0.154 -0.4297  0.7547 -0.6076
  279MPD2     H 4268   1.949   2.044   0.094  1.0840  1.6017 -0.4176
  279MPD2    H1 4269   2.347   1.871   0.041 -0.6548 -2.3480  0.9247
  279MPD2    H2 4270   2.071   1.672   0.270  1.3747  1.1534  2.3554
  279MPD2    H3 4271   2.274   1.689   0.162 -1.8215 -0.2505  0.1151
  279MPD2     N 4272   2.184   2.096  17.729  0.2033  0.6134  0.0168
  279MPD2    H5 4273   2.274   2.092  17.683  0.7539  1.8846  0.9657
  279MPD2    N1 4274   1.858   1.852   0.221  0.0204 -0.3071 -0.2744
  279MPD2    H7 4275   1.794   1.930   0.211 -3.0304 -2.9997 -1.7700
  280TMC3    C1 4276   1.653   1.753   0.222 -0.8855  0.1832 -0.1728
  280TMC3    C2 4277   1.626   1.701   0.103 -0.2943  0.5712 -0.1080
  280TMC3    C3 4278   1.552   1.766   0.005  0.8069  0.1300 -0.1419
  280TMC3    C4 4279   1.611   1.878   0.250  0.4889  0.0500  0.4428
  280TMC3    C5 4280   1.539   1.946   0.156 -0.6833  0.1123 -0.1972
  280TMC3    C6 4281   1.496   1.888   0.037 -0.4613  0.3997  0.0796
  280TMC3     C 4282   1.796   1.730   0.250 -0.9575  0.3191  0.0622
  280TMC3     O 4283   1.849   1.622   0.268 -0.7575 -0.1258  0.4838
  280TMC3     H 4284   1.657   1.602   0.075  0.2707  0.6772  0.1376
  280TMC3    H1 4285   1.644   1.929   0.340 -0.0994 -0.8547  1.1825
  280TMC3    H2 4286   1.475   1.952  17.710  0.4190 -1.2007 -1.3310
  280TMC3    C7 4287   1.598   2.079   0.137 -0.4999 -0.3916 -0.2984
  280TMC3    C8 4288   1.572   1.732  17.626  0.0027 -0.4698 -0.6435
  280TMC3    O1 4289   1.713   2.089   0.178  0.2684  0.0334  0.8121
  280TMC3    O2 4290   1.649   1.643  17.606 -0.9937 -0.2852  0.2494
  281TMC3    C1 4291   0.327   3.286  13.914 -0.6414 -0.3833  1.2167
  281TMC3    C2 4292   0.434   3.353  13.855 -0.1435 -0.6404  0.5140
  281TMC3    C3 4293   0.512   3.290  13.760  0.3896  0.1156  0.6161
  281TMC3    C4 4294   0.300   3.153  13.893  0.3194  0.2119  0.5231
  281TMC3    C5 4295   0.381   3.090  13.795 -0.4616 -0.2495 -0.8059
  281TMC3    C6 4296   0.485   3.162  13.737  0.1639 -0.5267  0.2681
  281TMC3     C 4297   0.230   3.360  13.995 -0.3121 -0.0930  0.2470
  281TMC3     O 4298   0.154   3.289  14.055  0.1154 -0.5848 -0.3639
  281TMC3     H 4299   0.460   3.454  13.886  0.1881  0.2346 -2.5293
  281TMC3    H1 4300   0.222   3.104  13.951  1.0759 -1.4033  0.1943
  281TMC3    H2 4301   0.548   3.101  13.674 -0.3652 -0.8385  0.0393
  281TMC3    C7 4302   0.331   2.984  13.717  0.2494 -0.0307 -0.2629
  281TMC3    C8 4303   0.652   3.331  13.742 -0.6169 -0.4497  0.2237
  281TMC3    O1 4304   0.333   3.006  13.597  0.2011 -0.4681 -0.2643
  281TMC3    O2 4305   0.728   3.239  13.768  0.2803 -0.0945 -0.2421
  282MPD2     C 4306   1.985   4.155  14.539 -0.2214 -0.1436  0.1537
  282MPD2    C1 4307   1.929   4.274  14.578 -0.5756  0.0808  0.1232
  282MPD2    C2 4308   1.877   4.358  14.478 -0.0493  0.5405  0.3113
  282MPD2    C3 4309   1.883   4.316  14.346 -0.6097  0.0854 -0.2513
  282MPD2    C4 4310   1.941   4.193  14.312  0.7701  0.1656  0.0424
  282MPD2    C5 4311   1.999   4.118  14.409  0.6303  0.0733  0.0688
  282MPD2     H 4312   1.826   4.449  14.506 -2.4449 -0.6150 -0.2601
  282MPD2    H1 4313   1.950   4.158  14.209  1.4117 -0.5011  0.3301
  282MPD2    H2 4314   2.020   4.082  14.612 -2.8728 -1.0564  0.4890
  282MPD2    H3 4315   2.044   4.025  14.377  2.1539  0.4986  1.0091
  282MPD2     N 4316   1.827   4.397  14.242  0.1920  0.2187  0.8455
  282MPD2    H5 4317   1.798   4.492  14.263 -0.5743  0.3819 -0.9216
  282MPD2    N1 4318   1.909   4.311  14.715  0.3018  0.3297  0.0847
  282MPD2    H7 4319   1.859   4.395  14.742 -0.9247  0.0903 -1.4512
  283TMC3    C1 4320   1.848   4.264  14.927  0.0903  0.2297  0.5073
  283TMC3    C2 4321   1.857   4.394  14.970 -0.2038  0.1740  0.1927
  283TMC3    C3 4322   1.752   4.447  15.039 -0.7088  0.6202 -0.4892
  283TMC3    C4 4323   1.733   4.187  14.947 -0.1164 -0.2911  0.0460
  283TMC3    C5 4324   1.635   4.250  15.025 -0.2076  0.4943 -0.7301
  283TMC3    C6 4325   1.637   4.378  15.055 -0.8683 -0.8143 -0.3615
  283TMC3     C 4326   1.935   4.230  14.826 -0.4131 -0.5508 -0.4976
  283TMC3     O 4327   1.981   4.118  14.825 -0.0984 -0.0762 -0.1415
  283TMC3     H 4328   1.948   4.444  14.941 -1.3195  1.7531 -0.5900
  283TMC3    H1 4329   1.724   4.082  14.924  1.1020 -0.6046  1.0191
  283TMC3    H2 4330   1.572   4.431  15.124 -2.9760 -1.9081 -1.5133
  283TMC3    C7 4331   1.559   4.166  15.114  0.1653  0.2882 -0.0575
  283TMC3    C8 4332   1.788   4.535  15.156 -0.1741  0.3741  0.5069
  283TMC3    O1 4333   1.548   4.211  15.227  0.1143 -0.0027 -0.2337
  283TMC3    O2 4334   1.726   4.527  15.261 -0.2119  0.6212  0.0321
  284MPD2     C 4335   0.056   3.831  12.281  0.9821  0.2358 -0.3873
  284MPD2    C1 4336   0.192   3.854  12.291  0.1352  0.4057  0.0973
  284MPD2    C2 4337   0.260   3.837  12.409  0.8046  0.3747  0.3737
  284MPD2    C3 4338   0.193   3.801  12.528 -0.2604 -0.3077  0.2308
  284MPD2    C4 4339   0.052   3.785  12.517 -0.0254  0.5485  0.6293
  284MPD2    C5 4340   4.731   3.797  12.401  0.9266  0.6029 -0.1120
  284MPD2     H 4341   0.368   3.832  12.400  0.8583  0.1704  1.1112
  284MPD2    H1 4342   4.734   3.751  12.602  1.7847 -1.5439  1.0275
  284MPD2    H2 4343   4.738   3.858  12.193  0.9291  1.3416 -0.0242
  284MPD2    H3 4344   4.623   3.781  12.402  1.3090 -1.9281 -0.4705
  284MPD2     N 4345   0.253   3.760  12.649  0.1430 -0.1012  0.0966
  284MPD2    H5 4346   0.199   3.709  12.719 -0.9390  3.2813  1.7427
  284MPD2    N1 4347   0.264   3.886  12.178 -0.3715  0.5984  0.5799
  284MPD2    H7 4348   0.350   3.936  12.200  0.8243 -0.7195 -1.0596
  285TMC3    C1 4349   0.341   3.862  11.963 -0.5708  0.0879 -0.7901
  285TMC3    C2 4350   0.397   3.760  11.888 -0.6344 -0.2306  0.3755
  285TMC3    C3 4351   0.494   3.790  11.803 -0.2131 -0.0664 -0.4995
  285TMC3    C4 4352   0.385   3.987  11.952  0.0917  0.3074  0.3534
  285TMC3    C5 4353   0.490   4.019  11.864  0.7759 -0.1113 -1.1204
  285TMC3    C6 4354   0.553   3.916  11.794 -0.8625  0.5808 -0.0073
  285TMC3     C 4355   0.230   3.840  12.052  0.2684  0.3518 -0.3291
  285TMC3     O 4356   0.145   3.751  12.024 -0.3420 -0.1747  0.0169
  285TMC3     H 4357   0.364   3.662  11.921 -0.4371 -0.7085 -0.8606
  285TMC3    H1 4358   0.327   4.055  12.014  2.0735  1.9734  0.3728
  285TMC3    H2 4359   0.636   3.933  11.726 -0.4890 -2.3740 -0.2614
  285TMC3    C7 4360   0.467   4.124  11.771 -0.2179  0.8574 -0.4055
  285TMC3    C8 4361   0.517   3.694  11.703 -0.5683 -0.5450 -0.6545
  285TMC3    O1 4362   0.563   4.162  11.706 -0.0953 -0.2537  0.1268
  285TMC3    O2 4363   0.437   3.600  11.695  0.4090  0.2828 -0.6290
  286MPD2     C 4364   1.315   1.890   1.556  0.2579 -0.0708 -0.2620
  286MPD2    C1 4365   1.262   1.875   1.432  0.5395 -0.6149 -0.3806
  286MPD2    C2 4366   1.312   1.778   1.353  0.1996  0.2030 -0.3950
  286MPD2    C3 4367   1.389   1.677   1.406 -0.1884 -0.0592 -0.0125
  286MPD2    C4 4368   1.434   1.687   1.537 -0.6793  0.3538 -0.1938
  286MPD2    C5 4369   1.412   1.806   1.601  0.6195  0.0395 -0.1387
  286MPD2     H 4370   1.281   1.788   1.250  1.3086 -0.4057 -0.7938
  286MPD2    H1 4371   1.495   1.613   1.587 -0.8272  0.5517  0.2791
  286MPD2    H2 4372   1.289   1.970   1.625  1.0169  1.0358 -1.2571
  286MPD2    H3 4373   1.452   1.819   1.701  1.6217 -2.0477 -0.2641
  286MPD2     N 4374   1.437   1.565   1.334 -0.3979  0.1373 -0.5072
  286MPD2    H5 4375   1.490   1.500   1.391 -1.6519 -0.2626  0.2001
  286MPD2    N1 4376   1.165   1.964   1.374  0.6620 -0.3985  0.0201
  286MPD2    H7 4377   1.136   1.945   1.279  0.1005 -3.0116  0.7223
  287TMC3    C1 4378   1.507   1.428   1.156  0.0698 -0.3381 -0.3286
  287TMC3    C2 4379   1.461   1.356   1.049  0.2415  0.5425  0.6721
  287TMC3    C3 4380   1.529   1.241   1.013 -0.3347 -0.7067  0.4276
  287TMC3    C4 4381   1.623   1.398   1.225  0.5427  0.4787  0.1441
  287TMC3    C5 4382   1.691   1.287   1.179  0.2440 -0.6064 -0.2296
  287TMC3    C6 4383   1.644   1.204   1.074  0.0876 -0.6557 -0.5299
  287TMC3     C 4384   1.424   1.542   1.196  0.0570  0.9243 -0.1032
  287TMC3     O 4385   1.373   1.606   1.107 -0.1454 -0.0099  0.5181
  287TMC3     H 4386   1.364   1.381   1.007 -0.5195 -0.4660  1.8086
  287TMC3    H1 4387   1.672   1.469   1.291  1.0991 -1.5221  1.8540
  287TMC3    H2 4388   1.700   1.113   1.059  1.2806 -0.1828  1.0688
  287TMC3    C7 4389   1.826   1.284   1.227 -0.2732 -0.2244 -0.1313
  287TMC3    C8 4390   1.464   1.160   0.918 -0.7647 -0.6599 -0.3944
  287TMC3    O1 4391   1.860   1.365   1.313  0.1635 -0.0558 -0.7771
  287TMC3    O2 4392   1.346   1.172   0.906 -0.0349  0.2908  0.6257
  288TMC3    C1 4393   2.849   2.199  14.217  1.2342  0.1684 -0.6475
  288TMC3    C2 4394   2.725   2.175  14.266  0.3433  0.1749  0.4849
  288TMC3    C3 4395   2.614   2.224  14.201 -0.6830 -0.2729 -0.5061
  288TMC3    C4 4396   2.873   2.274  14.102  0.1670  0.4256  0.7454
  288TMC3    C5 4397   2.766   2.330  14.034 -0.0358  0.1231 -0.2091
  288TMC3    C6 4398   2.638   2.301  14.090  0.7601 -0.5752  0.3059
  288TMC3     C 4399   2.963   2.160  14.300 -0.5590 -0.1141 -0.4971
  288TMC3     O 4400   2.947   2.123  14.418  0.0310  0.2102 -0.2547
  288TMC3     H 4401   2.703   2.124  14.359 -2.8570  0.7990  0.0811
  288TMC3    H1 4402   2.973   2.290  14.062 -0.6890  0.2607 -1.4572
  288TMC3    H2 4403   2.553   2.338  14.035 -0.6802 -1.6733  1.7855
  288TMC3    C7 4404   2.781   2.405  13.908  0.2816 -0.4148  0.2684
  288TMC3    C8 4405   2.503   2.256  14.278  0.5309  0.2158  0.1570
  288TMC3    O1 4406   2.693   2.382  13.827  0.2292  0.6394 -0.3226
  288TMC3    O2 4407   2.456   2.367  14.265 -0.0763  0.1126  0.2428
  289MPD2     C 4408   2.611   1.235  14.543  0.2821  0.6275 -0.4513
  289MPD2    C1 4409   2.620   1.346  14.470 -0.4983  0.3603  0.3285
  289MPD2    C2 4410   2.506   1.377  14.393 -0.3747  0.1084  0.0488
  289MPD2    C3 4411   2.394   1.289  14.379 -1.0401 -0.6384 -0.0888
  289MPD2    C4 4412   2.390   1.185  14.466 -0.0768  0.0469 -0.5612
  289MPD2    C5 4413   2.499   1.157  14.541  0.1751  0.1112 -0.6102
  289MPD2     H 4414   2.507   1.468  14.334  0.2741  0.4042  0.5109
  289MPD2    H1 4415   2.306   1.117  14.463 -0.8831  1.0863 -1.2596
  289MPD2    H2 4416   2.694   1.196  14.601 -0.0693  1.3569  0.5361
  289MPD2    H3 4417   2.489   1.068  14.602 -0.9961  1.1824  0.7689
  289MPD2     N 4418   2.294   1.296  14.282  0.3676  0.3972  0.1710
  289MPD2    H5 4419   2.231   1.219  14.264 -0.0130  0.1383  2.6387
  289MPD2    N1 4420   2.720   1.441  14.484 -0.2699  0.0144 -0.3817
  289MPD2    H7 4421   2.794   1.399  14.540  0.2784  2.4755  0.7304
  290TMC3    C1 4422   2.184   1.410  14.094  0.2454  0.7341 -0.6494
  290TMC3    C2 4423   2.180   1.513  14.004  0.0322  0.1577  0.2001
  290TMC3    C3 4424   2.106   1.493  13.893  0.1622 -0.6177  0.1163
  290TMC3    C4 4425   2.105   1.298  14.084  0.3440  0.2571  0.2105
  290TMC3    C5 4426   2.032   1.293  13.974  0.1857 -0.3276 -1.0118
  290TMC3    C6 4427   2.032   1.384  13.874  0.5744 -0.1961 -0.5094
  290TMC3     C 4428   2.283   1.413  14.200  0.1231  0.7628  0.3121
  290TMC3     O 4429   2.337   1.524  14.223 -0.3440 -0.5452 -0.4555
  290TMC3     H 4430   2.243   1.602  14.011  2.3798 -1.4717 -0.2072
  290TMC3    H1 4431   2.079   1.237  14.170 -1.4512 -0.5374 -0.8951
  290TMC3    H2 4432   1.974   1.371  13.783 -2.2081 -0.2679  1.2624
  290TMC3    C7 4433   1.924   1.195  13.968  0.8131  0.3323  0.0839
  290TMC3    C8 4434   2.064   1.618  13.843  0.5933 -0.2456 -0.4765
  290TMC3    O1 4435   1.826   1.235  13.905 -0.4252  0.2635 -0.5491
  290TMC3    O2 4436   2.146   1.710  13.832 -0.6377 -0.1181  0.6178
  291MPD2     C 4437   1.663   0.881   0.145  0.2543  0.2566  0.1750
  291MPD2    C1 4438   1.732   0.777   0.190  0.3430 -0.9318  0.2266
  291MPD2    C2 4439   1.864   0.794   0.241  0.0529 -0.3329 -0.1233
  291MPD2    C3 4440   1.922   0.919   0.218 -0.5744  0.2977 -0.6321
  291MPD2    C4 4441   1.844   1.029   0.178  0.2178  0.1631  0.5266
  291MPD2    C5 4442   1.706   1.014   0.154 -0.2470  0.0782  0.0613
  291MPD2     H 4443   1.921   0.705   0.266 -0.5344 -1.1142 -1.5138
  291MPD2    H1 4444   1.890   1.127   0.174 -1.2923  0.8483 -0.2993
  291MPD2    H2 4445   1.563   0.868   0.105  0.4820  0.8481 -0.5801
  291MPD2    H3 4446   1.651   1.102   0.121  2.0422  0.9421 -1.4876
  291MPD2     N 4447   2.061   0.942   0.238 -0.6309  0.2131 -0.0331
  291MPD2    H5 4448   2.084   1.040   0.225 -2.8824  0.6559 -0.6137
  291MPD2    N1 4449   1.680   0.651   0.201  0.2058 -0.1459  0.1514
  291MPD2    H7 4450   1.744   0.590   0.249  2.1906  1.4746 -0.4394
  292TMC3    C1 4451   1.531   0.479   0.218  0.7402  0.2981 -0.0681
  292TMC3    C2 4452   1.553   0.473   0.357 -0.6363 -0.1611 -0.1727
  292TMC3    C3 4453   1.527   0.355   0.418 -0.4813  0.1303  0.1187
  292TMC3    C4 4454   1.477   0.387   0.136 -0.1191  0.2003 -0.1819
  292TMC3    C5 4455   1.456   0.265   0.206 -0.7232  0.5482  0.2078
  292TMC3    C6 4456   1.489   0.245   0.338  0.5388  0.4645  0.4426
  292TMC3     C 4457   1.564   0.605   0.155  0.5351  0.1026 -0.6487
  292TMC3     O 4458   1.475   0.655   0.084 -1.0902  0.4063  0.0576
  292TMC3     H 4459   1.589   0.555   0.418 -0.0437 -1.1221  0.7625
  292TMC3    H1 4460   1.466   0.397   0.029  2.1564  2.3263 -0.2148
  292TMC3    H2 4461   1.477   0.147   0.383  2.6224 -0.2065 -0.4024
  292TMC3    C7 4462   1.426   0.150   0.120 -0.2764  0.9738  0.2281
  292TMC3    C8 4463   1.572   0.333   0.552  0.7431  0.4779 -0.6074
  292TMC3    O1 4464   1.451   0.034   0.160 -0.3110 -0.4101  0.0840
  292TMC3    O2 4465   1.664   0.403   0.597  0.2403  0.0033 -0.1144
  293MPD2     C 4466   3.424   2.741  12.474  0.8618  0.0003  0.4189
  293MPD2    C1 4467   3.363   2.644  12.549 -0.9415 -0.1337  0.1517
  293MPD2    C2 4468   3.411   2.624  12.678  0.4322 -0.1735 -0.1969
  293MPD2    C3 4469   3.513   2.703  12.723 -0.3361 -0.6080 -0.0315
  293MPD2    C4 4470   3.585   2.771  12.640 -0.3407 -0.5258  0.0236
  293MPD2    C5 4471   3.542   2.788  12.512 -0.0126  0.1792  0.5706
  293MPD2     H 4472   3.351   2.564  12.745  0.3640  0.6296  0.4742
  293MPD2    H1 4473   3.677   2.818  12.672 -0.4180 -1.7743  2.0781
  293MPD2    H2 4474   3.389   2.762  12.374  0.4782  1.0479  0.7754
  293MPD2    H3 4475   3.604   2.855  12.454  1.3354 -1.0178  0.6123
  293MPD2     N 4476   3.553   2.690  12.860  0.2129 -0.1874 -0.8374
  293MPD2    H5 4477   3.496   2.625  12.915  2.8553 -1.8260 -0.0414
  293MPD2    N1 4478   3.264   2.568  12.482  0.0040 -0.2858  0.2353
  293MPD2    H7 4479   3.249   2.598  12.385  0.6575 -2.1580 -0.4364
  294TMC3    C1 4480   3.121   2.384  12.422 -0.2283 -0.3256  0.7322
  294TMC3    C2 4481   3.011   2.315  12.472 -0.1883 -0.5036 -0.1891
  294TMC3    C3 4482   2.908   2.283  12.388 -0.1013  0.1288 -0.0430
  294TMC3    C4 4483   3.119   2.424  12.293  0.3752 -0.0562  0.1295
  294TMC3    C5 4484   3.017   2.393  12.202  0.0697 -0.4818  0.6514
  294TMC3    C6 4485   2.911   2.327  12.254  0.2997 -0.6582  0.0628
  294TMC3     C 4486   3.201   2.455  12.526  0.3227 -0.0616 -0.3607
  294TMC3     O 4487   3.205   2.402  12.637  0.0042  0.2694 -0.0099
  294TMC3     H 4488   3.011   2.298  12.579  0.9644  0.6078 -0.0064
  294TMC3    H1 4489   3.218   2.446  12.255  0.5927 -1.4293 -0.1047
  294TMC3    H2 4490   2.844   2.287  12.179  0.6116 -0.0027 -0.5595
  294TMC3    C7 4491   3.061   2.335  12.078  0.1286 -0.1466  0.3372
  294TMC3    C8 4492   2.797   2.208  12.439 -0.2703  0.3935 -0.2901
  294TMC3    O1 4493   3.007   2.228  12.047 -0.5719  0.3841 -0.3193
  294TMC3    O2 4494   2.774   2.191  12.558 -0.3249 -0.1034 -0.2279
  295MPD2     C 4495   3.584   0.547  17.664  0.3852 -0.2245 -0.6255
  295MPD2    C1 4496   3.685   0.627  17.722  0.7950  0.0515 -0.2313
  295MPD2    C2 4497   3.648   0.752   0.012 -0.3674  0.9311  0.4468
  295MPD2    C3 4498   3.528   0.810  17.741  0.2352 -0.0430 -0.0817
  295MPD2    C4 4499   3.430   0.726  17.680  0.1738  0.0100  0.2996
  295MPD2    C5 4500   3.455   0.597  17.648  0.0471 -0.0656  0.3344
  295MPD2     H 4501   3.723   0.812   0.062  0.9180  0.2001 -0.6165
  295MPD2    H1 4502   3.327   0.759  17.673  0.1013 -0.0919  0.9080
  295MPD2    H2 4503   3.595   0.440  17.654 -1.5673 -0.6987  2.3184
  295MPD2    H3 4504   3.374   0.542  17.601  1.5789 -1.1776 -1.0440
  295MPD2     N 4505   3.485   0.943   0.014 -0.4784 -0.0977  0.2240
  295MPD2    H5 4506   3.389   0.966  17.751  0.0838  1.8963 -0.1221
  295MPD2    N1 4507   3.819   0.578  17.738  0.3273 -0.4726 -0.0123
  295MPD2    H7 4508   3.887   0.634   0.030  0.1447  1.4690 -1.9151
  296TMC3    C1 4509   3.511   1.169   0.087  0.8911  0.1351 -0.3406
  296TMC3    C2 4510   3.560   1.291   0.040 -0.1746  0.1376 -0.3234
  296TMC3    C3 4511   3.561   1.399   0.119 -1.1948  0.4650  0.0195
  296TMC3    C4 4512   3.476   1.157   0.218 -0.0360  0.0667  0.0708
  296TMC3    C5 4513   3.479   1.263   0.298  0.3460  0.0628 -0.2695
  296TMC3    C6 4514   3.515   1.388   0.250 -0.2675  0.3331  0.2965
  296TMC3     C 4515   3.570   1.048   0.031 -0.2083 -0.1246 -0.2470
  296TMC3     O 4516   3.692   1.048   0.040 -0.0467 -0.0774  0.2975
  296TMC3     H 4517   3.598   1.284  17.697  2.2982 -0.1819  0.6150
  296TMC3    H1 4518   3.426   1.064   0.242 -2.7081  1.4313 -0.1512
  296TMC3    H2 4519   3.519   1.471   0.318 -0.2020 -1.2478  2.2246
  296TMC3    C7 4520   3.458   1.245   0.439  0.4714 -0.2798 -0.0855
  296TMC3    C8 4521   3.659   1.506   0.090 -0.1217  0.5255 -0.0525
  296TMC3    O1 4522   3.475   1.341   0.514  0.0976  0.4189  0.3975
  296TMC3    O2 4523   3.740   1.485   0.000  0.7673  0.8450 -0.0148
  297MPD2     C 4524   1.464   2.702  16.722  0.6554 -0.1955  0.1086
  297MPD2    C1 4525   1.431   2.752  16.595 -0.3214  0.9979  0.2172
  297MPD2    C2 4526   1.519   2.847  16.533 -0.2947 -0.5975 -0.1155
  297MPD2    C3 4527   1.631   2.887  16.597 -1.0898 -0.7409 -0.8115
  297MPD2    C4 4528   1.656   2.831  16.713 -0.3536 -0.1448  0.2114
  297MPD2    C5 4529   1.580   2.741  16.781  0.4820  0.3509  0.3908
  297MPD2     H 4530   1.494   2.896  16.440 -0.9706 -1.5856 -0.4508
  297MPD2    H1 4531   1.743   2.861  16.770 -0.0240 -2.8712  1.1512
  297MPD2    H2 4532   1.409   2.626  16.775  2.8496 -0.6115  1.7765
  297MPD2    H3 4533   1.588   2.710  16.885 -1.1646 -0.7890  0.1851
  297MPD2     N 4534   1.721   2.973  16.524 -0.1833  0.3074  1.0287
  297MPD2    H5 4535   1.697   2.994  16.428  1.5220 -1.0352  0.3203
  297MPD2    N1 4536   1.322   2.720  16.514  0.6956  0.1435  0.0316
  297MPD2    H7 4537   1.318   2.751  16.417  0.2325  2.8772  0.9379
  298TMC3    C1 4538   1.104   2.613  16.466  0.3876 -0.4736 -0.2070
  298TMC3    C2 4539   1.111   2.652  16.334 -0.3865  0.3656  0.3367
  298TMC3    C3 4540   0.992   2.669  16.270  0.7154  0.4759  0.2921
  298TMC3    C4 4541   0.984   2.585  16.527  0.7805  0.1309  0.5294
  298TMC3    C5 4542   0.868   2.598  16.457 -0.5542 -0.4625  0.1000
  298TMC3    C6 4543   0.876   2.633  16.325 -0.5117 -0.6125  0.1456
  298TMC3     C 4544   1.213   2.642  16.553  0.0950  0.1097 -0.0840
  298TMC3     O 4545   1.188   2.600  16.667  0.6664  0.3431 -0.4415
  298TMC3     H 4546   1.214   2.664  16.302 -0.1149  1.9529  1.7614
  298TMC3    H1 4547   0.987   2.547  16.628  1.2089 -0.6542  0.2228
  298TMC3    H2 4548   0.781   2.642  16.274  1.2747  1.6907 -2.7778
  298TMC3    C7 4549   0.760   2.658  16.537  0.0811  0.0728  0.1876
  298TMC3    C8 4550   0.993   2.755  16.154 -0.7730  0.3002  0.4096
  298TMC3    O1 4551   0.771   2.680  16.657  0.8916  0.2802  0.2848
  298TMC3    O2 4552   0.884   2.799  16.125 -0.0332 -0.7118 -0.3918
  299MPD2     C 4553   1.468   3.237  10.957  0.0483  0.3318 -0.3021
  299MPD2    C1 4554   1.530   3.272  10.844 -0.2297  0.0390 -0.2336
  299MPD2    C2 4555   1.464   3.289  10.728 -0.9309 -0.0780 -0.4548
  299MPD2    C3 4556   1.325   3.259  10.725  0.5861  0.0606 -0.3656
  299MPD2    C4 4557   1.268   3.216  10.842 -0.0265 -0.5236 -0.2158
  299MPD2    C5 4558   1.339   3.204  10.956 -0.0763 -0.2128  0.3853
  299MPD2     H 4559   1.518   3.322  10.639  1.3010 -1.6780  0.3191
  299MPD2    H1 4560   1.161   3.199  10.836 -0.2618  1.6026 -2.2020
  299MPD2    H2 4561   1.518   3.206  11.048  1.2632  1.0273 -0.7415
  299MPD2    H3 4562   1.283   3.165  11.040  1.4079 -1.5693  0.7337
  299MPD2     N 4563   1.254   3.258  10.605  0.0205  0.6470 -0.0859
  299MPD2    H5 4564   1.157   3.228  10.607  0.6221 -1.3922 -0.5574
  299MPD2    N1 4565   1.671   3.281  10.855 -1.1824  0.3616 -0.4478
  299MPD2    H7 4566   1.710   3.252  10.943 -2.1737  1.7534  0.4525
  300TMC3    C1 4567   1.196   3.297  10.378 -0.6417  0.0292  0.8070
  300TMC3    C2 4568   1.173   3.388  10.283  0.1344  0.6375 -0.3729
  300TMC3    C3 4569   1.059   3.382  10.214 -0.0551 -0.1505 -0.8510
  300TMC3    C4 4570   1.129   3.172  10.383 -0.7559  0.1136  0.7269
  300TMC3    C5 4571   1.030   3.156  10.291 -0.2228  0.5890  0.4917
  300TMC3    C6 4572   0.991   3.263  10.214 -0.0068  0.6356 -0.3267
  300TMC3     C 4573   1.295   3.315  10.486 -0.1120 -0.0610  0.3502
  300TMC3     O 4574   1.387   3.398  10.467 -0.5649  0.2973  0.2722
  300TMC3     H 4575   1.236   3.477  10.289 -0.3555  1.1110 -2.1765
  300TMC3    H1 4576   1.158   3.092  10.450  1.3759  0.4772  0.2293
  300TMC3    H2 4577   0.900   3.250  10.156  1.1788  0.4966 -2.1684
  300TMC3    C7 4578   0.916   3.066  10.308 -0.8280 -0.1606  0.4360
  300TMC3    C8 4579   0.974   3.498  10.250 -0.5360  0.4621  0.7393
  300TMC3    O1 4580   0.871   3.016  10.209 -0.0826 -0.1273  0.3970
  300TMC3    O2 4581   1.033   3.597  10.296  0.2730 -0.3260 -0.4150
  301MPD2     C 4582   0.138   3.798   1.041 -0.4591  0.0901  0.1964
  301MPD2    C1 4583   0.012   3.754   1.008 -0.1380 -0.8203  0.1509
  301MPD2    C2 4584   0.002   3.624   0.962  0.0875  0.4812 -0.6585
  301MPD2    C3 4585   0.112   3.541   0.948  0.0170  0.2441  0.2977
  301MPD2    C4 4586   0.238   3.594   0.965  0.9107  0.0038 -0.0002
  301MPD2    C5 4587   0.252   3.723   1.018 -0.0699  0.2347 -0.0145
  301MPD2     H 4588   4.645   3.579   0.947  0.7256 -0.8025 -0.9813
  301MPD2    H1 4589   0.324   3.531   0.946 -1.2138 -2.0220 -2.9561
  301MPD2    H2 4590   0.145   3.900   1.078 -3.2434 -0.1253  1.2835
  301MPD2    H3 4591   0.344   3.754   1.065 -0.2764 -0.6683  0.9976
  301MPD2     N 4592   0.097   3.408   0.907 -0.3657 -0.0888  0.1020
  301MPD2    H5 4593   0.172   3.344   0.930 -0.6121 -0.7572 -0.9729
  301MPD2    N1 4594   4.628   3.818   1.028 -0.6065  0.0210 -0.3446
  301MPD2    H7 4595   4.544   3.765   1.007  0.7496 -2.0490 -0.4540
  302TMC3    C1 4596   0.012   3.201   0.856  0.2031  0.6648  0.6125
  302TMC3    C2 4597   0.082   3.137   0.962  0.5197 -0.3913 -0.2671
  302TMC3    C3 4598   0.055   3.008   0.986  0.2521 -0.2212  0.4434
  302TMC3    C4 4599   4.656   3.136   0.779  0.2540 -0.9590 -0.0932
  302TMC3    C5 4600   4.643   2.998   0.801  0.0818 -0.4788 -0.0200
  302TMC3    C6 4601   4.715   2.933   0.900 -0.2699 -0.3313  0.2295
  302TMC3     C 4602   4.726   3.344   0.862  0.0959 -0.2608  0.0793
  302TMC3     O 4603   4.619   3.388   0.814  0.7925 -0.4288  0.2494
  302TMC3     H 4604   0.155   3.192   1.021  2.9506 -2.0192 -1.7385
  302TMC3    H1 4605   4.606   3.181   0.694  0.0481 -0.7348  0.1456
  302TMC3    H2 4606   4.687   2.831   0.922  0.2753 -0.6052 -0.3334
  302TMC3    C7 4607   4.523   2.925   0.760  0.1308  0.4726  0.0506
  302TMC3    C8 4608   0.104   2.938   1.103 -0.1318  0.2073 -0.4440
  302TMC3    O1 4609   4.540   2.805   0.737 -0.0071 -0.0735 -0.3610
  302TMC3    O2 4610   0.105   2.820   1.090  0.3052 -0.9141 -0.1121
  303MPD2     C 4611   4.064   2.857  10.695 -0.0171 -0.7480  0.3810
  303MPD2    C1 4612   4.027   2.727  10.677  0.0112 -0.2028 -0.2995
  303MPD2    C2 4613   4.027   2.683  10.546  0.2092  0.2373 -0.3200
  303MPD2    C3 4614   4.075   2.751  10.433  0.5076 -0.5834 -0.6496
  303MPD2    C4 4615   4.102   2.884  10.460 -0.0628  0.3381 -0.0049
  303MPD2    C5 4616   4.110   2.928  10.590  0.4101  0.5347 -0.0683
  303MPD2     H 4617   3.986   2.584  10.530  0.4354  0.4371 -2.1674
  303MPD2    H1 4618   4.134   2.955  10.384  2.5883  0.1954  0.9751
  303MPD2    H2 4619   4.064   2.907  10.791 -0.3404 -0.0674  0.0315
  303MPD2    H3 4620   4.144   3.030  10.610 -0.4502  0.5850  1.1392
  303MPD2     N 4621   4.076   2.693  10.300 -0.2624  0.7685  0.1070
  303MPD2    H5 4622   4.101   2.756  10.225  0.7790 -1.0097 -1.0375
  303MPD2    N1 4623   3.983   2.647  10.786  0.0762  0.4093  0.6614
  303MPD2    H7 4624   3.953   2.690  10.873 -0.1541  1.0960  0.2447
  304TMC3    C1 4625   3.917   2.446  10.891  0.2055  0.5553  0.1471
  304TMC3    C2 4626   3.780   2.462  10.899  0.3587  0.3917  0.1204
  304TMC3    C3 4627   3.708   2.386  10.987  0.1449  0.8470  0.1120
  304TMC3    C4 4628   3.982   2.341  10.956 -0.0904 -0.1071 -0.1055
  304TMC3    C5 4629   3.900   2.255  11.021 -0.8441 -0.2727  0.5301
  304TMC3    C6 4630   3.767   2.282  11.052  0.2642  0.5423  0.2363
  304TMC3     C 4631   3.999   2.510  10.786  0.7252 -0.2543 -0.2329
  304TMC3     O 4632   4.062   2.434  10.714 -0.0311 -0.3434  0.1512
  304TMC3     H 4633   3.734   2.548  10.852 -0.2642 -0.6416 -1.1768
  304TMC3    H1 4634   4.088   2.323  10.942  0.3327  2.0509  0.2423
  304TMC3    H2 4635   3.713   2.214  11.117  0.6399 -0.0831 -0.1044
  304TMC3    C7 4636   3.915   2.113  10.990 -0.1255  0.0980 -0.2674
  304TMC3    C8 4637   3.583   2.336  10.928  0.3746 -0.3454 -0.7376
  304TMC3    O1 4638   4.023   2.066  11.021 -0.0035  0.6083  0.2916
  304TMC3    O2 4639   3.565   2.213  10.938  0.5731  0.2107 -0.0887
  305MPD2     C 4640   2.214   4.442  13.990 -0.0318 -0.0637 -0.0227
  305MPD2    C1 4641   2.182   4.316  14.029  0.4663  0.3436  0.3407
  305MPD2    C2 4642   2.108   4.231  13.949  0.9281 -0.0513  0.3739
  305MPD2    C3 4643   2.071   4.272  13.821  0.0641 -0.2808  0.7735
  305MPD2    C4 4644   2.101   4.405  13.786  0.4624  0.1321 -0.2713
  305MPD2    C5 4645   2.173   4.486  13.869 -0.2769  0.4358  0.3033
  305MPD2     H 4646   2.083   4.130  13.977 -0.4095 -0.4804 -2.3043
  305MPD2    H1 4647   2.055   4.448  13.697  1.2813  1.4030 -0.0738
  305MPD2    H2 4648   2.270   4.516  14.045 -0.9149 -0.2515  1.1387
  305MPD2    H3 4649   2.209   4.580  13.829 -2.4132  0.4172 -1.6741
  305MPD2     N 4650   2.010   4.191  13.722  0.3384 -0.3704  0.3554
  305MPD2    H5 4651   2.013   4.230  13.628  1.0920 -0.5438  0.3076
  305MPD2    N1 4652   2.224   4.279  14.161 -0.3707 -0.3901  0.0853
  305MPD2    H7 4653   2.209   4.184  14.195 -0.2718 -0.3204  0.3216
  306TMC3    C1 4654   2.324   4.302  14.359  0.0046 -0.3826  0.8771
  306TMC3    C2 4655   2.370   4.172  14.341 -0.1694 -0.2829 -0.0741
  306TMC3    C3 4656   2.416   4.106  14.454  0.6094  0.1902  0.6938
  306TMC3    C4 4657   2.308   4.353  14.486 -0.3229 -0.0846 -0.3342
  306TMC3    C5 4658   2.347   4.276  14.590  0.3829 -0.2004  0.0668
  306TMC3    C6 4659   2.403   4.156  14.578  0.1236  0.0440 -0.2133
  306TMC3     C 4660   2.258   4.368  14.255 -0.8362  0.4434  0.5443
  306TMC3     O 4661   2.268   4.490  14.266  0.8289  0.7557  0.7102
  306TMC3     H 4662   2.401   4.128  14.248  0.6296 -2.0064  1.0026
  306TMC3    H1 4663   2.259   4.449  14.498  0.6761  0.6145 -1.9468
  306TMC3    H2 4664   2.464   4.109  14.654 -2.6660 -1.0805  1.3186
  306TMC3    C7 4665   2.337   4.335  14.723 -0.9690  0.1329 -0.5190
  306TMC3    C8 4666   2.481   3.975  14.430  0.3362 -0.7469 -0.0656
  306TMC3    O1 4667   2.315   4.456  14.728 -0.0956  0.9224 -0.0089
  306TMC3    O2 4668   2.536   3.960  14.323  0.0178 -0.2004  0.0972
  307MPD2     C 4669   0.548   1.844   0.231 -0.6981  0.2441 -0.0231
  307MPD2    C1 4670   0.538   1.986   0.234  0.2586 -0.1857 -0.4296
  307MPD2    C2 4671   0.563   2.040   0.358  0.5934  0.6503 -0.0296
  307MPD2    C3 4672   0.610   1.971   0.468  0.4461 -0.4425  0.2227
  307MPD2    C4 4673   0.614   1.838   0.453  0.6284  0.6807 -0.0708
  307MPD2    C5 4674   0.590   1.771   0.341 -0.9986 -0.1484  0.0717
  307MPD2     H 4675   0.526   2.141   0.370  1.5046  1.3135 -2.8419
  307MPD2    H1 4676   0.632   1.767   0.533 -2.0791  2.0857  1.7771
  307MPD2    H2 4677   0.526   1.788   0.142 -1.0416  0.3524 -0.0064
  307MPD2    H3 4678   0.603   1.664   0.331  1.3784  0.2926 -1.5561
  307MPD2     N 4679   0.620   2.029   0.598  0.4516  0.4376 -0.5960
  307MPD2    H5 4680   0.662   1.974   0.672  0.5093  0.8611 -0.3144
  307MPD2    N1 4681   0.484   2.069   0.133  0.3704  0.4975 -0.1886
  307MPD2    H7 4682   0.488   2.168   0.155  1.5241  0.3712  0.1780
  308TMC3    C1 4683   0.446   2.106   0.955 -0.1674 -0.0837 -0.7189
  308TMC3    C2 4684   0.439   2.236   0.998  0.0575 -0.5500 -0.8117
  308TMC3    C3 4685   0.510   2.328   0.930  0.3872  0.2136 -0.1423
  308TMC3    C4 4686   0.527   2.072   0.847 -0.3111  0.1511  0.2473
  308TMC3    C5 4687   0.598   2.172   0.783 -0.1560 -0.4575 -0.1906
  308TMC3    C6 4688   0.586   2.302   0.825  0.1408 -0.4987  0.0601
  308TMC3     C 4689   0.338   2.022   0.958  0.8111 -0.0302  0.0729
  308TMC3     O 4690   0.352   1.900   0.957  0.5039 -0.2363 -0.0727
  308TMC3     H 4691   0.395   2.271   1.090  0.1450 -1.1011 -0.5628
  308TMC3    H1 4692   0.523   1.971   0.807  0.5442  0.6142 -1.0032
  308TMC3    H2 4693   0.636   2.384   0.774 -1.4230  0.5738  0.2372
  308TMC3    C7 4694   0.601   2.163   0.636 -0.4904  0.3389 -0.6662
  308TMC3    C8 4695   0.505   2.463   0.985 -0.4245 -0.2122 -0.2025
  308TMC3    O1 4696   0.599   2.260   0.561  0.3769 -0.0690 -0.1974
  308TMC3    O2 4697   0.473   2.478   1.103  0.4747 -0.6967  0.6841
  309MPD2     C 4698   4.332   2.629  17.429  0.2948  0.6682  0.7839
  309MPD2    C1 4699   4.231   2.584  17.349 -0.0365 -0.5327  0.0340
  309MPD2    C2 4700   4.108   2.549  17.411  0.2079  0.0784 -0.4492
  309MPD2    C3 4701   4.084   2.560  17.547  0.1561 -0.5588 -0.5581
  309MPD2    C4 4702   4.187   2.612  17.624 -1.2494 -0.1014 -0.2684
  309MPD2    C5 4703   4.304   2.638  17.564  0.1231 -0.6282  0.3940
  309MPD2     H 4704   4.035   2.520  17.337 -1.1584 -0.5609  1.1547
  309MPD2    H1 4705   4.173   2.641  17.728 -3.7190  1.2482 -0.9483
  309MPD2    H2 4706   4.431   2.650  17.392  0.0655 -0.5323 -0.5060
  309MPD2    H3 4707   4.392   2.668  17.620 -1.8826  2.3731  1.9345
  309MPD2     N 4708   3.958   2.540  17.608  0.2171 -0.1937 -0.3328
  309MPD2    H5 4709   3.957   2.557  17.708 -1.7133 -1.4304 -0.1373
  309MPD2    N1 4710   4.236   2.596  17.206  0.0452 -0.6543  0.4378
  309MPD2    H7 4711   4.146   2.581  17.162  0.5205 -0.7965 -0.4939
  310TMC3    C1 4712   4.331   2.610  16.987  0.0061  0.0743 -0.3043
  310TMC3    C2 4713   4.204   2.624  16.934 -0.4190  0.1532 -0.2509
  310TMC3    C3 4714   4.191   2.617  16.801  0.4533 -0.2364 -0.1262
  310TMC3    C4 4715   4.437   2.564  16.912 -0.6395 -0.1527  0.0564
  310TMC3    C5 4716   4.420   2.555  16.778  0.7055  0.1648  0.1854
  310TMC3    C6 4717   4.297   2.580  16.720 -0.3153 -0.2556 -0.4806
  310TMC3     C 4718   4.351   2.612  17.132  0.5592  1.2596  0.1239
  310TMC3     O 4719   4.463   2.578  17.168  0.8360  0.0181  0.2100
  310TMC3     H 4720   4.126   2.667  16.996  2.3766 -2.2316  4.9978
  310TMC3    H1 4721   4.532   2.539  16.958  0.0763 -0.3909 -1.5569
  310TMC3    H2 4722   4.291   2.572  16.612  1.5406  1.3900 -0.7034
  310TMC3    C7 4723   4.520   2.493  16.691 -0.3561 -0.5193 -0.4435
  310TMC3    C8 4724   4.079   2.675  16.727 -0.0984 -0.1469 -0.0300
  310TMC3    O1 4725   4.478   2.476  16.576 -0.3581 -0.3017 -0.1109
  310TMC3    O2 4726   4.079   2.680  16.604  0.2021 -0.0483  0.0650
  311MPD2     C 4727   0.361   0.532  12.094 -0.3671 -0.4372  0.1254
  311MPD2    C1 4728   0.396   0.512  12.219  0.3497 -0.2229  0.1910
  311MPD2    C2 4729   0.361   0.392  12.282  0.2471 -0.0017 -0.7989
  311MPD2    C3 4730   0.291   0.296  12.216 -0.0741  0.1360 -0.6969
  311MPD2    C4 4731   0.254   0.318  12.090 -0.5890 -0.5493  0.0904
  311MPD2    C5 4732   0.296   0.434  12.025  0.3478 -0.7070  0.7218
  311MPD2     H 4733   0.394   0.370  12.383  1.1654 -0.5096 -1.2034
  311MPD2    H1 4734   0.207   0.245  12.025  1.1374 -0.5213 -1.1856
  311MPD2    H2 4735   0.394   0.619  12.038  1.0307 -1.9935 -1.4886
  311MPD2    H3 4736   0.263   0.459  11.925  0.6300  1.6291  1.2130
  311MPD2     N 4737   0.278   0.173  12.278 -0.0684 -0.7308  0.8957
  311MPD2    H5 4738   0.338   0.165  12.359  0.4054 -0.5239  0.5704
  311MPD2    N1 4739   0.466   0.605  12.297 -0.0966 -0.0200  0.2927
  311MPD2    H7 4740   0.488   0.568  12.389  1.9515  1.8772  0.5548
  312TMC3    C1 4741   0.258   4.682  12.309 -0.2640 -0.3296 -0.8143
  312TMC3    C2 4742   0.161   4.619  12.383 -0.7640 -0.9414  0.1951
  312TMC3    C3 4743   0.196   4.555  12.500 -0.9944  0.7315 -0.2814
  312TMC3    C4 4744   0.379   4.706  12.376  0.2133 -0.1314  0.0893
  312TMC3    C5 4745   0.414   4.646  12.489 -0.1009  0.1917 -0.0023
  312TMC3    C6 4746   0.319   4.562  12.548  0.4896  0.7924 -0.4072
  312TMC3     C 4747   0.216   0.063  12.235  0.3603  0.2447  0.5583
  312TMC3     O 4748   0.126   0.043  12.155  0.5230 -0.0467  0.1020
  312TMC3     H 4749   0.065   4.598  12.337 -0.6559 -2.4152  0.6476
  312TMC3    H1 4750   0.455   0.010  12.313 -0.8755 -0.6861 -1.5991
  312TMC3    H2 4751   0.341   4.506  12.638 -0.9970  1.4534  0.3704
  312TMC3    C7 4752   0.553   4.650  12.537  0.2304 -0.2802 -0.3817
  312TMC3    C8 4753   0.092   4.490  12.578 -0.4180 -0.4232 -0.5626
  312TMC3    O1 4754   0.639   4.716  12.472  0.1327  0.8324 -0.1385
  312TMC3    O2 4755   0.133   4.424  12.673 -0.2603 -0.4624 -0.7293
  313MPD2     C 4756   0.101   3.707  11.674 -0.9259 -0.0835  0.0186
  313MPD2    C1 4757   0.119   3.678  11.539 -0.4058  0.4280  0.6652
  313MPD2    C2 4758   0.072   3.558  11.496 -0.5541 -0.4180  0.4474
  313MPD2    C3 4759   0.009   3.463  11.574  1.1802  0.1391 -0.1894
  313MPD2    C4 4760   4.733   3.490  11.706 -0.3102 -0.2330 -0.1863
  313MPD2    C5 4761   0.039   3.611  11.753 -0.9021 -0.2305 -0.1288
  313MPD2     H 4762   0.090   3.531  11.393  0.1013 -3.4110  1.3378
  313MPD2    H1 4763   4.686   3.428  11.782 -0.7301  0.3832  0.0560
  313MPD2    H2 4764   0.131   3.801  11.718 -0.9662  0.3473 -0.8814
  313MPD2    H3 4765   0.014   3.633  11.856  0.1023 -1.0248  0.2825
  313MPD2     N 4766   4.704   3.342  11.507 -0.6915  0.6188 -0.1552
  313MPD2    H5 4767   4.727   3.340  11.408 -0.2675 -0.7589 -0.0182
  313MPD2    N1 4768   0.189   3.761  11.443 -0.1444 -0.6852 -0.3824
  313MPD2    H7 4769   0.192   3.722  11.349  0.9581  1.1036 -1.1044
  314TMC3    C1 4770   0.323   3.921  11.355 -0.3029 -0.2407  0.3829
  314TMC3    C2 4771   0.448   3.977  11.359  0.1368 -0.4557 -0.0255
  314TMC3    C3 4772   0.508   4.003  11.235  0.2776  0.1973 -0.1298
  314TMC3    C4 4773   0.272   3.886  11.237  0.0691 -0.1077 -0.0383
  314TMC3    C5 4774   0.338   3.914  11.126 -0.7085  0.5891 -0.0498
  314TMC3    C6 4775   0.460   3.980  11.117 -0.2053  0.2153  0.0311
  314TMC3     C 4776   0.255   3.875  11.470  0.1534  0.7158 -0.0162
  314TMC3     O 4777   0.282   3.920  11.582  0.5988  0.6267 -0.3345
  314TMC3     H 4778   0.489   4.001  11.456 -2.2558  1.5221  0.4764
  314TMC3    H1 4779   0.174   3.840  11.223  1.5056 -2.5726 -1.8799
  314TMC3    H2 4780   0.530   3.975  11.033 -1.0330  0.0586 -0.6502
  314TMC3    C7 4781   0.299   3.833  11.015 -0.6256  0.3357 -0.1554
  314TMC3    C8 4782   0.647   4.059  11.229  0.2213  0.1513  0.7926
  314TMC3    O1 4783   0.250   3.722  11.044 -0.1811 -0.4888  0.4072
  314TMC3    O2 4784   0.681   4.107  11.121 -0.2529  0.2620  0.2974
  315MPD2     C 4785   0.810   2.134  17.396 -1.2788 -0.2294  0.3413
  315MPD2    C1 4786   0.882   2.172  17.511 -0.1049  0.5372  0.7041
  315MPD2    C2 4787   0.954   2.293  17.506  0.3212  0.3923 -0.9395
  315MPD2    C3 4788   0.955   2.371  17.394  0.6228  0.4331  0.3906
  315MPD2    C4 4789   0.882   2.331  17.284 -0.6563  0.2503  0.8192
  315MPD2    C5 4790   0.813   2.216  17.289 -0.5430  0.0984  0.0996
  315MPD2     H 4791   1.017   2.327  17.587 -1.6445 -1.6373  1.4446
  315MPD2    H1 4792   0.890   2.384  17.189  0.3317  0.7668  1.1923
  315MPD2    H2 4793   0.746   2.047  17.383  1.9115 -2.6324  0.8486
  315MPD2    H3 4794   0.744   2.194  17.208  1.4848  2.2117 -2.1786
  315MPD2     N 4795   1.029   2.488  17.404  0.1906  0.2378 -0.1253
  315MPD2    H5 4796   1.090   2.497  17.485  0.8812  3.3364 -0.9781
  315MPD2    N1 4797   0.889   2.101  17.628  0.1111  0.3062  0.6207
  315MPD2    H7 4798   0.946   2.144  17.700  0.1059  1.7193 -0.2310
  316TMC3    C1 4799   1.151   2.682  17.343 -0.8849  0.2334 -0.7502
  316TMC3    C2 4800   1.261   2.646  17.412 -0.3680 -0.2332  0.7075
  316TMC3    C3 4801   1.337   2.748  17.470  0.1906  0.3917 -0.0616
  316TMC3    C4 4802   1.106   2.807  17.326  0.5255  0.3566 -0.3933
  316TMC3    C5 4803   1.193   2.901  17.378 -0.1924  0.1766  0.5621
  316TMC3    C6 4804   1.306   2.878  17.450  0.2687  0.5498  0.3324
  316TMC3     C 4805   1.047   2.584  17.310 -0.7820 -1.2889  0.4409
  316TMC3     O 4806   0.976   2.607  17.212 -0.2182 -0.4834  0.4558
  316TMC3     H 4807   1.285   2.541  17.410 -2.2430 -0.6098 -1.7915
  316TMC3    H1 4808   1.013   2.823  17.273  0.5750 -0.9384 -0.8582
  316TMC3    H2 4809   1.375   2.953  17.487  1.0924  0.8360 -1.8039
  316TMC3    C7 4810   1.139   3.031  17.414  0.5370  0.5059 -0.4730
  316TMC3    C8 4811   1.432   2.726  17.580  0.1408 -0.4402  0.7829
  316TMC3    O1 4812   1.184   3.077  17.521 -0.5528 -0.9253 -1.1673
  316TMC3    O2 4813   1.526   2.805  17.604 -0.0649 -0.0791 -0.4398
  317MPD2     C 4814   2.013   1.384  12.844  0.8423 -0.5118 -0.3287
  317MPD2    C1 4815   2.130   1.329  12.812  0.4528  0.0633 -0.1993
  317MPD2    C2 4816   2.186   1.239  12.898 -0.3929  0.4303 -0.7640
  317MPD2    C3 4817   2.126   1.220  13.022 -0.0646  0.7081  0.3260
  317MPD2    C4 4818   2.007   1.281  13.053 -0.0080 -0.4605  0.3362
  317MPD2    C5 4819   1.948   1.357  12.963 -0.1260  0.4676 -0.7785
  317MPD2     H 4820   2.280   1.189  12.879  0.5390  1.7401  0.4072
  317MPD2    H1 4821   1.951   1.267  13.145  0.0712  0.0997  0.4703
  317MPD2    H2 4822   1.950   1.435  12.771 -0.3604 -0.1606  0.9548
  317MPD2    H3 4823   1.850   1.397  12.983  0.6020  1.8468  0.0868
  317MPD2     N 4824   2.191   1.138  13.109 -0.5856 -0.4794  0.2484
  317MPD2    H5 4825   2.270   1.081  13.080 -1.0706 -1.2547  0.4347
  317MPD2    N1 4826   2.192   1.345  12.686 -0.2834 -0.4421 -0.3412
  317MPD2    H7 4827   2.270   1.282  12.671 -2.1123 -2.7169 -0.2760
  318TMC3    C1 4828   2.245   1.010  13.295 -0.0561 -0.0144  0.4784
  318TMC3    C2 4829   2.192   0.893  13.328  0.6440 -0.1009  0.4890
  318TMC3    C3 4830   2.276   0.799  13.382  0.8528  0.1097  0.6789
  318TMC3    C4 4831   2.374   1.042  13.315  0.2731 -0.0308  0.1173
  318TMC3    C5 4832   2.450   0.948  13.382  0.5404  0.4696  0.0817
  318TMC3    C6 4833   2.404   0.822  13.404  0.1442 -0.2289 -0.3452
  318TMC3     C 4834   2.157   1.114  13.244  0.4358 -0.3114  0.6412
  318TMC3     O 4835   2.060   1.147  13.319 -0.3092 -0.4737  0.3517
  318TMC3     H 4836   2.084   0.883  13.325  0.8235 -0.9288 -2.8003
  318TMC3    H1 4837   2.406   1.137  13.273  0.5009 -0.1748 -0.0357
  318TMC3    H2 4838   2.475   0.747  13.437  1.3719  0.9721 -0.2499
  318TMC3    C7 4839   2.590   0.946  13.334  0.5625 -0.0350 -0.3646
  318TMC3    C8 4840   2.239   0.663  13.393  0.1578  0.4238 -0.5143
  318TMC3    O1 4841   2.618   1.012  13.233  0.8424  0.0377  0.2138
  318TMC3    O2 4842   2.323   0.583  13.432 -0.3708 -0.4738  0.3267
  319MPD2     C 4843   3.904   2.300  16.335 -0.0697  0.3308  0.5590
  319MPD2    C1 4844   3.797   2.265  16.413 -0.2404  0.2877 -0.4213
  319MPD2    C2 4845   3.674   2.249  16.353  0.2691 -0.3311  0.8402
  319MPD2    C3 4846   3.662   2.269  16.211  0.0037  0.4644 -0.1687
  319MPD2    C4 4847   3.774   2.288  16.139  0.5433  0.3009  0.1739
  319MPD2    C5 4848   3.896   2.303  16.200 -0.2883 -0.2731 -0.1545
  319MPD2     H 4849   3.590   2.234  16.420  0.1793 -2.0614  0.3355
  319MPD2    H1 4850   3.764   2.284  16.031 -1.4133  0.0815  0.3649
  319MPD2    H2 4851   4.008   2.303  16.366  0.4117  1.7245 -1.2239
  319MPD2    H3 4852   3.988   2.314  16.144 -0.1639 -0.5735 -0.0073
  319MPD2     N 4853   3.540   2.264  16.148  0.2181  0.0497 -0.1907
  319MPD2    H5 4854   3.519   2.320  16.066  0.9948 -1.0604 -1.1466
  319MPD2    N1 4855   3.807   2.255  16.553  1.1382 -0.7026  0.4158
  319MPD2    H7 4856   3.723   2.223  16.600 -0.7735  2.4390 -0.8675
  320TMC3    C1 4857   3.314   2.216  16.122  0.0040  0.2117 -0.1290
  320TMC3    C2 4858   3.309   2.309  16.020 -0.0199 -0.0549 -0.2584
  320TMC3    C3 4859   3.225   2.289  15.913 -0.6521 -0.5418  0.3574
  320TMC3    C4 4860   3.231   2.104  16.122 -0.2010 -0.0635  0.3866
  320TMC3    C5 4861   3.148   2.094  16.009  0.5932  0.6226 -0.3320
  320TMC3    C6 4862   3.147   2.176  15.902  0.4809  0.3904 -0.5017
  320TMC3     C 4863   3.431   2.199  16.208 -0.4465  0.4262  0.2285
  320TMC3     O 4864   3.427   2.111  16.296 -0.0698 -0.0271 -0.4026
  320TMC3     H 4865   3.353   2.408  16.029 -0.5979  0.3872 -2.3056
  320TMC3    H1 4866   3.247   2.015  16.182  0.3906 -0.3212 -0.1462
  320TMC3    H2 4867   3.079   2.154  15.821 -0.9399 -0.0461  0.8309
  320TMC3    C7 4868   3.063   1.981  16.006 -0.4921 -0.4410  0.4449
  320TMC3    C8 4869   3.166   2.406  15.848  0.0795  0.3243 -0.3743
  320TMC3    O1 4870   3.047   1.922  15.901 -0.5816  0.3515 -0.3804
  320TMC3    O2 4871   3.154   2.506  15.917 -0.4430  0.0375  0.1927
  321TMC3    C1 4872   3.894   2.235  16.761 -0.0148 -0.3335 -1.6382
  321TMC3    C2 4873   3.861   2.103  16.775 -0.4518 -0.8672  0.1260
  321TMC3    C3 4874   3.848   2.053  16.897  0.0379 -0.6041 -0.2477
  321TMC3    C4 4875   3.941   2.307  16.871 -0.2001  0.0833 -0.2864
  321TMC3    C5 4876   3.925   2.256  16.999 -0.5016  0.7533 -0.0720
  321TMC3    C6 4877   3.872   2.128  17.010 -0.4548  0.3290  0.4094
  321TMC3     C 4878   3.912   2.294  16.628  0.3417 -0.0996  0.3938
  321TMC3     O 4879   4.016   2.357  16.604  0.7835 -0.1630  0.0833
  321TMC3     H 4880   3.865   2.042  16.686  3.0861 -0.6908  0.1527
  321TMC3    H1 4881   4.009   2.390  16.860  1.9210 -1.7200 -0.7604
  321TMC3    H2 4882   3.849   2.084  17.106  0.4090 -1.0661 -0.0238
  321TMC3    C7 4883   4.040   2.275  17.089 -0.3506  0.1574 -0.5348
  321TMC3    C8 4884   3.915   1.923  16.926 -0.2159  0.3060 -0.7634
  321TMC3    O1 4885   4.089   2.387  17.100 -0.0615 -0.5995 -0.5965
  321TMC3    O2 4886   3.972   1.911  17.035 -0.0161 -0.3952  0.1816
  322MPD2     C 4887   1.810   3.638  13.646  0.1782 -0.2737 -0.2527
  322MPD2    C1 4888   1.881   3.562  13.739  0.2103  0.6561  0.6510
  322MPD2    C2 4889   1.951   3.452  13.699 -0.0695 -0.6249  0.2088
  322MPD2    C3 4890   1.952   3.410  13.565  0.1455  0.5616 -0.2275
  322MPD2    C4 4891   1.873   3.483  13.476 -0.3201 -0.5592  0.7316
  322MPD2    C5 4892   1.815   3.598  13.512  0.1490  0.2079 -0.1380
  322MPD2     H 4893   2.022   3.402  13.764  2.0392  1.5004 -0.4463
  322MPD2    H1 4894   1.871   3.453  13.372  2.9811  0.2541  0.4095
  322MPD2    H2 4895   1.750   3.723  13.675  1.1589  0.1998  0.3742
  322MPD2    H3 4896   1.755   3.654  13.441 -1.0622  1.3037  1.7181
  322MPD2     N 4897   2.013   3.289  13.531 -0.2106 -0.4750  0.5547
  322MPD2    H5 4898   2.052   3.224  13.599 -1.5577 -0.3726  1.4122
  322MPD2    N1 4899   1.887   3.607  13.873  0.0802  0.3142  0.6107
  322MPD2    H7 4900   1.858   3.703  13.888 -1.9995 -0.6118  2.4067
  323TMC3    C1 4901   1.939   3.615  14.097  0.6220 -0.2184 -0.3576
  323TMC3    C2 4902   2.012   3.728  14.069 -0.1114 -0.3164 -0.3791
  323TMC3    C3 4903   2.107   3.760  14.160  0.1119  0.8978  0.7356
  323TMC3    C4 4904   1.950   3.553  14.217 -0.1283 -0.4418  0.1147
  323TMC3    C5 4905   2.042   3.599  14.307  0.3010 -0.2781  0.6348
  323TMC3    C6 4906   2.116   3.714  14.284  0.2260 -0.0895 -0.4246
  323TMC3     C 4907   1.921   3.530  13.982  0.4521 -0.8014 -0.0616
  323TMC3     O 4908   1.915   3.409  14.001 -0.1510 -0.0147 -0.0231
  323TMC3     H 4909   2.017   3.780  13.974 -1.2180 -1.1040 -0.8638
  323TMC3    H1 4910   1.917   3.451  14.231  2.5422 -1.2830  0.2325
  323TMC3    H2 4911   2.184   3.760  14.355 -0.9625  2.4530 -0.9406
  323TMC3    C7 4912   2.092   3.491  14.404  0.5220  0.0752 -0.3045
  323TMC3    C8 4913   2.193   3.873  14.119  0.3610  0.4626  0.1803
  323TMC3    O1 4914   2.102   3.381  14.349  0.0568 -0.2122 -0.1387
  323TMC3    O2 4915   2.221   3.962  14.197  0.1001 -0.3633  0.5656
  324MPD2     C 4916   3.478   0.042  14.647 -0.1106  0.1507 -0.5196
  324MPD2    C1 4917   3.512   0.113  14.542  0.3134 -0.2020  0.3729
  324MPD2    C2 4918   3.416   0.140  14.440  0.2258  0.3873  0.3769
  324MPD2    C3 4919   3.288   0.097  14.462  0.3725  0.2933  0.7128
  324MPD2    C4 4920   3.251   0.027  14.577 -0.1561 -0.0099 -0.8641
  324MPD2    C5 4921   3.351   4.730  14.666  0.4046 -0.5889 -0.4173
  324MPD2     H 4922   3.444   0.202  14.356  0.0937  2.2116  1.6806
  324MPD2    H1 4923   3.147   4.738  14.584  0.3752 -1.5679  0.2989
  324MPD2    H2 4924   3.551   0.004  14.718 -0.0090  0.7548 -0.2997
  324MPD2    H3 4925   3.331   4.660  14.746  0.2198 -0.9014 -0.7333
  324MPD2     N 4926   3.191   0.117  14.364 -0.4881  0.6602 -0.4280
  324MPD2    H5 4927   3.106   0.066  14.386 -0.2738  0.6899  0.4470
  324MPD2    N1 4928   3.642   0.174  14.518  0.0055  0.1038  0.3233
  324MPD2    H7 4929   3.656   0.223  14.431 -0.6479  0.2834  0.3175
  325TMC3    C1 4930   3.063   0.240  14.203 -0.9508  0.2462 -1.0182
  325TMC3    C2 4931   3.005   0.121  14.155 -0.0842  0.6512  0.2333
  325TMC3    C3 4932   2.907   0.134  14.063  0.6726 -0.4925  0.2303
  325TMC3    C4 4933   3.032   0.365  14.151  0.5816 -0.3805 -0.7940
  325TMC3    C5 4934   2.927   0.371  14.057 -0.6518 -0.7690 -0.4008
  325TMC3    C6 4935   2.857   0.261  14.028  0.1347 -0.4049 -0.4328
  325TMC3     C 4936   3.185   0.225  14.279 -0.5896 -0.9045 -0.3379
  325TMC3     O 4937   3.269   0.316  14.273 -0.0019 -0.3945  0.4583
  325TMC3     H 4938   3.045   0.021  14.171  0.2994  0.6173 -0.9737
  325TMC3    H1 4939   3.077   0.454  14.194 -0.2507 -0.6614  0.6786
  325TMC3    H2 4940   2.789   0.269  13.944  0.0691 -4.4304 -0.7832
  325TMC3    C7 4941   2.887   0.500  13.994 -0.2261 -0.0265 -0.4650
  325TMC3    C8 4942   2.876   0.026  13.970 -0.1967  0.8137  0.3022
  325TMC3    O1 4943   2.783   0.493  13.933 -0.0835 -0.4609 -0.0051
  325TMC3    O2 4944   2.954   4.670  13.959  0.0100 -0.1244  0.0577
  326MPD2     C 4945   0.049   1.466  11.212  0.6201 -0.1549  0.8747
  326MPD2    C1 4946   0.083   1.492  11.080  0.7444  0.4331  0.1946
  326MPD2    C2 4947   0.211   1.532  11.052  0.7313 -0.0177  0.2381
  326MPD2    C3 4948   0.306   1.555  11.154  0.0607  0.3028 -0.8738
  326MPD2    C4 4949   0.271   1.535  11.287  0.4937 -0.1523  0.0017
  326MPD2    C5 4950   0.142   1.499  11.314 -0.2648  0.3089 -0.3011
  326MPD2     H 4951   0.225   1.552  10.947  0.5825  1.3646  0.4739
  326MPD2    H1 4952   0.344   1.552  11.365  1.4753 -0.8894 -0.7490
  326MPD2    H2 4953   4.697   1.421  11.247  0.1893  0.9463  1.1394
  326MPD2    H3 4954   0.113   1.483  11.417  0.6749  0.4488 -0.0207
  326MPD2     N 4955   0.440   1.608  11.130 -0.0293 -0.1060 -0.1752
  326MPD2    H5 4956   0.504   1.604  11.209  1.1839  0.0912 -1.1450
  326MPD2    N1 4957   0.007   1.454  10.966 -0.0516 -0.1350  0.2031
  326MPD2    H7 4958   0.051   1.471  10.877 -0.0805  0.6736  0.3358
  327TMC3    C1 4959   4.570   1.377  10.840  0.4326  0.4776  0.2352
  327TMC3    C2 4960   4.484   1.468  10.785 -0.3087  0.7430  0.1099
  327TMC3    C3 4961   4.508   1.518  10.658 -0.0270 -0.2541  0.6366
  327TMC3    C4 4962   4.680   1.331  10.774 -0.6940  0.4511  0.5223
  327TMC3    C5 4963   4.701   1.372  10.647 -0.4971  0.1266  0.8170
  327TMC3    C6 4964   4.614   1.459  10.585 -0.3522 -0.0432 -0.2618
  327TMC3     C 4965   4.613   1.425  10.966 -0.3480 -0.2898  0.0020
  327TMC3     O 4966   4.528   1.432  11.056 -0.2497  0.3727  0.0740
  327TMC3     H 4967   4.421   1.524  10.854 -3.4418 -4.4125  1.3956
  327TMC3    H1 4968   4.736   1.250  10.820  0.5932  1.8692  1.4694
  327TMC3    H2 4969   4.635   1.491  10.484  1.6026  0.3547  0.2717
  327TMC3    C7 4970   0.097   1.386  10.602  1.2127  0.2623  0.1137
  327TMC3    C8 4971   4.465   1.646  10.619 -0.6482 -0.2383  0.1418
  327TMC3    O1 4972   0.128   1.463  10.514  0.1571  0.8741  0.2683
  327TMC3    O2 4973   4.518   1.685  10.514  0.2972 -0.6013  0.4628
  328MPD2     C 4974   3.009   0.762  17.130 -0.3306 -0.5511  0.3779
  328MPD2    C1 4975   2.923   0.653  17.162  1.2203 -0.0418  0.2979
  328MPD2    C2 4976   2.792   0.663  17.111 -0.5012  0.8271 -0.1329
  328MPD2    C3 4977   2.746   0.782  17.066  1.1002 -0.2334  0.3959
  328MPD2    C4 4978   2.829   0.887  17.043 -0.1404  0.3652 -0.2389
  328MPD2    C5 4979   2.960   0.875  17.073 -0.4486  0.0727  0.3993
  328MPD2     H 4980   2.722   0.583  17.132 -0.7948  0.9956 -0.4782
  328MPD2    H1 4981   2.786   0.976  17.000  0.8328  1.4751  1.0638
  328MPD2    H2 4982   3.115   0.753  17.152 -0.6614 -0.4314  2.0122
  328MPD2    H3 4983   3.029   0.953  17.043  2.5790 -2.2481  1.3032
  328MPD2     N 4984   2.612   0.794  17.017  0.0878  0.1859 -0.3245
  328MPD2    H5 4985   2.586   0.889  16.991  2.3660  0.5573 -1.2692
  328MPD2    N1 4986   2.972   0.536  17.220  0.6081 -0.0020 -0.7616
  328MPD2    H7 4987   3.062   0.561  17.260  0.1181  0.2374  0.1904
  329TMC3    C1 4988   2.959   0.345  17.364  0.1055 -0.1250  1.5601
  329TMC3    C2 4989   3.017   0.426  17.460  0.2425 -1.1773  0.1046
  329TMC3    C3 4990   3.005   0.385  17.592 -0.0672  0.5286 -0.3732
  329TMC3    C4 4991   2.909   0.223  17.390 -0.5385 -0.7944  0.0033
  329TMC3    C5 4992   2.904   0.191  17.523  0.7705  0.0744  0.0349
  329TMC3    C6 4993   2.949   0.268  17.625  0.0768 -0.1699 -0.0749
  329TMC3     C 4994   2.902   0.421  17.252  0.3773 -0.0450  0.4196
  329TMC3     O 4995   2.798   0.377  17.205  0.0094  0.1340  0.2132
  329TMC3     H 4996   3.051   0.528  17.446  0.8688 -1.4618 -0.4389
  329TMC3    H1 4997   2.861   0.166  17.311 -2.0954  0.5112  0.0028
  329TMC3    H2 4998   2.944   0.232  17.727 -0.6630  0.0685 -0.0277
  329TMC3    C7 4999   2.852   0.054  17.553  0.2885 -0.0335 -0.5289
  329TMC3    C8 5000   3.023   0.490  17.686  0.0674  0.2201 -0.5906
  329TMC3    O1 5001   2.840   4.726  17.452  0.1185  0.2886 -0.4230
  329TMC3    O2 5002   3.114   0.568  17.660 -0.4279  0.5004 -0.1474
  330TMC3    C1 5003   0.903   0.768   9.901 -0.1165  0.0366  0.0141
  330TMC3    C2 5004   0.799   0.689   9.851  0.6813 -0.4062 -0.1743
  330TMC3    C3 5005   0.799   0.559   9.898  0.0766  0.0981 -0.4926
  330TMC3    C4 5006   0.988   0.729   9.997  0.5638  1.0477  0.5266
  330TMC3    C5 5007   0.989   0.595  10.033 -0.2528 -0.5123  0.1455
  330TMC3    C6 5008   0.900   0.509   9.973  0.1733 -0.8966  1.0065
  330TMC3     C 5009   0.886   0.911   9.890  0.2990 -0.2336 -0.0540
  330TMC3     O 5010   0.919   0.982   9.985  0.2288 -0.2676  0.0042
  330TMC3     H 5011   0.704   0.728   9.816  2.7457  3.5642 -1.2681
  330TMC3    H1 5012   1.059   0.793  10.048  0.6248  0.5269  1.0906
  330TMC3    H2 5013   0.919   0.403   9.984 -1.0236 -1.3743 -1.6375
  330TMC3    C7 5014   1.069   0.542  10.143 -0.8086 -0.0788  0.3585
  330TMC3    C8 5015   0.700   0.472   9.840 -0.5403  0.8865 -0.5591
  330TMC3    O1 5016   1.032   0.429  10.179  0.5755  0.6545  0.0149
  330TMC3    O2 5017   0.621   0.522   9.756  0.1597 -0.5171  0.1025
  331MPD2     C 5018   3.598   4.698  13.423 -0.2591 -0.3003  0.0870
  331MPD2    C1 5019   3.581   4.586  13.343 -0.5689  0.0910 -0.2196
  331MPD2    C2 5020   3.567   4.464  13.409  0.6067  0.4575  0.2554
  331MPD2    C3 5021   3.569   4.455  13.545 -0.0547 -0.6220 -0.0909
  331MPD2    C4 5022   3.596   4.564  13.623 -0.3642 -0.3099  0.5069
  331MPD2    C5 5023   3.595   4.685  13.557 -0.9384  0.3138 -0.1183
  331MPD2     H 5024   3.548   4.369  13.361  1.6109 -0.6167  1.9720
  331MPD2    H1 5025   3.590   4.568  13.731  1.5611 -2.4748  0.6828
  331MPD2    H2 5026   3.610   0.061  13.392  1.5453 -0.9311 -1.3369
  331MPD2    H3 5027   3.599   0.036  13.616 -0.9632 -0.8074  1.5901
  331MPD2     N 5028   3.536   4.333  13.597  0.6893 -0.2745  0.4205
  331MPD2    H5 5029   3.495   4.267  13.531  0.4326 -0.4532  0.7623
  331MPD2    N1 5030   3.579   4.591  13.201 -0.4546 -0.7514  0.8470
  331MPD2    H7 5031   3.588   4.682  13.157 -0.5837 -1.8471 -1.4228
  332TMC3    C1 5032   3.516   4.142  13.735  0.0084  0.7236  0.0444
  332TMC3    C2 5033   3.454   4.086  13.626  0.2902 -0.0519 -0.9502
  332TMC3    C3 5034   3.479   3.960  13.582  0.5740 -0.2178 -0.2281
  332TMC3    C4 5035   3.627   4.073  13.788 -0.3190  0.1447 -0.0532
  332TMC3    C5 5036   3.654   3.946  13.739  1.2191  0.0930 -0.3191
  332TMC3    C6 5037   3.588   3.889  13.632 -0.1852 -1.0769  0.6848
  332TMC3     C 5038   3.546   4.282  13.725  0.8530 -0.2239  0.3093
  332TMC3     O 5039   3.620   4.334  13.809 -0.7342 -0.1098 -0.1381
  332TMC3     H 5040   3.375   4.131  13.567  0.0450 -0.9419 -1.3006
  332TMC3    H1 5041   3.684   4.102  13.875 -0.0949  0.3001 -0.2522
  332TMC3    H2 5042   3.615   3.793  13.588 -1.9656 -1.7950  1.1348
  332TMC3    C7 5043   3.781   3.876  13.757 -0.4029  0.0109  0.1886
  332TMC3    C8 5044   3.416   3.903  13.461 -0.3745  0.5099  0.5231
  332TMC3    O1 5045   3.797   3.826  13.868 -0.3079  0.0648 -1.1072
  332TMC3    O2 5046   3.477   3.814  13.398  0.6668 -0.4109  0.2121
  333MPD2     C 5047   3.527   4.458  11.093  0.4181 -0.3657 -0.0080
  333MPD2    C1 5048   3.643   4.452  11.170 -0.3802 -0.1862  0.9332
  333MPD2    C2 5049   3.641   4.369  11.276 -0.4801  0.5119  0.2257
  333MPD2    C3 5050   3.528   4.288  11.301  0.5713  0.3699 -0.3028
  333MPD2    C4 5051   3.418   4.295  11.222  0.8307 -0.2951 -0.3850
  333MPD2    C5 5052   3.409   4.387  11.121  0.0196  0.3726  0.5753
  333MPD2     H 5053   3.727   4.358  11.341 -0.1472 -1.1008 -0.5112
  333MPD2    H1 5054   3.340   4.221  11.227  0.2549  0.4606  2.1665
  333MPD2    H2 5055   3.519   4.533  11.015  0.1079 -1.2341 -0.7947
  333MPD2    H3 5056   3.323   4.395  11.055  1.2681 -1.7190 -1.3240
  333MPD2     N 5057   3.532   4.200  11.412 -0.4253  0.5214 -0.3131
  333MPD2    H5 5058   3.618   4.183  11.462 -0.2215  1.2120 -0.4379
  333MPD2    N1 5059   3.753   4.532  11.129  0.4355 -0.5037  0.4101
  333MPD2    H7 5060   3.740   4.588  11.045  0.6782  0.3272  0.9273
  334TMC3    C1 5061   3.968   4.594  11.100 -0.8262 -0.2023  0.0699
  334TMC3    C2 5062   4.089   4.538  11.090  0.3707 -0.0058 -0.8166
  334TMC3    C3 5063   4.184   4.596  11.011  0.1653 -0.3148  0.2751
  334TMC3    C4 5064   3.930   4.696  11.020 -0.4615  0.3135 -0.7802
  334TMC3    C5 5065   4.030   0.011  10.937 -0.2141 -0.1292  0.0339
  334TMC3    C6 5066   4.159   4.707  10.935 -0.5919 -0.0636 -0.3775
  334TMC3     C 5067   3.880   4.523  11.184  0.7970 -0.1029  0.2644
  334TMC3     O 5068   3.922   4.460  11.281  0.0464 -0.5454  0.2764
  334TMC3     H 5069   4.117   4.459  11.159  0.3844  0.4010 -0.3608
  334TMC3    H1 5070   3.841   0.012  11.048  0.6148  0.8186  1.6382
  334TMC3    H2 5071   4.231   0.003  10.863  0.6258 -2.7572 -0.5169
  334TMC3    C7 5072   4.009   0.143  10.889  0.2222 -0.7734 -0.4077
  334TMC3    C8 5073   4.287   4.506  10.962 -0.5159 -0.0227  0.4417
  334TMC3    O1 5074   4.102   0.209  10.858  0.3708  0.1093 -0.1835
  334TMC3    O2 5075   4.265   4.388  10.996  0.1732 -0.8757  0.4478
  335TMC3    C1 5076   3.647   1.011  17.456  0.5963 -0.4981 -0.0348
  335TMC3    C2 5077   3.541   0.946  17.400 -0.6656 -0.5170 -0.0045
  335TMC3    C3 5078   3.562   0.818  17.362  0.2972 -0.5852  0.2831
  335TMC3    C4 5079   3.766   0.952  17.473  0.4103  0.5779  0.0879
  335TMC3    C5 5080   3.781   0.823  17.440  0.1639 -0.1867  0.3939
  335TMC3    C6 5081   3.680   0.750  17.385  0.1687 -0.5397  0.6531
  335TMC3     C 5082   3.651   1.156  17.462  0.0240 -0.3187 -0.2034
  335TMC3     O 5083   3.760   1.212  17.470 -0.3822  0.2489  0.6574
  335TMC3     H 5084   3.444   0.995  17.400 -0.6220 -0.4299 -0.1793
  335TMC3    H1 5085   3.848   1.005  17.519  0.3105 -0.8851  1.9301
  335TMC3    H2 5086   3.683   0.646  17.357  1.5553 -1.0029  2.5305
  335TMC3    C7 5087   3.915   0.764  17.422 -0.2561  0.1388 -0.6758
  335TMC3    C8 5088   3.462   0.761  17.284 -0.0246  0.1905  0.1619
  335TMC3    O1 5089   4.007   0.837  17.455  0.3551 -0.1239 -0.3496
  335TMC3    O2 5090   3.398   0.837  17.212 -0.2260 -0.0428  0.1030
  336MPD2     C 5091   3.214   3.317  16.851 -0.3154 -0.0631  0.2810
  336MPD2    C1 5092   3.230   3.339  16.709 -0.2325 -0.1981 -0.5704
  336MPD2    C2 5093   3.285   3.231  16.631 -0.4830 -0.9827  0.1951
  336MPD2    C3 5094   3.285   3.109  16.684  0.1669 -0.7432 -0.0186
  336MPD2    C4 5095   3.265   3.087  16.817  0.5686  0.5387 -0.7496
  336MPD2    C5 5096   3.234   3.193  16.896  0.5064  0.3012 -0.2351
  336MPD2     H 5097   3.305   3.253  16.527  0.8212  4.3438  1.5446
  336MPD2    H1 5098   3.293   2.997  16.871  1.5290  0.7088 -0.9752
  336MPD2    H2 5099   3.190   3.393  16.925 -1.2521  0.2983 -0.3893
  336MPD2    H3 5100   3.216   3.167  17.000 -1.1091  0.7973 -0.3838
  336MPD2     N 5101   3.315   2.991  16.613  0.1619  0.7004  0.3889
  336MPD2    H5 5102   3.303   2.908  16.671  1.8963 -0.4199 -0.8389
  336MPD2    N1 5103   3.195   3.460  16.648 -0.2783 -0.1643 -0.2822
  336MPD2    H7 5104   3.206   3.464  16.547 -1.8374 -2.1798 -0.5285
  337TMC3    C1 5105   3.059   3.645  16.613  0.7773 -0.7105 -0.7384
  337TMC3    C2 5106   3.048   3.591  16.488  0.0372  0.2278  0.5866
  337TMC3    C3 5107   2.954   3.644  16.411  0.1174 -0.1026 -0.1998
  337TMC3    C4 5108   2.979   3.743  16.655 -0.1361 -0.0737  0.2108
  337TMC3    C5 5109   2.887   3.797  16.565  0.2997  0.4642  0.1787
  337TMC3    C6 5110   2.871   3.751  16.441 -0.0013  0.5434  0.5983
  337TMC3     C 5111   3.124   3.560  16.710  0.5476  0.2420 -0.1963
  337TMC3     O 5112   3.093   3.569  16.829  0.3761  0.1883  0.2610
  337TMC3     H 5113   3.112   3.512  16.450 -0.4752  0.4815 -0.8104
  337TMC3    H1 5114   2.984   3.784  16.755  1.6910  0.8655 -0.2759
  337TMC3    H2 5115   2.811   3.801  16.365 -2.7858 -1.9331  1.1299
  337TMC3    C7 5116   2.810   3.909  16.616  0.0934  0.5705 -0.0075
  337TMC3    C8 5117   2.967   3.603  16.273  0.3462  0.5288 -0.5177
  337TMC3    O1 5118   2.850   3.969  16.716  0.2944  0.1012  0.9246
  337TMC3    O2 5119   3.069   3.545  16.236 -0.4235  0.1211  0.2055
  338MPD2     C 5120   4.321   2.887   1.114  0.4334 -1.0652 -0.0543
  338MPD2    C1 5121   4.209   2.834   1.055 -0.1483  0.0691 -0.1468
  338MPD2    C2 5122   4.093   2.907   1.055  0.4231 -0.0517 -0.3132
  338MPD2    C3 5123   4.090   3.033   1.100  0.8599 -0.5385  0.0498
  338MPD2    C4 5124   4.208   3.093   1.144 -0.6665 -0.8258 -0.1167
  338MPD2    C5 5125   4.318   3.011   1.170  0.2228  0.2109  0.5866
  338MPD2     H 5126   4.010   2.859   1.005 -0.6844  1.9649 -0.3710
  338MPD2    H1 5127   4.207   3.196   1.178  0.2261 -0.5810 -0.8420
  338MPD2    H2 5128   4.418   2.840   1.104  0.8206  0.1692 -2.1797
  338MPD2    H3 5129   4.407   3.046   1.220 -0.5568  2.6795  0.2309
  338MPD2     N 5130   3.970   3.108   1.070  0.3263  0.1056  0.3351
  338MPD2    H5 5131   3.896   3.069   1.013  0.8172 -2.8782  1.7273
  338MPD2    N1 5132   4.205   2.709   0.990 -0.5622  0.0867 -0.1675
  338MPD2    H7 5133   4.114   2.685   0.952  0.5290  0.0182 -2.7069
  339TMC3    C1 5134   3.803   3.262   1.116  0.1495  1.3797 -0.3913
  339TMC3    C2 5135   3.737   3.309   1.230  0.9387  0.7124 -0.9446
  339TMC3    C3 5136   3.597   3.305   1.224 -0.3812  0.5498 -0.2388
  339TMC3    C4 5137   3.733   3.204   1.013  0.7277  0.6879  0.3219
  339TMC3    C5 5138   3.595   3.197   1.022  0.0321 -0.4442  0.4772
  339TMC3    C6 5139   3.525   3.247   1.129 -0.1590 -0.2798  0.0804
  339TMC3     C 5140   3.939   3.230   1.128  0.3099 -0.0645 -0.2354
  339TMC3     O 5141   3.994   3.294   1.215  0.1612  0.1397  0.2880
  339TMC3     H 5142   3.794   3.322   1.321  1.3890 -0.2805 -1.0762
  339TMC3    H1 5143   3.786   3.164   0.927 -0.0701  2.5782 -1.0497
  339TMC3    H2 5144   3.416   3.244   1.131 -0.1893  1.5382  1.2118
  339TMC3    C7 5145   3.514   3.168   0.900  0.3721  0.2269  0.3993
  339TMC3    C8 5146   3.527   3.343   1.342 -0.0815 -0.9151  0.2821
  339TMC3    O1 5147   3.556   3.079   0.824  0.6339 -0.3286  0.1437
  339TMC3    O2 5148   3.557   3.445   1.404  0.1010  0.3839 -0.1594
  340MPD2     C 5149   3.184   1.235  10.240 -0.0104 -0.6703 -0.5007
  340MPD2    C1 5150   3.297   1.193  10.183 -0.0272 -0.4772 -0.1351
  340MPD2    C2 5151   3.421   1.239  10.236  0.7165 -1.2437  0.5252
  340MPD2    C3 5152   3.429   1.319  10.347 -0.5101 -0.5757 -0.0001
  340MPD2    C4 5153   3.309   1.368  10.401 -0.5767 -0.1292 -0.7131
  340MPD2    C5 5154   3.191   1.328  10.346  0.0106  0.0206  0.5299
  340MPD2     H 5155   3.509   1.192  10.194  1.4717  0.1301  0.5817
  340MPD2    H1 5156   3.310   1.408  10.502  0.3519  1.1987 -1.2545
  340MPD2    H2 5157   3.093   1.192  10.201 -0.4800  2.1745 -2.5682
  340MPD2    H3 5158   3.103   1.355  10.402 -0.0574  1.7166 -0.4036
  340MPD2     N 5159   3.548   1.337  10.418 -0.3366 -0.4808  0.5977
  340MPD2    H5 5160   3.556   1.408  10.491 -2.3826 -0.5492  0.8705
  340MPD2    N1 5161   3.311   1.098  10.075 -0.4837 -0.1774 -0.2840
  340MPD2    H7 5162   3.405   1.082  10.039 -0.3911  1.9009 -0.9741
  341TMC3    C1 5163   3.271   0.938   9.909 -0.4827 -0.6003 -0.1018
  341TMC3    C2 5164   3.189   0.897   9.802  0.5181 -0.1937  0.1243
  341TMC3    C3 5165   3.230   0.790   9.732  0.2436 -0.1886  0.4097
  341TMC3    C4 5166   3.384   0.865   9.952  0.3654  0.1430  0.0953
  341TMC3    C5 5167   3.416   0.765   9.866  0.3658 -0.4487  0.3340
  341TMC3    C6 5168   3.351   0.732   9.755 -0.0713 -0.4943 -0.3788
  341TMC3     C 5169   3.213   1.037  10.001 -0.0365 -0.4260 -0.8366
  341TMC3     O 5170   3.088   1.045  10.013  0.0494  0.3955 -0.2323
  341TMC3     H 5171   3.105   0.958   9.773  0.8986 -0.1445 -0.8826
  341TMC3    H1 5172   3.443   0.899  10.036  2.9089 -0.7738 -1.3409
  341TMC3    H2 5173   3.384   0.645   9.700  0.3741 -0.5838  0.0324
  341TMC3    C7 5174   3.509   0.665   9.912  0.2472  0.6575  0.2775
  341TMC3    C8 5175   3.131   0.694   9.681 -0.0926  0.2972  0.1422
  341TMC3    O1 5176   3.559   0.602   9.822 -0.2831  0.0669  0.6026
  341TMC3    O2 5177   3.162   0.577   9.684 -0.2559 -0.1920  0.7116
  342MPD2     C 5178   1.329   3.685  16.963 -0.0725  0.3821 -0.0721
  342MPD2    C1 5179   1.444   3.649  17.036 -0.0396  0.3415  0.5234
  342MPD2    C2 5180   1.491   3.745  17.126  0.0084  0.1561  0.3421
  342MPD2    C3 5181   1.421   3.862  17.149 -0.4592  0.4594 -0.2914
  342MPD2    C4 5182   1.296   3.887  17.092 -0.1179 -0.3249  0.2999
  342MPD2    C5 5183   1.260   3.803  16.990 -0.1785  0.5334 -0.2814
  342MPD2     H 5184   1.575   3.715  17.188 -0.2580 -2.2824 -0.4698
  342MPD2    H1 5185   1.237   3.975  17.115 -0.0763  0.3133 -2.0253
  342MPD2    H2 5186   1.283   3.633  16.879  0.6232 -0.4419  0.0478
  342MPD2    H3 5187   1.165   3.820  16.942 -1.2600  0.9806  2.0236
  342MPD2     N 5188   1.455   3.949  17.258 -0.2782 -0.3187  0.2102
  342MPD2    H5 5189   1.381   4.016  17.280 -0.7153  0.5570 -3.8951
  342MPD2    N1 5190   1.507   3.521  17.013 -0.2619 -0.3753 -0.1999
  342MPD2    H7 5191   1.591   3.499  17.065 -0.1625  0.6078  0.0531
  343TMC3    C1 5192   1.558   3.318  16.923 -0.4208  0.1309 -0.1173
  343TMC3    C2 5193   1.688   3.346  16.956  0.4742 -0.1466 -0.5752
  343TMC3    C3 5194   1.764   3.233  16.953 -0.0466  0.8840 -0.7558
  343TMC3    C4 5195   1.500   3.196  16.918  0.1425  0.4274  0.1425
  343TMC3    C5 5196   1.582   3.087  16.927 -0.2719  0.1973  0.3265
  343TMC3    C6 5197   1.717   3.101  16.939 -0.2807  0.1336  0.0013
  343TMC3     C 5198   1.465   3.432  16.912  0.3571 -0.1011  0.0598
  343TMC3     O 5199   1.418   3.450  16.800  0.0661 -0.2437  0.4803
  343TMC3     H 5200   1.731   3.442  16.983  0.6431  0.3324 -2.6107
  343TMC3    H1 5201   1.396   3.185  16.890  0.4642 -3.6514  0.6320
  343TMC3    H2 5202   1.782   3.016  16.948  2.0703  2.0096  0.7455
  343TMC3    C7 5203   1.529   2.968  16.986  0.5828  0.0951 -0.2297
  343TMC3    C8 5204   1.899   3.244  17.016 -0.1748 -0.8812  0.1705
  343TMC3    O1 5205   1.417   2.940  16.947 -0.2151  0.3090 -0.2432
  343TMC3    O2 5206   1.929   3.341  17.081  0.2112 -0.3816  0.1957
  344MPD2     C 5207   2.327   3.703  10.997 -0.2951 -0.0416  0.0368
  344MPD2    C1 5208   2.297   3.672  10.870  0.3900 -0.4574  0.0327
  344MPD2    C2 5209   2.345   3.754  10.769  0.0796 -0.7597  1.8912
  344MPD2    C3 5210   2.436   3.856  10.798 -0.3360 -0.0896  0.1653
  344MPD2    C4 5211   2.466   3.878  10.932  0.9538 -0.1030 -0.3281
  344MPD2    C5 5212   2.400   3.810  11.033 -0.1236  0.4787 -0.7059
  344MPD2     H 5213   2.316   3.721  10.670 -0.7493  0.5892  1.6855
  344MPD2    H1 5214   2.535   3.954  10.966  0.3014  0.4912 -0.3377
  344MPD2    H2 5215   2.270   3.657  11.077 -3.2934 -1.0189 -2.6596
  344MPD2    H3 5216   2.412   3.828  11.139 -0.1312  1.0068 -0.7940
  344MPD2     N 5217   2.498   3.933  10.703  0.2336 -0.0187  0.1649
  344MPD2    H5 5218   2.554   4.012  10.732  1.7152 -0.1337 -2.3251
  344MPD2    N1 5219   2.222   3.560  10.834 -0.6840 -0.6672  0.4547
  344MPD2    H7 5220   2.165   3.565  10.750  0.3039 -2.1643 -0.3092
  345TMC3    C1 5221   2.576   4.016  10.501 -0.2187 -0.5505 -0.4712
  345TMC3    C2 5222   2.667   4.086  10.574  0.4142  0.0224 -0.4865
  345TMC3    C3 5223   2.721   4.189  10.503  0.1729  0.4786  0.2678
  345TMC3    C4 5224   2.538   4.039  10.369 -0.0114  0.1796 -0.2282
  345TMC3    C5 5225   2.602   4.142  10.305  0.3381 -0.1656 -0.1217
  345TMC3    C6 5226   2.686   4.221  10.372 -0.2324  0.1439  0.4807
  345TMC3     C 5227   2.484   3.920  10.567  0.3015 -0.6193 -0.4020
  345TMC3     O 5228   2.421   3.845  10.495  0.4445 -0.3221 -0.1229
  345TMC3     H 5229   2.705   4.061  10.672 -2.2193 -0.1464  0.4777
  345TMC3    H1 5230   2.458   3.978  10.329 -1.2867  0.2523  2.2439
  345TMC3    H2 5231   2.717   4.319  10.337 -2.2226  0.9314  0.9185
  345TMC3    C7 5232   2.540   4.206  10.191  0.4384  0.0473 -0.1624
  345TMC3    C8 5233   2.766   4.304  10.581 -0.7937 -0.1230  0.4505
  345TMC3    O1 5234   2.600   4.300  10.145 -0.5475  0.1035  0.3308
  345TMC3    O2 5235   2.808   4.395  10.512 -0.1964  0.1168  0.5197
  346MPD2     C 5236   2.301   0.738  14.457  0.3316  0.3238  0.3233
  346MPD2    C1 5237   2.388   0.735  14.352  0.1258  0.5011  0.0461
  346MPD2    C2 5238   2.518   0.774  14.379 -0.0101 -0.5323 -0.2405
  346MPD2    C3 5239   2.563   0.806  14.507 -0.5051 -0.0256  0.4436
  346MPD2    C4 5240   2.472   0.814  14.605 -1.1645  0.4367 -0.2139
  346MPD2    C5 5241   2.346   0.776  14.583  0.1634 -0.2862 -0.0099
  346MPD2     H 5242   2.593   0.767  14.301 -1.9606  0.9079 -2.2448
  346MPD2    H1 5243   2.505   0.834  14.707  0.0493 -0.3555 -0.4448
  346MPD2    H2 5244   2.197   0.707  14.449  0.5985 -1.0849  2.4370
  346MPD2    H3 5245   2.276   0.766  14.666 -2.5656 -2.5388 -2.5953
  346MPD2     N 5246   2.708   0.830  14.516 -0.2411 -0.5004 -0.1059
  346MPD2    H5 5247   2.765   0.829  14.432  0.7722  1.5454  0.5591
  346MPD2    N1 5248   2.362   0.685  14.223 -0.1020  0.0029  0.1778
  346MPD2    H7 5249   2.439   0.671  14.158 -0.4474 -0.6278 -0.0895
  347TMC3    C1 5250   2.913   0.904  14.615 -0.3768 -0.3165  0.5478
  347TMC3    C2 5251   2.941   0.976  14.504 -0.5486  0.3249  0.6800
  347TMC3    C3 5252   3.081   0.988  14.479 -0.1800 -0.0157  0.3481
  347TMC3    C4 5253   2.993   0.875  14.723 -0.0627  0.3103 -0.1921
  347TMC3    C5 5254   3.128   0.899  14.694  0.1783 -0.0644  0.0920
  347TMC3    C6 5255   3.171   0.944  14.570  0.3349 -0.1543  0.1818
  347TMC3     C 5256   2.776   0.864  14.637  1.1762 -0.1076  0.3626
  347TMC3     O 5257   2.739   0.844  14.752 -0.2647  0.8749  0.7941
  347TMC3     H 5258   2.854   0.989  14.440 -0.6211 -0.6997  0.5681
  347TMC3    H1 5259   2.957   0.818  14.808 -0.4406 -0.5887 -0.9534
  347TMC3    H2 5260   3.277   0.953  14.550  0.4014  1.3423  1.2297
  347TMC3    C7 5261   3.237   0.848  14.780  0.4787  0.3960 -0.3660
  347TMC3    C8 5262   3.119   0.988  14.339 -0.2520 -0.4693  0.1984
  347TMC3    O1 5263   3.349   0.895  14.756 -0.3662 -0.3520 -0.2183
  347TMC3    O2 5264   3.208   0.919  14.299 -0.1473  0.2790 -0.1465
  348MPD2     C 5265   1.717   0.389  11.612 -0.0274  0.5002  0.9458
  348MPD2    C1 5266   1.611   0.326  11.549  0.0723  0.3700  0.2776
  348MPD2    C2 5267   1.502   0.400  11.510  0.3195  0.2039 -0.5515
  348MPD2    C3 5268   1.506   0.536  11.519  0.5708 -0.1586 -0.1359
  348MPD2    C4 5269   1.617   0.599  11.585  0.1871 -0.8326  0.8460
  348MPD2    C5 5270   1.717   0.523  11.625 -0.6330  0.3208 -0.4296
  348MPD2     H 5271   1.422   0.354  11.454  0.9757  0.3124 -1.5883
  348MPD2    H1 5272   1.606   0.705  11.600  2.6499 -0.4871  0.1173
  348MPD2    H2 5273   1.808   0.335  11.636  0.0697  0.1966 -0.1081
  348MPD2    H3 5274   1.800   0.571  11.677 -0.6092  0.9741 -1.0725
  348MPD2     N 5275   1.400   0.620  11.458  0.9072 -0.2757 -1.0953
  348MPD2    H5 5276   1.338   0.575  11.392  0.8650 -0.3165 -1.0276
  348MPD2    N1 5277   1.598   0.184  11.528  0.3631  0.1513  0.1317
  348MPD2    H7 5278   1.510   0.148  11.494  1.5274  0.5452 -3.2662
  349TMC3    C1 5279   1.626   4.706  11.557 -1.4009 -0.6949  0.4581
  349TMC3    C2 5280   1.624   4.614  11.660 -0.4772  0.1850  0.7942
  349TMC3    C3 5281   1.546   4.504  11.650 -0.0064 -0.3340  0.2346
  349TMC3    C4 5282   1.551   4.691  11.439  0.8881  0.0374  0.8831
  349TMC3    C5 5283   1.458   4.586  11.443  0.3963  0.3961 -0.2432
  349TMC3    C6 5284   1.460   4.493  11.548  0.0141 -0.3365  0.8649
  349TMC3     C 5285   1.685   0.093  11.582  0.2653  0.2341  0.1974
  349TMC3     O 5286   1.793   0.105  11.643 -0.2754  0.3848 -0.3157
  349TMC3     H 5287   1.691   4.623  11.745 -0.5710  2.2377  0.6480
  349TMC3    H1 5288   1.563   0.016  11.353  3.8991  0.6668  1.8007
  349TMC3    H2 5289   1.394   4.408  11.534 -0.6558  0.4894 -0.9560
  349TMC3    C7 5290   1.352   4.577  11.355 -0.0419 -0.4291  0.3812
  349TMC3    C8 5291   1.519   4.435  11.775 -0.2558  0.7078 -0.2232
  349TMC3    O1 5292   1.293   4.468  11.345  0.1451 -0.2138  0.4704
  349TMC3    O2 5293   1.610   4.413  11.852  0.4296 -0.3540 -0.7603
  350MPD2     C 5294   0.227   3.294  10.674 -0.0404  0.0365 -0.2929
  350MPD2    C1 5295   0.148   3.182  10.658 -0.4163  0.0774 -0.0381
  350MPD2    C2 5296   0.096   3.124  10.779  0.3809  0.2670  0.2488
  350MPD2    C3 5297   0.123   3.176  10.906 -0.6952  0.4631  0.6269
  350MPD2    C4 5298   0.207   3.290  10.920 -0.5923 -0.2202  0.3453
  350MPD2    C5 5299   0.256   3.341  10.802  0.1388 -0.0944 -0.0811
  350MPD2     H 5300   0.022   3.045  10.777  0.6418  0.0719 -1.5221
  350MPD2    H1 5301   0.244   3.341  11.008 -0.4538  0.2127  0.0375
  350MPD2    H2 5302   0.278   3.347  10.594  1.0471  0.0992  0.4347
  350MPD2    H3 5303   0.305   3.438  10.803 -0.2865  0.1231 -0.7258
  350MPD2     N 5304   0.068   3.118  11.020 -0.3557  0.2781 -0.3451
  350MPD2    H5 5305   0.013   3.034  11.001  1.6010 -0.5777 -2.2546
  350MPD2    N1 5306   0.107   3.123  10.541  0.5149  0.4789 -0.1227
  350MPD2    H7 5307   0.052   3.038  10.538  1.4410  0.0033 -3.7609
  351TMC3    C1 5308   0.040   3.106  10.318 -0.1239  0.0402 -0.0762
  351TMC3    C2 5309   0.084   2.981  10.305  0.2497  0.0618  0.5406
  351TMC3    C3 5310   0.037   2.912  10.198 -0.0731  0.1082 -0.1118
  351TMC3    C4 5311   4.693   3.167  10.237  0.7137 -0.1239 -0.2756
  351TMC3    C5 5312   4.629   3.088  10.149 -0.5800  0.3770  0.7119
  351TMC3    C6 5313   4.669   2.957  10.125  0.1264 -0.2452  0.3098
  351TMC3     C 5314   0.106   3.183  10.416 -0.1635  0.3561 -0.1842
  351TMC3     O 5315   0.146   3.293  10.386  0.3585 -0.4724  0.0240
  351TMC3     H 5316   0.165   2.939  10.365 -1.0587 -0.1941  2.1435
  351TMC3    H1 5317   4.691   3.276  10.232 -0.1934 -0.0401  1.8799
  351TMC3    H2 5318   4.622   2.888  10.056  0.1858  1.1427 -1.1077
  351TMC3    C7 5319   4.522   3.138  10.060  0.3992  0.7899 -0.0104
  351TMC3    C8 5320   0.113   2.798  10.145  0.4629  0.5196  0.2124
  351TMC3    O1 5321   4.477   3.058   9.983 -0.0276  0.7728 -0.0233
  351TMC3    O2 5322   0.081   2.751  10.031 -0.1425 -0.2007  0.0409
  352MPD2     C 5323   4.193   4.699   1.299 -0.0599  0.2948 -0.6897
  352MPD2    C1 5324   4.101   4.596   1.311 -0.3880  0.1958  0.1116
  352MPD2    C2 5325   4.138   4.464   1.303 -0.3082  0.5382  0.7967
  352MPD2    C3 5326   4.273   4.435   1.300 -0.9466  0.8824  0.2448
  352MPD2    C4 5327   4.366   4.532   1.293 -0.4653 -0.7987  0.3116
  352MPD2    C5 5328   4.326   4.661   1.298  0.4460  0.6412  0.4333
  352MPD2     H 5329   4.072   4.379   1.314  1.2018 -0.4114  2.6967
  352MPD2    H1 5330   4.470   4.508   1.310  0.2820  2.0877 -0.1692
  352MPD2    H2 5331   4.162   0.062   1.298 -0.7305  0.1186  1.1505
  352MPD2    H3 5332   4.393   0.006   1.292 -2.5251  2.9679  0.1093
  352MPD2     N 5333   4.326   4.300   1.292 -0.0852 -0.5200  0.4003
  352MPD2    H5 5334   4.425   4.283   1.302  0.2306  1.0781  0.0034
  352MPD2    N1 5335   3.968   4.632   1.333  0.4469 -0.1616 -0.0873
  352MPD2    H7 5336   3.932   4.725   1.314  1.4957  0.7045  2.1035
  353TMC3    C1 5337   4.310   4.065   1.259 -0.3221 -0.3039  0.2429
  353TMC3    C2 5338   4.441   4.055   1.223 -0.0172 -0.1413 -0.2087
  353TMC3    C3 5339   4.472   3.944   1.159 -0.2669  0.0327  0.8627
  353TMC3    C4 5340   4.220   3.960   1.241 -0.6339 -0.5555  0.4792
  353TMC3    C5 5341   4.266   3.841   1.195 -0.5407 -0.0850 -0.5073
  353TMC3    C6 5342   4.388   3.829   1.148  0.5234 -0.2489 -0.2268
  353TMC3     C 5343   4.245   4.193   1.261 -1.2101 -0.2053  0.7906
  353TMC3     O 5344   4.133   4.201   1.212  0.3043 -0.2415  0.7065
  353TMC3     H 5345   4.509   4.140   1.215  0.3887 -0.5854 -1.4207
  353TMC3    H1 5346   4.121   3.978   1.280 -0.9650 -0.4074 -0.4505
  353TMC3    H2 5347   4.411   3.734   1.101  1.0416  0.7593 -2.0095
  353TMC3    C7 5348   4.169   3.749   1.130  0.0872 -0.7616  0.6427
  353TMC3    C8 5349   4.609   3.925   1.113 -0.1659 -0.0585  0.0906
  353TMC3    O1 5350   4.201   3.710   1.019 -0.2216  0.8461 -0.3535
  353TMC3    O2 5351   4.699   4.003   1.144 -0.3454  0.6295 -0.3225
  354TMC3    C1 5352   0.077   1.583  13.713 -0.8670  0.0230  0.6376
  354TMC3    C2 5353   0.166   1.657  13.793  0.6485 -0.4519 -0.4324
  354TMC3    C3 5354   0.173   1.800  13.776  0.0218  0.4422 -0.3008
  354TMC3    C4 5355   0.006   1.645  13.618 -0.0355  0.0807  0.0786
  354TMC3    C5 5356   0.012   1.783  13.604  0.5750  0.7383  0.3373
  354TMC3    C6 5357   0.098   1.854  13.672 -0.1232 -0.4247 -0.1058
  354TMC3     C 5358   0.013   1.469  13.769  0.2143  0.0061  0.3489
  354TMC3     O 5359   4.649   1.423  13.713 -0.3015  0.4945 -0.5580
  354TMC3     H 5360   0.238   1.608  13.858 -1.2439 -0.6398  1.4961
  354TMC3    H1 5361   4.675   1.596  13.553 -0.3705 -0.4651  0.8641
  354TMC3    H2 5362   0.088   1.962  13.665 -1.0485 -0.5581 -0.9648
  354TMC3    C7 5363   0.010   1.825  13.471  0.0508 -0.5262  0.2220
  354TMC3    C8 5364   0.314   1.823  13.758 -0.8160 -0.1731 -0.1075
  354TMC3    O1 5365   4.722   1.946  13.461 -0.1590 -0.2296  0.1634
  354TMC3    O2 5366   0.387   1.772  13.838 -0.9920 -0.0545  0.3585
  355MPD2     C 5367   0.368   2.176  12.167  0.2155 -0.0825  0.2806
  355MPD2    C1 5368   0.440   2.227  12.064 -1.6966 -0.3053 -0.6386
  355MPD2    C2 5369   0.570   2.253  12.084  0.1206  0.6183 -0.4052
  355MPD2    C3 5370   0.639   2.237  12.201 -0.3903  0.6688  0.3657
  355MPD2    C4 5371   0.565   2.186  12.307  0.3170  0.0974  0.1031
  355MPD2    C5 5372   0.432   2.150  12.284  0.7081  0.6231  0.4356
  355MPD2     H 5373   0.626   2.297  12.003 -0.7399  0.5988 -1.0179
  355MPD2    H1 5374   0.615   2.171  12.402 -2.0509  1.5075  1.5528
  355MPD2    H2 5375   0.261   2.169  12.152  0.3712 -1.8339 -0.0077
  355MPD2    H3 5376   0.368   2.114  12.364 -0.3027  2.8463  0.6003
  355MPD2     N 5377   0.775   2.284  12.215 -0.1937  0.3633  0.2476
  355MPD2    H5 5378   0.810   2.291  12.310 -2.0866 -0.5714  1.0178
  355MPD2    N1 5379   0.364   2.255  11.947 -0.0838 -0.0546  0.2407
  355MPD2    H7 5380   0.273   2.210  11.947  0.4149 -1.0822 -0.8224
  356TMC3    C1 5381   0.952   2.423  12.178 -0.3807  0.1551  0.1951
  356TMC3    C2 5382   1.006   2.519  12.094 -0.1309  0.1062 -0.2230
  356TMC3    C3 5383   1.067   2.627  12.147  0.7489 -0.1369  0.1282
  356TMC3    C4 5384   0.963   2.436  12.310  0.0669  0.2208  0.2346
  356TMC3    C5 5385   1.011   2.556  12.358 -0.0980 -0.6941 -0.0540
  356TMC3    C6 5386   1.047   2.653  12.276  0.2614  0.4890  0.8300
  356TMC3     C 5387   0.860   2.330  12.115  0.5975 -0.4461  1.1430
  356TMC3     O 5388   0.855   2.305  11.993 -0.2972 -0.0262 -0.2884
  356TMC3     H 5389   1.001   2.502  11.987  1.7882 -2.9236  0.1479
  356TMC3    H1 5390   0.943   2.354  12.377  0.2264 -0.0375 -0.0358
  356TMC3    H2 5391   1.043   2.753  12.318 -2.2491  0.7346  0.0291
  356TMC3    C7 5392   1.005   2.580  12.506 -0.3010  0.2507 -0.3935
  356TMC3    C8 5393   1.103   2.738  12.060 -0.3810 -0.2935 -0.4736
  356TMC3    O1 5394   0.937   2.501  12.567  0.2336 -0.1483 -0.0685
  356TMC3    O2 5395   1.069   2.731  11.947  0.6410 -0.9427  0.0915
  357MPD2     C 5396   1.007   1.700   1.694  0.1344 -0.1087  0.2461
  357MPD2    C1 5397   0.935   1.675   1.577 -0.0067 -0.5419  0.0085
  357MPD2    C2 5398   0.816   1.745   1.560  0.1544  0.0001 -0.4388
  357MPD2    C3 5399   0.768   1.829   1.658  0.1065 -0.1022 -0.5786
  357MPD2    C4 5400   0.843   1.853   1.766  0.6519  0.1469  0.0819
  357MPD2    C5 5401   0.967   1.803   1.774  0.2597  0.1577 -0.0648
  357MPD2     H 5402   0.751   1.724   1.476 -1.0900 -0.8757  0.7487
  357MPD2    H1 5403   0.793   1.908   1.845 -0.7184  2.3421 -2.2872
  357MPD2    H2 5404   1.107   1.664   1.713 -0.0962 -0.1165  1.4262
  357MPD2    H3 5405   1.029   1.838   1.856  0.6214  0.0311 -0.2846
  357MPD2     N 5406   0.629   1.873   1.661  0.1085  0.2858  0.0968
  357MPD2    H5 5407   0.591   1.924   1.740  1.4254 -1.9864  2.2001
  357MPD2    N1 5408   0.984   1.574   1.485 -0.4157 -0.1467  0.9500
  357MPD2    H7 5409   1.058   1.512   1.515  0.1885  0.2490  0.2901
  358TMC3    C1 5410   0.997   1.444   1.287  0.1585  0.2460  0.5241
  358TMC3    C2 5411   0.929   1.408   1.175  0.2502  0.3957  0.6413
  358TMC3    C3 5412   0.980   1.304   1.106 -0.3453  0.2627  0.0589
  358TMC3    C4 5413   1.109   1.383   1.333  0.1866 -0.0385 -0.4135
  358TMC3    C5 5414   1.155   1.276   1.260  0.0679 -0.1602  0.2768
  358TMC3    C6 5415   1.098   1.242   1.141 -0.0724 -0.5765  0.6494
  358TMC3     C 5416   0.948   1.562   1.353 -0.5975  0.5431 -0.0444
  358TMC3     O 5417   0.871   1.635   1.291 -0.6136  0.7797  0.0136
  358TMC3     H 5418   0.840   1.467   1.155 -0.7528 -1.1191  0.6632
  358TMC3    H1 5419   1.156   1.423   1.421 -0.6554  1.1701 -0.5223
  358TMC3    H2 5420   1.111   1.144   1.096  1.3570 -0.7781  1.5003
  358TMC3    C7 5421   1.275   1.215   1.309  0.5882 -0.0395 -0.2282
  358TMC3    C8 5422   0.905   1.254   0.991 -0.1167 -0.1651 -0.3632
  358TMC3    O1 5423   1.362   1.282   1.365  0.6765  0.3757 -0.7047
  358TMC3    O2 5424   0.959   1.185   0.903  0.2940  0.4450 -0.1965
  359MPD2     C 5425   0.988   1.505  12.617  0.6148 -0.3403 -0.0278
  359MPD2    C1 5426   0.914   1.433  12.531 -0.0980 -0.0165  0.1871
  359MPD2    C2 5427   0.794   1.372  12.578  0.8822 -0.0770  0.1223
  359MPD2    C3 5428   0.758   1.395  12.712 -0.4861 -0.5459 -0.0731
  359MPD2    C4 5429   0.848   1.455  12.798 -1.0080 -0.0027 -0.9183
  359MPD2    C5 5430   0.955   1.516  12.748 -0.6412 -0.7219  0.8817
  359MPD2     H 5431   0.737   1.313  12.508 -2.0102  2.1287  0.6249
  359MPD2    H1 5432   0.831   1.462  12.905  0.8132  2.5481 -0.8255
  359MPD2    H2 5433   1.089   1.540  12.598  0.0973  1.4903  0.5753
  359MPD2    H3 5434   1.023   1.571  12.811 -1.8285  0.3795  1.2029
  359MPD2     N 5435   0.629   1.372  12.767  0.6664  0.1352 -0.2211
  359MPD2    H5 5436   0.622   1.396  12.866  0.9296  2.6884 -0.8233
  359MPD2    N1 5437   0.954   1.420  12.394 -0.3688  0.4549 -0.1936
  359MPD2    H7 5438   0.884   1.367  12.343 -1.4674  2.0587 -0.3487
  360TMC3    C1 5439   1.085   1.433  12.196 -0.0586  0.2663 -0.3194
  360TMC3    C2 5440   1.198   1.480  12.132 -0.0077 -0.1289  0.9435
  360TMC3    C3 5441   1.209   1.472  11.997  0.1294  0.3197 -0.0566
  360TMC3    C4 5442   0.984   1.358  12.126  0.2561 -0.5732  0.3956
  360TMC3    C5 5443   1.015   1.346  11.992 -0.7959 -0.2684  0.2917
  360TMC3    C6 5444   1.121   1.397  11.923 -0.6368  0.1043  0.7765
  360TMC3     C 5445   1.070   1.464  12.339 -0.0019 -0.2828 -0.0951
  360TMC3     O 5446   1.166   1.520  12.387  0.0988 -0.1374  0.0852
  360TMC3     H 5447   1.276   1.537  12.181  0.4247  0.0262  0.0812
  360TMC3    H1 5448   0.907   1.306  12.181  0.0524 -0.1071  0.5503
  360TMC3    H2 5449   1.134   1.384  11.817 -1.6116  0.0632  0.6631
  360TMC3    C7 5450   0.939   1.254  11.916 -0.6279  0.7611 -0.0316
  360TMC3    C8 5451   1.344   1.487  11.947  0.5797 -0.6067  0.3541
  360TMC3    O1 5452   0.990   1.205  11.814  0.0094  0.2309 -0.1447
  360TMC3    O2 5453   1.410   1.578  11.996 -0.8923 -0.3443 -0.3698
  361MPD2     C 5454   2.481   3.650  16.706  0.0594  0.1766  0.0367
  361MPD2    C1 5455   2.474   3.708  16.838  0.2850  0.4228 -0.3213
  361MPD2    C2 5456   2.586   3.700  16.918  0.1527 -0.4477 -0.0529
  361MPD2    C3 5457   2.704   3.632  16.878  0.5194 -0.0508 -0.7507
  361MPD2    C4 5458   2.697   3.562  16.757 -0.3204  0.4960 -0.3797
  361MPD2    C5 5459   2.591   3.572  16.677  0.5690 -0.1953  0.1338
  361MPD2     H 5460   2.582   3.746  17.016  0.6902  0.1444 -0.3107
  361MPD2    H1 5461   2.780   3.507  16.714 -1.5392 -1.5260 -0.1127
  361MPD2    H2 5462   2.398   3.651  16.636  1.1034 -1.3297 -1.2351
  361MPD2    H3 5463   2.589   3.520  16.581 -0.6315  3.3763 -1.7734
  361MPD2     N 5464   2.822   3.612  16.956  0.2198  0.1166  0.8538
  361MPD2    H5 5465   2.888   3.542  16.924 -1.2175 -0.7996 -0.1095
  361MPD2    N1 5466   2.362   3.777  16.884 -0.0732  0.8151  0.1210
  361MPD2    H7 5467   2.373   3.830  16.970 -2.3823  2.2318 -0.4460
  362TMC3    C1 5468   2.167   3.906  16.861 -0.4660 -0.2822 -0.2642
  362TMC3    C2 5469   2.157   3.949  16.988  0.6443 -0.0464 -0.0185
  362TMC3    C3 5470   2.070   4.053  17.010 -0.7827  0.4760  0.6511
  362TMC3    C4 5471   2.099   3.964  16.759 -0.3501 -0.5638 -0.2578
  362TMC3    C5 5472   2.021   4.070  16.784  0.1260  0.3996 -0.7738
  362TMC3    C6 5473   2.007   4.120  16.907  0.6313 -0.1148  0.0655
  362TMC3     C 5474   2.247   3.796  16.814 -0.1029  0.3744  0.4838
  362TMC3     O 5475   2.202   3.743  16.718 -0.2608  0.1045  0.2429
  362TMC3     H 5476   2.211   3.906  17.072  0.0069  2.0231  1.4571
  362TMC3    H1 5477   2.123   3.939  16.656 -0.0576 -1.1197 -0.0516
  362TMC3    H2 5478   1.941   4.203  16.931 -0.3156 -0.2923 -1.9231
  362TMC3    C7 5479   1.963   4.147  16.678  0.4899 -0.9243  0.0470
  362TMC3    C8 5480   2.057   4.112  17.144  0.2334  0.6093  0.6614
  362TMC3    O1 5481   1.928   4.263  16.704  0.4524  0.2134 -0.6454
  362TMC3    O2 5482   2.126   4.067  17.233 -0.5947  0.1954 -0.0770
  363TMC3    C1 5483   0.477   2.706   9.481 -0.2901  0.1352 -0.3549
  363TMC3    C2 5484   0.533   2.655   9.591 -0.2500 -0.9723  0.5628
  363TMC3    C3 5485   0.578   2.737   9.695 -0.0161 -0.6754 -0.8178
  363TMC3    C4 5486   0.450   2.836   9.471 -0.1262 -0.1026 -0.1314
  363TMC3    C5 5487   0.477   2.908   9.586 -0.3419 -0.3306 -0.4358
  363TMC3    C6 5488   0.537   2.865   9.697 -0.0150 -0.4980  0.3351
  363TMC3     C 5489   0.468   2.616   9.367 -0.6676  0.1804 -0.6189
  363TMC3     O 5490   0.500   2.497   9.374 -0.5293  0.7455  0.1254
  363TMC3     H 5491   0.532   2.547   9.605 -2.1444 -1.1212 -0.7920
  363TMC3    H1 5492   0.401   2.877   9.384  0.7463  0.7736 -0.2126
  363TMC3    H2 5493   0.542   2.923   9.789 -1.3775 -0.5593  0.4463
  363TMC3    C7 5494   0.424   3.041   9.593  0.2676 -0.2775 -0.4062
  363TMC3    C8 5495   0.653   2.690   9.811 -0.4025  0.2540  0.3956
  363TMC3    O1 5496   0.496   3.131   9.631  0.5461  0.1481  0.0005
  363TMC3    O2 5497   0.664   2.766   9.908 -0.0049  0.0585  0.6605
  364MPD2     C 5498   4.215   2.087  10.627 -0.7433  0.2202 -0.4830
  364MPD2    C1 5499   4.339   2.050  10.574 -0.7376  0.4328 -0.8266
  364MPD2    C2 5500   4.389   1.920  10.595 -0.5458 -0.3770  0.0101
  364MPD2    C3 5501   4.314   1.828  10.663  0.1411 -0.3507  0.2359
  364MPD2    C4 5502   4.195   1.864  10.721 -0.1049 -0.4315 -0.1995
  364MPD2    C5 5503   4.148   1.989  10.698  0.1381  0.1778  0.4610
  364MPD2     H 5504   4.495   1.906  10.574 -0.6556  1.7761 -1.9880
  364MPD2    H1 5505   4.148   1.788  10.781 -0.1696 -0.6047 -0.4720
  364MPD2    H2 5506   4.174   2.187  10.618 -1.8041 -0.3519 -1.8640
  364MPD2    H3 5507   4.052   2.015  10.742  0.7460  2.1279  0.6193
  364MPD2     N 5508   4.356   1.698  10.689  0.1417 -0.3107  0.1930
  364MPD2    H5 5509   4.306   1.639  10.755 -0.2425 -0.2275 -0.0193
  364MPD2    N1 5510   4.404   2.153  10.504  0.5998  0.0008 -0.0954
  364MPD2    H7 5511   4.348   2.237  10.495 -0.9466 -1.1841 -1.5812
  365TMC3    C1 5512   4.575   2.278  10.405 -0.7735  0.7227  0.5967
  365TMC3    C2 5513   4.650   2.283  10.288 -0.0096  0.1031 -0.7631
  365TMC3    C3 5514   4.666   2.406  10.229 -0.2030 -0.0930 -0.3200
  365TMC3    C4 5515   4.535   2.393  10.465 -0.4735  0.4357 -0.2126
  365TMC3    C5 5516   4.561   2.516  10.407 -0.0020 -0.1024 -0.2305
  365TMC3    C6 5517   4.621   2.520  10.289  0.4537 -0.9584  1.2770
  365TMC3     C 5518   4.527   2.146  10.451 -0.6045  0.7517 -0.3025
  365TMC3     O 5519   4.600   2.050  10.428 -0.5435 -0.3925 -0.3461
  365TMC3     H 5520   4.679   2.190  10.239  2.4258 -0.5614  1.9405
  365TMC3    H1 5521   4.498   2.382  10.567  0.9619  1.3181  0.4056
  365TMC3    H2 5522   4.654   2.619  10.259  0.3669 -1.2948  0.0762
  365TMC3    C7 5523   4.534   2.645  10.473  0.7325 -0.2943  0.4772
  365TMC3    C8 5524   4.703   2.404  10.090 -0.3615  0.0056 -0.0600
  365TMC3    O1 5525   4.555   2.740  10.398  0.3860  0.8747  0.4750
  365TMC3    O2 5526   4.625   2.464  10.020 -0.4649  0.6347 -0.6865
  366MPD2     C 5527   2.901   3.908  15.505  0.3219 -0.4617 -0.3029
  366MPD2    C1 5528   2.964   3.847  15.612  0.0065 -0.6306 -0.0590
  366MPD2    C2 5529   3.005   3.712  15.602 -0.0034 -0.0577 -0.6834
  366MPD2    C3 5530   2.959   3.635  15.497 -0.4582 -0.3698 -0.4821
  366MPD2    C4 5531   2.903   3.696  15.383  0.1577 -0.1399  0.2221
  366MPD2    C5 5532   2.870   3.832  15.394 -0.2583  0.1234  0.1764
  366MPD2     H 5533   3.050   3.666  15.688 -3.2599 -0.8208  0.6306
  366MPD2    H1 5534   2.870   3.643  15.295  1.0599  0.2370 -0.3444
  366MPD2    H2 5535   2.866   4.010  15.496 -0.3814 -0.7882 -1.2320
  366MPD2    H3 5536   2.824   3.891  15.315 -0.9402 -0.3189  0.2463
  366MPD2     N 5537   2.988   3.500  15.508 -0.1552  0.1539  0.5890
  366MPD2    H5 5538   3.061   3.471  15.573 -1.7441 -1.8895  1.4447
  366MPD2    N1 5539   2.981   3.913  15.734 -0.6033  0.2317  0.0546
  366MPD2    H7 5540   3.036   3.869  15.807 -0.3012 -0.4406 -0.5719
  367TMC3    C1 5541   2.921   4.032  15.925 -0.5979 -0.0401  0.0582
  367TMC3    C2 5542   3.025   3.970  15.983 -0.5876 -0.0636 -0.3619
  367TMC3    C3 5543   3.014   3.954  16.116 -0.3854 -0.7887  0.1557
  367TMC3    C4 5544   2.807   4.070  15.994  0.0427 -0.1647  0.1227
  367TMC3    C5 5545   2.797   4.032  16.125  0.8853  0.1690  0.6205
  367TMC3    C6 5546   2.905   3.983  16.193  0.5882 -0.5668  0.0259
  367TMC3     C 5547   2.900   4.017  15.778 -0.8535 -0.6357 -0.4748
  367TMC3     O 5548   2.801   4.059  15.722 -0.2395 -0.6574  0.1764
  367TMC3     H 5549   3.122   3.965  15.934  0.8648 -1.1673  2.5657
  367TMC3    H1 5550   2.720   4.099  15.937 -0.0939  1.4566  1.1813
  367TMC3    H2 5551   2.901   3.957  16.298  1.7721  1.0706  0.4748
  367TMC3    C7 5552   2.662   4.010  16.175  0.2460 -0.6087  0.3105
  367TMC3    C8 5553   3.121   3.880  16.168  1.1919 -0.5540 -0.0848
  367TMC3    O1 5554   2.648   3.906  16.227 -0.2576  0.5533 -0.2949
  367TMC3    O2 5555   3.187   3.814  16.083 -0.2168 -0.2884 -0.1812
  368MPD2     C 5556   4.281   0.095  13.327  0.1753  0.2992  0.6085
  368MPD2    C1 5557   4.259   0.134  13.201 -0.0854  0.5261  0.1901
  368MPD2    C2 5558   4.369   0.167  13.124 -0.5034  0.2086  0.4503
  368MPD2    C3 5559   4.502   0.153  13.169 -0.4005  0.2574 -0.9153
  368MPD2    C4 5560   4.522   0.095  13.289 -0.0701 -0.3734 -0.2263
  368MPD2    C5 5561   4.411   0.065  13.362  0.7897  0.0130  0.0712
  368MPD2     H 5562   4.350   0.205  13.024 -1.3662 -0.9726  0.1664
  368MPD2    H1 5563   4.617   0.085  13.340 -0.6410 -1.0943  0.7205
  368MPD2    H2 5564   4.201   0.076  13.397 -0.8622 -2.4867 -1.3440
  368MPD2    H3 5565   4.422   0.027  13.462 -0.2444  0.2069  0.2642
  368MPD2     N 5566   4.611   0.201  13.086  0.3052  0.1310 -0.1950
  368MPD2    H5 5567   4.702   0.206  13.131  0.5384  0.3014 -0.6950
  368MPD2    N1 5568   4.130   0.167  13.164  0.0224 -0.0903  0.2618
  368MPD2    H7 5569   4.059   0.149  13.234  1.4977 -0.1857  1.7064
  369TMC3    C1 5570   3.956   0.293  13.049  0.0628 -0.1060 -0.1703
  369TMC3    C2 5571   3.948   0.411  12.978  0.8336  0.1355 -0.5533
  369TMC3    C3 5572   3.829   0.482  12.980 -0.6861  0.1100 -0.2366
  369TMC3    C4 5573   3.853   0.236  13.109  0.3975 -0.0390 -0.0191
  369TMC3    C5 5574   3.729   0.301  13.091  1.1688  0.1607 -0.0090
  369TMC3    C6 5575   3.714   0.423  13.024  0.1681  0.0683  0.1778
  369TMC3     C 5576   4.091   0.229  13.047 -0.6227 -0.1053  0.0166
  369TMC3     O 5577   4.157   0.259  12.947  0.2450  0.2418 -0.3911
  369TMC3     H 5578   4.036   0.450  12.929 -0.5801  1.8535 -1.7202
  369TMC3    H1 5579   3.869   0.137  13.150 -0.3075 -0.3768 -0.5700
  369TMC3    H2 5580   3.615   0.465  13.013  0.2090  0.1558  0.1498
  369TMC3    C7 5581   3.621   0.234  13.145 -0.3374  0.2511 -0.5377
  369TMC3    C8 5582   3.818   0.588  12.878 -0.6641  0.6183  0.5040
  369TMC3    O1 5583   3.623   0.112  13.147 -0.2847  0.2608  0.4009
  369TMC3    O2 5584   3.710   0.633  12.858  0.6086  0.1541 -0.4297
  370TMC3    C1 5585   3.874   0.378  16.442 -0.2587  0.4789 -0.0295
  370TMC3    C2 5586   3.805   0.318  16.540 -0.3188  0.3465  0.3102
  370TMC3    C3 5587   3.718   0.217  16.503  0.3055  0.4465 -0.1661
  370TMC3    C4 5588   3.876   0.327  16.317  0.3980 -0.8756 -0.2713
  370TMC3    C5 5589   3.800   0.215  16.291 -0.2317 -0.1229 -0.0110
  370TMC3    C6 5590   3.712   0.157  16.380 -0.6387 -0.7918  1.1227
  370TMC3     C 5591   4.008   0.435  16.483  0.0845 -0.1748 -0.1958
  370TMC3     O 5592   4.057   0.401  16.592  0.1713 -0.4130 -0.3343
  370TMC3     H 5593   3.809   0.369  16.635 -0.4415  0.6608  0.1475
  370TMC3    H1 5594   3.952   0.346  16.242  0.7152  1.9065  0.7778
  370TMC3    H2 5595   3.658   0.064  16.366  2.7670 -2.1302 -3.0268
  370TMC3    C7 5596   3.827   0.145  16.163 -0.3099  0.4269  0.4710
  370TMC3    C8 5597   3.684   0.125  16.612 -0.1109 -0.3737 -0.3728
  370TMC3    O1 5598   3.836   0.217  16.062 -0.2388  0.4525  0.1240
  370TMC3    O2 5599   3.682   0.008  16.578  0.4322 -0.1886 -0.3028
  371TMC3    C1 5600   0.240   3.501  15.268 -1.2680 -0.2376  0.8890
  371TMC3    C2 5601   0.163   3.471  15.373  0.1361 -0.8770 -0.6015
  371TMC3    C3 5602   0.056   3.555  15.391 -0.2008 -0.1694 -0.0459
  371TMC3    C4 5603   0.223   3.612  15.187 -0.6832 -0.9426 -0.1714
  371TMC3    C5 5604   0.128   3.705  15.222 -0.4682 -0.1137 -0.6150
  371TMC3    C6 5605   0.040   3.670  15.322 -0.2618 -0.2299 -0.6289
  371TMC3     C 5606   0.348   3.409  15.241 -0.2894 -0.4955 -0.8567
  371TMC3     O 5607   0.439   3.449  15.172 -0.0433  0.3327 -0.1031
  371TMC3     H 5608   0.186   3.400  15.451 -0.2959  0.0791  0.3998
  371TMC3    H1 5609   0.301   3.632  15.114 -1.2832  0.8058 -0.3380
  371TMC3    H2 5610   4.694   3.731  15.346 -0.0866 -0.3645  0.3397
  371TMC3    C7 5611   0.090   3.824  15.137  0.2531  0.3750  0.5268
  371TMC3    C8 5612   4.711   3.518  15.498 -0.1346  0.0065  0.5627
  371TMC3    O1 5613   0.038   3.923  15.185  0.4659 -0.0833 -0.0981
  371TMC3    O2 5614   4.713   3.403  15.545 -0.0785  0.0665 -0.2277
  372MPD2     C 5615   3.923   0.548  13.387  0.5878  0.0378  0.0646
  372MPD2    C1 5616   4.028   0.460  13.408  0.6311 -0.4745  0.5463
  372MPD2    C2 5617   4.013   0.364  13.507  1.1409  0.6920  0.0769
  372MPD2    C3 5618   3.894   0.351  13.579 -0.9876  0.0420  0.3006
  372MPD2    C4 5619   3.794   0.447  13.560 -0.0301  0.1119  0.3237
  372MPD2    C5 5620   3.807   0.540  13.463 -0.0837  0.6791 -0.1991
  372MPD2     H 5621   4.090   0.287  13.510 -0.0559 -0.5724 -1.2850
  372MPD2    H1 5622   3.700   0.449  13.615  0.4344  1.5467  1.0640
  372MPD2    H2 5623   3.927   0.624  13.309 -0.3089 -0.9002 -0.8889
  372MPD2    H3 5624   3.738   0.623  13.453 -1.6077 -0.2838  2.5043
  372MPD2     N 5625   3.884   0.245  13.670 -0.7350 -0.0212 -0.2015
  372MPD2    H5 5626   3.962   0.181  13.677  0.1233  0.7880 -2.4582
  372MPD2    N1 5627   4.159   0.469  13.342  0.3293  0.5267 -0.0127
  372MPD2    H7 5628   4.221   0.397  13.377 -0.8933  0.1444  1.3589
  373TMC3    C1 5629   3.788   0.098  13.841  0.3815 -0.1475 -0.5667
  373TMC3    C2 5630   3.681   0.084  13.925  0.3750  0.0924 -0.7412
  373TMC3    C3 5631   3.682   4.710  14.001 -0.2988  0.1490 -0.1231
  373TMC3    C4 5632   3.892   0.015  13.837 -0.2232 -0.4807 -0.7328
  373TMC3    C5 5633   3.888   4.640  13.904 -1.1884  0.5694  0.7682
  373TMC3    C6 5634   3.775   4.606  13.985  0.2649  0.5094 -0.2285
  373TMC3     C 5635   3.781   0.219  13.754 -0.4692 -0.2686  0.3886
  373TMC3     O 5636   3.668   0.269  13.751 -0.2040 -0.0375  0.2298
  373TMC3     H 5637   3.604   0.159  13.938  0.6556  0.3637 -0.6488
  373TMC3    H1 5638   3.979   0.033  13.775  0.8145  0.5829  1.0369
  373TMC3    H2 5639   3.775   4.511  14.038  2.3005  0.2153 -0.7576
  373TMC3    C7 5640   4.014   4.572  13.916  0.3791 -0.0198 -0.5468
  373TMC3    C8 5641   3.677   0.018  14.138 -0.1430  0.4916 -0.8067
  373TMC3    O1 5642   4.096   4.590  13.828 -0.4678  0.4629  0.1717
  373TMC3    O2 5643   3.714   0.136  14.142 -0.1482  0.3046 -0.4389
  374TMC3    C1 5644   0.337   0.313   9.459 -0.1839  0.3617  0.1211
  374TMC3    C2 5645   0.349   0.437   9.521  0.1001  0.4059  0.0128
  374TMC3    C3 5646   0.241   0.499   9.577 -0.2001 -0.0462 -0.6826
  374TMC3    C4 5647   0.215   0.253   9.442  0.1313 -0.2752 -0.4404
  374TMC3    C5 5648   0.108   0.321   9.489  0.1166  0.6273 -0.5614
  374TMC3    C6 5649   0.120   0.441   9.560  0.7788 -0.3122  0.4550
  374TMC3     C 5650   0.458   0.255   9.392  0.4150 -0.0493 -0.0180
  374TMC3     O 5651   0.569   0.299   9.418  0.1271 -0.6675 -0.0036
  374TMC3     H 5652   0.445   0.487   9.524  1.1261 -1.6901  2.2196
  374TMC3    H1 5653   0.200   0.157   9.394  2.3984 -1.0304  0.3495
  374TMC3    H2 5654   0.035   0.494   9.601 -0.4472 -0.2176 -2.2188
  374TMC3    C7 5655   4.710   0.271   9.485  0.3503 -0.1139  0.5459
  374TMC3    C8 5656   0.254   0.636   9.623  0.3555 -0.8157  0.4065
  374TMC3    O1 5657   4.699   0.151   9.459 -0.1921  0.3912 -0.1335
  374TMC3    O2 5658   0.175   0.718   9.581  0.4732 -0.6826  0.0942
  375MPD2     C 5659   0.499   0.606  17.062 -0.2221  0.0519 -0.0110
  375MPD2    C1 5660   0.410   0.691  17.003 -0.9102 -0.3750 -0.3617
  375MPD2    C2 5661   0.435   0.732  16.873  0.0278 -0.4928  0.5290
  375MPD2    C3 5662   0.547   0.686  16.808  0.6899  0.4541 -0.0513
  375MPD2    C4 5663   0.635   0.594  16.866 -0.2684  0.4595  0.3514
  375MPD2    C5 5664   0.609   0.552  16.993  0.0557 -0.3849 -0.2872
  375MPD2     H 5665   0.362   0.790  16.818  0.9556 -0.9237 -1.1725
  375MPD2    H1 5666   0.721   0.543  16.825  0.2819  1.6810 -0.0142
  375MPD2    H2 5667   0.478   0.579  17.165  1.1877  0.6589  0.4259
  375MPD2    H3 5668   0.668   0.479  17.048 -0.0431 -1.4472 -1.5912
  375MPD2     N 5669   0.586   0.719  16.676  0.7304  0.6059  0.3099
  375MPD2    H5 5670   0.666   0.670  16.636  0.2405  0.9047 -1.0489
  375MPD2    N1 5671   0.288   0.731  17.061  0.4840  0.1080  0.1207
  375MPD2    H7 5672   0.230   0.806  17.026 -0.6350 -1.7628 -2.0596
  376TMC3    C1 5673   0.579   0.808  16.457  0.9394 -0.0487  0.7411
  376TMC3    C2 5674   0.715   0.809  16.450 -0.1431  0.1701 -0.5583
  376TMC3    C3 5675   0.775   0.816  16.324  0.1994 -0.0988  0.3325
  376TMC3    C4 5676   0.498   0.836  16.343  0.1987 -0.7072 -0.2625
  376TMC3    C5 5677   0.563   0.858  16.221 -0.7819 -0.5596  0.5691
  376TMC3    C6 5678   0.699   0.837  16.214  0.6613  0.7474 -0.8593
  376TMC3     C 5679   0.520   0.805  16.591 -0.4235  0.1396 -0.0602
  376TMC3     O 5680   0.420   0.869  16.616 -0.3193  0.5053  0.6437
  376TMC3     H 5681   0.760   0.797  16.548  1.2906 -0.1893 -1.2701
  376TMC3    H1 5682   0.390   0.826  16.352  0.0589 -1.3369 -2.7486
  376TMC3    H2 5683   0.754   0.839  16.121 -0.9628 -3.0763 -1.8837
  376TMC3    C7 5684   0.496   0.943  16.129 -0.1084  0.2329  0.1786
  376TMC3    C8 5685   0.908   0.863  16.317  0.7038 -0.5957 -0.4805
  376TMC3    O1 5686   0.397   1.009  16.164  0.3248  0.1331  0.1321
  376TMC3    O2 5687   0.944   0.921  16.216  0.0480  0.3366  0.3760
  377MPD2     C 5688   2.763   0.416  12.839  0.8302  0.1619 -0.5258
  377MPD2    C1 5689   2.825   0.299  12.880  0.0538  0.3581  0.6082
  377MPD2    C2 5690   2.784   0.236  12.990 -0.1255 -0.5754 -0.6244
  377MPD2    C3 5691   2.674   0.274  13.056  0.1322 -0.0892 -0.0866
  377MPD2    C4 5692   2.616   0.395  13.020 -0.1335 -0.0537 -0.4872
  377MPD2    C5 5693   2.653   0.465  12.905 -0.1279 -0.4115  0.0403
  377MPD2     H 5694   2.835   0.145  13.019 -0.6764 -1.4735 -2.4515
  377MPD2    H1 5695   2.531   0.437  13.073  0.1131  1.5946 -1.4067
  377MPD2    H2 5696   2.798   0.468  12.751  0.9060 -1.1483 -1.2705
  377MPD2    H3 5697   2.597   0.546  12.860 -0.9261 -0.8883  0.1829
  377MPD2     N 5698   2.617   0.198  13.161 -0.6429 -0.0061  0.0057
  377MPD2    H5 5699   2.541   0.242  13.212 -1.0521 -0.6188 -0.0729
  377MPD2    N1 5700   2.933   0.262  12.804 -0.1173  0.0696  0.7699
  377MPD2    H7 5701   2.952   0.311  12.717  1.2993 -1.3840  0.2555
  378TMC3    C1 5702   3.175   0.259  12.548 -0.0407  0.0721 -0.9426
  378TMC3    C2 5703   3.093   0.184  12.619  0.4260  0.0010  0.0900
  378TMC3    C3 5704   3.127   0.142  12.745  0.5094  0.4388 -0.9168
  378TMC3    C4 5705   3.290   0.301  12.600  0.3915  0.0538  0.1854
  378TMC3    C5 5706   3.330   0.254  12.721  0.1156  0.9957  0.6793
  378TMC3    C6 5707   3.249   0.172  12.792  0.5285 -0.7831  0.2450
  378TMC3     C 5708   3.100   0.353  12.469 -0.3160 -0.5999 -0.1924
  378TMC3     O 5709   2.992   0.373  12.518  0.0810 -0.0582  0.7124
  378TMC3     H 5710   2.995   0.167  12.575  1.7414 -0.0750 -2.7537
  378TMC3    H1 5711   3.351   0.373  12.547  0.6258 -0.5047 -0.3010
  378TMC3    H2 5712   3.285   0.122  12.881  2.0859 -0.8448 -0.4348
  378TMC3    C7 5713   3.478   0.249  12.745 -0.8571  0.0831  0.1589
  378TMC3    C8 5714   3.025   0.170  12.845  0.4808 -0.2160 -0.0774
  378TMC3    O1 5715   3.502   0.165  12.830 -0.0913 -0.2780 -0.2407
  378TMC3    O2 5716   3.058   0.131  12.959 -0.5189 -0.3284  0.4732
  379MPD2     C 5717   3.612   2.898  16.748  0.7807  0.7699  0.2636
  379MPD2    C1 5718   3.713   2.912  16.653  0.1170  0.3546  0.0537
  379MPD2    C2 5719   3.830   2.841  16.666  0.7901 -0.5315  0.1274
  379MPD2    C3 5720   3.857   2.768  16.778  0.0983  0.0594  0.6204
  379MPD2    C4 5721   3.757   2.758  16.873 -0.1402 -0.4942  0.0833
  379MPD2    C5 5722   3.640   2.820  16.860 -0.2713  0.5740  0.3894
  379MPD2     H 5723   3.916   2.849  16.600 -0.5056  3.4488 -1.0799
  379MPD2    H1 5724   3.767   2.690  16.957 -2.0235 -3.0234 -1.7365
  379MPD2    H2 5725   3.525   2.962  16.747  2.3626  2.9121 -1.6829
  379MPD2    H3 5726   3.564   2.811  16.937 -1.4141  2.4682 -0.5065
  379MPD2     N 5727   3.981   2.704  16.811  0.5534  0.1196  0.2409
  379MPD2    H5 5728   3.984   2.653  16.899  0.8002  1.6475  1.1156
  379MPD2    N1 5729   3.685   3.009  16.547  0.1649 -0.4814  0.1460
  379MPD2    H7 5730   3.593   3.051  16.561  0.6425 -0.0641  2.0313
  380TMC3    C1 5731   3.731   3.178  16.379 -0.5002 -0.4977  1.2578
  380TMC3    C2 5732   3.805   3.224  16.268 -0.6754  0.0743  0.4656
  380TMC3    C3 5733   3.784   3.346  16.219 -0.3085  0.2987  0.1230
  380TMC3    C4 5734   3.628   3.251  16.437 -0.6179 -0.5091 -0.2838
  380TMC3    C5 5735   3.615   3.376  16.384  0.1549 -0.3741  0.1888
  380TMC3    C6 5736   3.689   3.426  16.275  0.0266 -0.0197  0.7262
  380TMC3     C 5737   3.773   3.056  16.451 -0.2995 -0.2504 -0.8757
  380TMC3     O 5738   3.872   2.998  16.410 -0.0568  0.4060  0.0265
  380TMC3     H 5739   3.872   3.153  16.220 -0.6055  0.3097  0.2169
  380TMC3    H1 5740   3.583   3.226  16.532  1.4104 -0.3533  0.7124
  380TMC3    H2 5741   3.676   3.528  16.240  0.1579  0.0207  0.7968
  380TMC3    C7 5742   3.535   3.470  16.463 -0.0499  0.2356  0.3269
  380TMC3    C8 5743   3.889   3.405  16.131 -0.3881  0.1932 -0.5484
  380TMC3    O1 5744   3.521   3.447  16.583  0.4191 -0.1495 -0.0637
  380TMC3    O2 5745   3.960   3.329  16.066  0.0321 -0.3428 -0.5063
  381TMC3    C1 5746   3.702   4.067  16.416  0.7696 -0.2458 -0.7431
  381TMC3    C2 5747   3.796   4.163  16.392  0.3409 -0.2562  0.6079
  381TMC3    C3 5748   3.816   4.261  16.488 -0.8410  0.1448 -0.2139
  381TMC3    C4 5749   3.646   4.056  16.535  0.2153 -0.4363 -0.1969
  381TMC3    C5 5750   3.668   4.151  16.633  0.5487  0.0305 -0.0424
  381TMC3    C6 5751   3.750   4.263  16.610 -0.2285  0.5975  0.0865
  381TMC3     C 5752   3.685   3.964  16.323  0.2796 -0.2216  0.2001
  381TMC3     O 5753   3.656   3.849  16.363 -0.4786 -0.0086 -0.1353
  381TMC3     H 5754   3.853   4.177  16.301  1.1355 -0.5679  1.0554
  381TMC3    H1 5755   3.582   3.972  16.557  2.1219 -2.0316 -0.7700
  381TMC3    H2 5756   3.763   4.340  16.684  2.0677 -0.3858  0.7368
  381TMC3    C7 5757   3.620   4.116  16.770  0.4009  0.2356 -0.2821
  381TMC3    C8 5758   3.932   4.346  16.463  1.0781 -0.2538 -0.1377
  381TMC3    O1 5759   3.579   4.002  16.770 -0.6014  0.1042 -0.0079
  381TMC3    O2 5760   4.002   4.318  16.369 -0.1086 -0.2407 -0.1294
  382MPD2     C 5761   2.833   1.695  16.729  0.2065 -0.0640  0.2777
  382MPD2    C1 5762   2.916   1.682  16.836 -0.4425 -0.9130 -0.6473
  382MPD2    C2 5763   2.909   1.571  16.923 -0.3981 -0.0824 -0.0201
  382MPD2    C3 5764   2.816   1.475  16.894  0.6710 -0.1116  0.0127
  382MPD2    C4 5765   2.731   1.491  16.783  0.2502  0.5286 -0.3856
  382MPD2    C5 5766   2.749   1.597  16.698 -0.0400 -0.1574  0.5886
  382MPD2     H 5767   2.967   1.580  17.014  4.0289 -2.2254 -2.6569
  382MPD2    H1 5768   2.658   1.413  16.766 -0.3480  0.8059  0.8784
  382MPD2    H2 5769   2.832   1.791  16.679 -2.8637  0.2020  0.8733
  382MPD2    H3 5770   2.702   1.610  16.601  0.2183 -0.4390  0.4247
  382MPD2     N 5771   2.801   1.362  16.983 -0.1966  0.0591 -0.0643
  382MPD2    H5 5772   2.729   1.297  16.954  0.9498 -0.7157 -1.2056
  382MPD2    N1 5773   3.002   1.791  16.870 -0.1689 -0.4595  0.8987
  382MPD2    H7 5774   3.066   1.762  16.944  0.8243 -0.8518 -0.1122
  383TMC3    C1 5775   2.808   1.228  17.176 -0.2441 -0.3933  0.0907
  383TMC3    C2 5776   2.687   1.176  17.132 -0.1636  0.1076  0.6773
  383TMC3    C3 5777   2.609   1.125  17.227  0.2373  0.2197 -0.4135
  383TMC3    C4 5778   2.847   1.222  17.302 -0.0283 -0.5019 -0.2991
  383TMC3    C5 5779   2.761   1.172  17.393 -0.1448  0.4376  0.0135
  383TMC3    C6 5780   2.637   1.128  17.362 -0.1846  0.4842  0.4366
  383TMC3     C 5781   2.874   1.333  17.098  0.1248 -0.3254  0.1518
  383TMC3     O 5782   2.980   1.381  17.136 -0.1032 -0.1326  0.4136
  383TMC3     H 5783   2.662   1.152  17.029 -1.5152  1.4624  0.6737
  383TMC3    H1 5784   2.949   1.249  17.330 -0.7591  0.8370  1.0745
  383TMC3    H2 5785   2.587   1.070  17.439 -0.8300  1.5993  0.8448
  383TMC3    C7 5786   2.813   1.193  17.525 -0.2520 -0.6103 -0.6683
  383TMC3    C8 5787   2.490   1.059  17.180  0.4143  0.8080 -0.6470
  383TMC3    O1 5788   2.926   1.224  17.555  0.3890 -0.2857  0.4249
  383TMC3    O2 5789   2.454   1.078  17.067 -0.5616  0.3953  0.1316
  384MPD2     C 5790   4.058   3.109  12.368  0.4518  0.1117 -0.2421
  384MPD2    C1 5791   4.048   3.248  12.339  0.4912  0.5957  0.0370
  384MPD2    C2 5792   4.119   3.299  12.236 -0.1531 -0.6135  0.5906
  384MPD2    C3 5793   4.212   3.226  12.171  0.5341 -0.1898 -0.2130
  384MPD2    C4 5794   4.226   3.086  12.196 -0.7929 -0.1654 -0.1645
  384MPD2    C5 5795   4.157   3.031  12.306 -0.1624 -0.1496  0.0049
  384MPD2     H 5796   4.105   3.403  12.206  0.1504 -1.0228 -0.9753
  384MPD2    H1 5797   4.309   3.023  12.166 -1.5694 -1.6299  0.7505
  384MPD2    H2 5798   4.006   3.064  12.452  1.4190 -0.1623  0.2034
  384MPD2    H3 5799   4.187   2.933  12.344  0.0005 -0.9276 -2.1282
  384MPD2     N 5800   4.306   3.269  12.072 -0.1418 -0.1063  0.1593
  384MPD2    H5 5801   4.375   3.202  12.040 -0.2356 -0.5548  0.8934
  384MPD2    N1 5802   3.972   3.332  12.423  0.4626 -0.7664 -0.1439
  384MPD2    H7 5803   3.916   3.283  12.492  0.2984 -0.5757 -0.1411
  385TMC3    C1 5804   4.439   3.414  11.975  0.2131 -0.8307 -0.2709
  385TMC3    C2 5805   4.495   3.303  11.931  0.2653  0.1141  0.1681
  385TMC3    C3 5806   4.607   3.252  11.991 -0.4015 -0.1650  0.0674
  385TMC3    C4 5807   4.502   3.476  12.082 -0.3228 -0.4963 -0.8325
  385TMC3    C5 5808   4.611   3.424  12.147  1.2609  0.1440 -0.0036
  385TMC3    C6 5809   4.669   3.314  12.094  0.0402  0.2140  0.4107
  385TMC3     C 5810   4.307   3.389  12.017  0.0189  0.0778  0.5053
  385TMC3     O 5811   4.224   3.473  12.002  0.3236  0.1038 -0.2263
  385TMC3     H 5812   4.444   3.252  11.850 -1.3779  0.3645  1.0320
  385TMC3    H1 5813   4.443   3.543  12.144  1.6263  0.1282  0.3280
  385TMC3    H2 5814   0.018   3.277  12.144 -0.8905 -1.9642  0.4522
  385TMC3    C7 5815   4.583   3.402  12.286  0.4970 -0.1293  0.1243
  385TMC3    C8 5816   4.619   3.105  12.001 -0.2479 -0.1937  0.1775
  385TMC3    O1 5817   4.559   3.500  12.353 -0.0586 -0.4522  0.0202
  385TMC3    O2 5818   4.637   3.059  12.114 -0.1349 -0.0538 -0.1798
  386TMC3    C1 5819   4.643   1.124  11.726 -0.6571  0.1771  0.7901
  386TMC3    C2 5820   4.682   1.150  11.598 -0.7317 -0.1213 -0.8447
  386TMC3    C3 5821   4.580   1.186  11.508 -0.5026  0.6040 -0.0285
  386TMC3    C4 5822   4.511   1.112  11.760  0.2301 -0.2007 -0.5841
  386TMC3    C5 5823   4.417   1.158  11.667 -0.0513 -0.6830  0.3749
  386TMC3    C6 5824   4.447   1.191  11.539  0.3457 -0.2407 -0.3308
  386TMC3     C 5825   0.003   1.066  11.816  0.9314 -0.4226 -0.9110
  386TMC3     O 5826   0.114   1.120  11.811  0.6287  0.0276 -0.2496
  386TMC3     H 5827   0.045   1.148  11.565  0.2876 -1.7284  2.3776
  386TMC3    H1 5828   4.482   1.085  11.861  2.5782  2.3139  0.7680
  386TMC3    H2 5829   4.370   1.220  11.468  1.5167 -0.3977 -1.6539
  386TMC3    C7 5830   4.287   1.178  11.731 -0.2250  0.8737  0.2883
  386TMC3    C8 5831   4.602   1.199  11.365  0.5814  0.2270  0.3652
  386TMC3    O1 5832   4.266   1.144  11.844  0.8754 -0.0941  0.3103
  386TMC3    O2 5833   4.508   1.256  11.309 -0.1398 -0.4187  0.4049
  387MPD2     C 5834   1.900   0.881   9.909  0.3697 -0.3628 -0.5209
  387MPD2    C1 5835   1.946   0.836  10.030 -0.8940  0.0944 -0.3826
  387MPD2    C2 5836   1.980   0.694  10.037  0.0895 -0.1963 -0.2800
  387MPD2    C3 5837   1.980   0.608   9.928  0.0692 -0.3140 -0.4133
  387MPD2    C4 5838   1.925   0.663   9.808  0.3656  0.1264 -0.0799
  387MPD2    C5 5839   1.894   0.798   9.798  0.0741  0.3642 -0.1217
  387MPD2     H 5840   2.006   0.649  10.132 -0.4983 -1.4512 -0.7213
  387MPD2    H1 5841   1.915   0.601   9.719  1.8020  0.5020 -0.4987
  387MPD2    H2 5842   1.876   0.986   9.893  0.5131 -0.0909  1.0337
  387MPD2    H3 5843   1.856   0.831   9.702  1.2167 -1.4221 -1.1962
  387MPD2     N 5844   2.038   0.481   9.949 -0.1033 -0.8090 -0.3024
  387MPD2    H5 5845   2.056   0.459  10.046  1.7223  0.7728 -0.2862
  387MPD2    N1 5846   1.955   0.904  10.155 -0.3013 -0.3926 -0.1740
  387MPD2    H7 5847   1.955   0.855  10.244 -0.0808  0.4524  0.2944
  388TMC3    C1 5848   2.018   1.086  10.281 -0.4848  0.5089  0.5953
  388TMC3    C2 5849   2.064   1.214  10.267 -0.3621 -0.1127  0.6859
  388TMC3    C3 5850   2.182   1.256  10.320 -1.0183  0.0250 -0.2939
  388TMC3    C4 5851   2.085   1.001  10.367 -0.2545  0.0061  0.3947
  388TMC3    C5 5852   2.208   1.043  10.419  0.9199 -0.5344 -0.1343
  388TMC3    C6 5853   2.260   1.167  10.388 -1.2708  0.8454  0.3366
  388TMC3     C 5854   1.932   1.037  10.170  0.3227  0.5138 -0.6011
  388TMC3     O 5855   1.882   1.119  10.094  0.3857  0.6863  0.0345
  388TMC3     H 5856   2.013   1.281  10.199  1.8286  2.1194  1.2083
  388TMC3    H1 5857   2.031   0.919  10.412 -1.6063  0.2103 -0.8677
  388TMC3    H2 5858   2.363   1.192  10.412 -0.1363 -2.1955 -1.3804
  388TMC3    C7 5859   2.299   0.937  10.464 -0.5127 -0.3645  0.6180
  388TMC3    C8 5860   2.239   1.378  10.268  0.6847  0.8393 -0.6602
  388TMC3    O1 5861   2.408   0.977  10.500 -0.4877 -0.9317 -0.0446
  388TMC3    O2 5862   2.195   1.418  10.161 -0.3224 -0.1795 -0.8764
  389MPD2     C 5863   1.232   3.883  11.492  0.0868  0.3322  0.9267
  389MPD2    C1 5864   1.218   3.743  11.482  0.0594 -0.6714 -0.0188
  389MPD2    C2 5865   1.191   3.666  11.600 -0.1743  0.4839 -0.4857
  389MPD2    C3 5866   1.184   3.725  11.723 -0.1427  0.0217  0.1665
  389MPD2    C4 5867   1.216   3.861  11.734  0.4329 -0.0759  0.2129
  389MPD2    C5 5868   1.235   3.933  11.619  0.1575  0.0858  0.1840
  389MPD2     H 5869   1.176   3.559  11.599 -0.7309  0.5526  0.2154
  389MPD2    H1 5870   1.222   3.905  11.833 -1.3548 -0.5250  0.5370
  389MPD2    H2 5871   1.244   3.947  11.405 -0.3103  0.1336  0.7242
  389MPD2    H3 5872   1.244   4.040  11.637  0.0955  0.3324 -1.2402
  389MPD2     N 5873   1.169   3.650  11.844 -0.5576  0.7202 -0.9635
  389MPD2    H5 5874   1.182   3.699  11.932 -1.2103 -0.0232 -0.4532
  389MPD2    N1 5875   1.220   3.685  11.352  0.6256 -0.0959 -0.2173
  389MPD2    H7 5876   1.238   3.750  11.277  2.1250 -1.9538 -1.4574
  390TMC3    C1 5877   1.089   3.478  11.992  0.0137  0.7750 -0.0903
  390TMC3    C2 5878   1.013   3.356  12.011 -0.6359  0.1618 -0.2652
  390TMC3    C3 5879   1.004   3.304  12.140 -0.0998 -0.1972 -0.3466
  390TMC3    C4 5880   1.158   3.535  12.103 -0.4361  0.2061  0.3961
  390TMC3    C5 5881   1.137   3.477  12.231  0.1418  0.2807  0.3661
  390TMC3    C6 5882   1.069   3.356  12.242  0.1142 -0.5916  0.0010
  390TMC3     C 5883   1.111   3.523  11.854 -0.0528 -0.1905  0.5658
  390TMC3     O 5884   1.061   3.458  11.766 -0.0269  1.0689 -0.0562
  390TMC3     H 5885   0.979   3.309  11.920 -0.9585 -0.7099  0.3115
  390TMC3    H1 5886   1.242   3.603  12.091  0.4687 -0.3969  3.3030
  390TMC3    H2 5887   1.066   3.308  12.339  0.6164 -0.5075  0.0605
  390TMC3    C7 5888   1.146   3.561  12.345  0.7241  0.3672 -0.3101
  390TMC3    C8 5889   0.932   3.178  12.148 -0.1279  0.3504  0.3800
  390TMC3    O1 5890   1.224   3.656  12.332  0.2901  0.4626 -0.1426
  390TMC3    O2 5891   0.882   3.138  12.040 -0.1887  0.2311  0.2049
  391MPD2     C 5892   0.997   0.388  10.973  0.5205 -0.0190  0.8597
  391MPD2    C1 5893   0.996   0.529  10.978  0.4278 -0.0403  0.4436
  391MPD2    C2 5894   0.962   0.600  10.867 -0.1738 -0.0532  0.0104
  391MPD2    C3 5895   0.937   0.543  10.749 -0.1250  0.5704  0.3316
  391MPD2    C4 5896   0.925   0.401  10.746 -0.3363  0.0726  0.0503
  391MPD2    C5 5897   0.959   0.327  10.857 -0.0827  0.4970 -0.1016
  391MPD2     H 5898   0.950   0.708  10.865 -1.0892 -0.1656 -0.6870
  391MPD2    H1 5899   0.913   0.345  10.654 -1.4906 -2.5219  1.7733
  391MPD2    H2 5900   1.042   0.330  11.052  0.8359  0.2711  0.8924
  391MPD2    H3 5901   0.963   0.219  10.851  1.8308  0.5122  1.1281
  391MPD2     N 5902   0.914   0.620  10.638 -0.0694 -0.0565  0.0098
  391MPD2    H5 5903   0.949   0.715  10.647 -0.9681  0.2662  0.0469
  391MPD2    N1 5904   1.049   0.589  11.098 -0.4984 -0.1461  0.1660
  391MPD2    H7 5905   1.094   0.534  11.170  0.4124  0.1081 -0.2017
  392TMC3    C1 5906   0.847   0.691  10.431  0.3384 -0.1611 -0.2882
  392TMC3    C2 5907   0.744   0.677  10.334  0.1621  0.3588 -0.3925
  392TMC3    C3 5908   0.714   0.788  10.250  0.1142  0.5853  0.1567
  392TMC3    C4 5909   0.917   0.810  10.444  0.2841 -1.0832 -0.5360
  392TMC3    C5 5910   0.888   0.917  10.356 -0.4898  0.2467  0.7764
  392TMC3    C6 5911   0.784   0.906  10.262  0.2145 -0.2514  0.1057
  392TMC3     C 5912   0.868   0.577  10.518 -0.1334  0.6877 -0.3853
  392TMC3     O 5913   0.840   0.469  10.477  0.0215 -0.2175 -0.1378
  392TMC3     H 5914   0.692   0.582  10.332 -1.9204  1.5111 -0.2484
  392TMC3    H1 5915   1.012   0.826  10.494  0.0631 -2.3302  0.2826
  392TMC3    H2 5916   0.764   0.979  10.185 -1.0832  2.0640  2.6198
  392TMC3    C7 5917   0.963   1.038  10.360  0.0410  0.5674  0.8452
  392TMC3    C8 5918   0.619   0.761  10.151  0.6073  0.4414  0.0410
  392TMC3    O1 5919   0.995   1.076  10.470 -0.1878 -0.1666 -0.6227
  392TMC3    O2 5920   0.584   0.647  10.129 -0.0098 -0.1335  0.1098
  393TMC3    C1 5921   3.787   3.218  10.608 -0.2745  0.1286 -0.3604
  393TMC3    C2 5922   3.766   3.120  10.508  0.5126  0.1411 -0.2014
  393TMC3    C3 5923   3.742   2.992  10.544 -0.3596 -0.9157 -0.3787
  393TMC3    C4 5924   3.792   3.186  10.737  0.3931  0.1812  0.0129
  393TMC3    C5 5925   3.761   3.055  10.764 -0.6310 -0.5429  0.0428
  393TMC3    C6 5926   3.720   2.959  10.674  0.5253 -0.2564 -0.1293
  393TMC3     C 5927   3.811   3.356  10.562 -0.4645 -0.5548 -0.2181
  393TMC3     O 5928   3.812   3.385  10.440 -0.2177 -0.2268  0.0875
  393TMC3     H 5929   3.769   3.149  10.403 -0.7332 -2.9787 -1.1002
  393TMC3    H1 5930   3.797   3.255  10.820  2.4085 -0.4280  0.3975
  393TMC3    H2 5931   3.693   2.858  10.704 -2.6092  0.6835  0.1773
  393TMC3    C7 5932   3.775   3.013  10.900 -0.4448  0.4280 -0.1913
  393TMC3    C8 5933   3.723   2.889  10.446 -0.6601 -0.1195  0.3037
  393TMC3    O1 5934   3.696   2.933  10.931 -0.0350 -1.1183 -0.5168
  393TMC3    O2 5935   3.670   2.781  10.480  0.8544  0.0927 -0.2986
  394TMC3    C1 5936   1.171   3.537  11.179  0.2896 -0.3132 -0.2103
  394TMC3    C2 5937   1.055   3.521  11.105 -0.5715  0.0308  0.1505
  394TMC3    C3 5938   1.059   3.526  10.966  0.3876  0.5215 -0.1905
  394TMC3    C4 5939   1.295   3.557  11.125 -0.1658  0.6349  0.1404
  394TMC3    C5 5940   1.295   3.550  10.989 -0.2962  0.3926 -0.2372
  394TMC3    C6 5941   1.185   3.538  10.907  0.0737  0.5084 -0.5235
  394TMC3     C 5942   1.170   3.558  11.322 -0.2249  0.2543 -0.6806
  394TMC3     O 5943   1.117   3.478  11.396 -0.1427  0.5263 -0.2198
  394TMC3     H 5944   0.962   3.496  11.155 -1.0235  0.8037 -0.2973
  394TMC3    H1 5945   1.381   3.583  11.187 -0.2442  0.0965  0.4745
  394TMC3    H2 5946   1.196   3.554  10.800 -0.3455 -1.0803 -0.7948
  394TMC3    C7 5947   1.413   3.598  10.916 -0.1173 -0.3818 -0.4361
  394TMC3    C8 5948   0.928   3.508  10.900  0.0214  0.6721 -0.2884
  394TMC3    O1 5949   1.392   3.643  10.806 -0.0250  0.0712  0.1354
  394TMC3    O2 5950   0.834   3.468  10.965 -0.0568  0.3610 -0.4171
  395TMC3    C1 5951   1.232   0.924  14.952  0.7008  0.0915  0.3984
  395TMC3    C2 5952   1.116   0.977  14.902  0.1898  0.1635  0.6320
  395TMC3    C3 5953   1.121   1.045  14.778 -0.4175 -0.0206 -0.7624
  395TMC3    C4 5954   1.342   0.922  14.874 -0.7801  0.6697 -0.6577
  395TMC3    C5 5955   1.342   0.988  14.755 -0.7049  0.2536 -0.6846
  395TMC3    C6 5956   1.235   1.056  14.710  0.9653 -0.8820  0.0355
  395TMC3     C 5957   1.252   0.888  15.089  0.2574  0.0283  0.8715
  395TMC3     O 5958   1.356   0.829  15.113 -0.7891 -0.0516 -0.0219
  395TMC3     H 5959   1.026   0.990  14.961 -0.4967  2.6596 -0.9566
  395TMC3    H1 5960   1.436   0.872  14.894 -2.3818 -2.0386  0.0647
  395TMC3    H2 5961   1.238   1.107  14.614 -0.1936 -1.3506 -0.2443
  395TMC3    C7 5962   1.467   1.048  14.737  1.0248 -0.8102 -0.1851
  395TMC3    C8 5963   1.014   1.140  14.750 -0.7264 -0.3102 -0.6619
  395TMC3    O1 5964   1.524   1.069  14.846  0.4382  0.0101 -0.8719
  395TMC3    O2 5965   1.047   1.233  14.675 -0.2357  0.7622  0.4399
  396MPD2     C 5966   1.142   1.517  16.859 -0.3631  0.8254 -0.5355
  396MPD2    C1 5967   1.272   1.540  16.894  0.2643  0.1983 -0.1348
  396MPD2    C2 5968   1.335   1.664  16.861  0.5600 -0.5678 -0.5346
  396MPD2    C3 5969   1.264   1.759  16.790  0.8961  0.2597 -0.2162
  396MPD2    C4 5970   1.130   1.736  16.766  0.3320 -0.4001 -0.4108
  396MPD2    C5 5971   1.070   1.617  16.793  0.1354  0.2116  1.1558
  396MPD2     H 5972   1.441   1.681  16.882  0.5201 -0.6274 -0.2819
  396MPD2    H1 5973   1.064   1.813  16.727 -0.7512 -1.0153  0.2018
  396MPD2    H2 5974   1.092   1.426  16.888 -0.2725  0.8369 -0.3388
  396MPD2    H3 5975   0.966   1.617  16.762  0.7540  1.5511 -0.9394
  396MPD2     N 5976   1.319   1.888  16.765  0.5752 -0.5451 -0.6854
  396MPD2    H5 5977   1.419   1.899  16.766  0.5401 -0.0308 -2.6134
  396MPD2    N1 5978   1.327   1.451  16.987  0.0558  0.0445  0.1620
  396MPD2    H7 5979   1.263   1.396  17.043  3.5892 -2.7533  1.4341
  397TMC3    C1 5980   1.475   1.390  17.163  0.1298  0.4208 -0.4730
  397TMC3    C2 5981   1.563   1.287  17.154  1.6180  0.1931 -0.9669
  397TMC3    C3 5982   1.524   1.161  17.196 -0.2347  0.1725  0.1855
  397TMC3    C4 5983   1.366   1.370  17.242  0.1296  0.4903 -0.9333
  397TMC3    C5 5984   1.343   1.262  17.315 -0.0953  0.2271  0.4775
  397TMC3    C6 5985   1.421   1.152  17.287 -0.0295  0.5009  0.3394
  397TMC3     C 5986   1.453   1.465  17.038 -0.4515  0.1255 -0.6001
  397TMC3     O 5987   1.549   1.488  16.963  0.5561  0.3232  0.0470
  397TMC3     H 5988   1.633   1.300  17.072  1.9199  2.2379 -0.3862
  397TMC3    H1 5989   1.303   1.458  17.249  1.4753  1.3783  0.0538
  397TMC3    H2 5990   1.402   1.057  17.337  0.5669 -0.2536 -0.8778
  397TMC3    C7 5991   1.200   1.238  17.335 -0.1351 -0.2567 -0.3722
  397TMC3    C8 5992   1.608   1.043  17.174 -0.6407 -0.0847 -0.0681
  397TMC3    O1 5993   1.119   1.291  17.263  0.3193 -0.9952  0.1568
  397TMC3    O2 5994   1.730   1.068  17.186 -0.2518  0.0943 -0.0601
  398MPD2     C 5995   4.439   3.165   0.331 -0.1051 -0.9418  0.1061
  398MPD2    C1 5996   4.511   3.044   0.335 -0.2386  0.7464 -0.7562
  398MPD2    C2 5997   4.644   3.047   0.346  0.5587 -0.3892  0.2842
  398MPD2    C3 5998   4.717   3.167   0.345  0.2940  0.4276 -0.1664
  398MPD2    C4 5999   4.644   3.284   0.341  0.1407  0.2540 -0.1202
  398MPD2    C5 6000   4.508   3.283   0.334 -0.2690  0.7845 -0.3465
  398MPD2     H 6001   4.701   2.956   0.329  1.7151  0.0873  1.5835
  398MPD2    H1 6002   4.698   3.378   0.342  2.7011 -1.2532  2.5625
  398MPD2    H2 6003   4.331   3.167   0.321 -0.1527  1.7088  1.1401
  398MPD2    H3 6004   4.457   3.378   0.321  1.3343  1.8409  0.9972
  398MPD2     N 6005   0.116   3.159   0.337  0.1509  0.2875  0.2910
  398MPD2    H5 6006   0.170   3.074   0.330  0.3122  0.5177 -1.3370
  398MPD2    N1 6007   4.453   2.917   0.326  0.3959  0.5980 -0.4111
  398MPD2    H7 6008   4.512   2.834   0.319 -0.7410 -0.3672  1.3100
  399TMC3    C1 6009   4.302   2.753   0.343 -0.1287  0.3743 -0.6644
  399TMC3    C2 6010   4.379   2.685   0.432  0.0089 -0.1718 -0.6244
  399TMC3    C3 6011   4.358   2.555   0.446 -0.1948 -0.1884 -0.0841
  399TMC3    C4 6012   4.195   2.695   0.276  0.0553 -0.0905 -0.5127
  399TMC3    C5 6013   4.195   2.560   0.282 -0.2820 -0.9425  0.0802
  399TMC3    C6 6014   4.277   2.486   0.364  0.5390  0.2468 -0.0407
  399TMC3     C 6015   4.321   2.895   0.328 -0.5945  0.8131 -0.4784
  399TMC3     O 6016   4.235   2.971   0.282  0.2650 -0.1291  0.6540
  399TMC3     H 6017   4.441   2.748   0.494  0.1009 -1.8176  0.9578
  399TMC3    H1 6018   4.122   2.751   0.219  1.7388  3.3296  0.7487
  399TMC3    H2 6019   4.266   2.378   0.373 -0.1422  0.2933 -0.2554
  399TMC3    C7 6020   4.110   2.495   0.184  0.7426  0.4413  0.1440
  399TMC3    C8 6021   4.465   2.479   0.517  0.5476  0.4379  0.1477
  399TMC3    O1 6022   4.012   2.551   0.139  0.4425 -0.0489  0.1169
  399TMC3    O2 6023   4.451   2.360   0.489  0.6240 -0.0409 -0.1861
  400TMC3    C1 6024   2.397   0.742  16.927 -1.0208  0.6990 -0.3446
  400TMC3    C2 6025   2.299   0.645  16.917 -0.1071 -0.1407  1.2118
  400TMC3    C3 6026   2.190   0.680  16.845  0.2427 -0.3369  0.0482
  400TMC3    C4 6027   2.391   0.861  16.862 -0.1875  0.9404  0.1403
  400TMC3    C5 6028   2.289   0.880  16.777 -0.4106  0.6190  0.2782
  400TMC3    C6 6029   2.180   0.798  16.778  0.0803  0.5507  0.2483
  400TMC3     C 6030   2.515   0.695  16.990 -0.0915  0.0762 -0.4175
  400TMC3     O 6031   2.526   0.577  17.022  0.3663  0.5285 -0.0204
  400TMC3     H 6032   2.295   0.551  16.971  0.4824 -1.4468 -1.0134
  400TMC3    H1 6033   2.476   0.929  16.862  0.8184 -0.3282  1.2041
  400TMC3    H2 6034   2.090   0.825  16.725 -1.1109 -0.4147  1.7741
  400TMC3    C7 6035   2.269   1.015  16.727  0.1338  0.0608 -0.0755
  400TMC3    C8 6036   2.070   0.600  16.859 -0.6239 -0.6574 -0.1182
  400TMC3    O1 6037   2.163   1.038  16.666 -0.6862 -0.1313  0.3096
  400TMC3    O2 6038   2.037   0.564  16.973 -0.0757 -0.4495  0.1666
  401MPD2     C 6039   0.781   4.171   0.826 -0.1222  1.1652 -0.0677
  401MPD2    C1 6040   0.903   4.192   0.886 -0.3376 -0.2123 -0.0841
  401MPD2    C2 6041   1.004   4.102   0.858  0.0815 -0.5362 -0.1693
  401MPD2    C3 6042   0.984   3.984   0.788  0.4220  0.5792  0.2621
  401MPD2    C4 6043   0.864   3.978   0.721 -0.2230  0.2511  0.8483
  401MPD2    C5 6044   0.765   4.070   0.741  0.4772 -0.0593 -0.0333
  401MPD2     H 6045   1.102   4.117   0.902  0.1975  0.2520 -0.6767
  401MPD2    H1 6046   0.833   3.891   0.663  0.5671  1.8887 -2.0161
  401MPD2    H2 6047   0.701   4.241   0.846  0.3894  1.8982 -0.6029
  401MPD2    H3 6048   0.669   4.041   0.700 -0.6381  0.3131  2.3085
  401MPD2     N 6049   1.080   3.882   0.788 -0.3298 -0.0563  0.1119
  401MPD2    H5 6050   1.148   3.891   0.862  0.9131  2.7528 -1.3965
  401MPD2    N1 6051   0.942   4.299   0.965  0.6059  0.1448  0.2096
  401MPD2    H7 6052   1.043   4.306   0.964  0.5903  0.4144  1.2171
  402TMC3    C1 6053   1.155   3.652   0.755 -0.0117 -0.0344 -0.1643
  402TMC3    C2 6054   1.186   3.650   0.892 -0.1204  0.0179  0.0627
  402TMC3    C3 6055   1.286   3.559   0.925 -0.2320 -0.7418 -0.4130
  402TMC3    C4 6056   1.220   3.579   0.655  0.0564  0.0158 -0.0283
  402TMC3    C5 6057   1.335   3.519   0.701 -0.7651  0.9561 -0.1295
  402TMC3    C6 6058   1.365   3.497   0.832 -0.4207  0.1857 -0.5875
  402TMC3     C 6059   1.075   3.767   0.709 -0.2172  0.2172  0.4938
  402TMC3     O 6060   1.019   3.755   0.599  0.7272  0.2764 -0.2721
  402TMC3     H 6061   1.126   3.692   0.972 -1.8352 -0.8305 -0.7769
  402TMC3    H1 6062   1.203   3.606   0.551 -1.5338  0.4139  0.3408
  402TMC3    H2 6063   1.427   3.413   0.864  0.6199  1.6955  1.3939
  402TMC3    C7 6064   1.418   3.443   0.611  0.1541 -0.4299 -0.2120
  402TMC3    C8 6065   1.310   3.531   1.065  1.1356 -0.3869 -0.2369
  402TMC3    O1 6066   1.373   3.429   0.497 -0.0433 -0.2290 -0.4418
  402TMC3    O2 6067   1.350   3.417   1.084  0.4791 -0.3095 -0.6597
  403MPD2     C 6068   3.925   3.178  13.386  0.2802 -0.4427  0.6773
  403MPD2    C1 6069   3.849   3.071  13.429  0.1662  0.1061  0.0754
  403MPD2    C2 6070   3.862   3.042  13.566  0.6425 -1.1017 -0.2237
  403MPD2    C3 6071   3.960   3.088  13.650 -0.8439  0.1219 -0.2388
  403MPD2    C4 6072   4.032   3.194  13.603  0.3714 -0.1035  0.6218
  403MPD2    C5 6073   4.004   3.249  13.480 -0.2118  0.0123  0.2292
  403MPD2     H 6074   3.801   2.962  13.607 -0.1554 -1.4448 -2.1090
  403MPD2    H1 6075   4.108   3.236  13.668 -0.9777  0.9674  1.4967
  403MPD2    H2 6076   3.921   3.208  13.282  1.1267 -1.7101  0.2877
  403MPD2    H3 6077   4.050   3.343  13.452 -0.8897 -0.1916 -1.5596
  403MPD2     N 6078   3.977   3.035  13.777 -0.1597 -0.3972 -0.1532
  403MPD2    H5 6079   3.907   2.968  13.808 -2.8241  2.3878 -0.2272
  403MPD2    N1 6080   3.758   3.009  13.341  0.0420 -0.0843 -0.3988
  403MPD2    H7 6081   3.762   3.023  13.241 -1.4296 -0.5336 -0.5187
  404TMC3    C1 6082   3.608   2.827  13.283  0.0982 -0.1269 -0.3075
  404TMC3    C2 6083   3.579   2.706  13.329  0.1229 -0.0479 -0.1404
  404TMC3    C3 6084   3.587   2.602  13.238 -0.1915 -0.0075 -0.1822
  404TMC3    C4 6085   3.663   2.836  13.153 -0.1166 -0.7111 -0.7769
  404TMC3    C5 6086   3.651   2.732  13.068  0.9547  0.1376  0.5046
  404TMC3    C6 6087   3.614   2.611  13.103  0.0777  0.8490 -0.7049
  404TMC3     C 6088   3.658   2.922  13.380  0.8287  0.0923  0.0817
  404TMC3     O 6089   3.612   2.905  13.492 -0.0945  0.1060  0.0427
  404TMC3     H 6090   3.548   2.699  13.433  2.2252 -0.9713  0.4198
  404TMC3    H1 6091   3.706   2.928  13.114  0.0392 -0.0625  0.9275
  404TMC3    H2 6092   3.628   2.518  13.049  0.3346  1.0016 -0.8982
  404TMC3    C7 6093   3.647   2.767  12.930 -0.2678  0.5317  0.3130
  404TMC3    C8 6094   3.603   2.466  13.300  0.0582 -0.4967 -0.4168
  404TMC3    O1 6095   3.710   2.869  12.897 -0.5606 -0.3265 -0.6219
  404TMC3    O2 6096   3.656   2.385  13.229  0.1682  0.2324  0.2155
  405MPD2     C 6097   3.776   3.625  15.001  0.3768  0.4174  0.0010
  405MPD2    C1 6098   3.685   3.545  14.940 -0.3403  0.1062 -0.2357
  405MPD2    C2 6099   3.566   3.602  14.895  0.3001 -0.3430  0.2126
  405MPD2    C3 6100   3.551   3.740  14.903  0.1716 -0.0498 -0.7709
  405MPD2    C4 6101   3.650   3.828  14.954 -0.7268 -0.0738  0.2251
  405MPD2    C5 6102   3.765   3.768  15.013 -0.2509 -0.0200  0.4129
  405MPD2     H 6103   3.487   3.550  14.843 -0.5341 -0.0454  1.1710
  405MPD2    H1 6104   3.640   3.935  14.961 -0.5407 -0.0038 -0.6311
  405MPD2    H2 6105   3.869   3.582  15.036  0.2499  1.1789  1.2687
  405MPD2    H3 6106   3.848   3.828  15.049  0.1091 -0.7456  0.7902
  405MPD2     N 6107   3.429   3.785  14.854 -0.1485 -0.4627  0.7354
  405MPD2    H5 6108   3.363   3.712  14.831 -0.4238  0.6135 -1.8755
  405MPD2    N1 6109   3.705   3.400  14.942 -0.1730  0.1228 -0.1628
  405MPD2    H7 6110   3.794   3.372  14.982  0.0374  1.9532  0.6129
  406TMC3    C1 6111   3.044   4.024  14.765  0.4550 -0.0981 -0.4810
  406TMC3    C2 6112   2.968   3.932  14.831 -0.0978 -0.0271 -0.2103
  406TMC3    C3 6113   3.031   3.839  14.910  0.4919  0.3457  0.8808
  406TMC3    C4 6114   3.181   4.022  14.766 -0.6122  0.3313  0.0506
  406TMC3    C5 6115   3.239   3.925  14.842 -0.6109 -0.0589  0.3314
  406TMC3    C6 6116   3.171   3.825  14.909 -0.5935  0.1629 -0.4485
  406TMC3     C 6117   2.990   4.073  14.640 -0.0648  0.5370  0.1609
  406TMC3     O 6118   2.879   4.123  14.643  0.5211 -0.2006 -0.3859
  406TMC3     H 6119   2.861   3.924  14.815 -0.1430  1.1294 -0.4698
  406TMC3    H1 6120   3.247   4.099  14.726 -0.2803  1.0966  2.0711
  406TMC3    H2 6121   3.220   3.758  14.978 -1.7272 -1.0226 -0.8061
  406TMC3    C7 6122   3.383   3.920  14.854 -0.2261  0.0295  0.3499
  406TMC3    C8 6123   2.966   3.714  14.943 -0.5006 -0.1159  1.0214
  406TMC3    O1 6124   3.437   4.028  14.861 -0.0930 -0.2157  0.1395
  406TMC3    O2 6125   2.866   3.716  15.009 -0.2200 -0.4748 -0.1658
  407MPD2     C 6126   1.667   0.384  10.176 -0.3344 -0.2908 -0.2256
  407MPD2    C1 6127   1.654   0.486  10.084 -0.4336  0.9121 -0.0558
  407MPD2    C2 6128   1.651   0.619  10.128  0.4559 -0.0844  0.3382
  407MPD2    C3 6129   1.660   0.651  10.266  0.4777  0.1367 -1.4046
  407MPD2    C4 6130   1.673   0.544  10.352 -0.2922  0.2214  0.0857
  407MPD2    C5 6131   1.688   0.422  10.307 -0.7048  0.1814  0.6101
  407MPD2     H 6132   1.648   0.699  10.055  0.6977  0.1469  0.5845
  407MPD2    H1 6133   1.667   0.564  10.458 -1.2494  0.2788  0.0147
  407MPD2    H2 6134   1.678   0.278  10.154 -0.0922 -0.0101 -1.4376
  407MPD2    H3 6135   1.693   0.341  10.379 -0.2702 -1.4685 -1.2624
  407MPD2     N 6136   1.650   0.779  10.319  0.8511  0.6116  0.5529
  407MPD2    H5 6137   1.658   0.781  10.420 -0.5700 -1.7568  0.7129
  407MPD2    N1 6138   1.649   0.451   9.946 -0.6296  0.2199 -0.5969
  407MPD2    H7 6139   1.641   0.532   9.885 -0.8216 -1.1663 -2.3937
  408TMC3    C1 6140   1.664   0.335   9.743  0.5538 -0.7032 -1.2667
  408TMC3    C2 6141   1.752   0.258   9.665  0.0115 -0.3865 -0.2035
  408TMC3    C3 6142   1.725   0.242   9.526 -0.8379 -0.2701  0.7870
  408TMC3    C4 6143   1.550   0.380   9.690 -0.3326 -0.3356 -0.4546
  408TMC3    C5 6144   1.517   0.348   9.563 -0.3042  0.0401  0.0826
  408TMC3    C6 6145   1.609   0.296   9.477 -0.0498 -0.7556  0.4120
  408TMC3     C 6146   1.695   0.335   9.888  0.6439 -0.1970  0.0190
  408TMC3     O 6147   1.752   0.245   9.948 -0.4295 -0.1722 -0.6964
  408TMC3     H 6148   1.837   0.214   9.714  0.3606 -0.2865 -0.7199
  408TMC3    H1 6149   1.482   0.431   9.758 -0.5716 -0.3371 -0.6939
  408TMC3    H2 6150   1.567   0.270   9.381  0.8587 -1.3001  0.1584
  408TMC3    C7 6151   1.376   0.344   9.529  0.2364 -0.7857  0.0853
  408TMC3    C8 6152   1.807   0.144   9.457 -0.0174 -0.3293 -0.4594
  408TMC3    O1 6153   1.346   0.373   9.412 -0.1693 -0.4665  0.2105
  408TMC3    O2 6154   1.751   0.052   9.395 -0.0588  0.4902 -0.3647
  409MPD2     C 6155   1.350   0.292  16.698  0.1733  0.5288 -0.1207
  409MPD2    C1 6156   1.396   0.340  16.813 -0.1689 -0.2590  0.0719
  409MPD2    C2 6157   1.458   0.466  16.814 -0.1643 -0.1888  0.2566
  409MPD2    C3 6158   1.476   0.539  16.699 -0.0725  0.1964  0.4272
  409MPD2    C4 6159   1.418   0.495  16.581  0.2490 -0.0100 -0.0196
  409MPD2    C5 6160   1.360   0.372  16.584 -0.4610  0.2928 -0.3680
  409MPD2     H 6161   1.511   0.484  16.906  0.0312  1.6237 -0.2159
  409MPD2    H1 6162   1.449   0.546  16.491 -2.7864  1.0860 -0.4461
  409MPD2    H2 6163   1.316   0.190  16.689  0.2729  0.6257 -1.5976
  409MPD2    H3 6164   1.321   0.334  16.491  0.4132  0.4567 -0.8041
  409MPD2     N 6165   1.554   0.661  16.701 -0.0425  0.0679 -0.0083
  409MPD2    H5 6166   1.556   0.714  16.614 -2.8877 -1.3016 -0.8803
  409MPD2    N1 6167   1.398   0.276  16.935 -0.1125  0.0584  0.0462
  409MPD2    H7 6168   1.442   0.326  17.012  2.3983 -0.5725 -0.9828
  410TMC3    C1 6169   1.733   0.812  16.795  0.4011 -0.0006 -0.1065
  410TMC3    C2 6170   1.805   0.843  16.907 -0.0500  0.8075 -0.0908
  410TMC3    C3 6171   1.892   0.954  16.898  0.3926 -0.0262  0.4515
  410TMC3    C4 6172   1.760   0.856  16.670 -0.6571 -0.5318  0.2743
  410TMC3    C5 6173   1.819   0.973  16.671 -0.0913  0.2631  0.2811
  410TMC3    C6 6174   1.885   1.020  16.781 -0.2844  0.5291  0.5856
  410TMC3     C 6175   1.624   0.703  16.813  0.2658  0.9249  0.7388
  410TMC3     O 6176   1.602   0.671  16.931  0.1987  0.2392  0.2266
  410TMC3     H 6177   1.786   0.796  17.003  3.3235  2.6604  1.4543
  410TMC3    H1 6178   1.712   0.814  16.581  0.4398 -0.2058 -0.4706
  410TMC3    H2 6179   1.960   1.099  16.778  0.7700 -0.5956 -2.0714
  410TMC3    C7 6180   1.865   1.033  16.551 -0.2581  1.2525  0.7500
  410TMC3    C8 6181   2.001   0.968  16.996  0.1728 -0.2151  0.0452
  410TMC3    O1 6182   1.887   0.964  16.454 -0.0040  0.0319  0.3764
  410TMC3    O2 6183   2.059   1.077  17.009 -0.1617  0.4130 -0.2470
  411MPD2     C 6184   2.153   2.230  14.169  0.2382 -0.5422  0.6943
  411MPD2    C1 6185   2.038   2.265  14.242 -0.4275 -0.1798 -0.0905
  411MPD2    C2 6186   1.966   2.161  14.285  0.1258  0.5271  0.5475
  411MPD2    C3 6187   1.998   2.031  14.250  0.0653  0.4762 -0.2061
  411MPD2    C4 6188   2.099   2.003  14.162  0.2661 -0.1030 -1.5530
  411MPD2    C5 6189   2.183   2.105  14.131 -0.9705  0.1089  0.5820
  411MPD2     H 6190   1.889   2.172  14.361  0.2791  1.5403  0.5569
  411MPD2    H1 6191   2.120   1.901  14.132 -0.1477 -0.2171 -1.4635
  411MPD2    H2 6192   2.226   2.306  14.143 -1.6503  0.3601 -1.9745
  411MPD2    H3 6193   2.277   2.090  14.078 -0.0061  0.8444  2.0948
  411MPD2     N 6194   1.929   1.918  14.290  0.5797  0.0800  0.2451
  411MPD2    H5 6195   1.978   1.829  14.277 -1.0917 -0.2045 -3.7460
  411MPD2    N1 6196   2.005   2.395  14.261 -0.2494 -0.0037 -0.4938
  411MPD2    H7 6197   2.075   2.460  14.227  1.0785 -0.4244  1.4200
  412TMC3    C1 6198   1.768   1.781  14.396 -0.3956 -0.1657  0.8702
  412TMC3    C2 6199   1.665   1.774  14.478 -0.0763 -1.0361  0.4581
  412TMC3    C3 6200   1.607   1.658  14.507  0.4305  0.3061 -0.1738
  412TMC3    C4 6201   1.810   1.672  14.317 -0.0832  0.4438  0.2402
  412TMC3    C5 6202   1.742   1.564  14.338  0.2775 -0.1511  0.1224
  412TMC3    C6 6203   1.652   1.544  14.441  0.9554  0.1005 -0.1972
  412TMC3     C 6204   1.808   1.915  14.367 -0.3721  0.0762 -1.1297
  412TMC3     O 6205   1.737   2.010  14.408  0.3181  0.2381  0.0678
  412TMC3     H 6206   1.622   1.858  14.529  2.0691  0.6316 -0.4632
  412TMC3    H1 6207   1.895   1.676  14.249 -2.4641 -0.4197 -2.7787
  412TMC3    H2 6208   1.610   1.446  14.461  1.1675 -0.1917 -1.2056
  412TMC3    C7 6209   1.701   1.496  14.215 -0.7042 -0.3026  0.3565
  412TMC3    C8 6210   1.467   1.637  14.539  0.6347 -0.2732  0.8365
  412TMC3    O1 6211   1.785   1.483  14.130  0.2469  0.2816 -0.0490
  412TMC3    O2 6212   1.428   1.522  14.555 -0.1279  0.3610 -0.3405
  413MPD2     C 6213   2.925   0.189  15.709 -0.6302  0.1896 -0.2206
  413MPD2    C1 6214   2.883   0.105  15.612 -0.0595  0.0138  0.8299
  413MPD2    C2 6215   2.974   0.010  15.566  0.1623  0.4515  0.2249
  413MPD2    C3 6216   3.107   0.013  15.610 -0.0920 -0.3755 -0.1166
  413MPD2    C4 6217   3.150   0.114  15.700 -0.3762  0.4100 -0.5376
  413MPD2    C5 6218   3.058   0.206  15.739 -0.4025  0.5649 -0.8819
  413MPD2     H 6219   2.944   4.668  15.502  0.9911  0.6406 -0.3997
  413MPD2    H1 6220   3.251   0.120  15.737 -0.9860  3.0199  0.7338
  413MPD2    H2 6221   2.859   0.264  15.751 -1.4640 -0.3779 -0.5235
  413MPD2    H3 6222   3.093   0.280  15.810 -2.5092  0.2136  0.5244
  413MPD2     N 6223   3.182   4.644  15.560  0.1819 -0.3627 -0.5435
  413MPD2    H5 6224   3.155   4.585  15.482  1.9962 -0.0642 -1.4131
  413MPD2    N1 6225   2.750   0.103  15.571  0.0262 -0.2650  0.0181
  413MPD2    H7 6226   2.679   0.149  15.628 -0.6441 -1.5573  0.2282
  414TMC3    C1 6227   3.358   4.508  15.530 -0.2992  0.1880  0.9995
  414TMC3    C2 6228   3.417   4.403  15.594  0.0970 -0.0119 -0.5495
  414TMC3    C3 6229   3.469   4.307  15.517  0.1475  0.0385  0.2120
  414TMC3    C4 6230   3.334   4.516  15.396  0.1016 -0.0558 -0.1719
  414TMC3    C5 6231   3.390   4.413  15.322 -0.0396 -0.0769  0.1811
  414TMC3    C6 6232   3.454   4.306  15.381  0.1246 -0.3552  0.0174
  414TMC3     C 6233   3.305   4.616  15.607  0.0578 -0.4749 -0.2320
  414TMC3     O 6234   3.363   4.658  15.707  0.5800  0.6562  0.1655
  414TMC3     H 6235   3.440   4.402  15.700  0.8681 -2.6519 -0.7438
  414TMC3    H1 6236   3.308   4.606  15.342  0.4041  0.2348  0.1631
  414TMC3    H2 6237   3.497   4.233  15.313 -1.5658 -0.0270 -1.4002
  414TMC3    C7 6238   3.439   4.450  15.195  0.6960 -0.0657 -0.2158
  414TMC3    C8 6239   3.565   4.214  15.571 -0.4247  0.3174  0.2253
  414TMC3    O1 6240   3.368   4.510  15.116  0.1827  0.0963  0.0136
  414TMC3    O2 6241   3.565   4.105  15.520 -0.2742  0.0183 -0.2575
  415TMC3    C1 6242   4.026   2.528  10.128 -0.1890  0.1497 -0.1507
  415TMC3    C2 6243   4.075   2.601  10.026 -0.1743 -0.3801 -0.1766
  415TMC3    C3 6244   4.072   2.554   9.901  0.1816 -0.6673  0.5960
  415TMC3    C4 6245   3.978   2.406  10.102  0.5722  0.2089  0.1118
  415TMC3    C5 6246   3.974   2.358   9.969 -0.2677  0.1434  0.8944
  415TMC3    C6 6247   4.034   2.427   9.871 -0.4760  0.1721 -0.6234
  415TMC3     C 6248   4.044   2.561  10.268 -0.1187 -0.0248 -0.1146
  415TMC3     O 6249   4.020   2.471  10.346  0.2013  0.0954 -0.0166
  415TMC3     H 6250   4.122   2.697  10.043 -1.1456  0.0776 -0.0375
  415TMC3    H1 6251   3.958   2.333  10.179  1.4979 -0.3373 -0.1694
  415TMC3    H2 6252   4.043   2.389   9.770 -2.1450  3.4759 -1.9941
  415TMC3    C7 6253   3.912   2.234   9.936  0.1969 -0.3368  0.0591
  415TMC3    C8 6254   4.100   2.646   9.792 -1.0315 -0.0784 -0.4593
  415TMC3    O1 6255   3.963   2.180   9.837  0.5841  0.1642  0.4777
  415TMC3    O2 6256   4.043   2.624   9.684  0.1472 -0.2247 -0.2506
  416MPD2     C 6257   0.920   1.623  11.717  0.2033 -0.1751  0.3409
  416MPD2    C1 6258   0.802   1.557  11.745 -0.0508  0.1713 -0.7437
  416MPD2    C2 6259   0.783   1.443  11.664 -0.0545 -0.2851 -0.2969
  416MPD2    C3 6260   0.870   1.401  11.572 -0.4236  0.2959 -0.1912
  416MPD2    C4 6261   0.985   1.476  11.546  0.4342  0.5464 -0.5395
  416MPD2    C5 6262   1.011   1.583  11.621  0.0216  0.1597 -0.2597
  416MPD2     H 6263   0.700   1.376  11.685  1.0818 -1.5425  0.1605
  416MPD2    H1 6264   1.052   1.463  11.462 -0.3322 -1.9372 -0.7806
  416MPD2    H2 6265   0.946   1.712  11.772  1.2376  0.2946 -0.9026
  416MPD2    H3 6266   1.105   1.635  11.605  0.5432 -0.5329  0.4965
  416MPD2     N 6267   0.840   1.291  11.499 -0.2070 -0.2559 -0.6251
  416MPD2    H5 6268   0.755   1.238  11.518  2.3347 -4.2084 -0.3130
  416MPD2    N1 6269   0.706   1.605  11.841 -1.2235  0.4715  0.4011
  416MPD2    H7 6270   0.735   1.680  11.903  1.2382 -1.2280  1.2965
  417TMC3    C1 6271   0.489   1.641  11.918  0.4710  0.6332 -0.2705
  417TMC3    C2 6272   0.533   1.682  12.042  0.5630 -0.6289 -0.1737
  417TMC3    C3 6273   0.454   1.766  12.112 -1.0780 -0.5475 -0.1733
  417TMC3    C4 6274   0.375   1.686  11.868 -0.1015 -0.6702  0.4234
  417TMC3    C5 6275   0.298   1.774  11.942 -0.3477 -0.2111  0.1842
  417TMC3    C6 6276   0.341   1.821  12.058 -0.5149 -0.3092 -0.2903
  417TMC3     C 6277   0.573   1.564  11.829 -0.1274  0.6198  0.0739
  417TMC3     O 6278   0.520   1.503  11.738  0.3410  0.0420 -0.3750
  417TMC3     H 6279   0.616   1.632  12.091  1.2927  0.5656 -0.1940
  417TMC3    H1 6280   0.344   1.648  11.771 -0.3346 -2.4728  1.2190
  417TMC3    H2 6281   0.297   1.904  12.112  0.4883  1.2774 -1.9089
  417TMC3    C7 6282   0.208   1.853  11.862  0.5742  0.3908  0.3179
  417TMC3    C8 6283   0.476   1.784  12.252 -0.3445 -0.0856  0.1748
  417TMC3    O1 6284   0.190   1.834  11.744  0.0301 -0.1910 -0.5120
  417TMC3    O2 6285   0.376   1.812  12.316  0.5037  0.4980 -0.3986
  418TMC3    C1 6286   0.504   3.130   0.227 -0.0514  0.4492 -0.0282
  418TMC3    C2 6287   0.405   3.222   0.233  0.2082  0.3107  0.6445
  418TMC3    C3 6288   0.333   3.223   0.348 -0.2062  0.2823  0.1220
  418TMC3    C4 6289   0.528   3.041   0.332 -0.2973  1.0842  0.0771
  418TMC3    C5 6290   0.457   3.047   0.444  0.0508  0.0107  0.4770
  418TMC3    C6 6291   0.361   3.140   0.460 -0.4744 -0.3992 -0.3889
  418TMC3     C 6292   0.567   3.103   0.097  0.1525 -0.3337  0.3738
  418TMC3     O 6293   0.587   3.198   0.023  0.5282 -0.1302 -0.1630
  418TMC3     H 6294   0.375   3.285   0.149 -1.3329 -0.9315  0.2450
  418TMC3    H1 6295   0.613   2.974   0.332 -1.0979  0.0648  0.2825
  418TMC3    H2 6296   0.294   3.131   0.545  0.9675  1.5047  0.9463
  418TMC3    C7 6297   0.467   2.935   0.542 -0.6590  0.1243 -0.9379
  418TMC3    C8 6298   0.199   3.269   0.330 -0.1035 -0.3139  0.0167
  418TMC3    O1 6299   0.504   2.822   0.498 -0.0800 -0.0795  0.5605
  418TMC3    O2 6300   0.177   3.388   0.329 -0.0929  0.4016 -0.4347
  419MPD2     C 6301   3.180   1.331  12.197  0.7023  0.7316  0.1604
  419MPD2    C1 6302   3.076   1.421  12.201 -0.1749  0.6031 -0.3930
  419MPD2    C2 6303   3.011   1.447  12.319 -0.4632 -0.2632 -0.7233
  419MPD2    C3 6304   3.056   1.387  12.435 -0.7938  0.2810  0.5112
  419MPD2    C4 6305   3.169   1.303  12.427  0.1890  0.4201  0.2889
  419MPD2    C5 6306   3.229   1.277  12.314  0.0302 -0.1297  0.2142
  419MPD2     H 6307   2.937   1.526  12.325  0.5294  0.8105 -2.5840
  419MPD2    H1 6308   3.213   1.252  12.513 -0.0119  2.1159  1.3994
  419MPD2    H2 6309   3.231   1.304  12.106 -0.2840  0.2803 -0.2526
  419MPD2    H3 6310   3.313   1.208  12.309 -0.7146 -1.1337  1.3710
  419MPD2     N 6311   2.974   1.403  12.548 -0.3640 -0.4819 -0.3380
  419MPD2    H5 6312   2.898   1.470  12.547  1.5067  1.6217 -1.4183
  419MPD2    N1 6313   3.026   1.492  12.089 -0.6980 -0.1177  0.2371
  419MPD2    H7 6314   2.951   1.555  12.115  0.2358 -0.5643  4.0059
  420TMC3    C1 6315   2.889   1.363  12.759  0.5618 -0.5425 -0.3907
  420TMC3    C2 6316   2.767   1.418  12.725 -0.6983  0.2783  0.4015
  420TMC3    C3 6317   2.684   1.459  12.824 -0.1314 -0.2727  0.3185
  420TMC3    C4 6318   2.920   1.334  12.895 -0.2853 -0.0871 -0.5786
  420TMC3    C5 6319   2.824   1.374  12.986 -0.4256 -0.0612 -0.5462
  420TMC3    C6 6320   2.720   1.449  12.950 -0.0691 -0.3609 -0.4329
  420TMC3     C 6321   2.990   1.328  12.661  0.4533 -0.2322  1.2921
  420TMC3     O 6322   3.085   1.261  12.697  0.2957 -0.0755  0.2276
  420TMC3     H 6323   2.737   1.424  12.621  0.6582  1.8595  0.1110
  420TMC3    H1 6324   3.004   1.271  12.924 -0.1564 -0.1015 -0.9931
  420TMC3    H2 6325   2.667   1.500  13.029 -1.6385 -2.2261 -0.2929
  420TMC3    C7 6326   2.859   1.385  13.131  0.2561 -0.0563 -0.5155
  420TMC3    C8 6327   2.566   1.540  12.786 -0.2783  0.2394 -0.0303
  420TMC3    O1 6328   2.771   1.415  13.214  0.7939 -0.3044  0.3955
  420TMC3    O2 6329   2.561   1.594  12.678 -0.0688  0.1671  0.3721
  421TMC3    C1 6330   4.062   2.997  13.983 -0.3508 -0.0288 -0.0339
  421TMC3    C2 6331   3.960   3.048  14.052  0.2361  0.2888 -0.3278
  421TMC3    C3 6332   3.983   3.085  14.185 -0.0721  0.8181 -0.7060
  421TMC3    C4 6333   4.185   2.961  14.037  0.1795  0.5720  0.2459
  421TMC3    C5 6334   4.207   3.009  14.165  0.1031 -0.0633  0.4859
  421TMC3    C6 6335   4.109   3.074  14.239 -0.1472 -0.0002 -0.1246
  421TMC3     C 6336   4.086   3.062  13.856  0.6554 -0.3815 -0.0687
  421TMC3     O 6337   4.195   3.114  13.834  0.3720  0.2101  0.6776
  421TMC3     H 6338   3.863   3.062  14.005 -0.6415 -2.5803  0.6085
  421TMC3    H1 6339   4.265   2.927  13.972 -1.0557 -2.2370  0.2001
  421TMC3    H2 6340   4.130   3.114  14.338  0.0351  0.2639 -0.2708
  421TMC3    C7 6341   4.343   3.030  14.197  0.4201  0.3085 -0.2490
  421TMC3    C8 6342   3.914   3.196  14.245  0.3516 -0.9617  0.5568
  421TMC3    O1 6343   4.359   3.133  14.267 -0.1127 -0.4135 -0.2669
  421TMC3    O2 6344   3.917   3.203  14.368  0.5034  0.5500 -0.4068
  422TMC3    C1 6345   0.813   0.913  12.368  0.3209  0.4358 -0.3758
  422TMC3    C2 6346   0.856   0.846  12.477  0.2084 -0.0023 -0.0530
  422TMC3    C3 6347   0.770   0.748  12.531 -0.3353  0.1009 -0.3142
  422TMC3    C4 6348   0.701   0.878  12.300  0.3249  0.0094  0.1372
  422TMC3    C5 6349   0.621   0.780  12.350  0.4718 -0.3513 -0.4976
  422TMC3    C6 6350   0.653   0.710  12.467  0.0251 -0.0222  0.1526
  422TMC3     C 6351   0.908   0.991  12.283  0.0701 -0.2084  0.2630
  422TMC3     O 6352   0.880   1.015  12.169 -0.1495 -0.9662  0.3048
  422TMC3     H 6353   0.944   0.877  12.532 -0.9886 -1.9504  2.9343
  422TMC3    H1 6354   0.687   0.924  12.203 -2.1365 -1.1074 -0.0495
  422TMC3    H2 6355   0.585   0.639  12.513 -1.3011  0.4514 -1.0691
  422TMC3    C7 6356   0.532   0.718  12.254 -0.3478 -0.2707  0.5676
  422TMC3    C8 6357   0.825   0.672  12.635 -0.2448 -0.2178 -0.9220
  422TMC3    O1 6358   0.522   0.776  12.150 -0.7970  0.6328  0.4124
  422TMC3    O2 6359   0.926   0.717  12.693 -0.2767  0.3291  0.1712
  423MPD2     C 6360   3.721   0.141   0.721 -0.4829 -0.0296 -0.3532
  423MPD2    C1 6361   3.638   0.030   0.733 -0.3658 -0.1867 -0.3497
  423MPD2    C2 6362   3.580   4.713   0.622 -0.5790  0.3950 -0.6356
  423MPD2    C3 6363   3.606   0.018   0.498  0.3613  0.1247 -0.2836
  423MPD2    C4 6364   3.698   0.118   0.477  0.0662  0.6544 -0.3515
  423MPD2    C5 6365   3.755   0.171   0.595  0.6415 -0.7345  0.6448
  423MPD2     H 6366   3.508   4.634   0.642  0.9539 -0.5481  1.1514
  423MPD2    H1 6367   3.720   0.157   0.378  0.1128 -0.6197 -0.8499
  423MPD2    H2 6368   3.777   0.181   0.805 -0.2255 -0.0032 -0.5371
  423MPD2    H3 6369   3.831   0.246   0.577  0.6726 -0.3201  2.5647
  423MPD2     N 6370   3.556   4.705   0.370 -0.8066 -0.3750  0.7647
  423MPD2    H5 6371   3.588   0.009   0.285 -0.3279  0.6429  1.4762
  423MPD2    N1 6372   3.612   4.711   0.860  0.2141 -0.2566 -0.2267
  423MPD2    H7 6373   3.551   4.630   0.852 -0.4393  0.3774 -1.6533
  424TMC3    C1 6374   3.651   4.663   1.089  0.7479 -1.3097 -0.0679
  424TMC3    C2 6375   3.755   4.669   1.178 -0.6660 -0.3766  0.1670
  424TMC3    C3 6376   3.753   4.579   1.279  0.5666  0.6752  1.5426
  424TMC3    C4 6377   3.542   4.580   1.089  0.8599  0.6086 -0.1964
  424TMC3    C5 6378   3.544   4.488   1.186 -0.6290  0.7326  0.0048
  424TMC3    C6 6379   3.645   4.489   1.280 -0.5616  0.0000 -0.2344
  424TMC3     C 6380   3.661   0.018   0.980  0.4108 -0.7008 -0.1952
  424TMC3     O 6381   3.722   0.121   1.005 -0.5854  0.0522  0.4785
  424TMC3     H 6382   3.827   0.010   1.176  2.0236 -2.7466  1.8764
  424TMC3    H1 6383   3.474   4.575   1.004 -0.1840  1.1022  0.6020
  424TMC3    H2 6384   3.639   4.409   1.353 -1.9403 -1.6487 -2.1509
  424TMC3    C7 6385   3.461   4.365   1.169 -0.0499 -0.0505  0.4862
  424TMC3    C8 6386   3.869   4.545   1.360 -0.0184  0.0558  0.3860
  424TMC3    O1 6387   3.495   4.267   1.232  0.0306  0.3477  0.2212
  424TMC3    O2 6388   3.871   4.435   1.408 -0.0907  0.1643 -0.0137
  425MPD2     C 6389   2.166   3.949   0.222 -0.0534  0.5083 -0.1403
  425MPD2    C1 6390   2.144   3.874   0.110 -0.2714 -0.3317  0.2950
  425MPD2    C2 6391   2.052   3.916   0.011  1.0613  0.1080 -0.6208
  425MPD2    C3 6392   1.982   4.034   0.031  0.1289  0.0528 -0.3558
  425MPD2    C4 6393   2.004   4.106   0.146 -0.2968 -0.0258  0.5538
  425MPD2    C5 6394   2.097   4.063   0.242 -0.1630  0.2569 -0.1220
  425MPD2     H 6395   2.035   3.848  17.688  1.3472  0.6957 -1.1689
  425MPD2    H1 6396   1.948   4.197   0.167 -0.0209  0.2652  0.0161
  425MPD2    H2 6397   2.234   3.912   0.298  1.3488  1.4504 -0.9447
  425MPD2    H3 6398   2.097   4.102   0.343  3.0154 -0.4368  0.1504
  425MPD2     N 6399   1.896   4.073  17.689 -0.1863  0.0633  0.0131
  425MPD2    H5 6400   1.907   4.035  17.595 -0.8935  0.1920 -0.1230
  425MPD2    N1 6401   2.222   3.758   0.105 -0.0058 -0.3221  0.8612
  425MPD2    H7 6402   2.302   3.755   0.168 -0.6374  2.1722  1.7770
  426TMC3    C1 6403   2.288   3.543   0.057  0.3381  0.3882 -0.9383
  426TMC3    C2 6404   2.345   3.475  17.710 -0.2994  0.0701 -0.0064
  426TMC3    C3 6405   2.417   3.362  17.754 -0.2904  0.4225 -0.1078
  426TMC3    C4 6406   2.292   3.497   0.186 -0.3110 -0.7363 -0.1718
  426TMC3    C5 6407   2.362   3.387   0.220  0.1784  0.0716  0.2369
  426TMC3    C6 6408   2.433   3.323   0.126 -0.3615  0.2486 -0.0033
  426TMC3     C 6409   2.214   3.658   0.015 -0.3673 -0.3317  0.5475
  426TMC3     O 6410   2.150   3.647  17.671 -0.0223 -0.1081  0.3809
  426TMC3     H 6411   2.329   3.510  17.608 -4.6740 -2.0761 -0.0573
  426TMC3    H1 6412   2.235   3.547   0.263  0.4060  1.1725 -0.8775
  426TMC3    H2 6413   2.498   3.242   0.154 -2.1546 -0.5726  1.7891
  426TMC3    C7 6414   2.370   3.323   0.348 -0.2251  0.8618  0.1206
  426TMC3    C8 6415   2.477   3.288  17.647  0.0378  0.7531 -0.1030
  426TMC3    O1 6416   2.406   3.202   0.349 -0.2951  0.0274 -0.6411
  426TMC3    O2 6417   2.474   3.344  17.544  0.7739 -0.3674  0.3667
  427MPD2     C 6418   0.646   2.379  14.935  0.2851  0.4324  0.3322
  427MPD2    C1 6419   0.646   2.255  14.992 -0.8704  0.5592 -0.1477
  427MPD2    C2 6420   0.522   2.189  14.996 -0.3251 -0.4578 -0.0546
  427MPD2    C3 6421   0.406   2.248  14.948 -0.3257 -0.3561  0.9452
  427MPD2    C4 6422   0.416   2.368  14.881  0.2666  0.3092  0.0905
  427MPD2    C5 6423   0.530   2.432  14.878 -0.0604 -0.4122  0.0152
  427MPD2     H 6424   0.526   2.083  15.016 -1.7561 -0.3367  0.8585
  427MPD2    H1 6425   0.326   2.411  14.840  1.0049  1.4007 -0.3951
  427MPD2    H2 6426   0.733   2.443  14.925 -1.2815  2.7915  1.9889
  427MPD2    H3 6427   0.534   2.528  14.827  2.0316 -0.4926  0.0155
  427MPD2     N 6428   0.284   2.180  14.950  0.1687 -0.4258  0.6013
  427MPD2    H5 6429   0.204   2.221  14.903  2.6565  2.5004 -1.1151
  427MPD2    N1 6430   0.759   2.193  15.054 -0.4726  0.2021  0.2394
  427MPD2    H7 6431   0.748   2.103  15.099 -0.7935 -0.0109 -0.2641
  428TMC3    C1 6432   0.981   2.145  15.120 -0.3314 -0.0113  0.2125
  428TMC3    C2 6433   0.952   2.087  15.239 -0.5968  0.1410 -0.4096
  428TMC3    C3 6434   1.039   1.996  15.282  0.8145  0.2725  0.5841
  428TMC3    C4 6435   1.102   2.123  15.051  0.4848  0.7746 -0.4206
  428TMC3    C5 6436   1.180   2.015  15.098  0.3521  0.1883  0.3216
  428TMC3    C6 6437   1.146   1.949  15.210 -0.5082 -0.4796  0.2137
  428TMC3     C 6438   0.886   2.232  15.045  0.1706 -0.0577  0.1848
  428TMC3     O 6439   0.933   2.305  14.958  0.2590  0.2304 -0.0232
  428TMC3     H 6440   0.877   2.130  15.304  0.1884  2.3510 -0.9804
  428TMC3    H1 6441   1.118   2.182  14.961 -0.2381  1.8036  0.1323
  428TMC3    H2 6442   1.197   1.860  15.245 -1.2202 -0.8228  0.3877
  428TMC3    C7 6443   1.324   2.005  15.066  0.2813 -0.3590  0.3316
  428TMC3    C8 6444   1.015   1.935  15.410  0.5422 -0.1607  0.0752
  428TMC3    O1 6445   1.387   1.943  15.154  0.3518 -0.1853 -0.1868
  428TMC3    O2 6446   0.905   1.893  15.425  0.0117 -0.2437 -0.3624
  429MPD2     C 6447   1.942   1.490  17.651 -0.4667  0.2333  0.2438
  429MPD2    C1 6448   2.024   1.415  17.574  0.0234 -0.0740 -0.4344
  429MPD2    C2 6449   2.138   1.463  17.514 -0.6966 -0.0779 -0.5286
  429MPD2    C3 6450   2.164   1.589  17.521  0.2785 -0.3304 -0.3810
  429MPD2    C4 6451   2.090   1.674  17.598  0.2709  0.0964  0.4652
  429MPD2    C5 6452   1.977   1.627  17.664 -0.2925  0.5503  0.3481
  429MPD2     H 6453   2.198   1.397  17.452 -0.9781 -0.1035 -0.7676
  429MPD2    H1 6454   2.115   1.779  17.612 -0.4106  0.4222 -0.6818
  429MPD2    H2 6455   1.853   1.444  17.691  1.3338 -2.2458  1.4213
  429MPD2    H3 6456   1.921   1.686  17.735 -1.4018 -0.0275 -0.0457
  429MPD2     N 6457   2.277   1.630  17.444  0.4575  0.3944  0.6552
  429MPD2    H5 6458   2.326   1.557  17.394 -0.3980  0.5632 -0.4140
  429MPD2    N1 6459   1.999   1.276  17.560 -0.3095 -0.3046 -0.1390
  429MPD2    H7 6460   2.059   1.222  17.498 -2.6662 -2.8729 -0.1654
  430TMC3    C1 6461   2.419   1.757  17.308  0.2935 -0.1729 -0.2394
  430TMC3    C2 6462   2.403   1.865  17.222  0.4231 -0.1688 -1.0548
  430TMC3    C3 6463   2.468   1.863  17.098  0.1822 -0.0054  0.4644
  430TMC3    C4 6464   2.478   1.642  17.262 -1.0130  2.0605  0.1804
  430TMC3    C5 6465   2.541   1.642  17.139  0.1756 -0.6588  0.1720
  430TMC3    C6 6466   2.538   1.752  17.057  0.2748 -0.6385  0.6862
  430TMC3     C 6467   2.318   1.758  17.414  0.6863  0.0957  0.4749
  430TMC3     O 6468   2.271   1.864  17.455  0.4616  0.3076  0.5192
  430TMC3     H 6469   2.327   1.942  17.230 -0.1623 -0.8923  0.1687
  430TMC3    H1 6470   2.487   1.553  17.324 -1.4525  0.5452 -1.9154
  430TMC3    H2 6471   2.590   1.758  16.962 -2.0142  1.5604 -0.4304
  430TMC3    C7 6472   2.501   1.522  17.073 -0.3881  0.1652 -0.0801
  430TMC3    C8 6473   2.396   1.915  16.991  0.5330 -0.0463 -0.4416
  430TMC3    O1 6474   2.489   1.414  17.128 -0.3711 -0.3715 -0.0345
  430TMC3    O2 6475   2.389   1.847  16.892 -0.2115  0.1577 -0.1457
  431MPD2     C 6476   2.617   1.958  12.418 -0.8868 -0.2709  0.0073
  431MPD2    C1 6477   2.686   2.018  12.321  0.0086 -0.3591  0.2972
  431MPD2    C2 6478   2.695   1.955  12.198 -0.6772  0.4357 -0.0493
  431MPD2    C3 6479   2.636   1.832  12.173 -0.7088  0.2314  0.4924
  431MPD2    C4 6480   2.574   1.770  12.278  0.1456 -0.5876 -0.0179
  431MPD2    C5 6481   2.557   1.836  12.397  0.0958  0.4341 -0.2161
  431MPD2     H 6482   2.755   2.011  12.127  3.1198 -4.3685 -0.6125
  431MPD2    H1 6483   2.528   1.673  12.261  0.3850 -1.3598  3.7381
  431MPD2    H2 6484   2.602   2.003  12.516  0.0043  0.1734 -0.0663
  431MPD2    H3 6485   2.504   1.790  12.480  0.2804 -2.0936 -1.4974
  431MPD2     N 6486   2.664   1.757  12.057 -0.0532 -0.3869  0.4022
  431MPD2    H5 6487   2.625   1.663  12.057 -0.8180 -0.0775  0.6129
  431MPD2    N1 6488   2.758   2.132  12.331 -0.1338  0.1613  0.2453
  431MPD2    H7 6489   2.823   2.164  12.259 -1.5031 -0.0027 -1.0735
  432TMC3    C1 6490   2.802   1.708  11.859  0.0302  0.3913  1.4146
  432TMC3    C2 6491   2.860   1.767  11.751  0.6810 -0.2350  0.0178
  432TMC3    C3 6492   2.978   1.720  11.700 -0.0583 -0.2203 -0.2999
  432TMC3    C4 6493   2.868   1.606  11.921  0.1885  0.4065 -0.1316
  432TMC3    C5 6494   2.985   1.549  11.866  0.4360  0.1684  0.1653
  432TMC3    C6 6495   3.045   1.611  11.759 -0.9938  0.0987  0.6567
  432TMC3     C 6496   2.745   1.805  11.951 -1.0247 -0.6641 -0.3774
  432TMC3     O 6497   2.794   1.919  11.930  0.2774 -0.3633  0.3961
  432TMC3     H 6498   2.814   1.856  11.709  0.5017 -0.3341  0.0036
  432TMC3    H1 6499   2.819   1.557  12.004  1.8877 -1.0971 -0.0072
  432TMC3    H2 6500   3.137   1.572  11.717 -1.3867  0.4935 -0.5687
  432TMC3    C7 6501   3.064   1.477  11.958 -0.1026  0.0344 -0.0448
  432TMC3    C8 6502   3.050   1.811  11.615 -0.5256  0.3375 -0.3043
  432TMC3    O1 6503   3.167   1.427  11.915 -0.2242  0.1329 -0.1460
  432TMC3    O2 6504   2.975   1.885  11.548 -0.7977 -0.3136  0.1216
  433MPD2     C 6505   1.432   0.391  10.864 -0.6060  0.3326  0.1196
  433MPD2    C1 6506   1.562   0.430  10.835  0.5245  0.5287  0.2132
  433MPD2    C2 6507   1.620   0.537  10.904  0.1896 -0.2015  0.4416
  433MPD2    C3 6508   1.542   0.616  10.989 -0.2091 -0.1217  0.8180
  433MPD2    C4 6509   1.411   0.586  11.008 -0.7077  0.4492 -0.1723
  433MPD2    C5 6510   1.360   0.475  10.946 -0.4922  0.0710  0.0615
  433MPD2     H 6511   1.725   0.563  10.897 -0.4781  1.7970 -2.1387
  433MPD2    H1 6512   1.354   0.636  11.086  0.7977  0.8731  0.6515
  433MPD2    H2 6513   1.383   0.297  10.842 -0.2167  0.3418 -0.7826
  433MPD2    H3 6514   1.255   0.451  10.959 -0.7657  0.2431 -1.8774
  433MPD2     N 6515   1.613   0.717  11.055  0.0878  0.1157  0.2886
  433MPD2    H5 6516   1.714   0.707  11.053  0.2213  1.2207  1.7632
  433MPD2    N1 6517   1.646   0.352  10.744 -0.3037 -0.7288  0.2066
  433MPD2    H7 6518   1.605   0.264  10.715  1.9707 -1.7365  0.0792
  434TMC3    C1 6519   1.854   0.273  10.678  0.0649  0.1373 -0.1828
  434TMC3    C2 6520   1.963   0.256  10.763 -0.2260  0.9956 -0.0292
  434TMC3    C3 6521   2.008   0.131  10.781 -0.2949 -1.0259 -0.2655
  434TMC3    C4 6522   1.808   0.173  10.602  0.0798  0.2776  0.0902
  434TMC3    C5 6523   1.868   0.051  10.610 -0.0735 -0.3165  0.2525
  434TMC3    C6 6524   1.957   0.024  10.711  0.0198 -0.0356  0.4546
  434TMC3     C 6525   1.772   0.388  10.692 -0.7053 -1.1462 -0.1176
  434TMC3     O 6526   1.836   0.493  10.708 -0.0371  0.3271  0.7766
  434TMC3     H 6527   2.004   0.340  10.818  0.1433  0.3159  0.7425
  434TMC3    H1 6528   1.728   0.195  10.532 -0.3775  1.5044  1.0135
  434TMC3    H2 6529   2.008   4.669  10.710  3.8974  2.0251  0.2792
  434TMC3    C7 6530   1.797   4.685  10.542 -1.0833 -0.3326  0.0333
  434TMC3    C8 6531   2.083   0.107  10.898  0.9507 -0.3151 -0.1075
  434TMC3    O1 6532   1.717   4.717  10.461  0.4090  0.1156 -0.7001
  434TMC3    O2 6533   2.100   0.206  10.971 -0.6618  0.5554 -0.0771
  435MPD2     C 6534   4.047   0.335  15.644 -1.0822 -0.1061  0.2184
  435MPD2    C1 6535   4.035   0.341  15.784  0.1591 -0.1145 -0.0513
  435MPD2    C2 6536   4.135   0.294  15.862 -0.8609  0.0132  0.7028
  435MPD2    C3 6537   4.235   0.227  15.814  0.5020  0.4781  0.1204
  435MPD2    C4 6538   4.247   0.212  15.678 -0.1941  0.0269  0.1087
  435MPD2    C5 6539   4.158   0.272  15.599 -0.0872  0.0249  0.3762
  435MPD2     H 6540   4.122   0.298  15.970  1.2760  1.6059  0.8831
  435MPD2    H1 6541   4.327   0.155  15.631 -2.1578 -2.3471 -0.3119
  435MPD2    H2 6542   3.978   0.381  15.575  0.1530  1.9440  0.3346
  435MPD2    H3 6543   4.181   0.275  15.493 -2.1727 -3.0910 -0.1648
  435MPD2     N 6544   4.335   0.183  15.902  0.2496 -0.1946 -0.7025
  435MPD2    H5 6545   4.325   0.216  15.997 -2.4870 -1.3874 -0.5636
  435MPD2    N1 6546   3.918   0.400  15.841 -0.6116 -0.0328 -0.4263
  435MPD2    H7 6547   3.909   0.398  15.942  0.4090 -1.5162 -0.3719
  436TMC3    C1 6548   3.677   0.604  16.095 -0.0278 -0.6760  0.2740
  436TMC3    C2 6549   3.747   0.518  16.010 -0.2115 -0.5304  0.4399
  436TMC3    C3 6550   3.716   0.514  15.874 -0.1082 -0.4107 -0.8964
  436TMC3    C4 6551   3.576   0.682  16.039 -0.5032 -0.4043 -0.1617
  436TMC3    C5 6552   3.535   0.665  15.915 -0.3068 -0.1329 -0.3115
  436TMC3    C6 6553   3.611   0.587  15.826  0.2030  0.5797 -0.0958
  436TMC3     C 6554   3.719   0.622  16.227  0.1353 -0.0474 -0.4074
  436TMC3     O 6555   3.840   0.620  16.251  0.2462  0.1676 -0.1286
  436TMC3     H 6556   3.839   0.474  16.046 -0.3608  0.4060  1.9742
  436TMC3    H1 6557   3.520   0.755  16.096  1.5698 -0.2507  1.6854
  436TMC3    H2 6558   3.580   0.582  15.723  4.7091 -1.0045 -1.3592
  436TMC3    C7 6559   3.418   0.728  15.861 -0.5299 -0.1203 -0.2133
  436TMC3    C8 6560   3.812   0.460  15.777  0.5779 -0.0392  0.3777
  436TMC3    O1 6561   3.416   0.737  15.740  0.0019 -0.0351 -0.7109
  436TMC3    O2 6562   3.791   0.492  15.661  0.4551 -0.1748 -0.0296
  437TMC3    C1 6563   2.208   2.702  12.823  0.1170 -0.4279 -0.3613
  437TMC3    C2 6564   2.086   2.754  12.829 -0.2917  0.1695 -0.0856
  437TMC3    C3 6565   2.057   2.861  12.752  0.6372 -0.2737  0.0249
  437TMC3    C4 6566   2.311   2.759  12.746  0.3822  0.3061  0.9581
  437TMC3    C5 6567   2.281   2.865  12.665 -0.2852  1.0525 -0.7049
  437TMC3    C6 6568   2.150   2.916  12.663 -0.5461  1.0450  0.1725
  437TMC3     C 6569   2.240   2.570  12.890 -0.4122 -0.2324  0.6060
  437TMC3     O 6570   2.348   2.526  12.855  0.3132  0.5457  0.3813
  437TMC3     H 6571   2.006   2.700  12.877  0.7347 -1.3206 -0.0682
  437TMC3    H1 6572   2.405   2.704  12.746  0.5536  0.6009  0.2658
  437TMC3    H2 6573   2.123   3.003  12.603 -0.6539  0.1072 -1.1543
  437TMC3    C7 6574   2.378   2.964  12.626  0.3475  0.4978 -0.4588
  437TMC3    C8 6575   1.918   2.914  12.751 -0.2004 -0.0856 -0.2121
  437TMC3    O1 6576   2.336   3.078  12.604  0.5189 -0.0251 -0.2913
  437TMC3    O2 6577   1.903   3.027  12.710  0.6952 -0.2868 -0.1889
  438MPD2     C 6578   0.119   3.027  16.796  0.2460  0.0866  0.1219
  438MPD2    C1 6579   0.193   2.914  16.818  0.7994  0.6985 -0.2009
  438MPD2    C2 6580   0.248   2.904  16.943 -0.1417 -0.3006  0.7156
  438MPD2    C3 6581   0.233   3.007  17.036  0.0568  0.5192  0.3882
  438MPD2    C4 6582   0.167   3.121  17.005  0.5462 -0.4094 -0.4179
  438MPD2    C5 6583   0.117   3.128  16.884  0.3891  0.0026  0.6612
  438MPD2     H 6584   0.295   2.813  16.979  0.5641 -0.6373 -1.0541
  438MPD2    H1 6585   0.142   3.206  17.067  0.3486 -0.6786 -0.1269
  438MPD2    H2 6586   0.058   3.043  16.708  2.1472  1.3691 -0.9628
  438MPD2    H3 6587   0.068   3.218  16.849  1.0042 -0.6625 -1.8978
  438MPD2     N 6588   0.271   2.997  17.173 -0.1907 -0.7598  0.7777
  438MPD2    H5 6589   0.240   3.067  17.240 -2.5705 -0.2108 -0.8501
  438MPD2    N1 6590   0.204   2.799  16.734 -0.1560 -0.3518  0.0974
  438MPD2    H7 6591   0.268   2.726  16.760  0.2345  1.0459  3.0243
  439TMC3    C1 6592   0.201   2.670  16.538  0.3254 -0.6466  0.1152
  439TMC3    C2 6593   0.168   2.645  16.409  0.1488  0.3051 -0.3846
  439TMC3    C3 6594   0.226   2.547  16.336  0.6319 -0.2446 -0.0142
  439TMC3    C4 6595   0.279   2.574  16.604 -0.4190 -0.1537  0.2157
  439TMC3    C5 6596   0.330   2.472  16.528  0.3140 -0.2665 -0.3450
  439TMC3    C6 6597   0.306   2.460  16.397 -0.3642  0.4579  0.0705
  439TMC3     C 6598   0.145   2.787  16.613 -0.0457 -0.5261  0.6075
  439TMC3     O 6599   0.077   2.864  16.546 -0.6723  0.0934 -0.2700
  439TMC3     H 6600   0.111   2.725  16.363 -0.8750 -1.0026 -1.3850
  439TMC3    H1 6601   0.305   2.566  16.709  1.4269  1.5080 -0.1189
  439TMC3    H2 6602   0.351   2.383  16.336 -0.3213 -0.0822  0.7720
  439TMC3    C7 6603   0.443   2.404  16.588 -0.4213  0.0222 -0.2308
  439TMC3    C8 6604   0.237   2.548  16.191 -0.1566 -0.1898 -0.2017
  439TMC3    O1 6605   0.513   2.467  16.669  0.5987  0.1065  0.0042
  439TMC3    O2 6606   0.287   2.454  16.136  0.2528  0.2225  0.0969
  440MPD2     C 6607   3.366   3.694  15.263  0.1044  0.3881 -0.3870
  440MPD2    C1 6608   3.427   3.797  15.329 -0.0089  0.4816  0.7379
  440MPD2    C2 6609   3.553   3.780  15.374 -0.6877  0.5164  0.4767
  440MPD2    C3 6610   3.634   3.667  15.338  0.0739 -1.0512 -0.5630
  440MPD2    C4 6611   3.569   3.565  15.273  0.2917 -0.3894  0.1194
  440MPD2    C5 6612   3.442   3.579  15.232  0.1148 -0.0914 -0.5795
  440MPD2     H 6613   3.603   3.860  15.429  0.9321 -0.6397  0.6958
  440MPD2    H1 6614   3.601   3.462  15.256 -0.8965 -0.6645 -0.4651
  440MPD2    H2 6615   3.263   3.699  15.228  0.8238 -0.4200 -2.6521
  440MPD2    H3 6616   3.390   3.501  15.178  2.7349 -0.8978 -1.9095
  440MPD2     N 6617   3.767   3.654  15.369  0.5658  0.7923 -0.3130
  440MPD2    H5 6618   3.812   3.565  15.350 -1.0636 -0.6592  2.6851
  440MPD2    N1 6619   3.361   3.909  15.375 -0.2394 -0.6760 -0.0473
  440MPD2    H7 6620   3.399   3.962  15.454 -0.5864  0.1066 -0.3977
  441TMC3    C1 6621   3.989   3.721  15.397  0.2934  0.3628  0.0847
  441TMC3    C2 6622   4.067   3.830  15.395  0.2363  0.8142 -0.6087
  441TMC3    C3 6623   4.170   3.844  15.481  0.0637  0.8973  0.3145
  441TMC3    C4 6624   4.030   3.620  15.475  0.5420 -0.2506  0.9119
  441TMC3    C5 6625   4.151   3.625  15.549  0.0399 -0.1290 -0.3376
  441TMC3    C6 6626   4.223   3.736  15.548  0.4855  0.3587 -0.5894
  441TMC3     C 6627   3.851   3.760  15.394 -0.5065  0.2597  0.0557
  441TMC3     O 6628   3.834   3.883  15.413  0.2922  0.1740  0.5208
  441TMC3     H 6629   4.040   3.911  15.328  0.7965 -0.0284 -1.8663
  441TMC3    H1 6630   3.965   3.540  15.507  1.1280 -0.6708  1.0428
  441TMC3    H2 6631   4.322   3.748  15.591 -0.7828  2.6471  1.7112
  441TMC3    C7 6632   4.113   3.585  15.681  0.7533  0.7279 -0.6806
  441TMC3    C8 6633   4.153   3.944  15.579  0.2325 -0.4614 -0.1915
  441TMC3    O1 6634   4.056   3.475  15.702 -0.3445  0.1961 -0.0262
  441TMC3    O2 6635   4.230   3.942  15.675  0.2102  0.1342  0.2343
  442MPD2     C 6636   1.787   3.853  16.932 -0.4465 -0.3962 -0.3280
  442MPD2    C1 6637   1.748   3.866  16.798  0.0672 -0.1157  0.5047
  442MPD2    C2 6638   1.765   3.754  16.721 -0.8275 -0.2668 -0.0562
  442MPD2    C3 6639   1.829   3.643  16.766 -0.6962  0.8585  0.5904
  442MPD2    C4 6640   1.885   3.632  16.887  0.0392 -0.0064  0.2450
  442MPD2    C5 6641   1.860   3.737  16.973  0.1798 -0.1884  0.6260
  442MPD2     H 6642   1.740   3.756  16.616 -0.5357 -2.0180 -0.1481
  442MPD2    H1 6643   1.941   3.547  16.923  0.1214  0.3538  0.9629
  442MPD2    H2 6644   1.772   3.931  17.006  4.5319 -1.4963  1.8186
  442MPD2    H3 6645   1.896   3.733  17.075 -0.4389  3.5381  0.9893
  442MPD2     N 6646   1.846   3.530  16.688  0.1638 -0.2429  0.5436
  442MPD2    H5 6647   1.893   3.460  16.744  2.6103  0.9996  0.0262
  442MPD2    N1 6648   1.672   3.968  16.749 -0.1707 -0.0233 -0.6332
  442MPD2    H7 6649   1.640   3.969  16.653 -0.8118  1.9942 -0.3973
  443TMC3    C1 6650   1.539   4.157  16.755 -0.3343  0.3764  0.2207
  443TMC3    C2 6651   1.550   4.196  16.623 -0.0229 -0.1262 -0.8565
  443TMC3    C3 6652   1.457   4.282  16.568 -0.0236 -0.3863 -0.7463
  443TMC3    C4 6653   1.430   4.203  16.829 -0.0323  0.0467  0.2104
  443TMC3    C5 6654   1.332   4.287  16.773 -0.2385  0.5584  0.1879
  443TMC3    C6 6655   1.349   4.325  16.641 -0.0926 -0.1106  0.0265
  443TMC3     C 6656   1.641   4.083  16.823 -0.2237  0.0051 -0.1943
  443TMC3     O 6657   1.689   4.130  16.925  0.5236 -0.0860 -0.0791
  443TMC3     H 6658   1.629   4.158  16.559  0.9812 -0.2637  0.4580
  443TMC3    H1 6659   1.425   4.165  16.931 -0.9630  0.1003  0.1845
  443TMC3    H2 6660   1.268   4.381  16.595 -0.0061 -0.9781 -1.1734
  443TMC3    C7 6661   1.204   4.231  16.787 -0.5432 -0.4547  0.1904
  443TMC3    C8 6662   1.444   4.274  16.426 -0.1030 -0.0653  0.1914
  443TMC3    O1 6663   1.155   4.186  16.683 -0.0402 -0.6299 -0.3126
  443TMC3    O2 6664   1.477   4.169  16.381 -0.6473  0.0300 -0.0307
  444MPD2     C 6665   2.132   3.130  17.152  0.2542  0.3627  0.6527
  444MPD2    C1 6666   2.091   3.096  17.024  0.1285 -0.4607 -1.0096
  444MPD2    C2 6667   2.143   2.986  16.965 -0.5606 -0.3147  0.3662
  444MPD2    C3 6668   2.236   2.911  17.033  0.1349 -0.1064  0.2154
  444MPD2    C4 6669   2.287   2.948  17.158 -0.0533 -1.0825  0.0283
  444MPD2    C5 6670   2.227   3.059  17.220  0.2936  0.4958 -0.3414
  444MPD2     H 6671   2.112   2.948  16.868 -1.4989  0.9610  0.1760
  444MPD2    H1 6672   2.354   2.888  17.219 -0.1807 -1.4766 -0.2198
  444MPD2    H2 6673   2.088   3.213  17.206  1.3997  1.8524 -0.7286
  444MPD2    H3 6674   2.244   3.086  17.324 -1.2873  1.9657 -0.4618
  444MPD2     N 6675   2.287   2.798  16.959  0.1252  0.1189 -0.3606
  444MPD2    H5 6676   2.250   2.784  16.866 -0.8158  0.2348 -0.0030
  444MPD2    N1 6677   1.976   3.147  16.963 -0.2220 -0.4400  0.3220
  444MPD2    H7 6678   1.939   3.092  16.887 -1.0258 -0.3879  0.6811
  445TMC3    C1 6679   2.435   2.617  16.900  0.1839  0.2084 -0.0550
  445TMC3    C2 6680   2.360   2.585  16.788  0.3739  0.0239 -0.0874
  445TMC3    C3 6681   2.413   2.497  16.696 -0.4568 -0.0910  0.0304
  445TMC3    C4 6682   2.557   2.561  16.922  0.0350  1.0156 -0.0383
  445TMC3    C5 6683   2.612   2.474  16.826 -0.1860 -0.5446  0.1364
  445TMC3    C6 6684   2.544   2.451  16.710 -0.0860 -0.1269  0.1528
  445TMC3     C 6685   2.381   2.706  17.006  0.2710 -0.2775 -0.1203
  445TMC3     O 6686   2.425   2.699  17.115 -0.6994 -0.0471  0.5907
  445TMC3     H 6687   2.256   2.613  16.779  0.4632  0.1143 -0.8349
  445TMC3    H1 6688   2.618   2.576  17.010 -0.0830  3.1635 -0.3176
  445TMC3    H2 6689   2.591   2.412  16.620  2.6467  1.7903  0.7377
  445TMC3    C7 6690   2.758   2.483  16.800 -0.2351  0.3383  0.0720
  445TMC3    C8 6691   2.343   2.471  16.573  0.2166  0.1635  0.1552
  445TMC3    O1 6692   2.825   2.562  16.866  0.4005  0.5733  0.2774
  445TMC3    O2 6693   2.288   2.565  16.508  0.4764  0.7389 -0.4744
  446MPD2     C 6694   1.795   4.483  11.288 -0.6612 -0.1155 -0.6692
  446MPD2    C1 6695   1.748   4.561  11.190  0.2693 -0.6642 -1.1747
  446MPD2    C2 6696   1.794   4.688  11.174  0.0331 -0.5906 -0.1871
  446MPD2    C3 6697   1.875   0.008  11.267 -0.6088  0.2036 -0.3323
  446MPD2    C4 6698   1.925   4.669  11.372  1.3354 -0.5730  0.3122
  446MPD2    C5 6699   1.888   4.534  11.372 -0.7387  0.1538 -0.4687
  446MPD2     H 6700   1.742   0.017  11.110 -0.4185 -0.1306  0.6714
  446MPD2    H1 6701   1.994   4.701  11.449 -1.0815 -1.4840  2.8601
  446MPD2    H2 6702   1.760   4.382  11.306  0.3732 -0.2605  0.4792
  446MPD2    H3 6703   1.912   4.462  11.449 -1.1846 -0.0788 -0.5509
  446MPD2     N 6704   1.910   0.145  11.268  0.8610 -0.0124  0.1746
  446MPD2    H5 6705   1.968   0.170  11.347 -0.3125  0.0998  0.9823
  446MPD2    N1 6706   1.657   4.509  11.098  0.3305  0.1196  0.5703
  446MPD2    H7 6707   1.640   4.569  11.018  0.8760 -0.5651 -0.0561
  447TMC3    C1 6708   1.960   0.358  11.176 -0.1529  0.5812 -0.1371
  447TMC3    C2 6709   1.933   0.467  11.087  0.7154  0.3777  0.2376
  447TMC3    C3 6710   2.026   0.563  11.070  0.2695 -0.1598  0.2806
  447TMC3    C4 6711   2.079   0.351  11.241 -0.6805  0.1712  0.0188
  447TMC3    C5 6712   2.172   0.450  11.211  0.3292 -0.0155  0.3890
  447TMC3    C6 6713   2.148   0.554  11.124  0.2937  0.4112  0.5314
  447TMC3     C 6714   1.870   0.244  11.176 -0.1687  1.2515  0.0560
  447TMC3     O 6715   1.768   0.244  11.105  0.1273 -0.3990 -0.5794
  447TMC3     H 6716   1.844   0.467  11.026 -0.3048  0.9689  1.7307
  447TMC3    H1 6717   2.106   0.272  11.310 -0.7113 -0.0354 -0.2024
  447TMC3    H2 6718   2.225   0.627  11.103  3.2756 -2.7341  0.6528
  447TMC3    C7 6719   2.309   0.429  11.260 -0.1598  0.2501  0.6967
  447TMC3    C8 6720   1.989   0.681  10.998 -0.1593  0.5494 -0.9060
  447TMC3    O1 6721   2.342   0.314  11.269  0.3196 -0.4907  0.4013
  447TMC3    O2 6722   1.872   0.714  10.994  0.6909  0.0632  0.5334
  448TMC3    C1 6723   0.763   4.473  16.736 -0.7571 -0.3620 -1.1900
  448TMC3    C2 6724   0.692   4.357  16.717  0.0957 -0.1186 -0.1512
  448TMC3    C3 6725   0.679   4.274  16.828  0.1683 -0.6182 -0.5124
  448TMC3    C4 6726   0.807   4.519  16.854 -0.2537 -0.0772 -0.2085
  448TMC3    C5 6727   0.790   4.436  16.966 -0.3019 -0.0572  0.0267
  448TMC3    C6 6728   0.726   4.314  16.953 -0.4320  0.5231  0.9737
  448TMC3     C 6729   0.774   4.573  16.628  0.3426  0.2267 -0.3178
  448TMC3     O 6730   0.868   4.652  16.640  0.8132 -0.4157  0.2066
  448TMC3     H 6731   0.666   4.333  16.614  0.0674 -0.7236 -0.0013
  448TMC3    H1 6732   0.848   4.617  16.876 -1.4035  0.2733  0.3920
  448TMC3    H2 6733   0.719   4.241  17.033  0.6824 -1.3390 -0.6321
  448TMC3    C7 6734   0.858   4.469  17.094  0.1606 -0.2541 -0.9544
  448TMC3    C8 6735   0.586   4.162  16.825 -0.3099 -0.3918  0.1764
  448TMC3    O1 6736   0.969   4.523  17.080  0.0822 -0.3567  0.2721
  448TMC3    O2 6737   0.567   4.096  16.927  0.3685 -0.0005 -0.0279
  449MPD2     C 6738   1.426   3.570  13.828 -0.2340 -0.4118  0.7469
  449MPD2    C1 6739   1.336   3.464  13.847  0.4471 -0.2743  0.2705
  449MPD2    C2 6740   1.372   3.359  13.933 -0.0288  0.2694 -0.3477
  449MPD2    C3 6741   1.482   3.370  14.022 -0.5746 -0.5336 -0.2178
  449MPD2    C4 6742   1.558   3.491  14.021 -0.3264 -0.1323  0.1281
  449MPD2    C5 6743   1.534   3.580  13.920  0.2232 -0.5789  0.0615
  449MPD2     H 6744   1.305   3.274  13.943 -1.4080  1.3995  0.0778
  449MPD2    H1 6745   1.628   3.518  14.099  0.0710  1.5445 -0.8096
  449MPD2    H2 6746   1.414   3.647  13.752 -1.0376 -0.4695  0.8245
  449MPD2    H3 6747   1.591   3.671  13.906 -1.1969  0.5078  1.2882
  449MPD2     N 6748   1.492   3.265  14.108  0.0926 -0.7670  1.0788
  449MPD2    H5 6749   1.441   3.179  14.091  1.5512 -1.0245 -2.0100
  449MPD2    N1 6750   1.230   3.443  13.762  0.5269 -0.1495 -0.4634
  449MPD2    H7 6751   1.186   3.355  13.789  0.0005 -0.4099 -2.1843
  450TMC3    C1 6752   1.074   3.465  13.587  0.6367 -1.2414  0.4157
  450TMC3    C2 6753   1.100   3.421  13.458 -0.6470 -0.2527  0.2857
  450TMC3    C3 6754   1.078   3.290  13.431  0.0070 -0.1048  0.6274
  450TMC3    C4 6755   1.013   3.380  13.678 -0.9392  0.0837  0.6397
  450TMC3    C5 6756   0.991   3.247  13.638  0.0844 -0.2915 -0.3115
  450TMC3    C6 6757   1.036   3.195  13.523 -0.5193  0.0753  0.6565
  450TMC3     C 6758   1.196   3.516  13.647 -0.0949  0.2683 -0.6749
  450TMC3     O 6759   1.255   3.610  13.595 -0.5134 -0.1585 -0.0848
  450TMC3     H 6760   1.142   3.494  13.390 -0.3639 -0.8586 -0.1911
  450TMC3    H1 6761   0.981   3.418  13.775  1.5779 -0.8762  1.8696
  450TMC3    H2 6762   1.017   3.093  13.491  0.0787  0.0685  0.3091
  450TMC3    C7 6763   1.029   3.160  13.743 -0.3962 -0.3231 -0.4545
  450TMC3    C8 6764   1.143   3.232  13.310  0.1965  0.0908 -0.1821
  450TMC3    O1 6765   1.099   3.207  13.832 -0.2860  0.0070  1.0718
  450TMC3    O2 6766   1.100   3.119  13.280  0.1589 -0.7535 -0.0328
  451MPD2     C 6767   3.310   1.559   1.436 -0.0222  0.6480 -0.3966
  451MPD2    C1 6768   3.290   1.655   1.337  0.1151 -0.0938 -0.0173
  451MPD2    C2 6769   3.272   1.614   1.207 -0.0698  0.1973 -0.5282
  451MPD2    C3 6770   3.280   1.476   1.173  0.0808  0.5394  0.2647
  451MPD2    C4 6771   3.303   1.386   1.272 -0.2010  0.0769 -0.4057
  451MPD2    C5 6772   3.323   1.427   1.401  0.2542  0.5385  0.2559
  451MPD2     H 6773   3.255   1.691   1.132 -2.4527 -0.9452 -1.1441
  451MPD2    H1 6774   3.321   1.282   1.247 -2.1386 -0.1328 -0.9842
  451MPD2    H2 6775   3.316   1.595   1.538 -1.1663 -3.3903  1.1002
  451MPD2    H3 6776   3.352   1.352   1.475  1.5737  1.4300  0.6494
  451MPD2     N 6777   3.279   1.425   1.037 -0.1965 -1.0216 -0.0482
  451MPD2    H5 6778   3.281   1.323   1.036  0.0757 -0.9988 -2.4907
  451MPD2    N1 6779   3.264   1.785   1.382 -0.7872 -0.2884 -0.2220
  451MPD2    H7 6780   3.258   1.798   1.482  0.2682  0.3252 -0.2377
  452TMC3    C1 6781   3.240   1.415   0.802 -0.4244  0.3565  0.6062
  452TMC3    C2 6782   3.190   1.292   0.810  0.4407 -0.0407 -0.4160
  452TMC3    C3 6783   3.138   1.235   0.703  0.4965  0.1358  0.1794
  452TMC3    C4 6784   3.229   1.491   0.687  0.4123  0.7776  0.2712
  452TMC3    C5 6785   3.156   1.437   0.585  0.2137 -0.3864 -0.2006
  452TMC3    C6 6786   3.117   1.307   0.583 -0.9570  0.2703 -0.0912
  452TMC3     C 6787   3.266   1.493   0.924  0.3713  0.0115  0.3036
  452TMC3     O 6788   3.274   1.613   0.909 -0.2986  0.4325 -0.1202
  452TMC3     H 6789   3.204   1.234   0.901 -0.6826 -0.1533 -0.3124
  452TMC3    H1 6790   3.252   1.597   0.688 -2.3781  1.3410  3.2616
  452TMC3    H2 6791   3.069   1.258   0.499  0.7961 -2.2486  0.3772
  452TMC3    C7 6792   3.143   1.525   0.459  0.4715 -0.2442 -0.7064
  452TMC3    C8 6793   3.131   1.087   0.679  0.1786 -0.4426 -0.1965
  452TMC3    O1 6794   3.184   1.640   0.471 -0.0184 -0.0024  0.4856
  452TMC3    O2 6795   3.132   1.053   0.557 -0.3399  0.2786 -0.1136
  453TMC3    C1 6796   3.918   4.172  12.449  0.2182 -0.7211 -0.0053
  453TMC3    C2 6797   3.819   4.075  12.455 -0.3717 -0.4532  0.0698
  453TMC3    C3 6798   3.698   4.093  12.392 -0.1939 -0.2191 -0.0304
  453TMC3    C4 6799   3.882   4.289  12.390 -0.7766 -0.1712 -0.0819
  453TMC3    C5 6800   3.756   4.312  12.359 -0.3614 -0.1908 -1.1551
  453TMC3    C6 6801   3.658   4.217  12.353 -0.0488  0.1800  0.7522
  453TMC3     C 6802   4.058   4.152  12.470  0.4996 -0.5713  0.1861
  453TMC3     O 6803   4.130   4.241  12.428 -0.4074 -0.4016 -0.2432
  453TMC3     H 6804   3.853   3.989  12.512 -1.8277 -0.5989  0.6973
  453TMC3    H1 6805   3.948   4.374  12.408  0.6247 -0.8781 -1.9289
  453TMC3    H2 6806   3.553   4.234  12.332  0.2324  0.5305 -0.3443
  453TMC3    C7 6807   3.740   4.431  12.270  0.3478 -0.1893 -0.3752
  453TMC3    C8 6808   3.605   3.986  12.385 -0.4931 -0.3624 -0.2836
  453TMC3    O1 6809   3.823   4.522  12.284 -0.3899  0.1018 -0.2077
  453TMC3    O2 6810   3.486   4.006  12.382 -0.0848  0.0359 -0.0515
  454MPD2     C 6811   2.990   3.213  16.252 -1.2458 -0.1529  0.3999
  454MPD2    C1 6812   2.854   3.212  16.244 -0.0690 -0.4754 -0.5099
  454MPD2    C2 6813   2.778   3.233  16.355  0.6853 -0.2173 -0.6547
  454MPD2    C3 6814   2.828   3.244  16.481 -0.0529  0.3484  0.3843
  454MPD2    C4 6815   2.965   3.225  16.491 -0.0732 -0.1365 -0.9174
  454MPD2    C5 6816   3.047   3.226  16.378  0.2384  0.5888 -0.7244
  454MPD2     H 6817   2.671   3.226  16.345  0.7240  1.3584 -2.1806
  454MPD2    H1 6818   3.017   3.231  16.586 -1.1562 -3.9228 -0.0852
  454MPD2    H2 6819   3.057   3.219  16.168 -1.1989  0.5810  0.4919
  454MPD2    H3 6820   3.156   3.225  16.381  0.2055 -0.3936  0.6023
  454MPD2     N 6821   2.735   3.253  16.589  0.2121 -0.1096 -0.1728
  454MPD2    H5 6822   2.634   3.249  16.575 -0.0343 -1.2318  1.8317
  454MPD2    N1 6823   2.798   3.198  16.114  0.1998 -0.3299  0.3418
  454MPD2    H7 6824   2.699   3.204  16.092  0.1049  0.6741  1.0380
  455TMC3    C1 6825   2.649   3.205  16.794 -0.4249 -0.0894  0.4200
  455TMC3    C2 6826   2.669   3.206  16.929 -1.3077  0.3161 -0.6018
  455TMC3    C3 6827   2.633   3.094  17.000  0.7157  0.1390  0.3980
  455TMC3    C4 6828   2.581   3.098  16.736 -0.5714 -0.4161 -0.1777
  455TMC3    C5 6829   2.537   2.992  16.805 -0.0908  0.3275 -0.2144
  455TMC3    C6 6830   2.569   2.994  16.936  0.0508  0.0543 -0.4067
  455TMC3     C 6831   2.771   3.251  16.723  0.0140 -0.5972 -0.5316
  455TMC3     O 6832   2.877   3.263  16.785  0.2811 -0.1683  0.2886
  455TMC3     H 6833   2.724   3.287  16.974 -0.9918 -0.4081  0.3299
  455TMC3    H1 6834   2.563   3.084  16.630 -0.9620  0.0206 -0.1672
  455TMC3    H2 6835   2.540   2.905  16.992  1.5060  0.1965  0.5832
  455TMC3    C7 6836   2.552   2.875  16.719 -0.0335  0.1095  0.2769
  455TMC3    C8 6837   2.617   3.121  17.144 -0.6219 -0.7097  0.6648
  455TMC3    O1 6838   2.473   2.849  16.627 -0.2982  0.1140 -0.4672
  455TMC3    O2 6839   2.591   3.237  17.176 -0.4594  0.1692  0.4116
  456MPD2     C 6840   0.467   2.780  16.357 -0.0709 -0.1215  0.1760
  456MPD2    C1 6841   0.560   2.775  16.464 -0.3281 -0.2011  0.6895
  456MPD2    C2 6842   0.562   2.871  16.561 -0.3942 -0.1399  0.0061
  456MPD2    C3 6843   0.481   2.977  16.561  0.3474 -0.4698 -0.1233
  456MPD2    C4 6844   0.383   2.977  16.463  0.0375 -0.2363  0.5977
  456MPD2    C5 6845   0.378   2.889  16.358  0.0570 -0.0915  0.2451
  456MPD2     H 6846   0.634   2.869  16.642  2.0900 -0.0497 -2.2259
  456MPD2    H1 6847   0.305   3.051  16.453  0.8356  0.3497 -1.2244
  456MPD2    H2 6848   0.468   2.716  16.270  0.8064  1.6795 -1.1620
  456MPD2    H3 6849   0.301   2.902  16.283  0.5862  1.5329 -0.0095
  456MPD2     N 6850   0.481   3.066  16.669 -0.2168  0.1986 -0.2743
  456MPD2    H5 6851   0.551   3.045  16.739  0.1936  0.5254 -0.5884
  456MPD2    N1 6852   0.654   2.672  16.456 -0.1564 -0.1990  0.1241
  456MPD2    H7 6853   0.645   2.608  16.378 -0.0669  0.8366 -0.7328
  457TMC3    C1 6854   0.421   3.268  16.791 -0.3807  0.5234  0.3961
  457TMC3    C2 6855   0.410   3.402  16.768 -0.1837 -0.1738  0.0940
  457TMC3    C3 6856   0.443   3.487  16.870  0.0815 -0.3536  0.7094
  457TMC3    C4 6857   0.466   3.213  16.914  0.2414 -0.0994  0.1151
  457TMC3    C5 6858   0.515   3.302  17.008  0.0613 -0.6486  0.2941
  457TMC3    C6 6859   0.500   3.442  16.990  0.2494  0.1060 -0.0702
  457TMC3     C 6860   0.410   3.184  16.674  0.8220 -0.6374  0.9603
  457TMC3     O 6861   0.342   3.241  16.588  0.3508  0.8428 -0.0531
  457TMC3     H 6862   0.400   3.443  16.668 -0.8406 -0.4488  0.0468
  457TMC3    H1 6863   0.489   3.107  16.919  0.9319 -0.0469 -1.5907
  457TMC3    H2 6864   0.524   3.525  17.056  1.9139 -0.0284 -0.5191
  457TMC3    C7 6865   0.623   3.254  17.093 -0.4690  0.8900  0.3892
  457TMC3    C8 6866   0.449   3.632  16.853 -0.7446 -0.5538 -0.3030
  457TMC3    O1 6867   0.663   3.137  17.082 -0.1445  0.1402  0.2268
  457TMC3    O2 6868   0.529   3.700  16.914  0.6179 -0.1520 -0.0974
  458MPD2     C 6869   2.831   3.164  12.669 -0.3078 -0.5050  0.4764
  458MPD2    C1 6870   2.845   3.030  12.698  0.3070 -0.0521 -0.0696
  458MPD2    C2 6871   2.732   2.950  12.680  0.7839  0.3058 -0.4007
  458MPD2    C3 6872   2.617   3.000  12.625  0.5210 -0.0596  0.2838
  458MPD2    C4 6873   2.615   3.134  12.591  0.2252 -0.6704 -0.3767
  458MPD2    C5 6874   2.721   3.211  12.614 -0.2831  0.0110  0.4932
  458MPD2     H 6875   2.735   2.844  12.700 -2.6806  0.4797  1.1470
  458MPD2    H1 6876   2.526   3.182  12.552  1.7372  2.6145  0.2663
  458MPD2    H2 6877   2.915   3.229  12.687 -1.1666  0.1385  2.0891
  458MPD2    H3 6878   2.711   3.310  12.569 -0.3909  0.1078  0.7295
  458MPD2     N 6879   2.507   2.918  12.628 -0.4028 -0.5120 -0.0846
  458MPD2    H5 6880   2.520   2.817  12.635  1.3277 -0.0386  3.6863
  458MPD2    N1 6881   2.961   2.979  12.769  0.6628 -0.6541 -0.0839
  458MPD2    H7 6882   3.040   3.042  12.775 -1.6613  2.2897  0.0858
  459TMC3    C1 6883   3.070   2.850  12.940 -0.2224 -0.1632 -0.2800
  459TMC3    C2 6884   3.178   2.929  12.924  0.4287  0.2062  0.4353
  459TMC3    C3 6885   3.278   2.920  13.013  0.2348 -0.4223 -0.1423
  459TMC3    C4 6886   3.063   2.751  13.030  0.1707  0.2710  0.6047
  459TMC3    C5 6887   3.174   2.737  13.117  0.0258 -0.3263  0.7166
  459TMC3    C6 6888   3.276   2.822  13.110 -0.4279 -0.2125  0.7527
  459TMC3     C 6889   2.962   2.857  12.837  0.4005 -0.6619  0.2742
  459TMC3     O 6890   2.882   2.765  12.830  0.4276 -0.3881  0.1011
  459TMC3     H 6891   3.194   3.000  12.843  0.8438 -0.6047 -0.1925
  459TMC3    H1 6892   2.979   2.683  13.037  1.8171 -2.0112 -1.6280
  459TMC3    H2 6893   3.357   2.822  13.183  0.5700  4.2240 -0.3182
  459TMC3    C7 6894   3.181   2.635  13.217  0.1342  0.5493 -0.2576
  459TMC3    C8 6895   3.387   3.015  12.997 -0.4404 -0.6147  1.1373
  459TMC3    O1 6896   3.285   2.609  13.265 -0.6405 -0.1628  0.2658
  459TMC3    O2 6897   3.424   3.045  12.883  0.2832  0.1263 -0.3101
  460MPD2     C 6898   2.195   0.917  10.830 -0.0469  0.1561  0.2292
  460MPD2    C1 6899   2.074   0.851  10.851  0.2478  0.3476 -0.2354
  460MPD2    C2 6900   1.959   0.900  10.802  0.4091 -0.2130 -0.1457
  460MPD2    C3 6901   1.961   1.019  10.723  0.2632  0.4764 -0.3806
  460MPD2    C4 6902   2.079   1.090  10.708 -0.2713 -0.0507 -0.0351
  460MPD2    C5 6903   2.195   1.036  10.753  0.6171 -0.1647 -0.3658
  460MPD2     H 6904   1.867   0.848  10.823  0.6377 -0.2015  0.8919
  460MPD2    H1 6905   2.095   1.179  10.649 -0.4499  0.9466  1.4212
  460MPD2    H2 6906   2.288   0.873  10.864  0.2805  1.5042  1.0647
  460MPD2    H3 6907   2.284   1.095  10.736 -0.3930  1.3064 -0.5539
  460MPD2     N 6908   1.849   1.051  10.649 -0.0755 -0.5530 -1.4829
  460MPD2    H5 6909   1.770   0.988  10.642 -1.7178  0.8300  4.7162
  460MPD2    N1 6910   2.092   0.733  10.923 -0.5533  0.1123 -0.3499
  460MPD2    H7 6911   2.187   0.699  10.940 -0.0339  0.7754 -1.9314
  461TMC3    C1 6912   1.720   1.139  10.487 -0.3003 -0.2428  0.2514
  461TMC3    C2 6913   1.697   1.013  10.437  0.8656  0.5123 -0.2629
  461TMC3    C3 6914   1.631   1.004  10.323 -0.2880  0.0155 -0.0775
  461TMC3    C4 6915   1.693   1.255  10.412  0.1486 -0.2038  0.1672
  461TMC3    C5 6916   1.636   1.237  10.294 -0.1661  0.1902 -0.7099
  461TMC3    C6 6917   1.596   1.113  10.252  0.1048 -0.4945  0.1688
  461TMC3     C 6918   1.829   1.157  10.568  0.0880  0.3414 -0.3479
  461TMC3     O 6919   1.889   1.262  10.551  0.1790 -0.3078 -0.7194
  461TMC3     H 6920   1.714   0.925  10.498  1.1870 -0.8309 -2.2645
  461TMC3    H1 6921   1.723   1.358  10.427 -1.4071  0.1993  0.6145
  461TMC3    H2 6922   1.547   1.100  10.156  1.8836  2.5422 -1.1639
  461TMC3    C7 6923   1.620   1.352  10.206  0.0267 -0.1930 -0.5166
  461TMC3    C8 6924   1.596   0.883  10.249 -0.4192 -0.1734  0.5662
  461TMC3    O1 6925   1.591   1.459  10.251 -1.0476  0.0573 -0.6267
  461TMC3    O2 6926   1.568   0.890  10.131 -0.3012  0.0884  0.4258
  462TMC3    C1 6927   2.370   1.068   0.470 -0.1689 -0.7665  0.1023
  462TMC3    C2 6928   2.483   0.996   0.482  0.2368 -0.6075  0.4074
  462TMC3    C3 6929   2.487   0.867   0.435 -0.2444  0.0047  0.1185
  462TMC3    C4 6930   2.267   1.026   0.391 -0.1315 -0.5789  0.0377
  462TMC3    C5 6931   2.278   0.904   0.330  0.2747  0.9603  0.1468
  462TMC3    C6 6932   2.383   0.817   0.355 -0.3512  0.3751  0.5719
  462TMC3     C 6933   2.364   1.210   0.503 -0.4189  0.2181 -0.6354
  462TMC3     O 6934   2.282   1.285   0.455 -0.3947  0.8699  0.7178
  462TMC3     H 6935   2.565   1.027   0.546  2.4231  0.3376 -2.8260
  462TMC3    H1 6936   2.183   1.094   0.392  0.7619  0.5437 -1.2641
  462TMC3    H2 6937   2.360   0.712   0.339 -0.5835  0.6227 -0.7180
  462TMC3    C7 6938   2.153   0.848   0.275 -0.5019  0.0042  0.1810
  462TMC3    C8 6939   2.615   0.807   0.452  0.2271 -0.6445 -0.0794
  462TMC3    O1 6940   2.143   0.727   0.285  0.4082 -0.5723 -0.4044
  462TMC3    O2 6941   2.695   0.847   0.541 -0.3059 -0.1173  0.2542
  463MPD2     C 6942   3.494   0.005   1.479 -0.1807  0.2731 -0.1585
  463MPD2    C1 6943   3.395   4.690   1.393 -0.2357  0.4921  0.3827
  463MPD2    C2 6944   3.374   0.026   1.280  0.2351  0.5948 -0.8136
  463MPD2    C3 6945   3.445   0.143   1.240  0.3320 -0.6909 -0.3893
  463MPD2    C4 6946   3.551   0.183   1.325  0.4150  0.2927  0.3658
  463MPD2    C5 6947   3.564   0.118   1.445  0.4059  0.1183  0.5126
  463MPD2     H 6948   3.293   4.736   1.215  0.3565 -1.5926  0.0379
  463MPD2    H1 6949   3.619   0.266   1.307 -1.4598  2.3645  2.9209
  463MPD2    H2 6950   3.521   4.698   1.573  0.2056  0.5235 -0.1439
  463MPD2    H3 6951   3.637   0.148   1.520 -0.2084  2.9898 -0.0194
  463MPD2     N 6952   3.430   0.207   1.118 -0.0927  0.5369 -0.4851
  463MPD2    H5 6953   3.493   0.284   1.097  0.7366 -0.5894 -2.1624
  463MPD2    N1 6954   3.308   4.578   1.417  0.4721  0.7295  0.8259
  463MPD2    H7 6955   3.232   4.554   1.355  2.7060 -0.8551 -1.2784
  464TMC3    C1 6956   3.230   4.386   1.525 -0.0638 -0.6309  0.5488
  464TMC3    C2 6957   3.108   4.415   1.466  0.3778  0.1531  0.3992
  464TMC3    C3 6958   3.001   4.333   1.503 -0.0749  0.0158 -0.2624
  464TMC3    C4 6959   3.255   4.275   1.603 -0.0164  0.3819  0.2659
  464TMC3    C5 6960   3.153   4.194   1.631 -0.0502  0.1706  0.4992
  464TMC3    C6 6961   3.031   4.223   1.582 -0.0984  0.3673  0.1424
  464TMC3     C 6962   3.327   4.492   1.522 -0.1881 -0.4310 -0.5186
  464TMC3     O 6963   3.405   4.498   1.614  0.2457  0.3360  0.0763
  464TMC3     H 6964   3.087   4.504   1.409 -0.0551 -1.5783 -2.1440
  464TMC3    H1 6965   3.354   4.263   1.647  0.2923  2.6063  0.2032
  464TMC3    H2 6966   2.944   4.163   1.606  0.0429 -0.7355 -2.0984
  464TMC3    C7 6967   3.175   4.095   1.743 -0.2761  0.2427 -0.2971
  464TMC3    C8 6968   2.860   4.348   1.459  0.2224 -0.0354  0.3173
  464TMC3    O1 6969   3.279   4.098   1.802  0.2544 -0.2327  0.1178
  464TMC3    O2 6970   2.783   4.261   1.496  0.2210  0.2973 -0.6357
  465MPD2     C 6971   4.486   2.864  16.740  0.1079 -0.0573 -0.3702
  465MPD2    C1 6972   4.424   2.906  16.849 -0.2570 -0.1072  0.0830
  465MPD2    C2 6973   4.295   2.954  16.837  0.1517  0.0457  0.1293
  465MPD2    C3 6974   4.256   3.005  16.714  0.1731 -0.1537 -0.2580
  465MPD2    C4 6975   4.333   2.979  16.603 -0.2276 -0.0545 -0.2006
  465MPD2    C5 6976   4.444   2.896  16.618  0.7580 -0.4548 -0.0043
  465MPD2     H 6977   4.239   2.988  16.924  3.2711  0.8828  1.8355
  465MPD2    H1 6978   4.309   3.004  16.500  2.2675  0.2720 -0.7025
  465MPD2    H2 6979   4.582   2.816  16.754 -0.6805 -2.3340 -2.8092
  465MPD2    H3 6980   4.489   2.864  16.525  2.4312  1.1943  0.2296
  465MPD2     N 6981   4.148   3.086  16.715  0.2923  0.4802  0.2021
  465MPD2    H5 6982   4.120   3.117  16.808 -0.6709  1.5976 -0.4682
  465MPD2    N1 6983   4.482   2.912  16.981  0.4428 -0.0795  0.5267
  465MPD2    H7 6984   4.416   2.941  17.052 -0.2170  0.8196 -0.4741
  466TMC3    C1 6985   3.799   3.297  16.762 -0.3873 -0.1814 -0.8880
  466TMC3    C2 6986   3.805   3.428  16.716  0.2862 -0.7508  0.5585
  466TMC3    C3 6987   3.884   3.449  16.611 -0.5727  0.6254  0.4316
  466TMC3    C4 6988   3.892   3.203  16.726  0.2938  0.1113 -0.3000
  466TMC3    C5 6989   3.979   3.236  16.627 -0.5038  0.2506 -0.1047
  466TMC3    C6 6990   3.967   3.359  16.561 -0.6421 -0.0638 -0.3235
  466TMC3     C 6991   3.718   3.269  16.877 -0.4788 -0.4670 -0.0561
  466TMC3     O 6992   3.755   3.168  16.939  0.6892 -0.1008  0.2263
  466TMC3     H 6993   3.737   3.502  16.757 -0.0344 -1.7262  1.7961
  466TMC3    H1 6994   3.897   3.106  16.774  1.6747  1.7167  2.8215
  466TMC3    H2 6995   4.043   3.398  16.495  0.2039  0.4481  0.9585
  466TMC3    C7 6996   4.097   3.156  16.604  0.5852 -0.0338 -0.1135
  466TMC3    C8 6997   3.900   3.585  16.570 -0.5863  0.0464  0.3249
  466TMC3    O1 6998   4.145   3.178  16.496  0.6019  0.5065  0.1062
  466TMC3    O2 6999   3.933   3.609  16.452 -0.5467  0.0826  0.2689
  467TMC3    C1 7000   0.434   2.074  13.965  0.9375  0.6238 -0.2162
  467TMC3    C2 7001   0.380   2.191  13.919 -0.3316 -0.1432  0.4181
  467TMC3    C3 7002   0.274   2.240  13.986  0.3699 -0.4794 -0.1658
  467TMC3    C4 7003   0.377   2.007  14.071 -0.1528 -0.5336 -0.4543
  467TMC3    C5 7004   0.255   2.044  14.127 -0.4505  0.6349  0.4158
  467TMC3    C6 7005   0.209   2.167  14.089 -0.3101 -0.0936  0.4140
  467TMC3     C 7006   0.577   2.073  13.941  0.2808 -0.3215  0.1395
  467TMC3     O 7007   0.627   2.180  13.919 -0.6182  0.2572  0.4347
  467TMC3     H 7008   0.431   2.266  13.858  0.6958 -0.7846  0.4870
  467TMC3    H1 7009   0.434   1.924  14.111 -0.0784 -0.8786 -1.2925
  467TMC3    H2 7010   0.125   2.214  14.140 -1.5797 -2.6822  0.6884
  467TMC3    C7 7011   0.222   1.976  14.251 -0.4615 -0.1106  0.6785
  467TMC3    C8 7012   0.243   2.373  13.973  0.5508  0.3295 -0.1629
  467TMC3    O1 7013   0.291   1.879  14.275 -0.2650  0.0897  0.1321
  467TMC3    O2 7014   0.237   2.446  14.069  0.4287  0.4032 -0.1417
  468MPD2     C 7015   3.754   0.517  10.683 -0.3401  0.1987 -0.0034
  468MPD2    C1 7016   3.880   0.521  10.742  0.2245 -0.2041 -0.6513
  468MPD2    C2 7017   3.919   0.402  10.807  0.3524 -0.2359  0.2091
  468MPD2    C3 7018   3.836   0.288  10.814 -0.1405  0.9562 -0.0793
  468MPD2    C4 7019   3.714   0.290  10.751 -0.2087 -0.2416 -0.0119
  468MPD2    C5 7020   3.667   0.408  10.690  0.7074 -0.7773 -0.3462
  468MPD2     H 7021   4.007   0.417  10.869  0.3948 -2.5816  0.7225
  468MPD2    H1 7022   3.652   0.202  10.741 -0.2295 -0.3594  1.1929
  468MPD2    H2 7023   3.716   0.605  10.633  1.7308  1.3275  0.4087
  468MPD2    H3 7024   3.571   0.403  10.640 -0.3950  1.7824  1.5045
  468MPD2     N 7025   3.875   0.163  10.861 -0.5136 -0.1327 -0.2050
  468MPD2    H5 7026   3.813   0.083  10.850  0.1136 -0.4325 -1.5688
  468MPD2    N1 7027   3.961   0.638  10.741  0.3807  0.4036 -0.3233
  468MPD2    H7 7028   3.919   0.726  10.716  0.2194  0.3093 -0.3836
  469TMC3    C1 7029   4.152   0.776  10.727 -0.6344  0.3785  0.2926
  469TMC3    C2 7030   4.288   0.789  10.724  0.5182  1.0633 -0.3617
  469TMC3    C3 7031   4.342   0.911  10.766  0.4733 -0.3353 -0.6970
  469TMC3    C4 7032   4.069   0.878  10.774  0.0196 -0.0315 -0.0930
  469TMC3    C5 7033   4.130   0.993  10.813 -0.2954  0.7889 -1.2470
  469TMC3    C6 7034   4.264   1.012  10.813  0.0313 -0.1418 -0.6450
  469TMC3     C 7035   4.101   0.642  10.750 -0.5365 -0.3819  0.7468
  469TMC3     O 7036   4.184   0.550  10.762  0.0768 -0.4263  0.2660
  469TMC3     H 7037   4.344   0.704  10.686 -2.8814 -2.2213  1.9343
  469TMC3    H1 7038   3.964   0.862  10.793 -0.3931  2.2707 -0.5176
  469TMC3    H2 7039   4.302   1.111  10.835 -0.1359 -0.0304 -0.8511
  469TMC3    C7 7040   4.053   1.109  10.850 -0.1636 -0.3454  0.0587
  469TMC3    C8 7041   4.491   0.915  10.789  0.5259  0.5405 -0.0305
  469TMC3    O1 7042   4.114   1.195  10.911  0.1654  0.1203  0.8034
  469TMC3    O2 7043   4.562   0.840  10.727 -0.0551  0.1772 -0.7953
  470TMC3    C1 7044   1.283   0.541   0.755  0.2819  0.2788 -0.3069
  470TMC3    C2 7045   1.408   0.598   0.738  0.5559  0.0174 -0.3451
  470TMC3    C3 7046   1.491   0.594   0.844  0.4660  0.3687  0.4060
  470TMC3    C4 7047   1.238   0.485   0.872  0.1980 -0.2767 -0.2122
  470TMC3    C5 7048   1.335   0.481   0.973 -0.4512 -0.2479  0.1447
  470TMC3    C6 7049   1.459   0.539   0.966 -0.3636 -0.4256 -0.4734
  470TMC3     C 7050   1.193   0.532   0.644  0.5838 -0.3149  0.0531
  470TMC3     O 7051   1.244   0.529   0.534 -0.5867 -0.3191 -0.1593
  470TMC3     H 7052   1.427   0.648   0.644  0.2663 -1.0580 -0.9801
  470TMC3    H1 7053   1.140   0.443   0.890  0.4634  0.1432  2.2162
  470TMC3    H2 7054   1.535   0.519   1.040 -1.0590 -0.3209  0.2815
  470TMC3    C7 7055   1.301   0.412   1.097  0.1834  0.1994 -0.1073
  470TMC3    C8 7056   1.609   0.674   0.840  0.7642 -0.3848 -0.4967
  470TMC3    O1 7057   1.189   0.421   1.127 -0.2841 -0.0865 -0.1183
  470TMC3    O2 7058   1.647   0.723   0.945  0.0693 -0.2342 -0.0423
  471MPD2     C 7059   2.111   2.289  16.776 -0.1155 -0.4640  0.6655
  471MPD2    C1 7060   2.126   2.158  16.744  0.1581  0.7283  0.1094
  471MPD2    C2 7061   2.223   2.070  16.808  0.3418  0.0963  0.7951
  471MPD2    C3 7062   2.292   2.121  16.917 -0.0484  0.3305 -0.2891
  471MPD2    C4 7063   2.271   2.252  16.950 -0.2528  0.6042 -0.0362
  471MPD2    C5 7064   2.189   2.329  16.876 -0.4910  0.0346 -0.0834
  471MPD2     H 7065   2.224   1.964  16.789  0.5571  0.5033 -1.4624
  471MPD2    H1 7066   2.332   2.302  17.025  1.3245 -0.2683 -0.7594
  471MPD2    H2 7067   2.045   2.356  16.723  2.0395  0.3984 -0.9391
  471MPD2    H3 7068   2.171   2.429  16.914 -2.6105  0.4108 -2.0795
  471MPD2     N 7069   2.370   2.044  17.007 -0.0583  0.3111  1.0287
  471MPD2    H5 7070   2.405   2.101  17.083  1.6885 -0.4720  0.8071
  471MPD2    N1 7071   2.054   2.095  16.641 -0.5686 -0.0835 -0.4218
  471MPD2    H7 7072   2.049   1.993  16.635 -1.0219  0.0105 -1.7340
  472TMC3    C1 7073   1.890   2.066  16.483 -0.3300  0.3160 -0.1138
  472TMC3    C2 7074   1.759   2.081  16.457 -0.5852 -1.0516  0.1828
  472TMC3    C3 7075   1.693   1.964  16.421  0.0235  0.5800 -0.1746
  472TMC3    C4 7076   1.963   1.957  16.444 -0.0732 -0.9399  0.4516
  472TMC3    C5 7077   1.895   1.852  16.401  0.3911 -0.3697 -0.1891
  472TMC3    C6 7078   1.759   1.848  16.393 -0.3363 -0.3413  0.0726
  472TMC3     C 7079   1.954   2.164  16.571  0.1388  0.0009  0.3483
  472TMC3     O 7080   1.899   2.274  16.588 -0.4916 -0.0806  0.5593
  472TMC3     H 7081   1.710   2.176  16.475  2.0096  0.4296 -0.5961
  472TMC3    H1 7082   2.070   1.942  16.457 -0.2407 -0.3254  2.6166
  472TMC3    H2 7083   1.709   1.766  16.343 -0.1058 -0.3630 -0.1221
  472TMC3    C7 7084   1.963   1.733  16.368  0.0913  0.1941 -0.5205
  472TMC3    C8 7085   1.554   1.972  16.402  0.1341 -0.0876 -0.1924
  472TMC3    O1 7086   2.064   1.740  16.300 -0.4954  0.2034  0.3158
  472TMC3    O2 7087   1.513   2.085  16.365 -0.0402  0.8058  0.3597
  473MPD2     C 7088   1.829   4.671  13.492 -0.0608  0.5277 -0.2507
  473MPD2    C1 7089   1.723   4.738  13.547  0.4120  0.5113  0.2625
  473MPD2    C2 7090   1.734   0.052  13.668  0.5511 -0.0512  0.0440
  473MPD2    C3 7091   1.860   0.056  13.728  0.1812 -0.2106 -0.5515
  473MPD2    C4 7092   1.968   4.735  13.669 -0.1582 -0.0019  1.0202
  473MPD2    C5 7093   1.954   4.678  13.543 -0.2991 -0.1134 -0.1415
  473MPD2     H 7094   1.649   0.110  13.703 -1.4155 -3.4900  0.9794
  473MPD2    H1 7095   2.071   0.015  13.697  0.3537 -1.1940  0.0138
  473MPD2    H2 7096   1.813   4.614  13.402  1.6681  1.5405 -1.1994
  473MPD2    H3 7097   2.041   4.647  13.487  1.3106 -1.0305  2.8600
  473MPD2     N 7098   1.886   0.112  13.859  0.1518 -0.3506 -0.2270
  473MPD2    H5 7099   1.980   0.114  13.897  0.9519  1.0012 -2.3129
  473MPD2    N1 7100   1.590   0.001  13.488 -0.3797 -0.2581 -0.5198
  473MPD2    H7 7101   1.519   0.044  13.546 -0.8497 -0.2766 -1.0839
  474TMC3    C1 7102   1.843   0.229  14.056 -0.8828  0.2904 -0.4155
  474TMC3    C2 7103   1.758   0.324  14.104 -0.2496 -0.2500  0.0131
  474TMC3    C3 7104   1.810   0.408  14.199 -0.3320  0.2212 -0.3744
  474TMC3    C4 7105   1.965   0.208  14.109  0.9746 -0.6656  0.6042
  474TMC3    C5 7106   2.018   0.294  14.203 -0.3576  0.0364  0.9125
  474TMC3    C6 7107   1.939   0.391  14.255 -0.4617  0.2266 -0.0963
  474TMC3     C 7108   1.792   0.170  13.937 -0.5281 -0.1646  0.0396
  474TMC3     O 7109   1.675   0.189  13.907  0.0733 -0.0852 -0.4783
  474TMC3     H 7110   1.664   0.353  14.057 -0.6181  0.0568  0.9399
  474TMC3    H1 7111   2.027   0.133  14.060 -0.2413 -2.8094  2.3453
  474TMC3    H2 7112   1.978   0.466  14.323  0.1052  0.5899 -0.8137
  474TMC3    C7 7113   2.152   0.275  14.249 -0.4811  0.4026  0.1462
  474TMC3    C8 7114   1.741   0.529  14.201  0.4165  0.5278  0.3974
  474TMC3    O1 7115   2.229   0.210  14.177  0.4921 -0.0054 -0.2007
  474TMC3    O2 7116   1.621   0.525  14.207  0.3493  0.4180  0.0854
  475MPD2     C 7117   4.028   3.001  11.343 -0.7448 -1.1137 -0.2492
  475MPD2    C1 7118   4.110   3.060  11.251 -0.1779 -0.3109  0.1093
  475MPD2    C2 7119   4.065   3.082  11.127  0.1595 -0.3158 -0.0288
  475MPD2    C3 7120   3.936   3.036  11.094 -0.0791  0.4667  0.1194
  475MPD2    C4 7121   3.856   2.970  11.185  0.6513  0.1682 -0.1319
  475MPD2    C5 7122   3.906   2.952  11.311 -0.0716  0.2835  0.8725
  475MPD2     H 7123   4.133   3.126  11.055  0.9921 -1.4824  0.0509
  475MPD2    H1 7124   3.751   2.947  11.173  0.3277  0.2759  2.3566
  475MPD2    H2 7125   4.070   2.983  11.441 -0.2343 -0.6865 -0.3859
  475MPD2    H3 7126   3.844   2.908  11.389  0.9292 -0.2030  1.3860
  475MPD2     N 7127   3.884   3.067  10.965 -0.8069  0.1180  0.0143
  475MPD2    H5 7128   3.945   3.117  10.901  0.6744 -0.0662  1.2880
  475MPD2    N1 7129   4.247   3.079  11.289  0.5433  0.0535  0.0379
  475MPD2    H7 7130   4.267   3.048  11.384 -0.3558 -2.7328 -0.6805
  476TMC3    C1 7131   4.480   3.106  11.266 -0.0327 -0.4102 -0.1900
  476TMC3    C2 7132   4.580   3.087  11.185  0.7445  0.3239  1.2232
  476TMC3    C3 7133   4.708   3.102  11.236  1.0568  0.0436  0.8283
  476TMC3    C4 7134   4.498   3.125  11.403  0.0944  0.3944 -0.7164
  476TMC3    C5 7135   4.624   3.144  11.451 -0.3199 -0.2398  0.3301
  476TMC3    C6 7136   4.732   3.133  11.366  0.0049  0.4401 -0.2512
  476TMC3     C 7137   4.348   3.129  11.207  0.1548  0.2175 -0.4771
  476TMC3     O 7138   4.338   3.169  11.091  0.0857 -0.3096  0.2332
  476TMC3     H 7139   4.550   3.081  11.080 -1.6399 -0.3176  1.9272
  476TMC3    H1 7140   4.418   3.131  11.475 -0.8705  2.0820 -1.9101
  476TMC3    H2 7141   0.089   3.169  11.396 -0.0844 -0.1709  0.7753
  476TMC3    C7 7142   4.633   3.237  11.553 -0.1305 -0.1582  0.7832
  476TMC3    C8 7143   0.056   3.178  11.148  0.5507  0.0196  1.2129
  476TMC3    O1 7144   4.563   3.235  11.652 -0.5715  0.3839 -0.5700
  476TMC3    O2 7145   0.098   3.287  11.188  0.1639  0.1005  0.3486
  477MPD2     C 7146   2.788   0.278  12.108 -0.0907  0.1276 -0.6502
  477MPD2    C1 7147   2.775   0.167  12.031 -0.1329  0.4403 -0.7122
  477MPD2    C2 7148   2.776   0.038  12.086  0.1182  0.1651 -0.3836
  477MPD2    C3 7149   2.793   0.027  12.227 -0.5110  0.4565  0.4705
  477MPD2    C4 7150   2.816   0.139  12.301 -0.2294  0.3365  0.2376
  477MPD2    C5 7151   2.809   0.263  12.240 -0.0363  0.6844  0.1711
  477MPD2     H 7152   2.751   4.691  12.028 -1.2806  0.7491 -0.6489
  477MPD2    H1 7153   2.840   0.132  12.407  1.5915  0.7918 -0.1474
  477MPD2    H2 7154   2.788   0.376  12.062  0.8751 -0.1792 -1.3179
  477MPD2    H3 7155   2.820   0.354  12.298  0.5849  2.2509 -2.3881
  477MPD2     N 7156   2.781   4.641  12.280 -0.2302 -0.0395 -0.0478
  477MPD2    H5 7157   2.767   4.571  12.208 -1.8378 -0.0073  0.2295
  477MPD2    N1 7158   2.755   0.194  11.898 -0.2101 -0.5744  0.2551
  477MPD2    H7 7159   2.742   0.293  11.876 -1.0263 -0.1776  2.5050
  478TMC3    C1 7160   2.704   0.165  11.671  0.4871 -0.1279  0.3840
  478TMC3    C2 7161   2.651   0.287  11.669 -0.1381  0.0122  0.2080
  478TMC3    C3 7162   2.533   0.308  11.606 -0.1368 -0.0237 -0.7849
  478TMC3    C4 7163   2.663   0.070  11.583  0.5108  0.2549 -0.0695
  478TMC3    C5 7164   2.560   0.092  11.499 -0.0827 -0.3000  0.1050
  478TMC3    C6 7165   2.485   0.206  11.521  0.0176 -0.3238  0.1745
  478TMC3     C 7166   2.752   0.105  11.796  0.4510  0.3325 -0.0283
  478TMC3     O 7167   2.796   4.733  11.780 -0.6178 -0.4973 -0.7528
  478TMC3     H 7168   2.683   0.366  11.735  2.5370 -1.0296  0.1375
  478TMC3    H1 7169   2.710   4.712  11.578 -0.6092 -0.1537 -2.8818
  478TMC3    H2 7170   2.385   0.226  11.484  0.2578 -0.2253 -0.4359
  478TMC3    C7 7171   2.516   4.730  11.406  0.0139 -0.1536  0.5469
  478TMC3    C8 7172   2.449   0.399  11.685  0.3122  1.0047 -0.2948
  478TMC3    O1 7173   2.579   4.621  11.398 -0.2005 -0.0220 -0.1584
  478TMC3    O2 7174   2.472   0.396  11.806 -0.9011  0.7264  0.6127
  479MPD2     C 7175   1.533   2.096  14.773 -0.4790 -0.7100 -1.0170
  479MPD2    C1 7176   1.507   2.071  14.902  0.2649  0.8003 -0.2849
  479MPD2    C2 7177   1.615   2.029  14.981 -0.4878  0.3958 -0.1118
  479MPD2    C3 7178   1.745   2.002  14.941 -0.2317 -0.3555 -0.2955
  479MPD2    C4 7179   1.769   2.041  14.813 -0.2105 -0.4362  0.1882
  479MPD2    C5 7180   1.666   2.088  14.729  0.4262  0.2554 -0.4992
  479MPD2     H 7181   1.593   2.012  15.086 -1.0432  1.0024 -0.1293
  479MPD2    H1 7182   1.863   2.005  14.772  1.4646  2.8128  1.1462
  479MPD2    H2 7183   1.455   2.122  14.702  0.2050 -0.4243 -1.6682
  479MPD2    H3 7184   1.685   2.110  14.625  1.7507 -0.0706 -0.3252
  479MPD2     N 7185   1.855   1.965  15.021 -0.4991  0.0011  0.4306
  479MPD2    H5 7186   1.948   1.993  14.993  0.1895 -2.4623  0.3282
  479MPD2    N1 7187   1.369   2.064  14.948 -0.0736  0.7169  0.4865
  479MPD2    H7 7188   1.299   2.102  14.885  0.3532 -0.3155 -0.6155
  480TMC3    C1 7189   1.902   1.899  15.477  0.1994  0.1530 -0.0088
  480TMC3    C2 7190   1.915   2.029  15.508  0.3645  0.4695  0.1273
  480TMC3    C3 7191   1.936   2.111  15.402  0.1493 -0.2567  0.8394
  480TMC3    C4 7192   1.906   1.850  15.358  0.6929  0.2440  0.2747
  480TMC3    C5 7193   1.938   1.931  15.251  0.1274  0.4129 -0.4168
  480TMC3    C6 7194   1.965   2.062  15.275  0.6153  0.9213 -0.3285
  480TMC3     C 7195   1.803   1.835  15.568  0.1164 -0.3837  0.5946
  480TMC3     O 7196   1.821   1.852  15.686 -0.3474 -0.0809  0.7462
  480TMC3     H 7197   1.891   2.066  15.607  0.7842 -1.2818  0.8900
  480TMC3    H1 7198   1.887   1.744  15.345 -0.1245  0.5539 -1.0500
  480TMC3    H2 7199   1.992   2.120  15.188  0.8492  0.9506 -0.2360
  480TMC3    C7 7200   1.835   1.917  15.149 -0.3971  0.8524 -0.5871
  480TMC3    C8 7201   1.837   2.217  15.389 -0.2087  0.0227 -0.0155
  480TMC3    O1 7202   1.738   1.854  15.197 -0.1592  0.5817  0.5171
  480TMC3    O2 7203   1.750   2.217  15.474  0.5352  0.5319  0.2423
  481MPD2     C 7204   3.289   1.364  14.281 -0.7555  1.0861 -1.1704
  481MPD2    C1 7205   3.149   1.357  14.301 -0.4957  0.1412 -0.0222
  481MPD2    C2 7206   3.097   1.336  14.432  0.6446  0.0019  0.6456
  481MPD2    C3 7207   3.190   1.312  14.528  0.1171  0.3936  0.3645
  481MPD2    C4 7208   3.322   1.311  14.509 -0.4305  0.1776  0.0985
  481MPD2    C5 7209   3.375   1.335  14.386 -0.1389 -0.4179  0.9225
  481MPD2     H 7210   2.990   1.334  14.452 -0.0922 -0.2890 -3.2482
  481MPD2    H1 7211   3.392   1.294  14.590  1.1955 -1.7667 -1.7227
  481MPD2    H2 7212   3.339   1.374  14.185 -0.9890  0.7805 -1.3223
  481MPD2    H3 7213   3.479   1.342  14.358  0.6746  0.7583  4.2430
  481MPD2     N 7214   3.153   1.312  14.661 -0.2019 -0.0626  0.4758
  481MPD2    H5 7215   3.228   1.326  14.729  0.6005 -0.3268 -0.3478
  481MPD2    N1 7216   3.077   1.377  14.185 -0.1913 -0.1763  0.0589
  481MPD2    H7 7217   3.120   1.384  14.094  0.9330 -0.3336  0.5734
  482TMC3    C1 7218   2.881   1.404  14.065  0.2815 -0.2092  0.4715
  482TMC3    C2 7219   2.754   1.356  14.044 -0.5822 -0.1626  0.5196
  482TMC3    C3 7220   2.700   1.362  13.915  0.2204  0.5822  0.2349
  482TMC3    C4 7221   2.950   1.465  13.963 -0.3947  0.1454 -0.4035
  482TMC3    C5 7222   2.901   1.460  13.835  0.1107  0.2377  0.2375
  482TMC3    C6 7223   2.777   1.403  13.806 -0.1738  1.3548 -0.2632
  482TMC3     C 7224   2.944   1.361  14.185 -0.5391  0.3645 -0.0074
  482TMC3     O 7225   2.886   1.276  14.253 -0.3439 -0.1944  0.2533
  482TMC3     H 7226   2.694   1.314  14.123 -1.2854 -1.5036 -0.7273
  482TMC3    H1 7227   3.039   1.523  13.985  0.3640 -2.1576  2.5452
  482TMC3    H2 7228   2.751   1.376  13.705 -0.4404  3.1308 -0.6744
  482TMC3    C7 7229   3.006   1.446  13.739  0.3145 -1.3232 -0.3693
  482TMC3    C8 7230   2.581   1.275  13.900 -0.6184  0.0722 -0.0598
  482TMC3    O1 7231   3.117   1.427  13.787  0.6254 -0.1328  0.4094
  482TMC3    O2 7232   2.565   1.187  13.984 -0.4578 -0.3684  0.2365
  483TMC3    C1 7233   0.940   4.501   1.072  0.2318  0.1493 -0.1978
  483TMC3    C2 7234   1.054   4.540   1.007  0.1961  0.7064  0.6056
  483TMC3    C3 7235   1.133   4.636   1.062 -0.0292  0.2848  0.5542
  483TMC3    C4 7236   0.905   4.562   1.196  0.1770 -0.3031  0.0821
  483TMC3    C5 7237   0.995   4.655   1.246 -0.1555  0.9745 -0.3018
  483TMC3    C6 7238   1.114   4.679   1.186  0.5192  0.3002 -0.4827
  483TMC3     C 7239   0.858   4.393   1.013  0.0401  0.1271 -0.0427
  483TMC3     O 7240   0.740   4.390   1.053 -0.2816  0.0191  0.4642
  483TMC3     H 7241   1.064   4.513   0.902  1.6522 -0.9797  1.1633
  483TMC3    H1 7242   0.821   4.534   1.258  0.3014  1.1046  0.8873
  483TMC3    H2 7243   1.170   0.023   1.223 -1.3465  1.5990 -0.6424
  483TMC3    C7 7244   1.011   4.660   1.394  0.5996 -0.7169 -0.0737
  483TMC3    C8 7245   1.212   4.700   0.961  0.0829 -0.1430 -0.4479
  483TMC3    O1 7246   1.129   4.656   1.426 -0.0049  0.1967 -0.4538
  483TMC3    O2 7247   1.165   4.711   0.849 -0.3525  0.3010  0.4584
  484MPD2     C 7248   3.534   3.208  13.254  0.2727 -0.0524 -1.2956
  484MPD2    C1 7249   3.530   3.152  13.134  0.2361 -0.1663  0.8303
  484MPD2    C2 7250   3.633   3.181  13.043  0.0045 -0.2723  0.1826
  484MPD2    C3 7251   3.720   3.284  13.062 -0.6377 -0.1769  0.3780
  484MPD2    C4 7252   3.719   3.347  13.180 -0.0600 -0.3341 -0.4136
  484MPD2    C5 7253   3.625   3.305  13.277  0.1493  0.1283 -0.0864
  484MPD2     H 7254   3.637   3.118  12.955 -2.6635  0.6478 -0.5877
  484MPD2    H1 7255   3.795   3.422  13.202 -2.2314  1.3600  1.2391
  484MPD2    H2 7256   3.460   3.189  13.330 -2.7615 -0.1637 -4.2728
  484MPD2    H3 7257   3.619   3.350  13.376  1.2016 -1.3114  0.6309
  484MPD2     N 7258   3.813   3.322  12.965 -0.0507 -0.0076 -0.7970
  484MPD2    H5 7259   3.880   3.391  12.997 -0.4003 -0.1615  0.2879
  484MPD2    N1 7260   3.426   3.060  13.118  0.3925 -0.8351 -0.4835
  484MPD2    H7 7261   3.380   3.043  13.207  1.2179  0.1248  0.1291
  485TMC3    C1 7262   3.887   3.377  12.752 -0.4639  0.2741 -0.2582
  485TMC3    C2 7263   4.013   3.401  12.793 -1.0078 -0.3409  0.7803
  485TMC3    C3 7264   4.082   3.504  12.731  0.7145 -0.3888  0.1952
  485TMC3    C4 7265   3.845   3.418  12.627  0.0984 -0.1396 -1.2034
  485TMC3    C5 7266   3.914   3.517  12.560 -0.1753  0.1443 -0.7500
  485TMC3    C6 7267   4.021   3.574  12.629  0.3326  0.3220 -0.3889
  485TMC3     C 7268   3.792   3.306  12.829  0.4287 -0.5505  0.1156
  485TMC3     O 7269   3.692   3.258  12.780 -0.5753  0.3182 -0.0002
  485TMC3     H 7270   4.059   3.347  12.876  1.2178 -0.2603 -0.3862
  485TMC3    H1 7271   3.751   3.388  12.582 -0.1422 -0.7262 -0.3011
  485TMC3    H2 7272   4.076   3.648  12.573  1.1229 -1.1458 -1.5374
  485TMC3    C7 7273   3.972   3.473  12.431  0.1185  0.4119  0.6655
  485TMC3    C8 7274   4.204   3.453  12.671  0.4714  0.0705 -1.2469
  485TMC3    O1 7275   4.052   3.551  12.381 -0.6282  0.3438 -0.0121
  485TMC3    O2 7276   4.286   3.537  12.642 -0.4968  0.4144 -0.3685
  486MPD2     C 7277   1.131   2.128  13.237  0.3208  0.0278 -0.0479
  486MPD2    C1 7278   1.014   2.084  13.189  0.2187 -0.5311 -0.1051
  486MPD2    C2 7279   0.925   2.174  13.149  0.3354  0.1923  0.1258
  486MPD2    C3 7280   0.941   2.312  13.154  0.1143  0.1779  0.4783
  486MPD2    C4 7281   1.063   2.351  13.203 -0.4451 -0.7089  0.4984
  486MPD2    C5 7282   1.157   2.265  13.243 -0.2828  0.3166 -0.1342
  486MPD2     H 7283   0.828   2.143  13.111 -0.0204 -1.8336  2.7378
  486MPD2    H1 7284   1.085   2.456  13.214 -1.6228 -0.5013  0.8470
  486MPD2    H2 7285   1.214   2.064  13.263  2.3348  2.7679  0.3412
  486MPD2    H3 7286   1.256   2.298  13.271 -0.5590 -0.2568  1.5126
  486MPD2     N 7287   0.849   2.414  13.124 -0.7027 -0.4711 -0.6977
  486MPD2    H5 7288   0.888   2.504  13.152  1.6720 -1.4621 -0.8423
  486MPD2    N1 7289   0.989   1.942  13.180  0.9266 -0.2428  0.4092
  486MPD2    H7 7290   1.060   1.882  13.220 -0.2074 -0.4642  2.1116
  487TMC3    C1 7291   0.833   1.752  13.175  0.3986  0.8737  0.7215
  487TMC3    C2 7292   0.731   1.694  13.113  0.2915  0.1151  0.0348
  487TMC3    C3 7293   0.671   1.582  13.156  0.4250  0.2294 -0.3760
  487TMC3    C4 7294   0.884   1.703  13.293  0.0456  0.1119 -0.0771
  487TMC3    C5 7295   0.833   1.579  13.329 -0.0123  0.1742  0.2531
  487TMC3    C6 7296   0.740   1.513  13.251  0.2582 -0.3330 -1.0861
  487TMC3     C 7297   0.874   1.885  13.120  0.1385  0.4864 -0.2975
  487TMC3     O 7298   0.775   1.942  13.072  0.1628  0.2025 -0.0768
  487TMC3     H 7299   0.692   1.746  13.026  0.3936 -1.5977 -1.0263
  487TMC3    H1 7300   0.946   1.756  13.365  1.1325 -0.4251 -0.6142
  487TMC3    H2 7301   0.705   1.413  13.277  0.0763 -0.5997 -2.3941
  487TMC3    C7 7302   0.798   1.563  13.471  0.1436 -0.1097 -0.3769
  487TMC3    C8 7303   0.526   1.590  13.182  0.4363  0.4505  0.0645
  487TMC3    O1 7304   0.892   1.578  13.550 -0.1784 -0.1824  0.1919
  487TMC3    O2 7305   0.493   1.540  13.289  0.1012 -0.3119 -0.1345
  488MPD2     C 7306   0.732   3.598  15.919 -0.3776 -0.2346 -0.1982
  488MPD2    C1 7307   0.843   3.650  15.995  0.3700  0.0859  0.5135
  488MPD2    C2 7308   0.840   3.654  16.134  0.2610 -0.1191  0.0447
  488MPD2    C3 7309   0.733   3.598  16.191  0.0055 -0.4021 -0.1855
  488MPD2    C4 7310   0.626   3.533  16.126  0.2533 -0.5109 -1.2711
  488MPD2    C5 7311   0.626   3.540  15.987  0.1189  0.3252 -0.5506
  488MPD2     H 7312   0.916   3.700  16.196  0.2826 -1.2002  0.8215
  488MPD2    H1 7313   0.542   3.492  16.182  0.3340  1.7367  0.5208
  488MPD2    H2 7314   0.723   3.620  15.813 -0.1856 -0.4039 -0.2487
  488MPD2    H3 7315   0.545   3.496  15.930 -0.7536 -0.7744  1.5154
  488MPD2     N 7316   0.743   3.602  16.335 -0.9233  0.4587 -0.2922
  488MPD2    H5 7317   0.826   3.645  16.374 -1.3413 -0.2783  1.4071
  488MPD2    N1 7318   0.954   3.703  15.941  0.2995 -0.2094  0.1411
  488MPD2    H7 7319   1.026   3.729  16.007  0.2487  0.1353  0.0578
  489TMC3    C1 7320   0.693   3.569  16.562 -0.5106 -0.6412 -0.4199
  489TMC3    C2 7321   0.725   3.696  16.597 -0.1460  0.4583 -0.8632
  489TMC3    C3 7322   0.772   3.710  16.724 -0.6047 -0.0091 -0.4102
  489TMC3    C4 7323   0.722   3.455  16.643 -0.0190 -0.4548 -0.0009
  489TMC3    C5 7324   0.794   3.483  16.761 -0.2275 -0.2739 -0.3317
  489TMC3    C6 7325   0.813   3.614  16.805  0.4074  0.2991  0.2395
  489TMC3     C 7326   0.664   3.536  16.426  0.9778 -0.3209 -0.0862
  489TMC3     O 7327   0.589   3.442  16.409  0.7753  0.1623  0.4702
  489TMC3     H 7328   0.699   3.784  16.540 -0.7904 -1.1971 -3.0986
  489TMC3    H1 7329   0.710   3.354  16.606  0.1718 -0.2943 -0.4952
  489TMC3    H2 7330   0.846   3.637  16.906  1.2081 -0.5802  0.1804
  489TMC3    C7 7331   0.837   3.374  16.842 -0.2192  0.3771  0.3986
  489TMC3    C8 7332   0.806   3.849  16.755  0.3865 -0.6501  0.6610
  489TMC3    O1 7333   0.800   3.264  16.808 -0.0830 -0.0872 -0.4892
  489TMC3    O2 7334   0.850   3.914  16.663 -0.1755 -0.8901 -0.1650
  490MPD2     C 7335   2.701   2.123  17.329 -0.6476 -0.3408  0.3986
  490MPD2    C1 7336   2.650   2.212  17.421  0.1334 -0.2168  0.6397
  490MPD2    C2 7337   2.729   2.248  17.533  0.7736  0.6213  0.5412
  490MPD2    C3 7338   2.858   2.188  17.542  0.3418 -0.1142  0.3064
  490MPD2    C4 7339   2.912   2.119  17.441  0.0552  0.3942 -0.1406
  490MPD2    C5 7340   2.834   2.087  17.332  0.0919 -0.0480 -0.4331
  490MPD2     H 7341   2.674   2.295  17.614 -1.9524 -0.9976 -0.3884
  490MPD2    H1 7342   3.017   2.091  17.451  0.0475 -0.2150 -1.8055
  490MPD2    H2 7343   2.644   2.082  17.247 -0.5180 -0.5506  0.4127
  490MPD2    H3 7344   2.875   2.029  17.250 -0.0009  1.2634 -1.4067
  490MPD2     N 7345   2.934   2.204  17.658  0.0064  0.5806 -0.2154
  490MPD2    H5 7346   3.028   2.164  17.663 -1.3734 -2.2147  3.7012
  490MPD2    N1 7347   2.517   2.266  17.422  0.0940  0.5920 -0.3864
  490MPD2    H7 7348   2.497   2.339  17.490  0.2923 -0.9265  1.2705
  491TMC3    C1 7349   2.288   2.262  17.384 -0.1442  0.2338 -0.0910
  491TMC3    C2 7350   2.271   2.254  17.522  0.1671 -0.2997 -0.2623
  491TMC3    C3 7351   2.136   2.261  17.561 -0.3397  0.1509  0.0293
  491TMC3    C4 7352   2.180   2.283  17.294 -0.3496  0.4830  0.2773
  491TMC3    C5 7353   2.060   2.300  17.342 -0.1904 -0.5355 -0.4436
  491TMC3    C6 7354   2.037   2.287  17.472  0.6780 -0.0445 -0.3028
  491TMC3     C 7355   2.425   2.234  17.332 -0.3085 -0.1419 -0.1440
  491TMC3     O 7356   2.441   2.190  17.219  0.0654  0.6313  0.0591
  491TMC3     H 7357   2.347   2.233  17.596  1.7288  1.0428 -1.4878
  491TMC3    H1 7358   2.198   2.289  17.187  0.1094  0.2645  0.3395
  491TMC3    H2 7359   1.935   2.295  17.510  0.4827  1.2715 -1.1231
  491TMC3    C7 7360   1.955   2.338  17.243 -0.1447  0.1308  0.0846
  491TMC3    C8 7361   2.097   2.196  17.684  0.4351  0.6549  0.0234
  491TMC3    O1 7362   1.850   2.271  17.235  0.6112  0.2154  0.5117
  491TMC3    O2 7363   1.988   2.235  17.737  0.4977 -0.2309 -0.8361
  492MPD2     C 7364   2.228   2.953  11.312 -0.1707  0.6652 -0.3719
  492MPD2    C1 7365   2.102   2.975  11.265  0.0996 -0.3347  0.8796
  492MPD2    C2 7366   1.993   2.957  11.345 -0.5273 -0.4249  0.1916
  492MPD2    C3 7367   2.007   2.896  11.469  0.5119 -0.2989 -0.9134
  492MPD2    C4 7368   2.131   2.869  11.511 -0.4779  0.0955 -0.0690
  492MPD2    C5 7369   2.238   2.897  11.435  0.5048  0.2046 -0.7565
  492MPD2     H 7370   1.893   2.984  11.313  0.1793 -0.0364 -1.6460
  492MPD2    H1 7371   2.150   2.822  11.607  0.6268  2.6369  0.9803
  492MPD2    H2 7372   2.313   2.982  11.252 -0.1670  0.5955 -0.3999
  492MPD2    H3 7373   2.337   2.861  11.463 -0.3388 -0.6674  1.1344
  492MPD2     N 7374   1.899   2.894  11.561 -0.2729 -0.0192  0.0292
  492MPD2    H5 7375   1.925   2.894  11.659 -0.1941 -2.0129 -0.0029
  492MPD2    N1 7376   2.095   3.034  11.140  0.1386  0.4511 -0.0132
  492MPD2    H7 7377   2.187   3.063  11.108 -0.3919  0.7984 -1.2342
  493TMC3    C1 7378   2.016   3.151  10.962  0.5599 -0.8702 -0.2434
  493TMC3    C2 7379   2.118   3.241  10.965  0.4185  0.2132  0.1779
  493TMC3    C3 7380   2.112   3.351  10.879  0.2578 -0.2623 -0.5684
  493TMC3    C4 7381   1.905   3.177  10.894  0.4704 -0.5814  0.4394
  493TMC3    C5 7382   1.898   3.282  10.812  0.6036 -0.2104  0.0822
  493TMC3    C6 7383   2.000   3.372  10.799 -0.3451 -0.2183  0.1704
  493TMC3     C 7384   1.990   3.053  11.063  0.7924 -0.2375 -0.0129
  493TMC3     O 7385   1.881   3.000  11.077  0.1144  0.4516 -0.3030
  493TMC3     H 7386   2.212   3.220  11.014 -0.5736 -1.0011  1.5597
  493TMC3    H1 7387   1.835   3.095  10.895 -2.0794  1.5921  0.0004
  493TMC3    H2 7388   1.990   3.463  10.740  1.8916 -1.1900 -1.6850
  493TMC3    C7 7389   1.765   3.315  10.760  0.7504 -0.0887 -0.1549
  493TMC3    C8 7390   2.216   3.450  10.909  0.6721  0.5857 -0.1700
  493TMC3    O1 7391   1.753   3.357  10.647  0.0234  0.1063  0.8448
  493TMC3    O2 7392   2.290   3.430  11.006 -0.0467  0.2074  0.2045
  494TMC3    C1 7393   2.725   3.975   0.583  0.6286  0.0301  0.7169
  494TMC3    C2 7394   2.785   3.854   0.575 -0.4070 -0.5202 -0.7287
  494TMC3    C3 7395   2.841   3.821   0.452 -0.5254  0.3210 -0.8758
  494TMC3    C4 7396   2.729   4.063   0.481 -0.8663 -0.1411 -0.2007
  494TMC3    C5 7397   2.805   4.029   0.370  0.5861 -0.8453 -0.0980
  494TMC3    C6 7398   2.863   3.909   0.353 -0.0696 -0.2903  0.6447
  494TMC3     C 7399   2.629   3.996   0.686  0.5796 -0.2553  0.1774
  494TMC3     O 7400   2.597   4.109   0.718 -0.1616 -0.4308  0.2705
  494TMC3     H 7401   2.813   3.792   0.659  0.1032  0.2467 -0.3351
  494TMC3    H1 7402   2.676   4.157   0.478  0.9262  0.9657  2.6598
  494TMC3    H2 7403   2.923   3.889   0.265 -3.1918  0.3547 -1.6274
  494TMC3    C7 7404   2.839   4.142   0.281  0.8619 -0.2407  0.4464
  494TMC3    C8 7405   2.926   3.705   0.453  0.5712  0.6693 -0.0921
  494TMC3    O1 7406   2.873   4.112   0.167 -0.0714  0.5461 -0.4320
  494TMC3    O2 7407   2.974   3.670   0.561  0.2616  0.0533 -0.0239
  495TMC3    C1 7408   1.810   2.375  14.414 -0.1288  0.0737 -0.2528
  495TMC3    C2 7409   1.683   2.345  14.363 -0.1334  0.0466  0.4926
  495TMC3    C3 7410   1.577   2.352  14.440 -0.2831 -0.0759  0.2626
  495TMC3    C4 7411   1.822   2.414  14.542  0.7152 -0.2460 -0.0874
  495TMC3    C5 7412   1.712   2.422  14.620 -0.3387 -1.2700  0.5444
  495TMC3    C6 7413   1.587   2.383  14.571  0.7246  0.5804 -0.3926
  495TMC3     C 7414   1.900   2.461  14.329 -0.3937  0.9070  0.0089
  495TMC3     O 7415   1.897   2.582  14.346 -0.1882 -0.3209 -0.4002
  495TMC3     H 7416   1.676   2.329  14.256  2.1025  0.9368  0.2054
  495TMC3    H1 7417   1.912   2.458  14.581 -0.0201  0.0331  1.2822
  495TMC3    H2 7418   1.499   2.375  14.634  0.4681  0.7814 -0.7299
  495TMC3    C7 7419   1.737   2.416  14.765 -0.6415  0.0855 -0.8254
  495TMC3    C8 7420   1.469   2.262  14.399 -0.8729  0.1505  0.1755
  495TMC3    O1 7421   1.850   2.415  14.803  0.0859  0.1420 -0.2306
  495TMC3    O2 7422   1.366   2.281  14.468 -0.2362 -0.2854 -0.0339
  496MPD2     C 7423   3.422   2.362  15.298  0.1915  0.6533  0.3947
  496MPD2    C1 7424   3.432   2.266  15.381  0.4891 -0.3470  0.8464
  496MPD2    C2 7425   3.319   2.185  15.419 -0.0126 -0.8540  0.6749
  496MPD2    C3 7426   3.200   2.191  15.342 -0.0094  0.7026  0.3741
  496MPD2    C4 7427   3.194   2.284  15.243  0.4317 -0.3012 -0.3762
  496MPD2    C5 7428   3.303   2.369  15.229 -0.5038 -0.6987 -0.0214
  496MPD2     H 7429   3.325   2.091  15.472 -0.1899  0.5146  3.1205
  496MPD2    H1 7430   3.108   2.311  15.183  1.9893  0.8099 -2.1053
  496MPD2    H2 7431   3.509   2.420  15.268  0.2924 -0.6893 -1.8971
  496MPD2    H3 7432   3.306   2.432  15.142 -0.1098  0.3502  0.7580
  496MPD2     N 7433   3.090   2.105  15.365 -0.2017 -0.6163 -0.3948
  496MPD2    H5 7434   3.032   2.084  15.284 -0.5782  0.0551 -0.2970
  496MPD2    N1 7435   3.564   2.256  15.442  0.2115  0.0722  0.2636
  496MPD2    H7 7436   3.621   2.338  15.426  0.2057  0.0046 -0.0925
  497TMC3    C1 7437   2.972   1.927  15.468 -0.7146  0.5680  0.1449
  497TMC3    C2 7438   2.951   1.879  15.341 -0.0501 -0.3755  0.4736
  497TMC3    C3 7439   2.970   1.753  15.306 -0.2439 -0.1261 -0.0544
  497TMC3    C4 7440   2.994   1.835  15.568  0.0065  1.0438 -0.8870
  497TMC3    C5 7441   3.009   1.705  15.530 -0.4244  0.2052 -0.5092
  497TMC3    C6 7442   3.006   1.657  15.396  0.0991  0.2351  0.6671
  497TMC3     C 7443   3.059   2.043  15.486  1.2419  0.8349  0.6312
  497TMC3     O 7444   3.102   2.073  15.597  0.6412 -0.3736 -0.2752
  497TMC3     H 7445   2.917   1.951  15.269 -0.7025  0.5589  1.7155
  497TMC3    H1 7446   3.015   1.866  15.670 -1.6311 -1.4244  0.2320
  497TMC3    H2 7447   3.033   1.555  15.374  0.8259  0.9950 -1.9900
  497TMC3    C7 7448   3.068   1.608  15.625  0.4375 -0.1527 -0.4880
  497TMC3    C8 7449   2.925   1.715  15.176 -0.5023 -0.0293  0.0795
  497TMC3    O1 7450   3.067   1.491  15.593 -0.2646 -0.0703  0.3493
  497TMC3    O2 7451   2.914   1.805  15.090 -0.3141 -0.0313 -0.1289
  498MPD2     C 7452   4.235   3.078   9.552  0.6498 -0.2052 -0.6180
  498MPD2    C1 7453   4.328   3.054   9.653 -0.8632  1.0373 -0.4459
  498MPD2    C2 7454   4.307   2.945   9.738  0.1526 -0.0679 -0.5778
  498MPD2    C3 7455   4.195   2.867   9.732 -0.0168 -0.2299 -0.2796
  498MPD2    C4 7456   4.096   2.906   9.641  0.1339 -0.7018 -0.5187
  498MPD2    C5 7457   4.116   3.005   9.552  0.2871  0.3383  0.6630
  498MPD2     H 7458   4.377   2.916   9.816 -0.5368 -1.3935 -0.4430
  498MPD2    H1 7459   4.001   2.854   9.643 -1.1113  1.4529 -2.6900
  498MPD2    H2 7460   4.246   3.155   9.476  0.9553 -3.6361 -4.0783
  498MPD2    H3 7461   4.037   3.025   9.481 -1.3104 -2.9687  1.4761
  498MPD2     N 7462   4.183   2.757   9.819  0.6622 -0.0025  0.8202
  498MPD2    H5 7463   4.243   2.748   9.900 -0.0399 -0.3064  1.3010
  498MPD2    N1 7464   4.451   3.125   9.681 -0.0834  0.1346 -0.5998
  498MPD2    H7 7465   4.510   3.085   9.753 -0.3589  0.7508 -0.0250
  499TMC3    C1 7466   4.572   3.329   9.698  1.0465 -0.3120  0.3281
  499TMC3    C2 7467   4.668   3.277   9.783 -0.2349 -0.5421  1.0156
  499TMC3    C3 7468   4.731   3.362   9.872 -0.8817  0.0603  0.3333
  499TMC3    C4 7469   4.544   3.460   9.694 -0.4412 -0.2110 -0.3535
  499TMC3    C5 7470   4.614   3.542   9.781 -0.5965  0.3347  0.4343
  499TMC3    C6 7471   4.702   3.497   9.876 -0.0840  0.1614 -0.1146
  499TMC3     C 7472   4.485   3.244   9.619 -0.6527 -0.3513 -0.1371
  499TMC3     O 7473   4.426   3.308   9.528 -0.0928  0.0382  0.3319
  499TMC3     H 7474   4.694   3.172   9.788  2.0989 -0.0432 -0.3875
  499TMC3    H1 7475   4.459   3.496   9.638 -1.2319 -0.2501  0.8359
  499TMC3    H2 7476   0.020   3.564   9.937 -2.0350  1.3514  0.4365
  499TMC3    C7 7477   4.564   3.678   9.809 -0.3206  0.2456  0.8466
  499TMC3    C8 7478   0.098   3.315   9.956 -0.0970  0.3662 -0.1588
  499TMC3    O1 7479   4.610   3.728   9.908 -0.2211 -0.1579  0.4102
  499TMC3    O2 7480   0.129   3.393  10.044 -0.3092  0.3072 -0.5990
  500MPD2     C 7481   1.023   3.893  10.997  0.3909 -0.4443  0.4352
  500MPD2    C1 7482   1.117   3.884  10.896 -0.0055 -0.0409  0.6607
  500MPD2    C2 7483   1.065   3.871  10.767 -0.2832  0.3236 -0.1868
  500MPD2    C3 7484   0.930   3.863  10.742  0.0816 -0.4518 -0.2037
  500MPD2    C4 7485   0.849   3.845  10.844 -0.1665  0.8975  0.5366
  500MPD2    C5 7486   0.890   3.868  10.973 -0.3853 -0.7452  0.1916
  500MPD2     H 7487   1.139   3.864  10.688  2.0664 -1.0883  2.1284
  500MPD2    H1 7488   0.742   3.830  10.827  0.4121 -1.1332 -1.2857
  500MPD2    H2 7489   1.055   3.907  11.100 -1.0079  0.8187  0.6910
  500MPD2    H3 7490   0.821   3.869  11.056 -2.1836 -0.8076 -1.2910
  500MPD2     N 7491   0.875   3.860  10.613 -0.4882  0.2309 -0.7865
  500MPD2    H5 7492   0.774   3.852  10.607 -0.4852 -0.6665  0.2822
  500MPD2    N1 7493   1.252   3.904  10.915 -0.7406 -0.2619 -0.2448
  500MPD2    H7 7494   1.311   3.917  10.834 -1.3511 -1.2698 -0.8552
  501TMC3    C1 7495   1.445   3.935  11.046 -0.5761  0.3401 -0.0043
  501TMC3    C2 7496   1.490   4.016  10.954 -0.6647 -1.0971 -0.1998
  501TMC3    C3 7497   1.626   4.038  10.952  0.0621  0.9005  0.2352
  501TMC3    C4 7498   1.524   3.879  11.146 -0.4058 -0.4999 -0.0824
  501TMC3    C5 7499   1.662   3.908  11.139  0.2177 -0.9684  0.6326
  501TMC3    C6 7500   1.715   3.977  11.034  0.1135 -0.6743 -0.2967
  501TMC3     C 7501   1.304   3.901  11.043 -0.2688  0.2834 -0.1444
  501TMC3     O 7502   1.257   3.873  11.153 -0.4253 -0.2669  0.5978
  501TMC3     H 7503   1.431   4.084  10.894  0.1799 -0.5884 -0.4517
  501TMC3    H1 7504   1.490   3.825  11.234  1.1267  1.4179  1.6710
  501TMC3    H2 7505   1.821   3.990  11.016  0.7572 -1.9301  2.6222
  501TMC3    C7 7506   1.747   3.830  11.228 -0.4288 -0.6151  0.1156
  501TMC3    C8 7507   1.689   4.136  10.867 -0.7943 -0.1490 -0.6918
  501TMC3    O1 7508   1.702   3.736  11.291 -0.5599  0.1193  0.7172
  501TMC3    O2 7509   1.783   4.200  10.912  0.3809  0.4634 -0.0265
  502TMC3    C1 7510   0.924   2.991  14.860  0.0450  0.2155 -0.2453
  502TMC3    C2 7511   0.933   3.039  14.734  1.2763 -0.1434 -0.4074
  502TMC3    C3 7512   0.821   3.084  14.676 -1.1745 -0.7813 -0.3036
  502TMC3    C4 7513   0.807   3.010  14.933 -0.2634 -0.7821 -0.0030
  502TMC3    C5 7514   0.690   3.048  14.871 -0.4799  0.3867 -0.1526
  502TMC3    C6 7515   0.698   3.079  14.739 -0.2578 -0.9101 -0.0533
  502TMC3     C 7516   1.021   2.895  14.908  0.2278  0.4797 -0.4292
  502TMC3     O 7517   1.100   2.848  14.829  0.4186  0.0328 -0.1394
  502TMC3     H 7518   1.025   3.032  14.676  0.6309  0.8492 -1.5476
  502TMC3    H1 7519   0.793   2.967  15.032 -1.4931  1.3547  0.7649
  502TMC3    H2 7520   0.610   3.099  14.680  0.0479  0.8279  0.0644
  502TMC3    C7 7521   0.597   2.946  14.894  0.2225  0.3514 -0.2213
  502TMC3    C8 7522   0.811   3.159  14.552  0.5260  0.6066 -0.2106
  502TMC3    O1 7523   0.648   2.838  14.911  0.5828  0.2224 -0.4204
  502TMC3    O2 7524   0.707   3.223  14.526  0.1869  0.4541  0.0097
  503MPD2     C 7525   3.054   2.977  17.233  0.3398 -0.0041  0.7340
  503MPD2    C1 7526   3.135   3.069  17.296  0.3031 -0.0222 -0.1177
  503MPD2    C2 7527   3.234   3.017  17.379 -0.0836 -0.1884  0.4188
  503MPD2    C3 7528   3.271   2.883  17.388 -0.9693 -0.0171 -0.4833
  503MPD2    C4 7529   3.192   2.797  17.314 -0.3919  0.2221 -0.3814
  503MPD2    C5 7530   3.084   2.847  17.251  0.5163  0.3399 -0.6875
  503MPD2     H 7531   3.289   3.086  17.442  0.1290  2.7210 -2.9846
  503MPD2    H1 7532   3.207   2.689  17.314 -0.5929  0.1942 -0.2901
  503MPD2    H2 7533   2.974   2.994  17.162 -1.6668  0.7944  3.1660
  503MPD2    H3 7534   3.025   2.772  17.200  0.6729  0.1250 -0.5531
  503MPD2     N 7535   3.375   2.831  17.479  0.2118 -0.7603  0.1798
  503MPD2    H5 7536   3.426   2.898  17.535 -0.6669  0.6698 -0.7597
  503MPD2    N1 7537   3.110   3.209  17.292  0.6004  0.6683 -0.8161
  503MPD2    H7 7538   3.164   3.266  17.355 -0.0951  0.1124  0.2824
  504TMC3    C1 7539   3.536   2.682  17.570  0.1597 -0.2275 -0.1316
  504TMC3    C2 7540   3.509   2.688  17.708  0.1729 -0.1412  0.0018
  504TMC3    C3 7541   3.601   2.634   0.036  0.0668  0.0301 -0.2217
  504TMC3    C4 7542   3.621   2.594  17.520  0.4114 -0.7374  0.5145
  504TMC3    C5 7543   3.720   2.542  17.603  0.4130  0.8266  0.3147
  504TMC3    C6 7544   3.709   2.562  17.736  0.8472  0.2426  0.7274
  504TMC3     C 7545   3.427   2.704  17.472  0.3650  0.2123  0.0588
  504TMC3     O 7546   3.397   2.609  17.397  0.5819  0.2816  0.1913
  504TMC3     H 7547   3.428   2.752  17.743  0.3064 -0.8789  1.6635
  504TMC3    H1 7548   3.623   2.573  17.414 -0.8920 -1.5752  0.6524
  504TMC3    H2 7549   3.781   2.519   0.047  1.1105  0.0477  0.3341
  504TMC3    C7 7550   3.845   2.498  17.544  0.3228 -0.4700 -0.2410
  504TMC3    C8 7551   3.581   2.655   0.179  0.6694 -0.4232  0.4087
  504TMC3    O1 7552   3.829   2.460  17.428  0.0158  0.5143  0.1111
  504TMC3    O2 7553   3.468   2.702   0.209  0.1046  0.5149 -0.2474
  505MPD2     C 7554   3.222   2.380  10.563 -0.3378 -0.3512 -0.5066
  505MPD2    C1 7555   3.285   2.260  10.612 -0.8092 -0.0447  0.0132
  505MPD2    C2 7556   3.389   2.279  10.705 -0.0852 -0.0434  0.9202
  505MPD2    C3 7557   3.423   2.406  10.753  0.6211 -0.4454  0.2342
  505MPD2    C4 7558   3.362   2.520  10.700  0.1678 -0.2916  0.0028
  505MPD2    C5 7559   3.270   2.501  10.601  0.1016 -0.1762 -0.0218
  505MPD2     H 7560   3.450   2.195  10.735  0.4083 -1.4082 -3.8132
  505MPD2    H1 7561   3.381   2.621  10.734 -0.4952 -0.3070  0.4278
  505MPD2    H2 7562   3.136   2.374  10.496  0.1396 -2.8378 -0.9028
  505MPD2    H3 7563   3.220   2.584  10.554  0.8404  2.4837  3.8545
  505MPD2     N 7564   3.527   2.429  10.843 -0.0077  0.4004  0.4988
  505MPD2    H5 7565   3.543   2.528  10.859  1.3772  0.4732 -1.2540
  505MPD2    N1 7566   3.237   2.136  10.566 -0.5604  0.0956 -0.1075
  505MPD2    H7 7567   3.169   2.138  10.490  0.3019 -0.3343 -0.8889
  506TMC3    C1 7568   3.262   1.898  10.548  0.2231 -0.2170  0.8009
  506TMC3    C2 7569   3.308   1.914  10.420  0.5317  0.2112  0.2540
  506TMC3    C3 7570   3.358   1.797  10.360  0.1605  0.0635 -0.3689
  506TMC3    C4 7571   3.289   1.784  10.625 -0.8061 -0.7125 -0.9353
  506TMC3    C5 7572   3.362   1.686  10.562  0.2502  0.0177  0.2166
  506TMC3    C6 7573   3.378   1.684  10.428 -0.4405  0.1568  0.2248
  506TMC3     C 7574   3.285   2.020  10.625  0.4931 -0.1688 -0.1659
  506TMC3     O 7575   3.335   1.999  10.732 -0.3140  0.4394 -0.3907
  506TMC3     H 7576   3.283   2.009  10.373  0.6113 -0.5882 -1.4034
  506TMC3    H1 7577   3.246   1.768  10.723 -2.9995  1.0355 -1.6121
  506TMC3    H2 7578   3.438   1.603  10.389 -1.0320 -0.6031  0.8942
  506TMC3    C7 7579   3.496   1.661  10.619 -0.1921 -0.2984 -0.0161
  506TMC3    C8 7580   3.414   1.806  10.225 -0.6529 -0.1316  0.2017
  506TMC3    O1 7581   3.558   1.557  10.592  0.0887 -0.9818 -0.2894
  506TMC3    O2 7582   3.395   1.710  10.147  0.3291  0.0971 -0.4910
  507TMC3    C1 7583   3.655   3.106  15.206 -0.3726 -0.3844 -0.6973
  507TMC3    C2 7584   3.534   3.047  15.200  0.0503 -0.4696  0.2612
  507TMC3    C3 7585   3.469   3.054  15.080 -0.7853  0.2671  0.1020
  507TMC3    C4 7586   3.704   3.171  15.092  0.1734  0.0576  0.2235
  507TMC3    C5 7587   3.644   3.174  14.968  0.2841 -0.5369  0.9110
  507TMC3    C6 7588   3.524   3.105  14.963  0.1618 -0.2565 -0.4269
  507TMC3     C 7589   3.732   3.123  15.331  0.0222  0.5514 -0.5140
  507TMC3     O 7590   3.857   3.140  15.331 -0.4884 -0.0115 -0.1995
  507TMC3     H 7591   3.487   2.998  15.284  0.5881 -0.5864  0.4945
  507TMC3    H1 7592   3.796   3.228  15.094  0.0747  0.2181  0.1530
  507TMC3    H2 7593   3.474   3.097  14.868  0.2035 -3.0976 -0.2273
  507TMC3    C7 7594   3.623   3.302  14.905 -0.0192 -0.0687  0.0103
  507TMC3    C8 7595   3.327   3.099  15.099 -0.0364 -0.2551 -0.1578
  507TMC3    O1 7596   3.520   3.303  14.840  0.2195  1.0091 -0.3331
  507TMC3    O2 7597   3.270   3.058  15.196  0.8154  0.2615 -0.5329
  508MPD2     C 7598   0.565   0.978  15.765 -0.2261  0.1330 -0.0316
  508MPD2    C1 7599   0.523   1.018  15.894  0.7470  0.1236 -0.0797
  508MPD2    C2 7600   0.460   1.142  15.910  0.4607  0.0073  0.0593
  508MPD2    C3 7601   0.423   1.214  15.801  0.1520 -0.6101  0.1026
  508MPD2    C4 7602   0.472   1.176  15.676  0.7488 -0.5499 -0.3968
  508MPD2    C5 7603   0.543   1.060  15.658 -0.8408 -0.2076  0.1632
  508MPD2     H 7604   0.428   1.168  16.010  0.3363  0.6988 -0.1651
  508MPD2    H1 7605   0.454   1.236  15.587 -0.8515  1.5374  1.3559
  508MPD2    H2 7606   0.627   0.890  15.752  0.2355  0.7421 -1.9427
  508MPD2    H3 7607   0.582   1.040  15.559  1.7981 -0.4962  1.2759
  508MPD2     N 7608   0.350   1.330  15.824  0.0513 -0.0121  0.9023
  508MPD2    H5 7609   0.346   1.345  15.924 -0.5489 -1.4717  1.0985
  508MPD2    N1 7610   0.551   0.928  16.002 -0.2183  0.6110  0.0598
  508MPD2    H7 7611   0.620   0.858  15.976  0.2768  1.2210 -0.2423
  509TMC3    C1 7612   0.069   1.651  15.866 -0.0462  0.3384  0.0299
  509TMC3    C2 7613   0.152   1.713  15.954  0.3841  0.2906  0.7456
  509TMC3    C3 7614   0.283   1.682  15.955 -0.2083 -0.4789 -0.1182
  509TMC3    C4 7615   0.119   1.557  15.785 -0.0186  0.4691 -0.2295
  509TMC3    C5 7616   0.249   1.537  15.787  0.2256 -0.3262  0.0559
  509TMC3    C6 7617   0.342   1.603  15.859 -0.0689  0.1507  0.1525
  509TMC3     C 7618   4.693   1.717  15.821 -0.2569  0.1137  0.5823
  509TMC3     O 7619   4.614   1.767  15.901  0.7548 -0.2445  0.2493
  509TMC3     H 7620   0.106   1.770  16.035  0.5415  0.6190  0.6031
  509TMC3    H1 7621   0.051   1.496  15.727 -1.8109  1.7799  0.4850
  509TMC3    H2 7622   0.445   1.571  15.855  0.7672  2.6661  1.6086
  509TMC3    C7 7623   0.296   1.419  15.728  0.6028 -0.5945 -0.3193
  509TMC3    C8 7624   0.359   1.708  16.069  0.5815  0.7421 -0.3331
  509TMC3    O1 7625   0.279   1.400  15.607 -0.2242 -0.3796 -0.4007
  509TMC3    O2 7626   0.301   1.699  16.179  0.0283  0.0150 -0.1680
  510MPD2     C 7627   2.710   2.524  14.440  0.1083  0.1104 -0.0022
  510MPD2    C1 7628   2.796   2.475  14.532 -0.9155  1.2409  0.2578
  510MPD2    C2 7629   2.931   2.472  14.496  0.3577 -0.5650 -0.2915
  510MPD2    C3 7630   2.970   2.516  14.370 -0.3665 -0.5440  0.5826
  510MPD2    C4 7631   2.884   2.568  14.278 -0.4896 -0.1414  0.3408
  510MPD2    C5 7632   2.757   2.574  14.323 -0.1437 -0.3826  0.4174
  510MPD2     H 7633   3.002   2.446  14.573  0.1744 -0.0442  0.0470
  510MPD2    H1 7634   2.921   2.615  14.188  1.1982  0.5165  1.3698
  510MPD2    H2 7635   2.607   2.540  14.467 -0.5001 -0.6553 -1.8406
  510MPD2    H3 7636   2.686   2.608  14.248  3.1325 -2.0758 -3.4283
  510MPD2     N 7637   3.110   2.512  14.337 -0.8243 -0.1604 -0.1770
  510MPD2    H5 7638   3.177   2.495  14.411 -0.2628 -0.1774 -0.6986
  510MPD2    N1 7639   2.734   2.426  14.650  0.0124 -0.4543 -0.1724
  510MPD2    H7 7640   2.633   2.422  14.660 -0.2353 -1.1650 -3.0064
  511TMC3    C1 7641   2.730   2.283  14.828 -0.3422 -0.3240 -0.1861
  511TMC3    C2 7642   2.753   2.270  14.959  0.4079 -0.7584  0.4066
  511TMC3    C3 7643   2.690   2.170  15.027  0.7962  0.0528 -1.3498
  511TMC3    C4 7644   2.659   2.183  14.764  0.6950 -0.0401 -0.5237
  511TMC3    C5 7645   2.588   2.087  14.837 -0.3791  0.7531 -0.0105
  511TMC3    C6 7646   2.604   2.083  14.972  0.6477  0.2089 -0.6582
  511TMC3     C 7647   2.810   2.375  14.747 -0.1449 -0.1103  0.2089
  511TMC3     O 7648   2.932   2.382  14.764 -0.3536 -0.2728  0.4154
  511TMC3     H 7649   2.809   2.348  15.009 -0.1017 -0.8592  1.1497
  511TMC3    H1 7650   2.659   2.180  14.656 -0.9487 -2.0761 -0.4606
  511TMC3    H2 7651   2.567   1.996  15.026 -0.5456  0.7362 -0.6251
  511TMC3    C7 7652   2.568   1.965  14.760 -0.2188 -0.5130  0.6980
  511TMC3    C8 7653   2.715   2.174  15.163  0.4960 -0.4610 -0.4395
  511TMC3    O1 7654   2.630   1.942  14.660  0.6050 -0.3791 -0.1902
  511TMC3    O2 7655   2.796   2.255  15.209  0.1694  0.0877 -0.3285
  512TMC3    C1 7656   1.726   1.620  13.534 -0.5451 -0.3996  0.0263
  512TMC3    C2 7657   1.862   1.631  13.545 -1.0007  0.0552 -0.5441
  512TMC3    C3 7658   1.939   1.541  13.475  0.2105 -0.3092 -0.3789
  512TMC3    C4 7659   1.674   1.512  13.469  0.1773 -0.4401  0.5184
  512TMC3    C5 7660   1.755   1.413  13.410 -0.0365  0.4077 -0.1093
  512TMC3    C6 7661   1.889   1.435  13.410 -0.3399 -0.5740 -0.3656
  512TMC3     C 7662   1.655   1.743  13.523  0.3235  0.3000  0.5579
  512TMC3     O 7663   1.727   1.841  13.504 -0.3602  0.5915  0.4466
  512TMC3     H 7664   1.903   1.723  13.585 -1.2075 -0.6619  1.2986
  512TMC3    H1 7665   1.567   1.512  13.450  0.1282  0.1192  0.8274
  512TMC3    H2 7666   1.959   1.371  13.356  0.9511  0.3134  0.2635
  512TMC3    C7 7667   1.703   1.377  13.279  0.0506 -0.4071  1.1131
  512TMC3    C8 7668   2.073   1.581  13.447  0.1460 -0.4026 -0.7228
  512TMC3    O1 7669   1.695   1.461  13.189 -0.0620 -0.0396 -0.1532
  512TMC3    O2 7670   2.163   1.498  13.437  0.0869 -0.5122  0.6910
  513MPD2     C 7671   4.201   1.270  12.805 -0.3924  0.4604  0.1306
  513MPD2    C1 7672   4.232   1.406  12.813 -1.0080  0.6243  0.9604
  513MPD2    C2 7673   4.151   1.491  12.882 -0.2235  0.2933  0.1026
  513MPD2    C3 7674   4.032   1.442  12.927  0.3544 -0.8209 -0.3374
  513MPD2    C4 7675   3.989   1.309  12.921 -0.7799 -0.3313  0.2278
  513MPD2    C5 7676   4.074   1.225  12.856 -0.0677  0.4955  0.0711
  513MPD2     H 7677   4.174   1.593  12.910 -0.1643  0.4225 -0.4208
  513MPD2    H1 7678   3.901   1.268  12.969  0.4390 -0.7521  2.0886
  513MPD2    H2 7679   4.262   1.193  12.759 -0.5994  0.6212 -0.4143
  513MPD2    H3 7680   4.043   1.123  12.836 -0.9763  0.9561 -0.9019
  513MPD2     N 7681   3.963   1.540  12.999  0.0033  0.3337  0.1986
  513MPD2    H5 7682   4.006   1.632  13.005 -2.3388  1.3358  1.6297
  513MPD2    N1 7683   4.356   1.442  12.748  0.5809  0.0407 -0.1879
  513MPD2    H7 7684   4.404   1.371  12.694  0.8541  1.2005 -1.4647
  514TMC3    C1 7685   4.474   1.596  12.631 -0.8327 -0.7207 -0.1450
  514TMC3    C2 7686   4.444   1.535  12.513  0.7047 -0.1380 -0.5902
  514TMC3    C3 7687   4.402   1.614  12.416 -0.1027 -0.5230 -0.0758
  514TMC3    C4 7688   4.497   1.728  12.634  0.8491  0.6504 -0.0115
  514TMC3    C5 7689   4.455   1.808  12.531 -0.4034  0.4344  1.0541
  514TMC3    C6 7690   4.409   1.748  12.418 -0.2708 -0.1545 -0.1390
  514TMC3     C 7691   4.392   1.570  12.747 -0.2500 -0.4557 -0.4243
  514TMC3     O 7692   4.347   1.672  12.793 -0.2136 -0.2268  0.1296
  514TMC3     H 7693   4.427   1.429  12.505 -3.4201  0.3868  0.8871
  514TMC3    H1 7694   4.536   1.778  12.722 -1.3444  0.5511  1.0081
  514TMC3    H2 7695   4.383   1.819  12.340  1.2387 -0.2367 -0.7330
  514TMC3    C7 7696   4.395   1.936  12.560  0.0725 -1.1569  0.0397
  514TMC3    C8 7697   4.326   1.538  12.312  0.1823  0.0031  1.1287
  514TMC3    O1 7698   4.364   2.018  12.476 -0.0071 -0.1911  0.5408
  514TMC3    O2 7699   4.336   1.420  12.282 -0.3831  0.5711 -0.4637
  515MPD2     C 7700   1.810   3.932  15.243 -0.3492 -0.0304  0.2759
  515MPD2    C1 7701   1.834   3.801  15.248 -0.4175  0.2059 -0.3707
  515MPD2    C2 7702   1.899   3.753  15.361 -0.3428  0.5742 -0.0792
  515MPD2    C3 7703   1.963   3.833  15.450 -0.0725 -0.0424  0.5568
  515MPD2    C4 7704   1.929   3.969  15.444 -0.3607 -0.1362  0.2644
  515MPD2    C5 7705   1.860   4.018  15.338  0.6001  0.1097  0.6463
  515MPD2     H 7706   1.916   3.646  15.375 -0.1564  0.7814  1.2856
  515MPD2    H1 7707   1.982   4.039  15.507 -1.5717  0.8741  0.1766
  515MPD2    H2 7708   1.764   3.980  15.157 -0.6310 -1.6070 -0.4429
  515MPD2    H3 7709   1.850   4.126  15.336 -1.8982 -0.1484 -0.4707
  515MPD2     N 7710   2.041   3.790  15.564  0.8764 -0.5564 -0.3211
  515MPD2    H5 7711   2.069   3.865  15.626  1.9978 -1.9673  0.8722
  515MPD2    N1 7712   1.782   3.712  15.153 -0.1481  0.3434  0.1641
  515MPD2    H7 7713   1.773   3.614  15.182 -0.3022  0.5111  0.6927
  516TMC3    C1 7714   1.673   3.645  14.959 -0.3480  0.0407  0.4723
  516TMC3    C2 7715   1.645   3.658  14.822 -0.3758 -0.0957 -0.3420
  516TMC3    C3 7716   1.558   3.576  14.761 -0.4154  0.6811  0.2566
  516TMC3    C4 7717   1.632   3.528  15.023  0.4113  0.2899  0.1222
  516TMC3    C5 7718   1.543   3.449  14.962 -0.3257 -0.6997  0.0002
  516TMC3    C6 7719   1.497   3.476  14.829 -0.6611  0.2788  0.1372
  516TMC3     C 7720   1.752   3.748  15.023  0.3191  0.5108  0.3701
  516TMC3     O 7721   1.784   3.852  14.965  0.7912 -0.3753 -0.1643
  516TMC3     H 7722   1.675   3.752  14.777 -1.4069 -0.2490 -1.3526
  516TMC3    H1 7723   1.642   3.518  15.131  0.4628 -3.5049 -0.2341
  516TMC3    H2 7724   1.414   3.418  14.791  1.0176 -1.0545 -1.5124
  516TMC3    C7 7725   1.457   3.363  15.044  0.3468  0.0147  0.3114
  516TMC3    C8 7726   1.507   3.613  14.633 -0.6570  0.6665  0.7686
  516TMC3    O1 7727   1.335   3.374  15.037 -0.1537  0.0860  0.3788
  516TMC3    O2 7728   1.392   3.580  14.605  0.4014 -0.2499  0.8684
  517MPD2     C 7729   1.299   4.653  17.448  0.0436  0.0116 -0.1264
  517MPD2    C1 7730   1.390   4.616  17.544 -0.2443 -0.5511 -0.0506
  517MPD2    C2 7731   1.417   4.712  17.644 -0.5917  0.3995 -0.2612
  517MPD2    C3 7732   1.335   0.083  17.661  0.4669 -0.1858  0.2038
  517MPD2    C4 7733   1.236   0.103  17.571  0.2786  0.1027  0.2367
  517MPD2    C5 7734   1.213   0.018  17.459  0.0591  0.2533  0.3832
  517MPD2     H 7735   1.495   4.696  17.717 -0.2293 -0.0746 -0.7508
  517MPD2    H1 7736   1.175   0.193  17.578 -0.7164 -0.6370  1.2014
  517MPD2    H2 7737   1.288   4.587  17.362 -0.4927 -1.7369  1.2727
  517MPD2    H3 7738   1.131   0.032  17.390  0.7561  1.3308 -0.2157
  517MPD2     N 7739   1.352   0.176   0.005 -0.6118  0.2110 -0.4147
  517MPD2    H5 7740   1.303   0.264  17.755 -0.7708  0.0115 -1.5321
  517MPD2    N1 7741   1.474   4.501  17.537 -0.2380  0.2543 -0.9893
  517MPD2    H7 7742   1.553   4.497  17.600 -2.2584 -1.2822  1.4520
  518TMC3    C1 7743   1.537   4.286  17.468 -0.4907 -0.3208  0.1232
  518TMC3    C2 7744   1.490   4.163  17.428  0.0187 -0.7510 -0.0722
  518TMC3    C3 7745   1.578   4.057  17.436 -1.1036 -0.0197  0.0578
  518TMC3    C4 7746   1.651   4.299  17.544  0.1082  0.5137 -0.0620
  518TMC3    C5 7747   1.728   4.187  17.563 -0.4493  0.4110  0.7478
  518TMC3    C6 7748   1.692   4.065  17.508  0.2879 -0.5293  0.3291
  518TMC3     C 7749   1.454   4.405  17.443  0.3453 -0.3428 -0.0425
  518TMC3     O 7750   1.363   4.387  17.366  0.3398 -0.3670 -0.6834
  518TMC3     H 7751   1.399   4.165  17.370  1.3785  0.5871 -2.1635
  518TMC3    H1 7752   1.681   4.395  17.584  2.7443 -0.1994 -0.3097
  518TMC3    H2 7753   1.737   3.974  17.545  0.2577  0.1662  2.0929
  518TMC3    C7 7754   1.805   4.179  17.687  0.5041  0.5763 -0.3816
  518TMC3    C8 7755   1.574   3.950  17.331 -0.1783  0.0663  0.4741
  518TMC3    O1 7756   1.779   4.257   0.023  0.7569  0.1209  0.2892
  518TMC3    O2 7757   1.684   3.893  17.312  0.5388  0.1444  0.4149
  519MPD2     C 7758   2.945   3.204  14.326 -1.2456 -0.5114 -0.8768
  519MPD2    C1 7759   2.907   3.274  14.219 -0.7024 -0.3068  0.4128
  519MPD2    C2 7760   2.985   3.293  14.106  0.4408  0.4807 -0.5156
  519MPD2    C3 7761   3.102   3.220  14.103 -0.2155  0.0069  0.4120
  519MPD2    C4 7762   3.143   3.143  14.217 -0.1584  0.3176  1.5904
  519MPD2    C5 7763   3.059   3.129  14.320  0.0912 -0.2442 -0.3694
  519MPD2     H 7764   2.957   3.371  14.037  3.1298  0.4204 -1.6243
  519MPD2    H1 7765   3.244   3.104  14.216 -0.4683 -0.3571 -3.1254
  519MPD2    H2 7766   2.883   3.192  14.414  1.5350 -2.3509  0.8253
  519MPD2    H3 7767   3.075   3.068  14.408  0.7448  0.9590  0.3523
  519MPD2     N 7768   3.190   3.241  13.992 -0.4291  0.0745 -0.1524
  519MPD2    H5 7769   3.273   3.184  13.997  0.5157  1.7856  3.1912
  519MPD2    N1 7770   2.782   3.340  14.242  0.3108 -0.1818 -0.0487
  519MPD2    H7 7771   2.730   3.331  14.329  1.2419  1.9916  0.7396
  520TMC3    C1 7772   3.277   3.291  13.783  0.0482 -0.1447  0.3474
  520TMC3    C2 7773   3.232   3.257  13.657  0.6189 -0.0068  0.7474
  520TMC3    C3 7774   3.289   3.154  13.600 -0.2463  0.3945 -0.5828
  520TMC3    C4 7775   3.392   3.232  13.833 -0.5965 -0.4723 -0.0309
  520TMC3    C5 7776   3.452   3.139  13.763  0.3406 -0.4150  0.1896
  520TMC3    C6 7777   3.398   3.094  13.644 -0.1167 -0.2336 -1.0924
  520TMC3     C 7778   3.174   3.320  13.880 -0.7792  0.5853  0.1150
  520TMC3     O 7779   3.088   3.402  13.845 -0.2144  0.1293  0.2895
  520TMC3     H 7780   3.148   3.310  13.614 -0.3861 -0.5016  2.0864
  520TMC3    H1 7781   3.430   3.266  13.929  1.1512  1.6103 -1.4746
  520TMC3    H2 7782   3.444   3.018  13.581  2.9023 -0.5521  1.5038
  520TMC3    C7 7783   3.557   3.054  13.828 -0.1351  0.2055 -0.1656
  520TMC3    C8 7784   3.220   3.102  13.482  0.2199 -0.5767  0.0709
  520TMC3    O1 7785   3.601   3.105  13.928  0.0781 -0.2920 -0.3374
  520TMC3    O2 7786   3.284   3.045  13.390 -0.5003 -0.2878  0.3533
  521MPD2     C 7787   4.018   0.418  17.327  0.2315  0.3767 -0.5158
  521MPD2    C1 7788   4.028   0.552  17.341  0.2963 -0.3432 -0.1100
  521MPD2    C2 7789   4.147   0.613  17.307 -0.4124  0.3638  0.1152
  521MPD2    C3 7790   4.264   0.548  17.292 -0.4419  0.6467 -0.1743
  521MPD2    C4 7791   4.254   0.407  17.297  0.2971 -0.0087  0.1517
  521MPD2    C5 7792   4.130   0.344  17.311 -0.6758 -0.2419  0.0126
  521MPD2     H 7793   4.150   0.721  17.307  3.9231  0.2378  2.2065
  521MPD2    H1 7794   4.340   0.342  17.283 -2.6865 -3.9842  0.3349
  521MPD2    H2 7795   3.930   0.356  17.336  0.3331  0.0362 -1.8446
  521MPD2    H3 7796   4.118   0.237  17.306 -1.0975 -0.1921  0.0080
  521MPD2     N 7797   4.379   0.617  17.266  0.0081 -0.0273  0.6024
  521MPD2    H5 7798   4.375   0.719  17.270  1.2043  0.0153  0.8287
  521MPD2    N1 7799   3.916   0.629  17.381 -0.1799  0.0443  0.3736
  521MPD2    H7 7800   3.828   0.580  17.390  0.2340 -0.9290 -0.8104
  522TMC3    C1 7801   4.601   0.673  17.230 -0.0683  0.4763 -0.2893
  522TMC3    C2 7802   4.728   0.630  17.210  0.0119  0.0819 -0.0547
  522TMC3    C3 7803   0.094   0.718  17.194 -0.6309 -0.0806  0.9054
  522TMC3    C4 7804   4.569   0.810  17.227  0.5391  0.7786  0.0917
  522TMC3    C5 7805   4.673   0.893  17.203  0.1471  0.6637 -0.3252
  522TMC3    C6 7806   0.069   0.851  17.188 -0.8224 -0.0603  0.4498
  522TMC3     C 7807   4.502   0.571  17.242  0.1230 -0.2801 -0.7316
  522TMC3     O 7808   4.540   0.459  17.274 -0.0052 -0.0674  0.8244
  522TMC3     H 7809   4.740   0.523  17.205 -0.9951  0.0012 -0.9170
  522TMC3    H1 7810   4.470   0.851  17.247  0.9441  2.1372 -0.7507
  522TMC3    H2 7811   0.150   0.921  17.167 -1.2530 -0.0200 -1.0970
  522TMC3    C7 7812   4.654   1.029  17.161 -0.3906  0.1434 -0.1447
  522TMC3    C8 7813   0.220   0.659  17.159 -0.1224 -0.2419 -0.3160
  522TMC3    O1 7814   0.004   1.112  17.171  0.1807  0.2388 -0.0850
  522TMC3    O2 7815   0.236   0.545  17.200 -0.0191  0.2102  0.4939
  523MPD2     C 7816   1.685   1.306   9.845 -0.1634 -0.6082 -0.5136
  523MPD2    C1 7817   1.642   1.378   9.960 -0.5343 -0.2856  0.2748
  523MPD2    C2 7818   1.590   1.509   9.944 -0.3432 -0.3955 -0.3161
  523MPD2    C3 7819   1.573   1.567   9.818  0.6188 -0.1909 -0.0012
  523MPD2    C4 7820   1.624   1.498   9.709  0.1620 -0.5648 -0.2346
  523MPD2    C5 7821   1.673   1.369   9.726  0.4148  0.1090 -0.8239
  523MPD2     H 7822   1.561   1.564  10.033 -1.7966 -0.9345 -0.4536
  523MPD2    H1 7823   1.616   1.526   9.605 -0.2898 -1.5829 -0.4842
  523MPD2    H2 7824   1.742   1.214   9.849  0.0255 -0.3309  3.0413
  523MPD2    H3 7825   1.713   1.312   9.643  0.7635 -0.2735 -0.3899
  523MPD2     N 7826   1.494   1.679   9.788  0.0677 -0.4900  0.3841
  523MPD2    H5 7827   1.465   1.688   9.691  0.2043 -0.7675  0.3199
  523MPD2    N1 7828   1.647   1.311  10.082 -0.1363 -0.2093 -0.3157
  523MPD2    H7 7829   1.698   1.224  10.073 -1.6114 -0.9819 -1.2515
  524TMC3    C1 7830   1.327   1.827   9.812 -0.4310  0.2537  0.2185
  524TMC3    C2 7831   1.279   1.793   9.689 -0.9097  0.1998 -0.4977
  524TMC3    C3 7832   1.186   1.874   9.628 -0.4929  0.4841  0.1278
  524TMC3    C4 7833   1.287   1.939   9.880 -0.2266 -0.6435 -0.4467
  524TMC3    C5 7834   1.197   2.028   9.815  0.3854 -0.0411 -0.0573
  524TMC3    C6 7835   1.144   1.992   9.689  0.1971  0.6995 -0.2588
  524TMC3     C 7836   1.439   1.759   9.874  0.2382 -0.4900 -0.3236
  524TMC3     O 7837   1.466   1.778   9.995 -0.1199 -0.1972  0.1482
  524TMC3     H 7838   1.283   1.686   9.672  0.0397  0.2965 -0.8704
  524TMC3    H1 7839   1.323   1.965   9.979 -2.2942  1.5217 -0.2494
  524TMC3    H2 7840   1.063   2.041   9.636 -1.0705  0.0279  1.0447
  524TMC3    C7 7841   1.137   2.140   9.893  0.8728  0.3959  0.2823
  524TMC3    C8 7842   1.111   1.827   9.519  0.4140 -0.2695  0.1245
  524TMC3    O1 7843   1.178   2.150  10.004 -0.4905 -0.1783  0.2616
  524TMC3    O2 7844   1.004   1.885   9.494 -0.1772 -0.4109 -0.3854
  525MPD2     C 7845   4.235   3.017  14.623  0.0672  0.0700 -0.7265
  525MPD2    C1 7846   4.369   3.022  14.602  0.1296  0.3548  0.4720
  525MPD2    C2 7847   4.425   3.139  14.562  0.4101 -0.0475 -0.1864
  525MPD2    C3 7848   4.350   3.257  14.553 -0.3077  0.5820 -0.3567
  525MPD2    C4 7849   4.215   3.254  14.586  0.1923 -0.0651  0.0678
  525MPD2    C5 7850   4.167   3.133  14.625 -0.4491  0.8704 -0.6666
  525MPD2     H 7851   4.530   3.146  14.537  0.0336  0.4706 -1.6252
  525MPD2    H1 7852   4.156   3.344  14.587 -1.0978 -0.8941 -0.8804
  525MPD2    H2 7853   4.191   2.922  14.650  1.8788 -0.3326  0.7114
  525MPD2    H3 7854   4.062   3.131  14.652  0.1744  0.2237  1.7168
  525MPD2     N 7855   4.415   3.378  14.518 -0.6620 -0.5882 -0.0962
  525MPD2    H5 7856   4.362   3.465  14.521  1.2046  0.6049 -1.7458
  525MPD2    N1 7857   4.450   2.904  14.605 -0.3300 -0.2015  0.1502
  525MPD2    H7 7858   4.539   2.916  14.560 -0.6342  0.0262 -0.3916
  526TMC3    C1 7859   4.527   2.691  14.666  0.0753 -0.1543  0.6625
  526TMC3    C2 7860   4.542   2.599  14.767  0.1484  0.2210  0.6609
  526TMC3    C3 7861   4.671   2.541  14.783 -0.3428 -0.1460  0.5992
  526TMC3    C4 7862   4.628   2.719  14.578  0.2483  0.1074  0.1077
  526TMC3    C5 7863   0.009   2.664  14.604 -0.6560 -0.5153 -0.4090
  526TMC3    C6 7864   0.034   2.571  14.704  0.0099  0.6775 -1.0701
  526TMC3     C 7865   4.419   2.793  14.679 -0.3106  0.2493  0.0193
  526TMC3     O 7866   4.312   2.758  14.736 -0.3256 -0.4693 -0.1634
  526TMC3     H 7867   4.460   2.568  14.831  0.9432 -2.6982  0.2574
  526TMC3    H1 7868   4.617   2.775  14.486  2.9688  0.9918  0.3217
  526TMC3    H2 7869   0.128   2.534  14.742 -2.1633 -2.3706  1.3400
  526TMC3    C7 7870   0.123   2.702  14.523 -0.4843 -0.0010  0.2714
  526TMC3    C8 7871   4.706   2.468  14.912  0.1949 -0.4792  0.5625
  526TMC3    O1 7872   0.141   2.822  14.517 -0.0648  0.2369  0.0698
  526TMC3    O2 7873   0.070   2.407  14.910 -0.7702  0.1641  0.4199
  527MPD2     C 7874   2.999   4.144   1.134 -0.3157 -0.4074  0.3059
  527MPD2    C1 7875   3.002   4.257   1.053 -0.0278 -0.8841  0.1839
  527MPD2    C2 7876   3.123   4.324   1.035  0.2930 -0.7371  0.0739
  527MPD2    C3 7877   3.235   4.290   1.099  0.9966 -0.1158 -0.5241
  527MPD2    C4 7878   3.242   4.171   1.166 -0.6681  0.3637  0.4984
  527MPD2    C5 7879   3.123   4.101   1.186  0.2619  0.1075  0.2635
  527MPD2     H 7880   3.120   4.414   0.974  1.5081 -2.0776 -1.9690
  527MPD2    H1 7881   3.324   4.131   1.224  0.4808 -1.2185 -2.1970
  527MPD2    H2 7882   2.904   4.094   1.146 -0.7772  0.3022 -0.4147
  527MPD2    H3 7883   3.131   4.018   1.254  2.2588  0.8606  0.9509
  527MPD2     N 7884   3.341   4.385   1.101  0.0754  0.2213 -0.5484
  527MPD2    H5 7885   3.334   4.471   1.048 -1.5885  0.0383 -0.6209
  527MPD2    N1 7886   2.887   4.332   1.020  0.2466  0.1723  0.2939
  527MPD2    H7 7887   2.900   4.399   0.944  0.5249 -2.1411 -1.7239
  528TMC3    C1 7888   2.650   4.396   1.002  0.0851 -0.2746  0.0379
  528TMC3    C2 7889   2.687   4.516   0.961 -0.8951  0.8759 -0.0289
  528TMC3    C3 7890   2.588   4.586   0.889 -0.4440  0.6318 -0.4908
  528TMC3    C4 7891   2.523   4.348   0.982 -0.2665  0.3101 -0.3245
  528TMC3    C5 7892   2.429   4.430   0.930  0.3443  0.4640  0.3677
  528TMC3    C6 7893   2.456   4.548   0.874 -0.1040  0.1140 -0.2120
  528TMC3     C 7894   2.758   4.295   1.042 -1.1659 -0.0056  0.5046
  528TMC3     O 7895   2.719   4.188   1.082 -0.2371  0.3915  0.4263
  528TMC3     H 7896   2.787   4.556   0.944 -0.6135  0.3187  0.3219
  528TMC3    H1 7897   2.491   4.251   1.017  0.7524  0.5749  1.3790
  528TMC3    H2 7898   2.371   4.605   0.837  0.1179  0.1019 -0.7421
  528TMC3    C7 7899   2.288   4.398   0.950 -0.2917 -0.2045 -0.6040
  528TMC3    C8 7900   2.623   4.706   0.816  0.9139  0.4994  0.3053
  528TMC3    O1 7901   2.260   4.283   0.924 -0.9049  0.2008  0.0381
  528TMC3    O2 7902   2.736   0.007   0.828 -0.4602  1.1205  0.6032
  529MPD2     C 7903   0.588   3.689   0.803  0.5388 -0.1509 -0.3926
  529MPD2    C1 7904   0.686   3.648   0.715 -0.2467  0.4054 -0.0250
  529MPD2    C2 7905   0.670   3.680   0.577 -0.5915 -0.5600 -0.1896
  529MPD2    C3 7906   0.571   3.767   0.540  0.0115 -0.1603  0.3012
  529MPD2    C4 7907   0.475   3.814   0.627 -0.4365  0.1157 -0.1327
  529MPD2    C5 7908   0.491   3.775   0.757 -0.5107  0.4408  0.8329
  529MPD2     H 7909   0.742   3.644   0.504 -0.3307 -1.3980  0.4806
  529MPD2    H1 7910   0.384   3.861   0.591  0.0853  1.4176  0.2508
  529MPD2    H2 7911   0.587   3.667   0.909 -1.9703 -0.9474 -0.5757
  529MPD2    H3 7912   0.411   3.793   0.828 -0.7178  0.6211  0.5545
  529MPD2     N 7913   0.550   3.810   0.400 -0.2714  0.3849 -0.7461
  529MPD2    H5 7914   0.466   3.866   0.384 -1.1468 -1.1551 -1.5235
  529MPD2    N1 7915   0.785   3.547   0.752  0.1907 -0.2824  0.1177
  529MPD2    H7 7916   0.828   3.504   0.670 -1.4269 -0.8465 -0.4296
  530TMC3    C1 7917   0.935   3.413   0.897  0.3071  0.6308  0.8705
  530TMC3    C2 7918   0.989   3.397   1.019  0.0916  0.1031 -0.3029
  530TMC3    C3 7919   1.057   3.284   1.051 -0.4478  0.3475 -0.8630
  530TMC3    C4 7920   0.912   3.303   0.816 -0.1113  0.4693 -0.8054
  530TMC3    C5 7921   0.966   3.186   0.853 -0.6263 -0.3530  0.7035
  530TMC3    C6 7922   1.055   3.172   0.961  0.2495  0.3725 -0.3194
  530TMC3     C 7923   0.829   3.521   0.880 -0.2002  0.1103  0.1821
  530TMC3     O 7924   0.793   3.575   0.980  0.3663 -0.1380 -0.1763
  530TMC3     H 7925   0.985   3.482   1.087 -0.7173  0.3483 -0.6554
  530TMC3    H1 7926   0.840   3.299   0.736  2.4488 -1.5669 -3.0141
  530TMC3    H2 7927   1.104   3.083   1.000 -1.0216 -0.5692 -0.9143
  530TMC3    C7 7928   0.906   3.062   0.813  0.3396 -0.1783 -0.2104
  530TMC3    C8 7929   1.109   3.277   1.185 -0.4081  0.0020 -0.0886
  530TMC3    O1 7930   0.879   3.040   0.696 -0.3565  0.8811  0.4429
  530TMC3    O2 7931   1.064   3.354   1.268  0.7565  0.4159  0.4995
  531MPD2     C 7932   4.056   2.170  12.860  0.1852 -0.3080  0.1408
  531MPD2    C1 7933   4.090   2.048  12.922  0.0437  0.0553  0.0330
  531MPD2    C2 7934   4.198   1.985  12.863  0.5892  0.3563 -0.2645
  531MPD2    C3 7935   4.265   2.029  12.753  0.1452  0.8925  0.6526
  531MPD2    C4 7936   4.230   2.155  12.700  0.3294 -0.5930  0.1401
  531MPD2    C5 7937   4.129   2.227  12.760  0.7500  0.0371  0.2850
  531MPD2     H 7938   4.226   1.886  12.900 -0.2822 -0.8946 -2.9897
  531MPD2    H1 7939   4.280   2.201  12.615  1.2042 -0.6190  0.6361
  531MPD2    H2 7940   3.973   2.227  12.901 -0.9710 -0.3568 -2.1722
  531MPD2    H3 7941   4.107   2.329  12.732  0.6539  0.0776  0.5040
  531MPD2     N 7942   4.356   1.935  12.695 -0.1410 -0.4599  0.2139
  531MPD2    H5 7943   4.377   1.847  12.741  0.2653 -0.1378  0.6365
  531MPD2    N1 7944   4.018   2.004  13.035  0.1621 -0.2803  0.8148
  531MPD2    H7 7945   3.937   2.057  13.064  1.2775  0.3973  2.6699
  532TMC3    C1 7946   3.943   1.852  13.195 -0.2363  0.2943  0.0715
  532TMC3    C2 7947   3.875   1.760  13.123  0.1286  0.0917 -0.1513
  532TMC3    C3 7948   3.845   1.634  13.173 -0.9004 -0.6359 -0.3475
  532TMC3    C4 7949   3.990   1.821  13.324  0.1108  0.6299  0.3120
  532TMC3    C5 7950   3.963   1.697  13.371  0.2277  0.1212  0.0749
  532TMC3    C6 7951   3.890   1.602  13.296  0.3864  0.7249  0.1369
  532TMC3     C 7952   4.045   1.887  13.101  0.4589  1.1410 -0.0137
  532TMC3     O 7953   4.125   1.798  13.082  0.1323 -0.1300 -0.3751
  532TMC3     H 7954   3.846   1.785  13.022 -0.5772 -1.0377 -0.2196
  532TMC3    H1 7955   4.058   1.883  13.381  0.2766  0.7136  0.0247
  532TMC3    H2 7956   3.872   1.506  13.344 -0.2173  1.2910  1.0451
  532TMC3    C7 7957   4.032   1.650  13.493 -0.2812  0.4404  0.0419
  532TMC3    C8 7958   3.850   1.524  13.081 -0.2455 -0.2407 -0.1239
  532TMC3    O1 7959   4.072   1.743  13.561  0.8079 -0.4515  1.2936
  532TMC3    O2 7960   3.797   1.421  13.118 -0.0154 -0.2231 -0.2923
  533TMC3    C1 7961   4.578   3.540  14.484 -0.6331  0.7857  0.5036
  533TMC3    C2 7962   4.686   3.582  14.406 -0.2023 -0.4178 -0.5183
  533TMC3    C3 7963   4.736   3.702  14.446 -0.7036 -0.4324  0.4228
  533TMC3    C4 7964   4.535   3.604  14.595  0.0439 -0.2399  0.5447
  533TMC3    C5 7965   4.600   3.717  14.638  0.3367 -0.2297 -0.2461
  533TMC3    C6 7966   4.706   3.771  14.558 -0.3811 -0.0611 -0.0501
  533TMC3     C 7967   4.545   3.398  14.472 -0.4510 -0.4624 -0.0424
  533TMC3     O 7968   4.627   3.321  14.429 -0.4499 -0.1340  0.4261
  533TMC3     H 7969   4.711   3.533  14.312 -1.6535 -0.8329 -0.7017
  533TMC3    H1 7970   4.464   3.556  14.662  0.1311 -0.0268  0.7903
  533TMC3    H2 7971   0.001   3.871  14.580  3.0833 -1.6609  1.7090
  533TMC3    C7 7972   4.605   3.752  14.775 -0.4273  0.0028 -0.3326
  533TMC3    C8 7973   0.101   3.761  14.366  0.0589  0.3745  0.3239
  533TMC3    O1 7974   4.629   3.867  14.810 -0.0430 -0.0187 -0.2113
  533TMC3    O2 7975   0.189   3.684  14.327 -0.4490 -0.0595  0.3792
  534MPD2     C 7976   3.156   3.854   1.927  0.9142  0.0524 -0.2675
  534MPD2    C1 7977   3.092   3.868   1.803  0.2059 -0.3704 -0.1689
  534MPD2    C2 7978   3.012   3.766   1.757  0.1736  0.1483 -0.8684
  534MPD2    C3 7979   3.014   3.645   1.820  1.2746  0.1695  0.2548
  534MPD2    C4 7980   3.090   3.625   1.935 -0.7904  0.2278 -0.2936
  534MPD2    C5 7981   3.155   3.733   1.986  0.1077  0.5192  0.8094
  534MPD2     H 7982   2.950   3.774   1.669 -0.1674  0.6045 -0.5874
  534MPD2    H1 7983   3.114   3.536   1.991  0.2988  1.4250  1.1478
  534MPD2    H2 7984   3.224   3.928   1.969  1.3200 -0.1413 -0.5770
  534MPD2    H3 7985   3.215   3.717   2.075 -0.4388 -1.3499  0.8411
  534MPD2     N 7986   2.949   3.534   1.760 -0.2194  0.4296 -0.5176
  534MPD2    H5 7987   2.904   3.560   1.673  0.1358  4.5327  0.5302
  534MPD2    N1 7988   3.083   3.991   1.734  0.7660  0.3352 -0.2207
  534MPD2    H7 7989   3.017   3.994   1.656  1.5966  0.3499 -0.9209
  535TMC3    C1 7990   2.825   3.343   1.726  0.4343 -0.0320  0.4075
  535TMC3    C2 7991   2.724   3.271   1.786  0.1125 -0.8054  0.1971
  535TMC3    C3 7992   2.629   3.215   1.703  0.7543 -0.4946  0.6939
  535TMC3    C4 7993   2.857   3.341   1.588 -0.0237  0.4126  0.1987
  535TMC3    C5 7994   2.766   3.275   1.513  0.3102 -0.5156 -0.2286
  535TMC3    C6 7995   2.657   3.212   1.564 -0.0094 -0.4783 -0.4935
  535TMC3     C 7996   2.920   3.409   1.815  0.2619  0.3483  0.3700
  535TMC3     O 7997   2.940   3.374   1.931 -0.3165  0.2321  0.1931
  535TMC3     H 7998   2.705   3.281   1.892  3.2958 -0.3372  0.7076
  535TMC3    H1 7999   2.936   3.397   1.540 -2.6222  2.4720 -1.6392
  535TMC3    H2 8000   2.585   3.187   1.487  0.1689 -0.2095 -0.7454
  535TMC3    C7 8001   2.768   3.306   1.370 -0.2157  0.7018  0.0137
  535TMC3    C8 8002   2.486   3.206   1.745  0.1489  0.3520 -0.5605
  535TMC3    O1 8003   2.709   3.239   1.290 -0.2141  0.2570 -0.2810
  535TMC3    O2 8004   2.409   3.171   1.660 -0.1270 -0.6422 -0.2293
  536MPD2     C 8005   1.564   2.481  16.183 -0.1321 -0.4856  0.0306
  536MPD2    C1 8006   1.440   2.446  16.230 -0.1915 -0.2352  0.4249
  536MPD2    C2 8007   1.332   2.449  16.143 -0.1252  0.5916  0.0948
  536MPD2    C3 8008   1.351   2.502  16.018 -0.1068  0.5270 -0.2588
  536MPD2    C4 8009   1.483   2.533  15.970  0.1421 -0.2598 -0.3930
  536MPD2    C5 8010   1.586   2.523  16.054 -0.2557 -0.1428  0.0392
  536MPD2     H 8011   1.236   2.413  16.179 -0.7493  1.5810 -0.5860
  536MPD2    H1 8012   1.502   2.555  15.866  1.4748 -0.5402 -0.2007
  536MPD2    H2 8013   1.648   2.469  16.249 -0.6378 -0.9417  0.5908
  536MPD2    H3 8014   1.687   2.543  16.019  0.9592 -2.4079  2.1930
  536MPD2     N 8015   1.241   2.509  15.927 -0.0818 -0.1280 -0.6311
  536MPD2    H5 8016   1.269   2.565  15.847  1.6957 -1.5023 -0.9457
  536MPD2    N1 8017   1.440   2.395  16.355  0.1799  0.3395 -0.5153
  536MPD2    H7 8018   1.526   2.386  16.409 -0.0376  1.3975  0.0125
  537TMC3    C1 8019   1.367   2.294  16.557  0.4218  1.1555  0.8075
  537TMC3    C2 8020   1.472   2.344  16.636 -0.3127 -0.9743 -0.1348
  537TMC3    C3 8021   1.503   2.267  16.746 -0.2458 -0.0401 -0.8636
  537TMC3    C4 8022   1.287   2.188  16.584 -0.5279 -0.1568 -0.0795
  537TMC3    C5 8023   1.328   2.118  16.693 -0.0770  0.1792 -0.6988
  537TMC3    C6 8024   1.429   2.155  16.778 -0.8461 -0.0198  0.0285
  537TMC3     C 8025   1.331   2.354  16.429 -0.2427  0.2195  0.3852
  537TMC3     O 8026   1.224   2.322  16.380 -0.0390  0.2727  0.0853
  537TMC3     H 8027   1.503   2.445  16.610  1.2240 -1.6752 -1.0741
  537TMC3    H1 8028   1.210   2.158  16.514 -1.2478 -0.0458  0.6708
  537TMC3    H2 8029   1.439   2.104  16.873 -4.4295 -2.6214 -0.9682
  537TMC3    C7 8030   1.246   2.006  16.732  0.2318  0.9341 -1.2271
  537TMC3    C8 8031   1.596   2.328  16.850 -0.0830  0.1722 -0.5928
  537TMC3    O1 8032   1.125   2.023  16.728 -0.4937 -0.3581  0.1311
  537TMC3    O2 8033   1.588   2.276  16.961  0.3034  0.1275  0.0841
  538TMC3    C1 8034   2.169   1.137  11.372  0.0484 -0.6558 -0.6745
  538TMC3    C2 8035   2.250   1.036  11.329  0.1860  0.5561  0.1022
  538TMC3    C3 8036   2.271   1.035  11.193  0.0743 -0.1486  0.4608
  538TMC3    C4 8037   2.113   1.225  11.287  0.4632 -0.2393 -0.1954
  538TMC3    C5 8038   2.144   1.216  11.152 -0.0493  0.3954 -0.1616
  538TMC3    C6 8039   2.229   1.121  11.100 -0.7651 -0.3641 -0.2399
  538TMC3     C 8040   2.116   1.128  11.502 -0.1233  0.1153  0.3102
  538TMC3     O 8041   2.005   1.179  11.514 -0.4619 -0.1200  0.1416
  538TMC3     H 8042   2.294   0.958  11.391  0.8929  1.3944  0.6603
  538TMC3    H1 8043   2.045   1.304  11.318 -0.9227 -2.0880  1.4397
  538TMC3    H2 8044   2.249   1.115  10.994 -2.8874 -1.1003 -0.6141
  538TMC3    C7 8045   2.071   1.305  11.072  0.6066 -0.1946  0.4319
  538TMC3    C8 8046   2.357   0.928  11.144  0.6758 -0.9639 -0.6247
  538TMC3    O1 8047   1.977   1.366  11.111 -0.2667  0.5496  0.5475
  538TMC3    O2 8048   2.335   0.817  11.189  0.1739  0.1100 -0.0728
  539MPD2     C 8049   2.253   0.588  11.803 -0.4409  0.0567  1.2490
  539MPD2    C1 8050   2.253   0.554  11.673  0.4478  0.3931  0.0794
  539MPD2    C2 8051   2.153   0.608  11.603  0.9684 -0.8401 -0.2086
  539MPD2    C3 8052   2.055   0.693  11.652 -0.1514 -1.1579 -0.4759
  539MPD2    C4 8053   2.064   0.728  11.789  0.0397 -0.0719 -0.1632
  539MPD2    C5 8054   2.165   0.672  11.861  0.4919 -0.1063 -0.3273
  539MPD2     H 8055   2.151   0.585  11.497 -3.3355  3.3673 -0.9875
  539MPD2    H1 8056   1.996   0.800  11.834  0.0121  0.0784 -0.4442
  539MPD2    H2 8057   2.330   0.556  11.872  0.8819 -0.5769 -0.4924
  539MPD2    H3 8058   2.174   0.705  11.964  3.0419  0.4904 -0.7310
  539MPD2     N 8059   1.962   0.754  11.570 -0.3025  0.2814  0.9531
  539MPD2    H5 8060   1.899   0.818  11.618 -0.3890  1.2217 -0.4326
  539MPD2    N1 8061   2.353   0.467  11.616  0.1443 -0.2264 -0.1331
  539MPD2    H7 8062   2.367   0.467  11.516  0.9621  0.8882 -0.0031
  540TMC3    C1 8063   1.835   0.823  11.392  1.0622  0.0240  0.1315
  540TMC3    C2 8064   1.779   0.786  11.271  0.0371 -0.1971 -0.4682
  540TMC3    C3 8065   1.676   0.864  11.218  0.2721  0.1207 -0.7546
  540TMC3    C4 8066   1.803   0.944  11.452 -1.0582 -0.2536  0.0078
  540TMC3    C5 8067   1.710   1.023  11.394 -0.3479  0.6860  0.6639
  540TMC3    C6 8068   1.641   0.979  11.285  0.6713  0.0446 -0.4023
  540TMC3     C 8069   1.953   0.747  11.438 -0.0032  0.2401  0.6524
  540TMC3     O 8070   2.005   0.690  11.344 -0.1504 -0.2522  0.4576
  540TMC3     H 8071   1.805   0.689  11.229 -0.1846 -0.2218 -0.5475
  540TMC3    H1 8072   1.864   0.968  11.538 -0.7097 -0.5037 -0.1682
  540TMC3    H2 8073   1.556   1.037  11.251  0.0401 -1.0575 -0.6976
  540TMC3    C7 8074   1.645   1.118  11.479  0.2414 -0.7715 -0.0242
  540TMC3    C8 8075   1.563   0.803  11.148  0.3548  0.5779 -0.9720
  540TMC3    O1 8076   1.524   1.136  11.459  0.2342 -0.3907 -0.3272
  540TMC3    O2 8077   1.450   0.840  11.176 -0.3832  0.5488 -0.2444
  541MPD2     C 8078   0.573   1.873  13.621  0.2908 -0.3705  0.5832
  541MPD2    C1 8079   0.451   1.915  13.573  0.6654 -0.1040  0.3943
  541MPD2    C2 8080   0.443   1.973  13.452  0.4270  0.0572  0.8308
  541MPD2    C3 8081   0.562   1.993  13.380  0.0494  0.2981 -0.5543
  541MPD2    C4 8082   0.685   1.948  13.432 -0.0899  0.4969 -0.5653
  541MPD2    C5 8083   0.693   1.897  13.556 -0.0920 -0.2013  0.4895
  541MPD2     H 8084   0.348   1.977  13.399  1.0619 -1.3692 -0.4488
  541MPD2    H1 8085   0.776   1.976  13.379  1.9623 -0.1121  2.6175
  541MPD2    H2 8086   0.585   1.829  13.719  1.7317  1.0441  1.0386
  541MPD2    H3 8087   0.787   1.866  13.601  0.5783  1.2534  0.1111
  541MPD2     N 8088   0.552   2.038  13.246 -0.0715  0.1161  0.5905
  541MPD2    H5 8089   0.631   2.037  13.183  0.7004 -0.3182  1.5631
  541MPD2    N1 8090   0.331   1.891  13.643  0.0687  0.5988  0.5664
  541MPD2    H7 8091   0.247   1.931  13.602 -0.5621  0.7846  2.0583
  542TMC3    C1 8092   0.439   2.150  13.066 -0.1880 -0.4457 -0.0343
  542TMC3    C2 8093   0.492   2.067  12.970  0.4600 -0.2818  0.6228
  542TMC3    C3 8094   0.441   2.087  12.848  0.3477 -0.3680 -0.1290
  542TMC3    C4 8095   0.354   2.253  13.035 -0.0056 -1.0335  0.2394
  542TMC3    C5 8096   0.308   2.264  12.905  0.4956 -0.5648 -0.6559
  542TMC3    C6 8097   0.353   2.182  12.810  0.4404  0.6251 -0.0357
  542TMC3     C 8098   0.439   2.114  13.207 -0.3632  0.0338  0.1468
  542TMC3     O 8099   0.364   2.174  13.279 -0.1931  0.6525 -0.0941
  542TMC3     H 8100   0.551   1.982  13.003  0.6428 -0.7306 -0.8543
  542TMC3    H1 8101   0.313   2.316  13.113 -2.0854 -0.8555 -0.9980
  542TMC3    H2 8102   0.306   2.174  12.712 -1.8786  1.4043  0.9988
  542TMC3    C7 8103   0.210   2.364  12.881 -0.0042  0.1740  0.4638
  542TMC3    C8 8104   0.466   1.998  12.732  0.3379 -0.1081  0.5240
  542TMC3    O1 8105   0.129   2.393  12.972 -0.0907 -0.6988  0.4570
  542TMC3    O2 8106   0.372   1.953  12.672 -0.3933 -0.6142 -0.0425
  543TMC3    C1 8107   0.376   2.886  17.349  0.9019  0.2261  0.9238
  543TMC3    C2 8108   0.374   2.753  17.385  0.1638 -0.1536  0.0560
  543TMC3    C3 8109   0.308   2.715  17.498  0.1169 -0.0329  0.4102
  543TMC3    C4 8110   0.326   2.976  17.434 -0.4158  0.1294 -0.2082
  543TMC3    C5 8111   0.267   2.933  17.556 -0.6170  0.5204  0.2940
  543TMC3    C6 8112   0.252   2.800  17.591  0.5738 -0.6870 -0.0618
  543TMC3     C 8113   0.367   2.911  17.212  0.1662  0.0222  0.3242
  543TMC3     O 8114   0.448   2.854  17.143 -0.4319 -0.1335 -0.9913
  543TMC3     H 8115   0.421   2.672  17.330  0.1694 -1.0284  1.3472
  543TMC3    H1 8116   0.356   3.078  17.411  1.8630 -1.0099 -2.3865
  543TMC3    H2 8117   0.201   2.767  17.680 -2.3244  1.4053 -0.9469
  543TMC3    C7 8118   0.194   3.023  17.634  0.0315 -0.0176 -0.4887
  543TMC3    C8 8119   0.284   2.572  17.507 -0.1577  0.3921  0.6364
  543TMC3    O1 8120   0.118   2.976  17.718  0.1596  0.0960  0.7697
  543TMC3    O2 8121   0.329   2.497  17.420  0.7043 -0.1670  0.0637
  544MPD2     C 8122   0.140   2.138  17.726  0.1395  1.0162 -0.5763
  544MPD2    C1 8123   0.127   2.179  17.590 -0.2861  0.2519 -0.6268
  544MPD2    C2 8124   0.167   2.308  17.558  0.5969 -0.4462 -0.8126
  544MPD2    C3 8125   0.192   2.401  17.656 -0.0902 -0.5079 -1.1757
  544MPD2    C4 8126   0.182   2.365   0.030 -0.1256 -0.2888  0.1745
  544MPD2    C5 8127   0.170   2.233   0.061  0.6029 -0.0908 -0.6615
  544MPD2     H 8128   0.190   2.332  17.455  1.0488  0.5231 -0.4889
  544MPD2    H1 8129   0.190   2.435   0.113 -0.6420 -0.0138 -0.0070
  544MPD2    H2 8130   0.110   2.037  17.751 -0.9827  1.6274  0.5633
  544MPD2    H3 8131   0.178   2.201   0.165 -0.5635 -0.5663 -0.7198
  544MPD2     N 8132   0.234   2.533  17.626 -0.5949 -0.6032 -0.4152
  544MPD2    H5 8133   0.230   2.601  17.701 -0.0214 -0.2556 -0.7001
  544MPD2    N1 8134   0.111   2.073  17.490 -0.1098  0.1987  0.0319
  544MPD2    H7 8135   0.098   1.977  17.519 -0.4901 -0.0259 -0.8659
  545TMC3    C1 8136   0.064   1.978  17.293 -0.1302 -0.3481 -0.1541
  545TMC3    C2 8137   4.708   1.995  17.199 -0.3163 -0.0581  0.2694
  545TMC3    C3 8138   4.679   1.892  17.113  0.8254 -0.1218 -0.1919
  545TMC3    C4 8139   0.119   1.854  17.318 -0.2970  0.3889  0.2201
  545TMC3    C5 8140   0.083   1.752  17.237  0.9076 -0.1956  0.7101
  545TMC3    C6 8141   0.002   1.770  17.132  0.2117 -0.4959  0.1656
  545TMC3     C 8142   0.115   2.095  17.356  0.2756  0.1982  0.1865
  545TMC3     O 8143   0.113   2.196  17.288 -0.8192 -0.4498  0.5213
  545TMC3     H 8144   4.665   2.093  17.184 -1.9910 -0.7884  0.2887
  545TMC3    H1 8145   0.194   1.841  17.395 -0.2601  0.3157  0.1725
  545TMC3    H2 8146   4.696   1.682  17.087 -0.5127 -0.5262  0.9731
  545TMC3    C7 8147   0.108   1.621  17.280  0.8824 -0.1995 -0.6065
  545TMC3    C8 8148   4.593   1.905  17.002  0.7666 -0.1285  0.3204
  545TMC3    O1 8149   0.015   1.539  17.263 -0.7354  0.4823  1.0896
  545TMC3    O2 8150   4.568   1.798  16.949  0.1612 -0.1919  0.0706
  546MPD2     C 8151   1.582   2.542  17.263 -0.3061  0.5313  0.5754
  546MPD2    C1 8152   1.492   2.576  17.163  0.5261 -0.0462 -0.1206
  546MPD2    C2 8153   1.498   2.703  17.110 -0.4162 -0.1780 -0.0324
  546MPD2    C3 8154   1.601   2.788  17.139 -0.0075 -0.6282 -0.3426
  546MPD2    C4 8155   1.686   2.751  17.237 -0.4621  1.1526  0.1584
  546MPD2    C5 8156   1.669   2.637  17.305 -0.2305 -0.1427  0.3276
  546MPD2     H 8157   1.423   2.727  17.035 -0.1830 -0.5411 -0.3841
  546MPD2    H1 8158   1.773   2.810  17.265  1.1234 -0.8428 -0.5581
  546MPD2    H2 8159   1.560   2.450  17.315  1.2241 -0.0534  0.1645
  546MPD2    H3 8160   1.726   2.618  17.395  0.9415  0.6221 -0.2442
  546MPD2     N 8161   1.618   2.917  17.080 -0.2331 -0.3260 -0.1999
  546MPD2    H5 8162   1.692   2.977  17.117  0.7284 -1.0553 -0.9282
  546MPD2    N1 8163   1.388   2.484  17.139 -0.9936  0.4441 -0.5183
  546MPD2    H7 8164   1.403   2.390  17.173  2.1957  1.0032 -0.3742
  547TMC3    C1 8165   1.181   2.394  17.033  0.8818 -0.3248 -0.8161
  547TMC3    C2 8166   1.098   2.391  16.925  0.3057  0.4322  0.5060
  547TMC3    C3 8167   1.022   2.282  16.913  0.4825  0.6424 -0.2190
  547TMC3    C4 8168   1.190   2.287  17.123  0.4820 -0.6557 -0.1954
  547TMC3    C5 8169   1.120   2.172  17.095 -0.0311 -0.2004 -0.2231
  547TMC3    C6 8170   1.028   2.171  16.997 -0.6656 -0.1305  0.4746
  547TMC3     C 8171   1.288   2.500  17.045 -0.3271 -0.4110  0.0784
  547TMC3     O 8172   1.268   2.590  16.964 -0.2485 -0.7699  0.6891
  547TMC3     H 8173   1.090   2.475  16.858 -0.9943  0.4074  0.6351
  547TMC3    H1 8174   1.260   2.279  17.206  1.1501  1.2735 -0.5801
  547TMC3    H2 8175   0.968   2.084  16.973  0.4122 -0.3768 -1.3196
  547TMC3    C7 8176   1.123   2.074  17.192  0.2125 -0.2378  0.8846
  547TMC3    C8 8177   0.905   2.293  16.824  1.0044  0.2257  0.1024
  547TMC3    O1 8178   1.158   2.100  17.304 -0.2983  0.6122  0.3009
  547TMC3    O2 8179   0.870   2.406  16.790 -0.3520 -0.0170  0.4424
  548MPD2     C 8180   0.913   3.735  13.363  0.6225  0.4166 -0.4511
  548MPD2    C1 8181   0.842   3.636  13.302  0.1770  0.0443  0.1875
  548MPD2    C2 8182   0.896   3.565  13.196 -0.4242  1.0097  0.2216
  548MPD2    C3 8183   1.023   3.592  13.155 -0.4329  0.6828  0.0196
  548MPD2    C4 8184   1.086   3.698  13.209  0.4808  0.6781 -0.2127
  548MPD2    C5 8185   1.033   3.769  13.314  0.2124 -0.4958  0.0427
  548MPD2     H 8186   0.848   3.480  13.149 -2.1136  1.4893  1.0938
  548MPD2    H1 8187   1.185   3.721  13.173  1.1737 -0.7147  0.7862
  548MPD2    H2 8188   0.883   3.785  13.455  1.6754 -0.6228  0.4549
  548MPD2    H3 8189   1.086   3.852  13.359 -1.8608  1.1985 -0.6393
  548MPD2     N 8190   1.078   3.513  13.054 -0.1679  0.0463  0.0201
  548MPD2    H5 8191   1.017   3.443  13.014  0.8975  0.2050 -1.8688
  548MPD2    N1 8192   0.710   3.615  13.339  0.1477 -0.0829  0.0719
  548MPD2    H7 8193   0.665   3.696  13.378 -3.5831 -1.5571 -1.2296
  549TMC3    C1 8194   0.494   3.537  13.291  0.0836 -0.6371 -0.2992
  549TMC3    C2 8195   0.457   3.653  13.229  0.0617 -0.0056 -0.4556
  549TMC3    C3 8196   0.327   3.669  13.189  0.2176 -0.2699 -0.4005
  549TMC3    C4 8197   0.409   3.431  13.297  0.7797 -0.1986  0.1687
  549TMC3    C5 8198   0.282   3.453  13.253  0.5372  0.1772 -0.0038
  549TMC3    C6 8199   0.233   3.572  13.206 -0.1420  0.5567  0.2686
  549TMC3     C 8200   0.638   3.502  13.302  0.3314 -0.4133  0.3465
  549TMC3     O 8201   0.667   3.385  13.283 -0.4150  0.5125 -0.1322
  549TMC3     H 8202   0.527   3.727  13.192  1.4351 -0.1985  1.7573
  549TMC3    H1 8203   0.441   3.337  13.342 -1.9438 -1.2422 -0.0677
  549TMC3    H2 8204   0.132   3.587  13.171 -0.4654 -1.2089  0.4575
  549TMC3    C7 8205   0.187   3.339  13.254  0.1651 -0.3118  0.2988
  549TMC3    C8 8206   0.294   3.781  13.103  0.4943 -0.5474  0.1213
  549TMC3    O1 8207   0.067   3.370  13.246  0.2138  0.1071  0.9146
  549TMC3    O2 8208   0.210   3.764  13.017  0.3014  0.3036  0.3109
  550TMC3    C1 8209   4.548   2.382  12.570 -0.0661 -0.1026  0.7489
  550TMC3    C2 8210   4.521   2.410  12.700 -0.4457  0.2499 -0.4352
  550TMC3    C3 8211   4.445   2.522  12.728 -0.2477 -0.1275 -0.4826
  550TMC3    C4 8212   4.513   2.453  12.463 -0.2162 -0.3521 -0.2727
  550TMC3    C5 8213   4.441   2.563  12.491 -0.2667 -0.3789  0.6472
  550TMC3    C6 8214   4.398   2.601  12.620  0.2063 -0.3246  0.2078
  550TMC3     C 8215   4.640   2.266  12.544  0.3060  0.0203  1.0287
  550TMC3     O 8216   4.706   2.220  12.638  0.2109 -0.4289 -0.0283
  550TMC3     H 8217   4.572   2.354  12.778  0.4574  2.7138  0.7434
  550TMC3    H1 8218   4.556   2.425  12.367  1.6067 -0.8048  0.6770
  550TMC3    H2 8219   4.330   2.684  12.635  0.1284 -0.3418 -0.0390
  550TMC3    C7 8220   4.394   2.639  12.377 -0.0990  0.1500  0.4231
  550TMC3    C8 8221   4.365   2.543  12.846  0.1200  0.1855 -0.4591
  550TMC3    O1 8222   4.395   2.759  12.387  0.2774  0.2412  0.3595
  550TMC3    O2 8223   4.305   2.647  12.866 -0.7171  0.2019  0.4558
  551TMC3    C1 8224   1.884   3.994  13.389  0.2244 -0.0950  0.6236
  551TMC3    C2 8225   1.957   3.876  13.366  0.2003 -0.1003  0.0029
  551TMC3    C3 8226   2.043   3.837  13.461 -0.0527  0.3290 -0.9337
  551TMC3    C4 8227   1.887   4.067  13.503 -0.4843 -0.2863  0.0079
  551TMC3    C5 8228   1.953   4.001  13.599  0.8115  0.1675  0.0606
  551TMC3    C6 8229   2.044   3.898  13.583  0.1383 -0.2745 -0.0267
  551TMC3     C 8230   1.811   4.033  13.270  0.7193 -0.3651 -0.4069
  551TMC3     O 8231   1.760   3.938  13.207 -0.3070 -0.2143 -0.4922
  551TMC3     H 8232   1.957   3.821  13.272 -0.4449  0.5005 -0.3534
  551TMC3    H1 8233   1.814   4.145  13.519  0.2096  0.8804 -2.4766
  551TMC3    H2 8234   2.079   3.860  13.679 -2.0756  0.9983  1.2940
  551TMC3    C7 8235   1.966   4.063  13.734  1.0770 -0.4580  0.3942
  551TMC3    C8 8236   2.168   3.838  13.393 -0.2212  0.0074  0.1212
  551TMC3    O1 8237   1.968   3.983  13.826  0.2985  0.5508 -0.3017
  551TMC3    O2 8238   2.176   3.782  13.286  0.6551 -0.3366 -0.2255
  552MPD2     C 8239   3.979   1.826  13.929 -0.1271  0.6728  0.1513
  552MPD2    C1 8240   3.974   1.692  13.967 -0.3044  0.7335  0.3710
  552MPD2    C2 8241   4.064   1.645  14.059 -0.3725  0.1096  0.4881
  552MPD2    C3 8242   4.163   1.724  14.109 -0.1007 -0.3381  0.1129
  552MPD2    C4 8243   4.164   1.857  14.078 -0.4187  0.8380  0.4779
  552MPD2    C5 8244   4.074   1.911  13.985  0.0756  0.9367 -0.0247
  552MPD2     H 8245   4.061   1.537  14.075 -1.6305 -0.2964 -2.4953
  552MPD2    H1 8246   4.241   1.920  14.121  1.0056 -0.7639  0.2948
  552MPD2    H2 8247   3.914   1.870  13.854  0.8162 -0.7360 -1.4945
  552MPD2    H3 8248   4.084   2.012  13.946 -0.3155  1.4295  1.1636
  552MPD2     N 8249   4.265   1.681  14.192 -0.2262 -0.2109 -0.1399
  552MPD2    H5 8250   4.333   1.746  14.230 -0.4882 -1.0119  1.7133
  552MPD2    N1 8251   3.887   1.594  13.917  0.7127  0.2141 -0.3195
  552MPD2    H7 8252   3.888   1.508  13.971  1.3795  0.1538 -0.4235
  553TMC3    C1 8253   3.739   1.488  13.757  0.6383  0.2829 -0.4451
  553TMC3    C2 8254   3.726   1.477  13.620  0.4446 -0.7348 -0.9226
  553TMC3    C3 8255   3.653   1.369  13.567 -0.4314  0.0610  0.8935
  553TMC3    C4 8256   3.684   1.399  13.849  0.4781  0.1720 -0.2453
  553TMC3    C5 8257   3.596   1.308  13.795  0.5921 -0.4174  0.9823
  553TMC3    C6 8258   3.576   1.295  13.659  0.5836 -0.4917  0.8802
  553TMC3     C 8259   3.822   1.601  13.792  0.2733  0.4626  0.4843
  553TMC3     O 8260   3.823   1.691  13.707  0.1144 -0.0854 -0.5968
  553TMC3     H 8261   3.786   1.534  13.549 -1.4526  1.0956 -1.0495
  553TMC3    H1 8262   3.681   1.423  13.955  1.8861 -1.4062  0.1626
  553TMC3    H2 8263   3.532   1.204  13.619  1.2175 -0.8652  1.0348
  553TMC3    C7 8264   3.565   1.192  13.875 -0.5284 -0.1315 -0.5532
  553TMC3    C8 8265   3.747   1.282  13.491 -0.6592 -0.4938 -0.2293
  553TMC3    O1 8266   3.469   1.117  13.847  0.5722 -0.6196 -0.0674
  553TMC3    O2 8267   3.867   1.280  13.516  0.4515  0.5421  0.5673
  554TMC3    C1 8268   1.257   0.805  11.405 -0.3486 -0.6993 -0.0496
  554TMC3    C2 8269   1.199   0.729  11.303  0.0694  0.2961  0.4769
  554TMC3    C3 8270   1.106   0.790  11.225 -0.1959 -0.4389  0.5517
  554TMC3    C4 8271   1.232   0.938  11.416  0.6899 -0.2965  0.3898
  554TMC3    C5 8272   1.138   0.992  11.338 -0.0786  0.4478  0.5374
  554TMC3    C6 8273   1.077   0.923  11.239 -0.1435  0.5315  0.2277
  554TMC3     C 8274   1.374   0.753  11.485 -0.2616  0.0962 -0.1994
  554TMC3     O 8275   1.432   0.830  11.562  0.0173  0.0171 -0.4155
  554TMC3     H 8276   1.216   0.622  11.292 -0.5334  0.6204 -3.7257
  554TMC3    H1 8277   1.289   0.994  11.489  3.6189 -1.0805 -1.2967
  554TMC3    H2 8278   0.996   0.971  11.186 -0.7989 -0.8173  0.0145
  554TMC3    C7 8279   1.166   1.122  11.284  0.5896  0.1051 -0.0590
  554TMC3    C8 8280   1.031   0.724  11.124 -0.2469  0.0888  0.7086
  554TMC3    O1 8281   1.122   1.143  11.171  0.4574 -0.1934 -0.0735
  554TMC3    O2 8282   0.937   0.786  11.077 -0.1330 -0.3833  0.5534
  555TMC3    C1 8283   0.108   4.637  14.771  0.0249 -0.1332  0.5108
  555TMC3    C2 8284   0.110   4.733  14.868 -0.2322 -0.8140  0.2808
  555TMC3    C3 8285   0.157   4.705  14.992 -0.4598  0.3265 -0.0200
  555TMC3    C4 8286   0.165   4.518  14.797  0.2334 -0.1088 -0.3237
  555TMC3    C5 8287   0.195   4.483  14.926  0.7777 -0.0903  0.6825
  555TMC3    C6 8288   0.203   4.576  15.028 -0.1139  0.0615 -0.0780
  555TMC3     C 8289   0.071   4.684  14.641  0.9912  0.4755 -0.2084
  555TMC3     O 8290   0.143   4.643  14.549 -0.0943  0.2391 -0.2997
  555TMC3     H 8291   0.054   0.085  14.859  1.3409  0.0728 -0.4471
  555TMC3    H1 8292   0.152   4.442  14.721 -0.3461 -2.6561  2.2921
  555TMC3    H2 8293   0.221   4.551  15.132 -0.1808  2.9472  0.6172
  555TMC3    C7 8294   0.191   4.344  14.954  0.1158  0.5108  0.1525
  555TMC3    C8 8295   0.194   0.076  15.074 -0.2746  0.3821  0.5970
  555TMC3    O1 8296   0.127   4.306  15.047 -0.2320  0.2191  0.4513
  555TMC3    O2 8297   0.153   0.186  15.039 -0.2028 -0.7062 -0.3263
  556MPD2     C 8298   2.922   1.899  10.371 -0.9494  1.0288 -0.9571
  556MPD2    C1 8299   2.894   1.844  10.492 -0.1256  0.3472 -0.5865
  556MPD2    C2 8300   2.866   1.710  10.491 -0.9403  0.1309  0.1409
  556MPD2    C3 8301   2.876   1.633  10.375  0.2590  0.3718  0.3902
  556MPD2    C4 8302   2.908   1.690  10.254  0.0856  0.3286 -0.3260
  556MPD2    C5 8303   2.926   1.825  10.254 -0.4567 -0.7159  0.3308
  556MPD2     H 8304   2.836   1.667  10.586 -1.4665 -1.7454 -0.8652
  556MPD2    H1 8305   2.930   1.629  10.168 -0.8311 -0.7000  0.1631
  556MPD2    H2 8306   2.953   2.002  10.358  3.0417 -0.0741 -0.0958
  556MPD2    H3 8307   2.941   1.860  10.153  0.5556 -0.5435  0.5414
  556MPD2     N 8308   2.846   1.492  10.382  0.7674  0.9875 -0.6886
  556MPD2    H5 8309   2.828   1.452  10.473  1.6060 -2.3903 -2.0118
  556MPD2    N1 8310   2.887   1.913  10.614 -0.8801  0.0919 -0.4601
  556MPD2    H7 8311   2.867   1.865  10.701 -1.0926 -1.5372 -1.4150
  557TMC3    C1 8312   2.740   1.294  10.322  0.2776  0.2610 -0.1493
  557TMC3    C2 8313   2.665   1.224  10.227  0.2336 -0.6652  0.0479
  557TMC3    C3 8314   2.622   1.091  10.256  0.0230 -0.1073 -0.0929
  557TMC3    C4 8315   2.773   1.235  10.438  0.2945 -0.2919 -0.2301
  557TMC3    C5 8316   2.730   1.105  10.466  1.0096  0.5522 -0.4031
  557TMC3    C6 8317   2.669   1.025  10.368 -0.4341 -0.1722  0.6056
  557TMC3     C 8318   2.791   1.423  10.277 -0.0062 -0.1058  0.7351
  557TMC3     O 8319   2.750   1.460  10.167 -0.1739 -0.2633 -0.1358
  557TMC3     H 8320   2.650   1.268  10.129  1.3586 -1.0292 -0.2843
  557TMC3    H1 8321   2.825   1.284  10.519  2.1284  0.9166 -2.1466
  557TMC3    H2 8322   2.623   0.936  10.410  1.5445 -1.1091  0.7878
  557TMC3    C7 8323   2.690   1.078  10.602  0.1511 -0.7748  0.2843
  557TMC3    C8 8324   2.525   1.039  10.165  0.6569  0.1036  0.3536
  557TMC3    O1 8325   2.682   1.179  10.673 -0.5421  0.3878 -0.1530
  557TMC3    O2 8326   2.451   1.110  10.108  0.3449 -0.4158 -0.2941
  558TMC3    C1 8327   0.851   3.870  10.375 -0.1528 -0.3816  0.4748
  558TMC3    C2 8328   0.757   3.776  10.387 -0.2759  0.1505 -0.4227
  558TMC3    C3 8329   0.654   3.777  10.297  0.1596  0.0545  0.5844
  558TMC3    C4 8330   0.848   3.970  10.281 -0.1050  0.1917 -0.4178
  558TMC3    C5 8331   0.741   3.971  10.199  0.1319 -0.8174  0.6370
  558TMC3    C6 8332   0.640   3.876  10.210 -0.4060 -0.1114 -0.2480
  558TMC3     C 8333   0.935   3.890  10.491 -0.0935  0.1279  0.0399
  558TMC3     O 8334   1.043   3.944  10.473  0.3998  0.0318  0.0305
  558TMC3     H 8335   0.763   3.704  10.468  0.4564 -1.3381 -1.7939
  558TMC3    H1 8336   0.925   4.046  10.273 -1.0902  1.2124 -0.2804
  558TMC3    H2 8337   0.555   3.875  10.143 -1.2841 -1.8991  0.8871
  558TMC3    C7 8338   0.716   4.086  10.108  0.0353 -0.4873  0.0619
  558TMC3    C8 8339   0.537   3.723  10.357  0.0864  0.1254  0.0257
  558TMC3    O1 8340   0.813   4.146  10.066  0.3056 -0.4660 -0.2557
  558TMC3    O2 8341   0.467   3.637  10.293  0.0710  0.1731 -0.6125
  559MPD2     C 8342   0.970   0.103  10.497  0.1998  0.1657  0.0231
  559MPD2    C1 8343   0.897   4.739  10.558 -0.3367  0.1925  0.7796
  559MPD2    C2 8344   0.969   4.636  10.614  0.1815 -0.1233 -0.0870
  559MPD2    C3 8345   1.104   4.642  10.618 -0.1599  0.2285 -0.0784
  559MPD2    C4 8346   1.171   0.008  10.570  0.1548  0.1497  0.3515
  559MPD2    C5 8347   1.107   0.105  10.498  0.5687 -0.5336 -0.4319
  559MPD2     H 8348   0.914   4.552  10.654  1.1839 -1.5930 -1.7890
  559MPD2    H1 8349   1.279   0.010  10.566  0.2349 -0.6025  1.9988
  559MPD2    H2 8350   0.922   0.189  10.452  0.5375  1.2640  1.7537
  559MPD2    H3 8351   1.163   0.189  10.460 -1.4739  1.1093  0.1628
  559MPD2     N 8352   1.164   4.540  10.702 -0.1257 -0.0071 -0.5061
  559MPD2    H5 8353   1.100   4.479  10.751 -0.3721  0.2744 -0.4804
  559MPD2    N1 8354   0.755   0.014  10.562 -0.4980  0.0183  0.0903
  559MPD2    H7 8355   0.713   0.101  10.530 -1.6312 -1.6449 -2.9346
  560TMC3    C1 8356   1.320   4.439  10.852 -0.7125  0.0910 -0.1395
  560TMC3    C2 8357   1.217   4.361  10.893  0.1594  0.3087 -1.5273
  560TMC3    C3 8358   1.230   4.310  11.016 -0.2008  0.3848  0.5904
  560TMC3    C4 8359   1.436   4.465  10.923 -0.4696  0.5207 -0.2869
  560TMC3    C5 8360   1.449   4.392  11.039  0.3458 -1.0065 -0.1895
  560TMC3    C6 8361   1.342   4.316  11.093 -0.0688  0.2578  0.0515
  560TMC3     C 8362   1.300   4.523  10.732 -0.3301 -0.5112  0.1895
  560TMC3     O 8363   1.397   4.593  10.692 -0.5046 -0.6636 -0.0847
  560TMC3     H 8364   1.124   4.352  10.840 -0.1211 -0.0257 -0.9800
  560TMC3    H1 8365   1.508   4.539  10.893 -0.2634  0.7505  0.7776
  560TMC3    H2 8366   1.352   4.253  11.181 -1.3203 -0.5625 -0.3866
  560TMC3    C7 8367   1.571   4.406  11.126  0.6291 -0.5454  0.1130
  560TMC3    C8 8368   1.107   4.262  11.082  0.1615 -0.3055 -0.3618
  560TMC3    O1 8369   1.562   4.328  11.218  0.0324 -0.1796 -0.1144
  560TMC3    O2 8370   1.017   4.236  11.004  0.7671  0.5755 -0.2446
  561TMC3    C1 8371   3.534   4.092  11.809  0.2509 -0.1102 -0.4408
  561TMC3    C2 8372   3.441   3.998  11.852 -0.0425 -0.1980 -0.7672
  561TMC3    C3 8373   3.342   3.959  11.761  0.1661 -0.6938  0.3253
  561TMC3    C4 8374   3.531   4.129  11.675  0.3889 -0.1180  0.2804
  561TMC3    C5 8375   3.442   4.069  11.589 -0.1778 -0.1737 -0.0910
  561TMC3    C6 8376   3.341   3.991  11.630 -0.4573 -0.1055 -0.1149
  561TMC3     C 8377   3.631   4.139  11.906  0.2406 -0.3233  0.5422
  561TMC3     O 8378   3.649   4.073  12.007 -0.4356 -0.1263 -0.2839
  561TMC3     H 8379   3.441   3.964  11.955  0.0057 -2.4973 -1.5236
  561TMC3    H1 8380   3.610   4.195  11.640 -0.5922  0.8259 -0.1413
  561TMC3    H2 8381   3.265   3.952  11.563  1.8255 -1.7532 -1.7430
  561TMC3    C7 8382   3.422   4.125  11.454  0.3280  0.0925 -0.0435
  561TMC3    C8 8383   3.215   3.913  11.811  0.4198 -0.0619  0.2288
  561TMC3    O1 8384   3.306   4.122  11.417 -0.4715 -0.0649 -0.2792
  561TMC3    O2 8385   3.143   3.836  11.754  0.0284 -0.8960  0.5264
  562TMC3    C1 8386   4.712   0.377  16.069  0.5659 -0.2528  0.3684
  562TMC3    C2 8387   4.612   0.469  16.076  0.8037  0.2689  0.9942
  562TMC3    C3 8388   4.550   0.498  15.952 -0.0254 -0.1428  0.2883
  562TMC3    C4 8389   0.009   0.312  15.956  0.2363 -0.0535 -0.5304
  562TMC3    C5 8390   4.694   0.353  15.839  0.2587  0.6297  0.6750
  562TMC3    C6 8391   4.592   0.444  15.833 -0.1664  0.0154 -0.3817
  562TMC3     C 8392   4.731   0.311  16.199 -0.0934  0.2264 -0.1571
  562TMC3     O 8393   4.688   0.367  16.297 -0.2299 -0.1720  0.0092
  562TMC3     H 8394   4.585   0.520  16.167 -1.1089  0.8523  0.0873
  562TMC3    H1 8395   0.099   0.251  15.963 -0.1135 -0.5537 -0.4205
  562TMC3    H2 8396   4.541   0.474  15.742 -1.6093 -0.3558  0.2965
  562TMC3    C7 8397   4.738   0.300  15.713  0.0077  0.1434  0.5424
  562TMC3    C8 8398   4.420   0.561  15.975  0.0594  0.3691  0.5172
  562TMC3    O1 8399   4.712   0.372  15.619 -0.5407  0.2358  0.0224
  562TMC3    O2 8400   4.366   0.553  16.083 -0.4180  0.1647 -0.2554
  563MPD2     C 8401   2.578   0.949  15.624  0.5956  0.3226  0.3717
  563MPD2    C1 8402   2.578   1.024  15.741 -0.2911  0.1785  0.7876
  563MPD2    C2 8403   2.691   1.089  15.769  0.9860  0.8832  0.7475
  563MPD2    C3 8404   2.803   1.088  15.684  0.5164 -0.6924  0.0545
  563MPD2    C4 8405   2.794   1.023  15.566 -0.3838  0.4713 -0.0842
  563MPD2    C5 8406   2.686   0.946  15.543  0.1127 -0.3914  0.0022
  563MPD2     H 8407   2.699   1.133  15.867  1.3690  1.2059  0.5746
  563MPD2    H1 8408   2.877   1.009  15.498 -0.3232  1.0663 -0.1331
  563MPD2    H2 8409   2.494   0.886  15.598 -0.9027  2.7010 -0.4663
  563MPD2    H3 8410   2.672   0.896  15.448 -1.3834 -0.4494  0.2512
  563MPD2     N 8411   2.916   1.151  15.741 -0.0240 -0.2701  0.2831
  563MPD2    H5 8412   2.913   1.187  15.836  0.1191 -2.0466  0.9624
  563MPD2    N1 8413   2.455   1.025  15.816  0.5034  0.0990  0.2560
  563MPD2    H7 8414   2.382   0.963  15.783  0.0300 -0.3037  2.0477
  564TMC3    C1 8415   2.319   1.013  16.017 -0.6614 -0.1622 -0.1949
  564TMC3    C2 8416   2.269   0.887  15.980  0.2205  0.2234 -0.4242
  564TMC3    C3 8417   2.197   0.820  16.081  0.0170 -0.2042  0.0398
  564TMC3    C4 8418   2.318   1.062  16.147  0.5499 -0.2876 -0.1477
  564TMC3    C5 8419   2.249   0.981  16.240 -0.2866  0.1573  0.2548
  564TMC3    C6 8420   2.182   0.863  16.201  0.1052  0.0177 -0.1706
  564TMC3     C 8421   2.437   1.071  15.942  0.3848 -0.1683 -0.3076
  564TMC3     O 8422   2.523   1.121  16.015  0.2779  0.2646  0.1790
  564TMC3     H 8423   2.281   0.848  15.880 -1.5338  1.5507 -1.1581
  564TMC3    H1 8424   2.365   1.154  16.176  0.6857 -0.2937 -0.3475
  564TMC3    H2 8425   2.134   0.797  16.273 -1.3498  2.4830  1.1322
  564TMC3    C7 8426   2.329   0.959  16.356 -0.4945  0.3646  1.3432
  564TMC3    C8 8427   2.146   0.684  16.052 -0.4649  0.2020 -0.6800
  564TMC3    O1 8428   2.420   1.037  16.374  0.0192  0.2101 -0.1034
  564TMC3    O2 8429   2.085   0.629  16.140  0.6022  0.0776 -0.2214
  565TMC3    C1 8430   3.170   3.536  10.164  0.0609 -0.0071 -0.7060
  565TMC3    C2 8431   3.136   3.511  10.293  0.0833 -0.5100 -0.3147
  565TMC3    C3 8432   3.121   3.381  10.326 -0.3473 -0.3732 -0.1960
  565TMC3    C4 8433   3.176   3.436  10.064 -0.1862 -0.7128 -0.5812
  565TMC3    C5 8434   3.138   3.308  10.105  0.9097  0.0083  0.3239
  565TMC3    C6 8435   3.088   3.279  10.229 -0.5873  0.1037  0.5301
  565TMC3     C 8436   3.224   3.664  10.125 -0.5155 -0.0668 -0.1868
  565TMC3     O 8437   3.253   3.675  10.006 -0.2170  0.3371  0.6830
  565TMC3     H 8438   3.124   3.588  10.368 -0.3225 -0.3703 -0.5229
  565TMC3    H1 8439   3.212   3.456   9.963 -1.0184  1.2318 -0.4935
  565TMC3    H2 8440   3.071   3.179  10.266  0.6911 -0.1584  0.4221
  565TMC3    C7 8441   3.155   3.208   9.995 -0.0594  0.6199 -0.2341
  565TMC3    C8 8442   3.093   3.340  10.460 -0.1222  0.2101 -0.2651
  565TMC3    O1 8443   3.227   3.239   9.901  0.2678 -0.4000  0.4164
  565TMC3    O2 8444   3.021   3.241  10.474  0.8029 -0.2973 -0.1837
  566MPD2     C 8445   3.998   4.591  14.470  0.5297  0.0298 -0.7258
  566MPD2    C1 8446   4.017   4.676  14.368  0.0534  0.3266 -0.1980
  566MPD2    C2 8447   3.907   4.719  14.300 -0.7169 -0.0642  0.1305
  566MPD2    C3 8448   3.790   4.658  14.322 -0.2328  0.1102 -0.1296
  566MPD2    C4 8449   3.765   4.578  14.433  0.5505  0.0281 -0.4732
  566MPD2    C5 8450   3.873   4.561  14.514  0.0637  0.1413 -0.3470
  566MPD2     H 8451   3.920   0.047  14.216  0.0889  1.5058  1.5380
  566MPD2    H1 8452   3.669   4.535  14.460  1.5813 -2.3132 -0.4866
  566MPD2    H2 8453   4.082   4.542  14.516 -0.2147  0.7842  1.4052
  566MPD2    H3 8454   3.862   4.501  14.604 -0.1801  1.4933  0.5274
  566MPD2     N 8455   3.687   4.655  14.225 -0.1004  0.9249  0.5220
  566MPD2    H5 8456   3.628   4.573  14.222  1.4226 -0.1186 -0.9957
  566MPD2    N1 8457   4.151   4.703  14.335  0.1397 -0.4693 -0.1163
  566MPD2    H7 8458   4.223   4.691  14.406  1.3001  0.8598 -1.0655
  567TMC3    C1 8459   4.336   4.739  14.183 -0.2851  0.3993  0.0001
  567TMC3    C2 8460   4.370   0.059  14.062 -0.1522 -0.7150  0.0839
  567TMC3    C3 8461   4.489   0.026  14.007  0.0713  0.3077 -0.3229
  567TMC3    C4 8462   4.416   4.643  14.242  0.4036 -0.3776 -0.7215
  567TMC3    C5 8463   4.536   4.625  14.183 -0.0703  0.3668 -0.0486
  567TMC3    C6 8464   4.576   4.678  14.068  0.0464 -0.2348  0.2682
  567TMC3     C 8465   4.197   0.014  14.216 -0.1042  0.2299 -0.8585
  567TMC3     O 8466   4.133   0.057  14.121 -0.4158  0.0632  0.3949
  567TMC3     H 8467   4.304   0.126  14.008  1.2987 -0.3894 -1.3092
  567TMC3    H1 8468   4.369   4.576  14.313  0.8939  0.9243  0.8071
  567TMC3    H2 8469   4.670   4.646  14.025 -1.2680  0.7730 -3.3623
  567TMC3    C7 8470   4.637   4.541  14.246  1.0825 -0.3791  0.5022
  567TMC3    C8 8471   4.521   0.117  13.896 -0.3088 -0.6167  0.0311
  567TMC3    O1 8472   0.000   4.508  14.192  0.2418  0.3239 -0.3947
  567TMC3    O2 8473   4.433   0.176  13.833  0.0940 -0.0141 -0.0780
  568MPD2     C 8474   1.879   4.026  16.344  0.0288  0.8435 -0.3244
  568MPD2    C1 8475   1.881   4.118  16.446  0.1145  0.2741 -0.0890
  568MPD2    C2 8476   1.862   4.255  16.414  0.1772 -0.0683  0.0112
  568MPD2    C3 8477   1.820   4.293  16.289 -0.1175  0.0798  0.0710
  568MPD2    C4 8478   1.803   4.192  16.193 -0.9670  1.0781 -0.9813
  568MPD2    C5 8479   1.839   4.065  16.226 -0.2584  0.7293 -0.7151
  568MPD2     H 8480   1.876   4.327  16.494  0.5085 -1.7129  1.4379
  568MPD2    H1 8481   1.764   4.209  16.093 -1.9079  0.9606 -0.6288
  568MPD2    H2 8482   1.916   3.925  16.358  0.9036  1.3063  0.7052
  568MPD2    H3 8483   1.838   3.986  16.152 -1.5070  1.1271 -1.1173
  568MPD2     N 8484   1.798   4.428  16.266 -0.1945  0.0802 -0.2190
  568MPD2    H5 8485   1.829   4.484  16.345  0.8929  1.8981 -1.9289
  568MPD2    N1 8486   1.932   4.068  16.572  0.1771 -0.6724 -0.9436
  568MPD2    H7 8487   1.965   3.972  16.576 -0.2075 -0.7276  1.0719
  569TMC3    C1 8488   1.717   4.621  16.163 -0.1917 -0.1367 -0.0726
  569TMC3    C2 8489   1.693   4.686  16.281 -0.1037  0.2484  0.0207
  569TMC3    C3 8490   1.712   0.083  16.282 -0.0594  0.9521 -0.0251
  569TMC3    C4 8491   1.744   4.685  16.049  0.2250 -0.0132 -0.1931
  569TMC3    C5 8492   1.762   0.080  16.052 -0.1957  0.0414 -0.3401
  569TMC3    C6 8493   1.748   0.153  16.169 -0.1787 -0.4295  0.8263
  569TMC3     C 8494   1.727   4.478  16.157 -0.5850  0.1163 -0.8398
  569TMC3     O 8495   1.707   4.430  16.047 -0.2249  0.4057 -0.4258
  569TMC3     H 8496   1.665   4.631  16.370  2.8728 -0.5622  0.4608
  569TMC3    H1 8497   1.733   4.629  15.956 -2.3883  0.3367 -0.0959
  569TMC3    H2 8498   1.749   0.261  16.179 -2.3651 -0.2861 -0.6736
  569TMC3    C7 8499   1.836   0.135  15.943 -0.2714 -0.5137  0.2149
  569TMC3    C8 8500   1.684   0.157  16.412  0.0976 -0.1363 -0.2676
  569TMC3    O1 8501   1.856   0.052  15.857 -0.1314 -0.5090 -0.1282
  569TMC3    O2 8502   1.594   0.107  16.470  0.1653 -0.0228 -0.3223
  570TMC3    C1 8503   1.088   3.817  15.788  0.4526  0.4370  0.0156
  570TMC3    C2 8504   1.157   3.826  15.669 -0.7014 -1.1252  0.0397
  570TMC3    C3 8505   1.256   3.915  15.645  0.2985  0.0422 -0.1820
  570TMC3    C4 8506   1.116   3.907  15.884 -0.2677  0.5710  1.0909
  570TMC3    C5 8507   1.211   4.004  15.857  0.1541 -0.0255  0.1330
  570TMC3    C6 8508   1.295   4.003  15.745  0.2154  0.7390 -0.8460
  570TMC3     C 8509   0.976   3.729  15.812 -0.1340  0.1612  0.0052
  570TMC3     O 8510   0.928   3.675  15.716 -0.3069 -0.0496  0.2268
  570TMC3     H 8511   1.105   3.770  15.591 -2.0446  0.2594 -0.0616
  570TMC3    H1 8512   1.057   3.903  15.975 -2.1672 -0.2792 -0.1701
  570TMC3    H2 8513   1.363   4.085  15.731 -0.8235  1.6421 -0.6045
  570TMC3    C7 8514   1.235   4.089  15.967  0.0740 -0.1213 -0.3300
  570TMC3    C8 8515   1.321   3.929  15.522 -0.0435  0.8783 -0.7289
  570TMC3    O1 8516   1.220   4.046  16.077 -0.4727  0.6165 -0.9295
  570TMC3    O2 8517   1.409   4.013  15.509 -0.6156  0.5393 -0.7202
  571MPD2     C 8518   4.267   4.424  17.690 -0.6603 -0.6397 -0.5524
  571MPD2    C1 8519   4.359   4.504  17.627 -0.8304  0.6735  0.2118
  571MPD2    C2 8520   4.344   4.646  17.635 -0.3579  0.4681 -0.2870
  571MPD2    C3 8521   4.226   4.700  17.686  0.7081 -0.6291  0.5567
  571MPD2    C4 8522   4.128   4.611  17.731 -0.5313 -0.2297 -0.4030
  571MPD2    C5 8523   4.148   4.476  17.735  0.0237 -0.3615  0.5849
  571MPD2     H 8524   4.423   4.715  17.607  1.3413 -0.8300  1.2920
  571MPD2    H1 8525   4.031   4.645   0.009 -0.7626  1.2535 -2.3716
  571MPD2    H2 8526   4.285   4.318  17.698 -1.3342 -1.0294 -4.0865
  571MPD2    H3 8527   4.070   4.407   0.006  0.2039 -1.0955 -0.6381
  571MPD2     N 8528   4.188   0.096  17.681 -0.1702 -0.0564 -0.2186
  571MPD2    H5 8529   4.098   0.118  17.723  1.0186  1.9071  1.3043
  571MPD2    N1 8530   4.476   4.451  17.580 -0.2630  0.0162 -0.5277
  571MPD2    H7 8531   4.492   4.353  17.605 -1.7532  0.6383  2.8336
  572TMC3    C1 8532   4.203   0.331  17.656 -0.3719 -0.7075  0.3616
  572TMC3    C2 8533   4.075   0.333  17.711 -0.0594 -0.0176  0.0717
  572TMC3    C3 8534   4.016   0.453  17.721  0.2898 -0.0497 -0.0595
  572TMC3    C4 8535   4.281   0.440  17.633 -0.4828 -0.2296 -0.5371
  572TMC3    C5 8536   4.215   0.555  17.642 -0.4265  0.4212  0.1206
  572TMC3    C6 8537   4.085   0.565  17.685 -0.8208  0.3999 -0.4241
  572TMC3     C 8538   4.265   0.200  17.635 -0.5173  0.7032 -0.2240
  572TMC3     O 8539   4.371   0.197  17.578 -0.6886  0.0194  0.0055
  572TMC3     H 8540   3.999   0.255  17.714 -1.6161  1.4657 -1.3454
  572TMC3    H1 8541   4.380   0.437  17.589 -0.6569  0.2670 -0.9558
  572TMC3    H2 8542   4.038   0.662  17.693 -0.4260  0.5216  0.3932
  572TMC3    C7 8543   4.275   0.686  17.629  0.2911  0.2191  0.3721
  572TMC3    C8 8544   3.867   0.457  17.697 -0.6376 -0.1456  0.1464
  572TMC3    O1 8545   4.212   0.785  17.663  0.0271  0.0739 -0.5588
  572TMC3    O2 8546   3.821   0.355  17.644 -0.3224  0.2759 -0.2675
  573MPD2     C 8547   0.551   1.210   0.931 -0.3962 -0.6320 -0.2527
  573MPD2    C1 8548   0.680   1.242   0.897 -0.2586  0.4334  0.2435
  573MPD2    C2 8549   0.708   1.259   0.761  0.1251 -0.0776 -0.1322
  573MPD2    C3 8550   0.615   1.237   0.663  0.7739  0.0880  1.0394
  573MPD2    C4 8551   0.495   1.189   0.699  0.0269  0.1429 -0.4363
  573MPD2    C5 8552   0.469   1.175   0.834 -0.8490 -0.3819 -0.1773
  573MPD2     H 8553   0.809   1.289   0.738  0.4319 -0.3762  0.8057
  573MPD2    H1 8554   0.415   1.177   0.627  1.6496  0.6672 -2.3162
  573MPD2    H2 8555   0.520   1.194   1.034 -0.6804 -1.4180 -0.4595
  573MPD2    H3 8556   0.376   1.136   0.875 -0.6111  0.1543  0.8766
  573MPD2     N 8557   0.642   1.265   0.527  0.4240 -0.2345 -0.4540
  573MPD2    H5 8558   0.561   1.254   0.468  0.7624 -1.6329 -0.6525
  573MPD2    N1 8559   0.774   1.279   0.997 -0.0408  0.0462  0.2963
  573MPD2    H7 8560   0.735   1.316   1.084  2.4032  1.0307  0.9615
  574TMC3    C1 8561   0.765   1.350   0.341  0.0609  0.4336 -0.0560
  574TMC3    C2 8562   0.645   1.379   0.284  0.5781 -0.1913  0.4719
  574TMC3    C3 8563   0.640   1.419   0.152 -0.6735 -0.3892 -0.5508
  574TMC3    C4 8564   0.884   1.371   0.278  0.1845  0.3904 -0.0336
  574TMC3    C5 8565   0.869   1.422   0.150  0.5906 -0.5019  0.5427
  574TMC3    C6 8566   0.753   1.443   0.082 -0.4832  0.3367  0.6408
  574TMC3     C 8567   0.769   1.314   0.482  0.5946  0.5001 -0.1518
  574TMC3     O 8568   0.874   1.302   0.538  0.0553 -0.6462 -0.5287
  574TMC3     H 8569   0.554   1.368   0.341  0.9317 -1.4444  0.8140
  574TMC3    H1 8570   0.976   1.327   0.315 -0.2375 -2.3119 -2.1543
  574TMC3    H2 8571   0.747   1.486  17.741 -2.9029 -0.6241  0.3853
  574TMC3    C7 8572   0.985   1.444   0.067  0.0538 -0.0308 -0.4441
  574TMC3    C8 8573   0.510   1.401   0.088  0.2550 -0.3435  0.6727
  574TMC3    O1 8574   0.971   1.474  17.707  0.5406  0.7270  0.1023
  574TMC3    O2 8575   0.432   1.337   0.157  0.1827  0.5642 -0.3191
  575TMC3    C1 8576   2.918   2.864  11.216  0.2076 -0.7646 -0.0072
  575TMC3    C2 8577   2.835   2.760  11.179 -0.7685 -0.2418  0.5970
  575TMC3    C3 8578   2.794   2.762  11.048 -1.2633 -0.3835  0.4749
  575TMC3    C4 8579   2.934   2.977  11.134  0.0301 -0.2950  0.1721
  575TMC3    C5 8580   2.877   2.975  11.013  0.2503 -0.0704  0.1417
  575TMC3    C6 8581   2.813   2.865  10.969  0.1729 -0.3439 -0.2278
  575TMC3     C 8582   2.952   2.884  11.356  0.4543 -0.4141 -0.3004
  575TMC3     O 8583   2.975   3.003  11.383 -0.5070 -0.0399  0.0222
  575TMC3     H 8584   2.822   2.672  11.242  0.2022 -2.0062 -1.6856
  575TMC3    H1 8585   2.979   3.066  11.177 -0.5558 -0.1799  0.5539
  575TMC3    H2 8586   2.782   2.858  10.865  1.4560 -0.1555 -0.6193
  575TMC3    C7 8587   2.900   3.077  10.909 -0.3048  0.3219 -0.9134
  575TMC3    C8 8588   2.727   2.640  11.006  0.0913 -0.0776 -0.8058
  575TMC3    O1 8589   2.864   3.050  10.794 -0.7573  0.4419 -0.6206
  575TMC3    O2 8590   2.716   2.552  11.092 -0.3961 -0.2169 -0.2862
  576MPD2     C 8591   2.369   4.292  12.959  0.3598  0.0688 -0.3644
  576MPD2    C1 8592   2.404   4.409  12.896 -0.6139 -0.3735 -0.0591
  576MPD2    C2 8593   2.331   4.527  12.939 -0.8186 -0.1733  0.1323
  576MPD2    C3 8594   2.245   4.526  13.037 -0.1136 -0.0343 -0.6650
  576MPD2    C4 8595   2.213   4.408  13.099 -0.0739 -0.7013  0.3210
  576MPD2    C5 8596   2.280   4.291  13.063 -0.1279 -0.5689 -0.3929
  576MPD2     H 8597   2.354   4.626  12.900 -0.0936 -0.3988 -0.0090
  576MPD2    H1 8598   2.133   4.394  13.170 -1.0487 -1.8099 -0.9928
  576MPD2    H2 8599   2.415   4.197  12.936 -0.8820 -0.3291 -1.2026
  576MPD2    H3 8600   2.247   4.194  13.099 -0.5327  0.1062  1.0634
  576MPD2     N 8601   2.166   4.642  13.054  0.6583 -0.0307 -0.2696
  576MPD2    H5 8602   2.185   4.718  12.990  2.1362  1.0382  1.4567
  576MPD2    N1 8603   2.495   4.413  12.790 -0.0695 -0.0490  0.3000
  576MPD2    H7 8604   2.492   4.500  12.737  1.6163  0.6457  1.3610
  577TMC3    C1 8605   2.661   4.346  12.632  1.6572  0.4462  0.8136
  577TMC3    C2 8606   2.718   4.242  12.568 -0.1982  0.2533 -0.6981
  577TMC3    C3 8607   2.779   4.253  12.447 -0.0253 -0.5031  0.8105
  577TMC3    C4 8608   2.666   4.466  12.573  0.1307 -0.3049 -0.4115
  577TMC3    C5 8609   2.720   4.481  12.447 -0.0060  0.3359 -0.0830
  577TMC3    C6 8610   2.782   4.376  12.383 -0.3198  0.0104 -0.2198
  577TMC3     C 8611   2.576   4.311  12.747  0.4666  0.3505 -0.3193
  577TMC3     O 8612   2.583   4.195  12.778  0.5240 -0.4684 -0.3946
  577TMC3     H 8613   2.706   4.142  12.608  0.8490  0.0313 -0.9326
  577TMC3    H1 8614   2.627   4.560  12.611  1.7692  0.1593  0.1179
  577TMC3    H2 8615   2.810   4.386  12.279  1.5831 -0.7831  0.2027
  577TMC3    C7 8616   2.745   4.618  12.409  0.5657 -0.3860  0.5243
  577TMC3    C8 8617   2.807   4.133  12.380 -0.4640  0.0860 -0.2456
  577TMC3    O1 8618   2.715   4.705  12.490 -0.5775  0.2300  0.4478
  577TMC3    O2 8619   2.742   4.031  12.414 -0.1867  0.7921 -0.1982
  578MPD2     C 8620   1.306   3.760   1.361  0.7068  0.0326  0.0889
  578MPD2    C1 8621   1.321   3.645   1.289 -0.3023  0.0087  0.2326
  578MPD2    C2 8622   1.380   3.533   1.350 -0.0294 -0.7033 -0.1047
  578MPD2    C3 8623   1.421   3.543   1.484  0.0876 -0.2632  0.8900
  578MPD2    C4 8624   1.396   3.656   1.559  0.5461 -0.1542  0.1818
  578MPD2    C5 8625   1.334   3.763   1.497 -0.0012  0.6577  0.2245
  578MPD2     H 8626   1.400   3.438   1.303  0.3274  0.3650 -2.1040
  578MPD2    H1 8627   1.425   3.664   1.663 -0.8553  2.8910  0.3517
  578MPD2    H2 8628   1.274   3.851   1.311  0.6666 -1.3263 -2.3700
  578MPD2    H3 8629   1.308   3.847   1.559 -0.6124  0.8760 -0.3311
  578MPD2     N 8630   1.482   3.428   1.534  0.3498  0.4141 -0.6927
  578MPD2    H5 8631   1.481   3.348   1.471  1.9600  0.2912 -0.5702
  578MPD2    N1 8632   1.287   3.638   1.146  0.4154  0.0774 -0.7239
  578MPD2    H7 8633   1.248   3.722   1.105 -0.2759 -0.4196 -1.0728
  579TMC3    C1 8634   1.598   3.274   1.673  0.0106  0.2801 -0.5183
  579TMC3    C2 8635   1.663   3.262   1.794  0.6369  0.3649  0.0774
  579TMC3    C3 8636   1.760   3.169   1.794  0.7102  0.6043 -0.3462
  579TMC3    C4 8637   1.634   3.208   1.561 -0.9432  0.0703 -0.1501
  579TMC3    C5 8638   1.736   3.118   1.574  0.3929  0.4369  0.3003
  579TMC3    C6 8639   1.796   3.090   1.690  0.2909  0.0991  0.7390
  579TMC3     C 8640   1.528   3.399   1.656  0.7392 -0.4119  0.2496
  579TMC3     O 8641   1.505   3.459   1.760 -0.0358 -0.6201  0.0483
  579TMC3     H 8642   1.654   3.332   1.877 -2.6144 -0.1996  0.2122
  579TMC3    H1 8643   1.574   3.212   1.471 -3.0241  0.6797  1.2555
  579TMC3    H2 8644   1.884   3.025   1.697  0.8127  0.7233 -0.1577
  579TMC3    C7 8645   1.794   3.041   1.460  0.0629  0.7025  0.1981
  579TMC3    C8 8646   1.852   3.176   1.907  0.1363 -0.3389  0.1346
  579TMC3    O1 8647   1.882   2.963   1.489 -0.1671 -0.4156  0.0816
  579TMC3    O2 8648   1.805   3.217   2.009 -0.7128  0.5233  0.2669
  580TMC3    C1 8649   0.446   3.671  12.756  0.3176  0.1401 -0.0605
  580TMC3    C2 8650   0.552   3.710  12.834 -0.3387  0.3319  0.2660
  580TMC3    C3 8651   0.602   3.609  12.914 -0.8342 -0.6007  0.6181
  580TMC3    C4 8652   0.389   3.548  12.760  0.7131 -0.4227  0.2172
  580TMC3    C5 8653   0.442   3.454  12.846  0.1562 -0.2387  0.7819
  580TMC3    C6 8654   0.539   3.489  12.930  0.2542 -0.4772 -0.1728
  580TMC3     C 8655   0.396   3.760  12.657  0.1041  0.1267 -1.1360
  580TMC3     O 8656   0.475   3.822  12.591 -0.5420 -0.2730  0.1145
  580TMC3     H 8657   0.583   3.814  12.831  0.7820 -0.0760 -1.7740
  580TMC3    H1 8658   0.301   3.527  12.701  0.1303  1.1582  0.5171
  580TMC3    H2 8659   0.586   3.417  12.996  1.2250  1.2679  1.0532
  580TMC3    C7 8660   0.413   3.311  12.828 -0.0035 -0.1990 -0.1592
  580TMC3    C8 8661   0.739   3.578  12.869  0.1532  0.0202 -0.2194
  580TMC3    O1 8662   0.446   3.251  12.931 -0.6656 -0.0785 -0.2553
  580TMC3    O2 8663   0.760   3.457  12.858 -0.4539  0.0381 -0.1328
  581MPD2     C 8664   3.038   2.703  15.105  0.6895  0.0964  0.8504
  581MPD2    C1 8665   2.968   2.818  15.116  0.6214 -0.2846  0.5170
  581MPD2    C2 8666   2.889   2.864  15.012  0.2373 -0.1402 -0.4405
  581MPD2    C3 8667   2.898   2.798  14.890  1.0030  0.6332 -0.0993
  581MPD2    C4 8668   2.969   2.679  14.882  0.2773  0.3563  0.8121
  581MPD2    C5 8669   3.041   2.631  14.986  0.7471 -0.2650  0.7657
  581MPD2     H 8670   2.828   2.953  15.011  1.6111  0.8296  1.5854
  581MPD2    H1 8671   2.977   2.624  14.789  2.6585  0.3924  0.9952
  581MPD2    H2 8672   3.093   2.671  15.193 -0.1773  0.6006  1.5722
  581MPD2    H3 8673   3.094   2.536  14.983  2.9167  0.9979 -0.6918
  581MPD2     N 8674   2.824   2.855  14.781  0.4687  0.1346  0.2109
  581MPD2    H5 8675   2.758   2.929  14.802  1.0584  0.2385  1.7343
  581MPD2    N1 8676   2.968   2.874  15.247  0.1305 -0.5354 -0.3550
  581MPD2    H7 8677   3.046   2.845  15.306  0.7239 -0.1586 -0.9654
  582TMC3    C1 8678   2.904   3.038  15.405 -0.3044  0.4032 -0.1411
  582TMC3    C2 8679   3.006   2.988  15.482 -0.0187 -0.3681  0.2743
  582TMC3    C3 8680   3.067   3.081  15.559 -0.4705  0.1500 -0.4463
  582TMC3    C4 8681   2.862   3.173  15.401  0.2603 -0.6458  0.9654
  582TMC3    C5 8682   2.940   3.263  15.475 -0.3549 -0.0391 -0.2772
  582TMC3    C6 8683   3.043   3.216  15.550 -0.8919 -0.1914  0.2482
  582TMC3     C 8684   2.876   2.975  15.281 -0.4523  0.3504 -0.0824
  582TMC3     O 8685   2.770   3.003  15.230  0.2930  0.7662  0.1163
  582TMC3     H 8686   3.016   2.881  15.496 -2.5590 -0.5338  0.8884
  582TMC3    H1 8687   2.784   3.206  15.333 -1.1900 -0.7364  2.5709
  582TMC3    H2 8688   3.101   3.288  15.607  0.1690 -1.9115  1.3035
  582TMC3    C7 8689   2.920   3.401  15.432 -0.2207 -0.3534  0.1007
  582TMC3    C8 8690   3.171   3.036  15.655 -0.6545 -0.2504 -0.1411
  582TMC3    O1 8691   2.821   3.423  15.362 -0.0669  0.1954  0.2357
  582TMC3    O2 8692   3.188   3.111  15.750 -0.6920  0.3001  0.1337
  583MPD2     C 8693   3.576   4.058  17.039  0.4987 -0.2078 -0.1587
  583MPD2    C1 8694   3.549   4.184  16.984  0.8694  0.2987 -0.5159
  583MPD2    C2 8695   3.477   4.272  17.061  0.2540 -0.2781 -0.2946
  583MPD2    C3 8696   3.455   4.248  17.195  0.1660 -0.1740  0.5784
  583MPD2    C4 8697   3.489   4.128  17.251 -0.2194  0.1212  0.2294
  583MPD2    C5 8698   3.538   4.027  17.167 -0.2896 -0.0913 -0.7788
  583MPD2     H 8699   3.448   4.366  17.017  1.1030  0.3714  0.5423
  583MPD2    H1 8700   3.469   4.119  17.357 -1.5821 -1.3297 -0.1544
  583MPD2    H2 8701   3.621   3.974  16.988 -1.2455  0.1886 -2.3320
  583MPD2    H3 8702   3.550   3.931  17.216  0.5028  0.6155  0.4263
  583MPD2     N 8703   3.390   4.353  17.261  0.1269  0.2535 -0.0633
  583MPD2    H5 8704   3.360   4.429  17.201  3.1225  0.5037 -1.1871
  583MPD2    N1 8705   3.586   4.218  16.854 -0.0125 -0.1121  0.7790
  583MPD2    H7 8706   3.566   4.310  16.818  0.8331  0.5006  1.8922
  584TMC3    C1 8707   3.283   4.480  17.420 -0.8724 -0.4285 -0.0858
  584TMC3    C2 8708   3.281   4.591  17.326  0.4959 -0.0672  0.7980
  584TMC3    C3 8709   3.241   4.716  17.376 -0.2424 -0.2627 -0.0694
  584TMC3    C4 8710   3.230   4.498  17.547  0.0742  0.6159  0.6990
  584TMC3    C5 8711   3.186   4.624  17.582  0.3903  0.0261 -0.4107
  584TMC3    C6 8712   3.201   4.739  17.506 -0.0252 -0.1526  0.3203
  584TMC3     C 8713   3.349   4.357  17.389 -1.2042  0.1008 -0.2594
  584TMC3     O 8714   3.355   4.277  17.481  0.1891  0.0002 -0.0075
  584TMC3     H 8715   3.329   4.591  17.229  1.0917  1.6354  1.0935
  584TMC3    H1 8716   3.206   4.411  17.606 -1.4393 -0.1260 -0.9948
  584TMC3    H2 8717   3.167   0.095  17.542 -3.2030 -1.7011  1.5120
  584TMC3    C7 8718   3.136   4.639  17.716  0.4325 -0.2031 -0.0161
  584TMC3    C8 8719   3.221   0.078  17.273 -0.2904 -0.6611 -0.5107
  584TMC3    O1 8720   3.131   0.017  17.752 -0.0756  0.1510 -0.2604
  584TMC3    O2 8721   3.196   0.037  17.162  0.6702 -0.0188  0.1576
  585MPD2     C 8722   3.104   2.914   0.713  0.6937  0.0517 -0.1619
  585MPD2    C1 8723   2.993   2.897   0.640  0.1653 -0.4541 -0.3441
  585MPD2    C2 8724   2.993   2.793   0.543 -0.5877 -0.5256  0.4768
  585MPD2    C3 8725   3.112   2.723   0.512  0.5713 -1.0102 -0.0393
  585MPD2    C4 8726   3.219   2.742   0.595  0.1624  0.2509  0.3901
  585MPD2    C5 8727   3.219   2.834   0.692  0.1531  0.2059 -0.2181
  585MPD2     H 8728   2.907   2.786   0.477 -1.6442 -0.3124  1.8426
  585MPD2    H1 8729   3.311   2.693   0.568  0.3428  1.0706 -0.5032
  585MPD2    H2 8730   3.109   2.991   0.790 -0.8536  0.5272 -0.5335
  585MPD2    H3 8731   3.315   2.845   0.742 -0.2252 -2.3327  1.0765
  585MPD2     N 8732   3.125   2.628   0.406 -0.0220 -0.1321  0.3067
  585MPD2    H5 8733   3.209   2.571   0.409 -0.7560 -1.2204 -0.0535
  585MPD2    N1 8734   2.883   2.980   0.669 -0.6018 -0.9044 -0.1521
  585MPD2    H7 8735   2.896   3.059   0.732  0.4253 -0.6961 -0.6421
  586TMC3    C1 8736   3.060   2.467   0.250 -0.1858  0.6733  0.2987
  586TMC3    C2 8737   3.185   2.469   0.187  0.1087  0.1409  0.0798
  586TMC3    C3 8738   3.213   2.384   0.084 -0.1626 -0.1956  0.2495
  586TMC3    C4 8739   2.963   2.382   0.204  0.4816 -0.1065 -0.5605
  586TMC3    C5 8740   3.001   2.278   0.121  0.7722  0.6590 -0.6744
  586TMC3    C6 8741   3.123   2.280   0.059  0.2436  0.2360 -0.2635
  586TMC3     C 8742   3.013   2.574   0.334  0.3031  0.3348 -0.3169
  586TMC3     O 8743   2.892   2.604   0.329 -0.3485  0.1557  0.4647
  586TMC3     H 8744   3.249   2.552   0.215  2.0091 -1.4243  0.4643
  586TMC3    H1 8745   2.870   2.393   0.259  0.0351 -1.4183 -1.0526
  586TMC3    H2 8746   3.152   2.214  17.737 -0.7569  0.5153 -0.8480
  586TMC3    C7 8747   2.892   2.260   0.024  0.0799 -0.0605 -0.0435
  586TMC3    C8 8748   3.251   2.443  17.716  0.0525 -0.1370  0.1423
  586TMC3    O1 8749   2.781   2.291   0.059  0.8659 -0.5390  0.3443
  586TMC3    O2 8750   3.344   2.385  17.662 -0.5542  0.1448 -0.1593
  587TMC3    C1 8751   4.672   2.100  16.027  0.7696 -0.1755 -0.8162
  587TMC3    C2 8752   4.723   2.118  16.150 -0.3993  0.0419 -0.7975
  587TMC3    C3 8753   0.122   2.145  16.165 -0.6247 -0.2210 -0.1482
  587TMC3    C4 8754   0.011   2.104  15.915 -0.1351  1.2040  0.0357
  587TMC3    C5 8755   0.150   2.122  15.927  0.2782 -0.5117  0.4108
  587TMC3    C6 8756   0.207   2.136  16.057 -0.6766  0.2417 -1.2530
  587TMC3     C 8757   4.535   2.062  16.018 -0.0144 -0.1781 -0.0709
  587TMC3     O 8758   4.489   2.000  16.113 -0.6644  0.1702  0.0666
  587TMC3     H 8759   4.653   2.099  16.231 -1.0858  0.3318 -1.3229
  587TMC3    H1 8760   4.716   2.088  15.814  1.1317  2.4450 -0.6189
  587TMC3    H2 8761   0.312   2.156  16.076 -0.9970 -0.4733  1.3038
  587TMC3    C7 8762   0.224   2.032  15.839  0.2523 -0.2309  0.0039
  587TMC3    C8 8763   0.175   2.173  16.293 -0.7679  0.1692 -0.4240
  587TMC3    O1 8764   0.158   1.961  15.760  0.6806  0.6295 -0.5706
  587TMC3    O2 8765   0.289   2.148  16.324  0.6007 -0.0754  0.0722
  588TMC3    C1 8766   2.128   0.273   9.917  0.4230 -0.2757  0.5092
  588TMC3    C2 8767   2.092   0.145   9.894 -0.9399  0.8238 -0.1824
  588TMC3    C3 8768   2.167   0.051   9.957 -0.0699  0.3790 -0.2929
  588TMC3    C4 8769   2.214   0.315  10.020 -0.4841 -0.2464  0.4237
  588TMC3    C5 8770   2.283   0.217  10.084  0.1116 -0.1214 -0.4281
  588TMC3    C6 8771   2.267   0.082  10.054  0.0345 -0.0045 -0.1057
  588TMC3     C 8772   2.058   0.374   9.859 -0.1246  0.0373  0.0467
  588TMC3     O 8773   2.022   0.362   9.744 -0.2564 -0.2264 -0.6791
  588TMC3     H 8774   2.022   0.126   9.814 -0.1323 -0.7872 -0.5141
  588TMC3    H1 8775   2.241   0.420  10.024  0.0568 -0.4135  1.0776
  588TMC3    H2 8776   2.316   0.002  10.108 -0.6848  1.2595  2.3752
  588TMC3    C7 8777   2.367   0.262  10.203  0.1374  0.6360 -0.5003
  588TMC3    C8 8778   2.148   4.650   9.916 -0.0736  0.8435  0.0928
  588TMC3    O1 8779   2.468   0.205  10.226  0.0725 -0.7130 -0.0106
  588TMC3    O2 8780   2.040   4.622   9.865  0.2409  1.0025 -0.1540
  589TMC3    C1 8781   2.009   1.432   0.945  0.3742 -0.3181  0.2748
  589TMC3    C2 8782   2.142   1.444   0.956  0.3233  0.4719  0.4364
  589TMC3    C3 8783   2.219   1.348   0.891  0.4384  0.0569 -0.9930
  589TMC3    C4 8784   1.945   1.331   0.881  0.3779 -0.3893 -0.5196
  589TMC3    C5 8785   2.021   1.232   0.831  0.0471  0.0651 -0.9528
  589TMC3    C6 8786   2.160   1.241   0.830 -0.3220 -0.2712 -0.1210
  589TMC3     C 8787   1.912   1.524   1.001  0.5206 -0.3080  0.3488
  589TMC3     O 8788   1.802   1.534   0.950 -0.0631 -0.3437  0.1223
  589TMC3     H 8789   2.186   1.525   1.013 -0.5462  1.3774 -0.1784
  589TMC3    H1 8790   1.839   1.314   0.886  0.3796 -0.4359 -0.6593
  589TMC3    H2 8791   2.219   1.155   0.798  0.3799  0.6372 -1.2665
  589TMC3    C7 8792   1.956   1.108   0.807  0.1610 -0.0403  0.0730
  589TMC3    C8 8793   2.346   1.322   0.965  0.3591 -0.1836 -0.6335
  589TMC3    O1 8794   1.834   1.110   0.823  0.0908  0.8055  0.1859
  589TMC3    O2 8795   2.389   1.205   0.959  0.2411  0.5544  0.6401
  590MPD2     C 8796   1.172   0.840  16.564  0.1877  0.4043  0.4952
  590MPD2    C1 8797   1.122   0.866  16.437  0.4861  0.1008 -0.2029
  590MPD2    C2 8798   1.198   0.949  16.354  0.4126  0.9111 -0.1863
  590MPD2    C3 8799   1.317   1.003  16.404  0.2181  0.2079  0.1677
  590MPD2    C4 8800   1.370   0.964  16.522  0.7518 -0.6554 -0.1171
  590MPD2    C5 8801   1.300   0.877  16.606 -0.1843 -0.3057 -0.2698
  590MPD2     H 8802   1.148   0.995  16.269 -0.7548  0.9083  0.5099
  590MPD2    H1 8803   1.458   1.010  16.566  1.0501 -1.3269 -0.0069
  590MPD2    H2 8804   1.114   0.781  16.634  1.0153 -0.2535  0.6292
  590MPD2    H3 8805   1.343   0.851  16.702 -0.1344 -1.7541 -0.6719
  590MPD2     N 8806   1.377   1.102  16.314  0.7566 -0.4263 -0.6957
  590MPD2    H5 8807   1.318   1.141  16.241  0.1823  1.0860  0.5811
  590MPD2    N1 8808   0.988   0.819  16.413  0.0545 -0.1045 -0.3552
  590MPD2    H7 8809   0.941   0.761  16.482  0.5260 -2.0064 -1.6348
  591TMC3    C1 8810   1.550   1.215  16.214 -0.4038  0.0502 -0.4672
  591TMC3    C2 8811   1.686   1.208  16.198  0.3092  0.1628  0.2941
  591TMC3    C3 8812   1.753   1.269  16.100  0.3351 -0.2984 -0.2375
  591TMC3    C4 8813   1.465   1.277  16.124  0.4555  0.9793 -0.8402
  591TMC3    C5 8814   1.539   1.329  16.021  0.4850 -0.4455 -0.2591
  591TMC3    C6 8815   1.675   1.334  16.009  0.5459  0.0060  0.1787
  591TMC3     C 8816   1.503   1.154  16.335 -0.8902  0.4280 -0.1911
  591TMC3     O 8817   1.587   1.136  16.424  0.3728 -0.1188  0.2225
  591TMC3     H 8818   1.749   1.165  16.275 -2.3068  0.9934  2.9348
  591TMC3    H1 8819   1.357   1.265  16.119  0.6056 -0.5078 -0.5994
  591TMC3    H2 8820   1.722   1.364  15.916  1.6806 -0.2887  0.6605
  591TMC3    C7 8821   1.456   1.391  15.916 -1.4645  0.1692 -0.3533
  591TMC3    C8 8822   1.869   1.190  16.050 -0.3608  0.0058 -0.5025
  591TMC3    O1 8823   1.341   1.350  15.902 -0.2898  0.2544  0.6647
  591TMC3    O2 8824   1.875   1.066  16.076  0.2425  0.0928  0.3806
  592MPD2     C 8825   1.300   3.198  11.933  0.3247  0.4704 -0.1593
  592MPD2    C1 8826   1.342   3.160  12.058 -0.7140 -0.8094  0.1086
  592MPD2    C2 8827   1.295   3.045  12.117  0.7821  0.3793 -0.3429
  592MPD2    C3 8828   1.218   2.960  12.047  0.1502 -1.0966 -0.0179
  592MPD2    C4 8829   1.183   2.985  11.916 -0.0131  0.2823 -0.0051
  592MPD2    C5 8830   1.221   3.108  11.865  0.2092  0.3470 -0.5289
  592MPD2     H 8831   1.309   3.030  12.223  2.5845  1.8207 -0.3941
  592MPD2    H1 8832   1.114   2.928  11.855 -1.7017  1.9734  0.3083
  592MPD2    H2 8833   1.335   3.291  11.889  0.0262  0.3135 -0.7332
  592MPD2    H3 8834   1.189   3.130  11.764 -0.7533 -1.2696 -0.5791
  592MPD2     N 8835   1.178   2.840  12.115  0.0407 -0.6277 -0.3174
  592MPD2    H5 8836   1.211   2.832  12.211 -1.5714  0.1729  0.3093
  592MPD2    N1 8837   1.433   3.246  12.125 -0.2996  0.4747  0.0832
  592MPD2    H7 8838   1.471   3.324  12.072 -0.7296 -0.3894 -1.5083
  593TMC3    C1 8839   1.579   3.333  12.281 -0.7148  0.5657 -0.5385
  593TMC3    C2 8840   1.530   3.466  12.253  0.2053 -0.0084  0.5625
  593TMC3    C3 8841   1.623   3.567  12.279 -0.0780 -0.1971  0.3739
  593TMC3    C4 8842   1.695   3.302  12.353 -0.0890  0.2704 -0.6333
  593TMC3    C5 8843   1.789   3.407  12.348 -0.0198  0.2114  0.6840
  593TMC3    C6 8844   1.759   3.536  12.318  0.2265  0.2093 -0.2929
  593TMC3     C 8845   1.499   3.224  12.241  1.0242 -0.6379  0.1601
  593TMC3     O 8846   1.476   3.143  12.329 -0.0222 -0.2498 -0.0317
  593TMC3     H 8847   1.440   3.483  12.195  1.0993 -2.2853 -1.4584
  593TMC3    H1 8848   1.725   3.200  12.374 -1.1036  0.0877 -0.0727
  593TMC3    H2 8849   1.841   3.607  12.325 -0.9377  1.6052 -0.8340
  593TMC3    C7 8850   1.912   3.383  12.276 -0.4065  0.1925 -0.1397
  593TMC3    C8 8851   1.599   3.704  12.241  0.2666  0.0611  0.0209
  593TMC3    O1 8852   1.936   3.453  12.183  0.2348  0.4101 -0.0397
  593TMC3    O2 8853   1.524   3.726  12.147  0.1755 -0.1683  0.4994
  594MPD2     C 8854   0.294   1.342  14.465 -0.7701  0.1272  0.5207
  594MPD2    C1 8855   0.216   1.448  14.422  0.1276 -0.5428  0.2583
  594MPD2    C2 8856   0.282   1.564  14.402  0.5946 -0.3592 -0.3505
  594MPD2    C3 8857   0.421   1.568  14.389 -1.0023  0.5667  0.1798
  594MPD2    C4 8858   0.490   1.450  14.409  0.0132  0.5129 -0.2514
  594MPD2    C5 8859   0.424   1.336  14.451  0.2115 -0.0497 -0.1534
  594MPD2     H 8860   0.221   1.652  14.385 -0.9068 -1.0723  1.2796
  594MPD2    H1 8861   0.598   1.439  14.407  0.0305  0.8691 -1.1945
  594MPD2    H2 8862   0.244   1.247  14.486  0.9413 -0.7956  0.4347
  594MPD2    H3 8863   0.479   1.243  14.457  0.3864 -0.0439 -1.5453
  594MPD2     N 8864   0.485   1.699  14.375  0.5938 -0.3023 -0.0293
  594MPD2    H5 8865   0.424   1.777  14.352  2.5681  0.8489 -1.3677
  594MPD2    N1 8866   0.078   1.439  14.414  0.5830 -0.2983  0.8421
  594MPD2    H7 8867   0.033   1.354  14.446 -3.1473  1.6984  0.9792
  595TMC3    C1 8868   0.837   2.024  14.323  0.2912  0.4901  0.2514
  595TMC3    C2 8869   0.793   1.895  14.329  0.5630 -0.1033 -0.7915
  595TMC3    C3 8870   0.661   1.865  14.347 -1.0099 -0.6949  0.4224
  595TMC3    C4 8871   0.753   2.130  14.332  0.5713 -0.0429 -0.2731
  595TMC3    C5 8872   0.619   2.101  14.343 -0.3977  0.0452  0.2891
  595TMC3    C6 8873   0.577   1.970  14.364 -1.0825  0.0233 -0.1364
  595TMC3     C 8874   0.977   2.062  14.326  0.0766  0.0083  0.2436
  595TMC3     O 8875   1.015   2.180  14.343 -0.9457  0.1808  0.0961
  595TMC3     H 8876   0.858   1.809  14.338  1.1941  0.3500 -0.9954
  595TMC3    H1 8877   0.795   2.230  14.327 -0.8507  0.5672 -0.0738
  595TMC3    H2 8878   0.476   1.950  14.397 -1.3440  0.0771 -0.8973
  595TMC3    C7 8879   0.520   2.205  14.365  0.1054  0.0771 -0.3062
  595TMC3    C8 8880   0.620   1.725  14.382  0.3531 -0.4142  0.0921
  595TMC3    O1 8881   0.417   2.171  14.421 -0.1346 -0.1537 -0.2871
  595TMC3    O2 8882   0.705   1.654  14.435 -0.2887  0.3431 -0.4480
  596MPD2     C 8883   4.309   3.871  16.964 -0.5610 -0.3731  0.1507
  596MPD2    C1 8884   4.346   3.997  16.923  0.1634 -0.6323 -0.5061
  596MPD2    C2 8885   4.365   4.017  16.784  0.1572  0.3755 -0.0447
  596MPD2    C3 8886   4.334   3.919  16.690  0.1405  0.7162 -0.1600
  596MPD2    C4 8887   4.281   3.798  16.737 -0.5633 -0.2644  0.4104
  596MPD2    C5 8888   4.267   3.777  16.872  0.3485 -0.2858 -0.7494
  596MPD2     H 8889   4.399   4.113  16.747  1.8046  0.7855  2.5665
  596MPD2    H1 8890   4.234   3.733  16.664  1.0909 -1.1983  0.1641
  596MPD2    H2 8891   4.301   3.837  17.067  0.3840  1.5091  0.8380
  596MPD2    H3 8892   4.227   3.683  16.907  0.7465 -0.4939 -0.8485
  596MPD2     N 8893   4.339   3.944  16.555  0.2398 -0.3909  0.5426
  596MPD2    H5 8894   4.327   3.861  16.498  2.0562  0.3021 -0.8570
  596MPD2    N1 8895   4.384   4.099  17.018  0.7547 -0.5248 -0.4275
  596MPD2    H7 8896   4.430   4.180  16.977 -1.6258  1.7870  1.4534
  597TMC3    C1 8897   4.384   4.217  17.220 -0.7278  0.3995  0.3817
  597TMC3    C2 8898   4.474   4.303  17.162 -0.4481 -0.4256  0.0189
  597TMC3    C3 8899   4.447   4.439  17.178 -0.0505 -0.2254 -0.5011
  597TMC3    C4 8900   4.278   4.269  17.297  0.0806 -0.4299 -0.0223
  597TMC3    C5 8901   4.252   4.399  17.296 -0.0199  0.9538  0.1023
  597TMC3    C6 8902   4.340   4.494  17.248  0.3776 -0.6032  0.4046
  597TMC3     C 8903   4.345   4.096  17.147 -0.0382 -0.2112  0.3333
  597TMC3     O 8904   4.265   4.025  17.202  0.3848  0.1095 -0.3321
  597TMC3     H 8905   4.563   4.269  17.112 -0.2005 -1.1794  0.9729
  597TMC3    H1 8906   4.203   4.199  17.333 -0.9361  1.6144  1.8167
  597TMC3    H2 8907   4.322   4.601  17.249 -0.0540 -0.6733  0.2591
  597TMC3    C7 8908   4.125   4.438  17.360  0.2410 -0.0617  0.0551
  597TMC3    C8 8909   4.552   4.528  17.143 -0.7090  0.5543 -0.0231
  597TMC3    O1 8910   4.070   4.362  17.443 -0.1143 -0.3480 -0.0200
  597TMC3    O2 8911   4.659   4.470  17.118 -0.2090 -0.7943  0.3708
  598TMC3    C1 8912   2.247   1.228  15.246  0.5422 -0.0633 -0.3270
  598TMC3    C2 8913   2.125   1.178  15.258 -0.2839  0.0077  0.2698
  598TMC3    C3 8914   2.061   1.145  15.144  0.7588  0.6339 -0.3311
  598TMC3    C4 8915   2.313   1.254  15.124 -0.2822  0.4883 -0.0408
  598TMC3    C5 8916   2.236   1.232  15.011  0.5591 -0.2608 -0.1654
  598TMC3    C6 8917   2.113   1.171  15.013 -0.9437 -0.2679 -0.1636
  598TMC3     C 8918   2.310   1.276  15.373  0.2815 -0.1776  0.7976
  598TMC3     O 8919   2.235   1.339  15.450 -0.8825 -0.3603 -0.3382
  598TMC3     H 8920   2.078   1.165  15.354 -0.7497  1.8771  0.3074
  598TMC3    H1 8921   2.410   1.304  15.122  1.1201 -2.0530  3.4682
  598TMC3    H2 8922   2.051   1.150  14.926  0.7324  0.0841 -1.4323
  598TMC3    C7 8923   2.256   1.309  14.892  0.6939  0.1185 -0.4878
  598TMC3    C8 8924   1.955   1.048  15.151 -0.1171 -0.4492 -0.6813
  598TMC3    O1 8925   2.210   1.264  14.789  0.2697  0.1226 -0.9624
  598TMC3    O2 8926   1.947   0.970  15.051  0.0723 -0.0050  0.4057
  599MPD2     C 8927   2.120   3.225  15.706 -0.5723 -1.0358 -0.3120
  599MPD2    C1 8928   2.192   3.194  15.821  0.1246 -0.1299 -0.1927
  599MPD2    C2 8929   2.140   3.216  15.948 -0.4110 -0.3401 -0.4905
  599MPD2    C3 8930   2.016   3.281  15.956  0.1559  0.2551 -0.3699
  599MPD2    C4 8931   1.950   3.327  15.842  0.0157 -0.3008 -0.4562
  599MPD2    C5 8932   2.004   3.301  15.722  0.5745  0.2010 -0.3479
  599MPD2     H 8933   2.202   3.172  16.025 -1.7732  0.3995  1.0085
  599MPD2    H1 8934   1.852   3.374  15.849 -0.2463 -1.0088  0.5303
  599MPD2    H2 8935   2.156   3.214  15.605 -1.3436 -1.7499 -0.5121
  599MPD2    H3 8936   1.944   3.316  15.633  2.1554  1.4871 -1.2135
  599MPD2     N 8937   1.954   3.297  16.086 -0.1351 -0.7170  0.0954
  599MPD2    H5 8938   1.862   3.339  16.088  0.2207  0.0110  1.4360
  599MPD2    N1 8939   2.317   3.137  15.799  0.0601 -0.1190  0.4061
  599MPD2    H7 8940   2.354   3.135  15.704  2.3316  0.0144  1.2907
  600TMC3    C1 8941   1.908   3.264  16.314 -0.1307 -0.4078  0.1616
  600TMC3    C2 8942   1.888   3.150  16.385  0.7677 -0.0385 -0.5913
  600TMC3    C3 8943   1.856   3.161  16.519  0.2075  0.0456  0.0413
  600TMC3    C4 8944   1.921   3.379  16.375 -0.0837 -1.2371 -0.1872
  600TMC3    C5 8945   1.884   3.385  16.506  0.4032  0.0797 -1.0668
  600TMC3    C6 8946   1.850   3.278  16.582 -0.6045 -0.0681  0.7928
  600TMC3     C 8947   2.007   3.262  16.208  0.3107 -0.3135  0.4605
  600TMC3     O 8948   2.124   3.229  16.238 -0.0274 -0.1314 -0.6593
  600TMC3     H 8949   1.896   3.051  16.342  2.0256  0.0850 -0.6367
  600TMC3    H1 8950   1.966   3.460  16.318 -0.8698 -1.6604 -1.3954
  600TMC3    H2 8951   1.824   3.277  16.687 -2.4919  0.3605  0.3239
  600TMC3    C7 8952   1.855   3.520  16.553 -0.3347  0.2773 -0.3632
  600TMC3    C8 8953   1.812   3.044  16.589  0.8214 -0.2368  0.1852
  600TMC3    O1 8954   1.863   3.613  16.474  0.0394  0.1004 -0.0945
  600TMC3    O2 8955   1.849   3.038  16.707 -0.2661  0.3965  0.0107
  601MPD2     C 8956   4.638   1.013  17.522  0.5668  0.2328  0.4149
  601MPD2    C1 8957   4.503   1.033  17.527 -0.6081  0.4150 -0.2664
  601MPD2    C2 8958   4.425   0.920  17.550  0.2982  0.6856 -1.1342
  601MPD2    C3 8959   4.483   0.801  17.579  0.0850 -0.6619  0.1786
  601MPD2    C4 8960   4.621   0.791  17.584  0.0773 -0.2139 -0.0954
  601MPD2    C5 8961   4.695   0.903  17.568  0.0175  0.3883  0.9626
  601MPD2     H 8962   4.317   0.932  17.550  0.0590 -1.5229 -0.9820
  601MPD2    H1 8963   4.672   0.698  17.604  1.3604  0.1995 -1.4245
  601MPD2    H2 8964   4.700   1.097  17.492 -1.5909  2.1393  1.2631
  601MPD2    H3 8965   0.062   0.897  17.583  0.6416  2.8724 -2.4540
  601MPD2     N 8966   4.409   0.683  17.603 -0.4008 -1.0878 -0.3055
  601MPD2    H5 8967   4.458   0.595  17.617  0.2133 -0.4768  1.2788
  601MPD2    N1 8968   4.439   1.147  17.478 -0.1170 -0.7946  0.2880
  601MPD2    H7 8969   4.342   1.136  17.451  0.0357 -1.0787 -0.1470
  602TMC3    C1 8970   4.430   1.369  17.387 -0.4086 -0.7766  0.0273
  602TMC3    C2 8971   4.483   1.495  17.402  0.4898 -0.1222  0.3146
  602TMC3    C3 8972   4.402   1.592  17.354 -0.1439  0.0393 -0.1403
  602TMC3    C4 8973   4.314   1.337  17.327 -0.2027  0.5162 -0.1345
  602TMC3    C5 8974   4.248   1.443  17.269  0.4678  0.0783 -0.2528
  602TMC3    C6 8975   4.284   1.571  17.288 -0.7082  0.0184  0.3235
  602TMC3     C 8976   4.504   1.264  17.454 -0.2922  0.3209  0.6456
  602TMC3     O 8977   4.602   1.309  17.507 -0.0713 -0.5037 -0.4616
  602TMC3     H 8978   4.583   1.512  17.441  0.6449  0.2427 -0.2389
  602TMC3    H1 8979   4.288   1.236  17.297 -0.1283  0.6274 -0.5662
  602TMC3    H2 8980   4.212   1.647  17.261 -1.5123 -0.0677  2.1922
  602TMC3    C7 8981   4.147   1.408  17.168 -0.2655  0.2172  0.3571
  602TMC3    C8 8982   4.433   1.732  17.380  0.1076  0.2165  0.1557
  602TMC3    O1 8983   4.075   1.308  17.177 -0.3356  0.0173  0.1392
  602TMC3    O2 8984   4.508   1.764  17.471 -0.1822 -0.7426  0.5411
  603TMC3    C1 8985   2.289   2.534  10.929 -0.5117  0.2788 -0.6272
  603TMC3    C2 8986   2.326   2.503  11.057 -0.1128  0.2653  0.9287
  603TMC3    C3 8987   2.388   2.603  11.131  0.0318 -0.1266  0.3293
  603TMC3    C4 8988   2.304   2.657  10.876 -0.7755  0.3014  0.3067
  603TMC3    C5 8989   2.355   2.752  10.955  0.4303 -0.2213 -0.1585
  603TMC3    C6 8990   2.412   2.724  11.077 -0.5241 -0.2553 -0.3396
  603TMC3     C 8991   2.233   2.429  10.842 -0.2836 -0.5444 -0.6891
  603TMC3     O 8992   2.216   2.459  10.726  0.1848  0.2193  0.0333
  603TMC3     H 8993   2.316   2.404  11.100 -0.0136  0.4767  1.4353
  603TMC3    H1 8994   2.271   2.681  10.775  0.6650  1.9229  0.2174
  603TMC3    H2 8995   2.435   2.811  11.137  1.1719  1.2616 -3.1789
  603TMC3    C7 8996   2.378   2.887  10.904 -0.4893  0.3476 -0.8463
  603TMC3    C8 8997   2.447   2.564  11.262 -0.4632 -0.8885  1.1718
  603TMC3    O1 8998   2.467   2.958  10.949  0.4705 -0.5259 -0.4042
  603TMC3    O2 8999   2.442   2.445  11.291 -0.1302 -0.1277  0.2274
  604MPD2     C 9000   3.655   0.815  16.697  0.3192 -0.6309 -0.1526
  604MPD2    C1 9001   3.534   0.770  16.653  0.6709  0.3085 -0.0463
  604MPD2    C2 9002   3.527   0.720  16.526 -0.3855  0.2655 -0.2106
  604MPD2    C3 9003   3.636   0.700  16.446  0.1205 -0.0287 -0.1601
  604MPD2    C4 9004   3.759   0.747  16.495  0.1806  0.6339  0.2640
  604MPD2    C5 9005   3.770   0.804  16.621 -0.2083 -1.2257 -0.4617
  604MPD2     H 9006   3.429   0.690  16.492 -0.8865  0.1276  1.3602
  604MPD2    H1 9007   3.849   0.751  16.435  0.9365  1.4202  1.4432
  604MPD2    H2 9008   3.659   0.876  16.787 -0.1181  1.5539 -1.6166
  604MPD2    H3 9009   3.858   0.844  16.670 -1.8112  1.3288  0.3650
  604MPD2     N 9010   3.619   0.650  16.313 -0.0604  0.5660 -0.0535
  604MPD2    H5 9011   3.522   0.635  16.287 -0.0451 -1.0909  0.8130
  604MPD2    N1 9012   3.425   0.791  16.739 -0.2096 -0.0882  0.3256
  604MPD2    H7 9013   3.434   0.873  16.798 -0.2535 -1.0090  1.6208
  605TMC3    C1 9014   3.188   0.793  16.776  1.2129 -0.6437 -0.2183
  605TMC3    C2 9015   3.186   0.930  16.783  0.2085  0.2670  0.8730
  605TMC3    C3 9016   3.063   1.000  16.765 -0.4786 -0.4876  0.0918
  605TMC3    C4 9017   3.073   0.724  16.742 -0.0066  0.2596 -0.0758
  605TMC3    C5 9018   2.952   0.797  16.726  0.0192  0.5273 -0.5200
  605TMC3    C6 9019   2.954   0.928  16.741  0.0283  0.7891 -0.4635
  605TMC3     C 9020   3.304   0.719  16.728  0.2607  0.8347  0.0277
  605TMC3     O 9021   3.287   0.610  16.682  0.5144 -0.2872 -0.0769
  605TMC3     H 9022   3.271   0.980  16.829  0.3357  0.1329  0.7797
  605TMC3    H1 9023   3.066   0.616  16.739 -0.8132  0.3703 -2.0004
  605TMC3    H2 9024   2.860   0.982  16.738 -0.1753  0.4861  0.5330
  605TMC3    C7 9025   2.827   0.718  16.721 -0.2275 -0.6548 -0.5901
  605TMC3    C8 9026   3.073   1.109  16.677 -0.1438  0.2117  0.1141
  605TMC3    O1 9027   2.831   0.601  16.759  0.2499  0.2832 -0.0274
  605TMC3    O2 9028   2.979   1.129  16.602  0.3689 -0.4987  0.0209
  606TMC3    C1 9029   4.689   3.985  16.905 -0.4232  0.2086  0.3969
  606TMC3    C2 9030   4.719   4.030  17.029 -0.0920 -0.0570  0.2245
  606TMC3    C3 9031   4.689   3.956  17.139 -0.6155  0.5579 -0.3124
  606TMC3    C4 9032   4.651   3.854  16.880  0.0096 -0.7894  0.4201
  606TMC3    C5 9033   4.635   3.776  16.992  0.0010 -0.6111  0.6959
  606TMC3    C6 9034   4.637   3.827  17.126 -0.5815 -0.4918 -0.4022
  606TMC3     C 9035   4.715   4.088  16.801  0.0959 -0.8148  0.5617
  606TMC3     O 9036   4.739   4.207  16.822 -0.8997  0.4113  0.1833
  606TMC3     H 9037   0.010   4.132  17.048 -2.3756  0.1950  2.4622
  606TMC3    H1 9038   4.617   3.819  16.783 -1.2156 -1.2639  1.0188
  606TMC3    H2 9039   4.635   3.755  17.207  0.4304 -0.0473  0.0167
  606TMC3    C7 9040   4.572   3.647  16.963 -0.5431  0.0095 -0.2217
  606TMC3    C8 9041   4.729   3.997  17.270 -0.2354 -0.6638  0.5150
  606TMC3    O1 9042   4.602   3.592  16.861  0.7793 -0.3642  0.0675
  606TMC3    O2 9043   0.070   4.086  17.287 -0.2618  0.3128  0.1061
  607MPD2     C 9044   1.247   2.474  11.845 -0.9420  0.0257  0.0040
  607MPD2    C1 9045   1.334   2.550  11.921  0.0996 -0.2594 -0.7185
  607MPD2    C2 9046   1.372   2.504  12.041 -0.3119  0.2055 -0.1181
  607MPD2    C3 9047   1.322   2.381  12.082 -0.5151 -0.3256 -0.6433
  607MPD2    C4 9048   1.232   2.304  12.014  0.7927  0.2457  0.4027
  607MPD2    C5 9049   1.194   2.353  11.898 -0.9245  0.3915 -0.4097
  607MPD2     H 9050   1.432   2.573  12.099 -0.7655 -1.1153  1.9210
  607MPD2    H1 9051   1.197   2.208  12.051  0.0009 -0.3075 -1.7959
  607MPD2    H2 9052   1.220   2.493  11.742  2.4207  0.5028 -0.7888
  607MPD2    H3 9053   1.122   2.299  11.836 -2.7844 -1.0125  2.9773
  607MPD2     N 9054   1.366   2.362  12.214  0.8226 -0.1023  0.0116
  607MPD2    H5 9055   1.418   2.434  12.263 -0.8608  0.6230  0.7570
  607MPD2    N1 9056   1.394   2.666  11.873 -0.1039 -0.7356  0.3153
  607MPD2    H7 9057   1.474   2.693  11.928  0.8382 -2.7761 -0.0784
  608TMC3    C1 9058   1.490   2.829  11.746 -0.0560  0.1162  0.1019
  608TMC3    C2 9059   1.518   2.897  11.863 -0.1746  0.5957  0.2355
  608TMC3    C3 9060   1.626   2.975  11.859 -0.1423  0.4819 -0.1810
  608TMC3    C4 9061   1.573   2.819  11.638 -0.3171  0.8059 -0.8376
  608TMC3    C5 9062   1.678   2.899  11.644 -0.4920 -0.0430  0.5803
  608TMC3    C6 9063   1.709   2.980  11.749  0.8864 -0.5709 -0.3501
  608TMC3     C 9064   1.384   2.725  11.752  0.1166 -0.2782 -1.0114
  608TMC3     O 9065   1.301   2.715  11.666  0.0706  0.1833 -0.0740
  608TMC3     H 9066   1.442   2.905  11.939 -0.3814  0.0837  0.0768
  608TMC3    H1 9067   1.545   2.751  11.559 -1.2391 -1.4700  1.4815
  608TMC3    H2 9068   1.801   3.037  11.754  1.1009 -1.0107  0.8823
  608TMC3    C7 9069   1.766   2.903  11.530  0.2839  0.3816 -0.0469
  608TMC3    C8 9070   1.710   2.997  11.980  0.3278 -0.4797  0.3748
  608TMC3    O1 9071   1.715   2.884  11.419 -0.5961  0.1505 -0.1673
  608TMC3    O2 9072   1.825   3.032  11.969  0.0760 -0.7681 -0.1282
  609TMC3    C1 9073   0.022   1.758   9.116 -0.6000  0.3127  0.3803
  609TMC3    C2 9074   4.699   1.746   8.993  0.0438 -0.3922 -0.5139
  609TMC3    C3 9075   0.027   1.682   8.893  0.2650  0.7979 -0.0648
  609TMC3    C4 9076   0.137   1.687   9.148 -0.5280  1.1808  0.2206
  609TMC3    C5 9077   0.199   1.616   9.045 -0.0079 -0.1934  0.0845
  609TMC3    C6 9078   0.146   1.615   8.915  0.1585 -0.3732 -0.3687
  609TMC3     C 9079   4.714   1.845   9.218 -0.4337  0.0530 -0.0966
  609TMC3     O 9080   0.022   1.817   9.327 -0.1757 -0.5440  0.3027
  609TMC3     H 9081   4.602   1.791   8.976 -0.6269 -2.0811 -1.1597
  609TMC3    H1 9082   0.179   1.683   9.248 -1.1496  1.8831  0.5076
  609TMC3    H2 9083   0.204   1.594   8.826  1.6472 -1.0735  0.7644
  609TMC3    C7 9084   0.344   1.573   9.068  0.1019 -0.2347 -0.3083
  609TMC3    C8 9085   4.719   1.709   8.755 -0.0314 -0.0007 -0.6161
  609TMC3    O1 9086   0.389   1.610   9.178 -0.0483 -0.4128 -0.0649
  609TMC3    O2 9087   4.656   1.810   8.729  0.2851  0.3908 -0.3037
  610TMC3    C1 9088   2.068   2.296  12.681  1.5746  0.2784 -0.7939
  610TMC3    C2 9089   2.144   2.387  12.607 -0.1164  0.3839 -0.5348
  610TMC3    C3 9090   2.265   2.346  12.556 -0.1365 -0.2292 -0.0414
  610TMC3    C4 9091   2.112   2.175  12.717  1.0361  0.0334  0.1176
  610TMC3    C5 9092   2.226   2.136  12.660 -0.5452  0.2884  0.6804
  610TMC3    C6 9093   2.303   2.217  12.579  0.3476  0.3014  0.2239
  610TMC3     C 9094   1.939   2.351  12.728 -0.5751  0.2438  0.1325
  610TMC3     O 9095   1.931   2.474  12.739 -0.5057 -0.0135 -0.1931
  610TMC3     H 9096   2.114   2.488  12.581  0.3882  1.0331  1.3420
  610TMC3    H1 9097   2.049   2.118  12.784 -2.2704 -2.0516 -4.7075
  610TMC3    H2 9098   2.378   2.175  12.512 -0.5269  0.2664 -0.7322
  610TMC3    C7 9099   2.287   2.010  12.703  0.2782  0.5158  0.0464
  610TMC3    C8 9100   2.361   2.448  12.513  0.3078  0.4489 -0.0890
  610TMC3    O1 9101   2.403   1.992  12.668  0.0765  0.1728  0.1250
  610TMC3    O2 9102   2.320   2.556  12.466 -0.7176  0.0468 -0.2305
  611MPD2     C 9103   1.455   2.851  10.848  0.3328  0.5626  0.3403
  611MPD2    C1 9104   1.374   2.880  10.737  0.1177  0.5745 -0.0899
  611MPD2    C2 9105   1.438   2.914  10.616 -1.3914 -0.0376 -0.2833
  611MPD2    C3 9106   1.575   2.940  10.610 -0.5717  0.5226  1.0109
  611MPD2    C4 9107   1.653   2.910  10.721 -0.4751  0.4436  0.6971
  611MPD2    C5 9108   1.593   2.861  10.827  0.0375 -0.1128 -0.2900
  611MPD2     H 9109   1.376   2.944  10.532 -2.0647 -0.3978  0.0895
  611MPD2    H1 9110   1.760   2.927  10.726 -0.5417  0.4661  2.0814
  611MPD2    H2 9111   1.418   2.809  10.941 -1.4550  1.1961 -0.0941
  611MPD2    H3 9112   1.653   2.836  10.914  2.6593  0.8989 -1.8130
  611MPD2     N 9113   1.645   2.995  10.502  0.3318 -0.5445 -0.2398
  611MPD2    H5 9114   1.746   2.982  10.498  0.5394  0.0067  3.1581
  611MPD2    N1 9115   1.236   2.853  10.751 -0.1696  0.1354 -0.4363
  611MPD2    H7 9116   1.202   2.817  10.840 -0.2739  0.7636 -0.2192
  612TMC3    C1 9117   1.693   3.105  10.310  0.2394 -0.3747 -0.2730
  612TMC3    C2 9118   1.799   3.153  10.376  0.1067 -0.3670 -0.2024
  612TMC3    C3 9119   1.899   3.217  10.302  0.2035  0.8328  0.5334
  612TMC3    C4 9120   1.668   3.122  10.172  0.5244 -0.0803 -0.1003
  612TMC3    C5 9121   1.767   3.183  10.103 -0.2629  0.6049 -0.5580
  612TMC3    C6 9122   1.882   3.234  10.166  0.3045 -0.2340 -0.3051
  612TMC3     C 9123   1.587   3.058  10.394 -0.0892  0.1012  0.3869
  612TMC3     O 9124   1.470   3.068  10.356  0.0897 -0.3086  0.4166
  612TMC3     H 9125   1.802   3.159  10.485 -1.8507  0.1560 -0.1907
  612TMC3    H1 9126   1.578   3.081  10.127  2.2428 -1.9333 -1.8718
  612TMC3    H2 9127   1.953   3.278  10.097  0.5034  0.7170  0.4967
  612TMC3    C7 9128   1.750   3.226   9.964  0.4357 -0.2623  0.0698
  612TMC3    C8 9129   2.033   3.242  10.361  0.6084 -0.2939 -0.3088
  612TMC3    O1 9130   1.845   3.285   9.915  0.0184 -0.5641 -0.2592
  612TMC3    O2 9131   2.107   3.322  10.313  0.1577  0.0476  0.5634
  613MPD2     C 9132   0.920   4.362  16.101  0.5529  0.1471 -0.2090
  613MPD2    C1 9133   0.826   4.447  16.043 -0.6548  0.5152  0.3500
  613MPD2    C2 9134   0.720   4.383  15.987  0.4457 -0.2010  0.6370
  613MPD2    C3 9135   0.719   4.241  15.960  0.4638 -0.2481 -0.3685
  613MPD2    C4 9136   0.809   4.157  16.019 -0.6385  0.2304 -0.5089
  613MPD2    C5 9137   0.908   4.223  16.099 -0.7154  0.2409  0.2101
  613MPD2     H 9138   0.652   4.443  15.928 -0.4636 -0.8305  1.0409
  613MPD2    H1 9139   0.813   4.054  15.987  1.6387 -0.2103  1.1610
  613MPD2    H2 9140   1.010   4.395  16.152  0.3365 -1.3489  1.1469
  613MPD2    H3 9141   0.997   4.163  16.116  0.4407  1.0535 -2.9942
  613MPD2     N 9142   0.634   4.191  15.860 -0.2699 -0.2137 -0.3618
  613MPD2    H5 9143   0.668   4.107  15.813  1.3478  0.7658 -0.9342
  613MPD2    N1 9144   0.839   4.585  16.036  0.2921  0.3163 -0.5721
  613MPD2    H7 9145   0.921   4.627  16.079  0.5862 -0.2977 -0.5226
  614TMC3    C1 9146   0.822   0.034  15.904 -1.1260 -0.2262 -0.2016
  614TMC3    C2 9147   0.901   4.703  15.812  0.2538  0.2884  0.0850
  614TMC3    C3 9148   0.888   4.734  15.679 -0.0413  0.3066  0.7587
  614TMC3    C4 9149   0.737   0.133  15.858  0.2620 -0.3973  0.0094
  614TMC3    C5 9150   0.727   0.154  15.725  0.0006 -0.1074  0.1366
  614TMC3    C6 9151   0.800   0.085  15.632 -0.1016  0.5648 -1.0253
  614TMC3     C 9152   0.748   4.674  15.981  0.3011 -0.0836  0.2863
  614TMC3     O 9153   0.638   4.661  15.930 -0.1055  0.1763  0.1990
  614TMC3     H 9154   0.963   4.616  15.829  1.7104  1.5837  1.4475
  614TMC3    H1 9155   0.654   0.171  15.916  1.0554  3.1337 -1.1132
  614TMC3    H2 9156   0.805   0.109  15.526  0.9179  3.0505 -0.4117
  614TMC3    C7 9157   0.596   0.205  15.680  0.0574 -0.0892 -1.1538
  614TMC3    C8 9158   0.881   4.617  15.603 -0.0845  0.3731  0.2318
  614TMC3    O1 9159   0.535   0.286  15.746  0.2142 -0.2227 -0.4544
  614TMC3    O2 9160   0.831   4.519  15.658  0.3581 -0.3708  0.0184
  615MPD2     C 9161   0.131   0.678  15.847  0.2002 -0.2802  0.3313
  615MPD2    C1 9162   0.038   0.749  15.926  0.3992  0.5076 -0.0248
  615MPD2    C2 9163   4.670   0.802  15.860 -0.0361 -0.1240 -0.6347
  615MPD2    C3 9164   4.638   0.778  15.727  0.1280  0.3926  0.1739
  615MPD2    C4 9165   4.730   0.699  15.657  0.1360  0.6271  0.1834
  615MPD2    C5 9166   0.104   0.660  15.715 -0.0944  0.0195 -0.0012
  615MPD2     H 9167   4.601   0.867  15.912  0.4581 -1.1053  1.2594
  615MPD2    H1 9168   4.721   0.684  15.550  1.0419 -0.4964  0.2696
  615MPD2    H2 9169   0.215   0.625  15.889 -1.1795 -0.3340  3.0364
  615MPD2    H3 9170   0.174   0.599  15.659  0.9215 -0.5262  1.8902
  615MPD2     N 9171   4.543   0.844  15.642  0.4815  0.0248  0.0101
  615MPD2    H5 9172   4.533   0.812  15.546 -2.2986  0.4996  0.1540
  615MPD2    N1 9173   0.044   0.760  16.069 -0.4703  0.2212 -0.2041
  615MPD2    H7 9174   4.715   0.826  16.104 -0.1163  0.8924 -0.7573
  616TMC3    C1 9175   0.110   0.735  16.285  0.4370 -0.1913 -0.7371
  616TMC3    C2 9176   0.104   0.874  16.318  0.0481  0.2380  0.4520
  616TMC3    C3 9177   0.116   0.912  16.442  0.0473  0.0823 -0.7232
  616TMC3    C4 9178   0.142   0.644  16.382  1.3097  0.8993  0.0262
  616TMC3    C5 9179   0.173   0.688  16.506 -0.2518 -0.9460 -0.3844
  616TMC3    C6 9180   0.146   0.822  16.542  0.1748 -0.0276 -0.1501
  616TMC3     C 9181   0.134   0.699  16.148  0.8796 -0.0886  0.0929
  616TMC3     O 9182   0.231   0.629  16.119 -0.6774  1.0781  0.0556
  616TMC3     H 9183   0.090   0.948  16.241 -2.5054 -2.0214 -1.2678
  616TMC3    H1 9184   0.144   0.540  16.353 -1.4500  0.7446  0.3588
  616TMC3    H2 9185   0.167   0.864  16.640  1.5624 -0.0184 -0.4567
  616TMC3    C7 9186   0.214   0.600  16.607 -0.8460 -0.3767  0.7566
  616TMC3    C8 9187   0.152   1.052  16.461  0.1992 -0.0934  0.1442
  616TMC3    O1 9188   0.187   0.633  16.720  0.0116 -0.4868  0.4594
  616TMC3    O2 9189   0.089   1.132  16.394  0.1444  0.0778 -0.2493
  617MPD2     C 9190   2.528   4.026  13.748 -0.4141 -0.6125 -0.5889
  617MPD2    C1 9191   2.512   4.079  13.875  0.3882 -0.0101 -0.1334
  617MPD2    C2 9192   2.421   4.024  13.965 -1.1193 -0.5994  0.1655
  617MPD2    C3 9193   2.343   3.913  13.924  0.0386 -0.0496  0.1535
  617MPD2    C4 9194   2.361   3.858  13.801  0.2856  0.2225  0.3930
  617MPD2    C5 9195   2.447   3.919  13.712  0.1813  0.4548 -0.3036
  617MPD2     H 9196   2.413   4.065  14.065 -2.2559  0.2709 -0.2727
  617MPD2    H1 9197   2.307   3.770  13.767 -0.6271  0.2785  1.6992
  617MPD2    H2 9198   2.612   4.058  13.689 -2.3220  1.3696 -2.2056
  617MPD2    H3 9199   2.465   3.877  13.614  0.8486  1.3196 -0.5424
  617MPD2     N 9200   2.248   3.846  13.994  0.5646 -0.0552  0.4235
  617MPD2    H5 9201   2.209   3.765  13.946  0.7543  0.8251 -1.2450
  617MPD2    N1 9202   2.599   4.188  13.894 -0.2821  0.2002  0.1717
  617MPD2    H7 9203   2.677   4.182  13.829 -1.2706  0.2786 -1.0087
  618TMC3    C1 9204   2.750   4.351  13.984  0.1355 -0.6367 -0.1249
  618TMC3    C2 9205   2.804   4.360  14.110  0.6524  0.9997  0.0083
  618TMC3    C3 9206   2.940   4.332  14.132  0.3796  0.6104 -0.7445
  618TMC3    C4 9207   2.827   4.291  13.887 -0.1490  0.1613 -0.1809
  618TMC3    C5 9208   2.951   4.243  13.921  0.0194 -0.7621 -0.5840
  618TMC3    C6 9209   3.014   4.258  14.041 -0.4087 -0.2958 -0.5780
  618TMC3     C 9210   2.619   4.284  13.994 -0.5235 -0.7194 -0.1164
  618TMC3     O 9211   2.558   4.301  14.097  0.8881  0.0435  0.6718
  618TMC3     H 9212   2.759   4.410  14.195  0.2058 -0.4305  0.6192
  618TMC3    H1 9213   2.791   4.280  13.785  0.3678  1.8625 -0.5389
  618TMC3    H2 9214   3.112   4.226  14.072 -1.3247 -0.4010  2.2183
  618TMC3    C7 9215   2.987   4.123  13.843 -0.4854  0.5771 -0.8962
  618TMC3    C8 9216   3.003   4.389  14.252  0.1282 -0.2388  0.2017
  618TMC3    O1 9217   2.917   4.100  13.746 -0.5364 -0.4185  0.5253
  618TMC3    O2 9218   2.929   4.423  14.347 -0.0378 -0.1834  0.9503
  619MPD2     C 9219   4.091   0.446  13.865  0.5133 -0.5625 -0.5554
  619MPD2    C1 9220   4.034   0.554  13.809 -0.2695 -0.3897  0.1692
  619MPD2    C2 9221   3.902   0.589  13.831  1.1547 -0.0941 -1.0900
  619MPD2    C3 9222   3.819   0.519  13.925 -0.4308 -0.4858 -0.2837
  619MPD2    C4 9223   3.882   0.420  13.993 -0.1842  0.0481 -0.3956
  619MPD2    C5 9224   4.015   0.386  13.963 -0.6711  0.2289  0.4571
  619MPD2     H 9225   3.856   0.666  13.769  2.1016  1.8063  0.5731
  619MPD2    H1 9226   3.824   0.378  14.075  0.7210 -0.1101  0.1587
  619MPD2    H2 9227   4.193   0.416  13.846  0.9028  0.3247  0.1292
  619MPD2    H3 9228   4.062   0.333  14.045  0.9120  2.6370  1.1323
  619MPD2     N 9229   3.676   0.531  13.928  0.6842  0.4381  0.6167
  619MPD2    H5 9230   3.630   0.476  13.999  1.5963 -0.3213  0.6123
  619MPD2    N1 9231   4.101   0.643  13.724  0.1492  0.0949  0.2452
  619MPD2    H7 9232   4.052   0.727  13.695  0.1151  0.6331  1.8520
  620TMC3    C1 9233   4.270   0.753  13.623  0.0791  0.3021 -0.0195
  620TMC3    C2 9234   4.198   0.770  13.511  0.2437  0.4749  0.2108
  620TMC3    C3 9235   4.236   0.868  13.429 -0.0538 -0.1484 -0.8446
  620TMC3    C4 9236   4.388   0.817  13.652  0.2934  0.1592 -0.6451
  620TMC3    C5 9237   4.422   0.915  13.560  0.3842 -0.3434  0.5154
  620TMC3    C6 9238   4.350   0.940  13.442 -0.8296 -0.7337 -0.4094
  620TMC3     C 9239   4.234   0.642  13.706 -0.2388  0.6779  1.0500
  620TMC3     O 9240   4.323   0.572  13.754 -0.7080 -0.3577  0.1751
  620TMC3     H 9241   4.112   0.704  13.499  1.1941 -0.3447 -2.0105
  620TMC3    H1 9242   4.449   0.789  13.737  1.2996  0.5109 -1.2489
  620TMC3    H2 9243   4.390   1.008  13.368  1.5532 -0.4380  1.1442
  620TMC3    C7 9244   4.409   1.039  13.642 -0.7659  0.0990  0.4070
  620TMC3    C8 9245   4.129   0.950  13.375 -0.0441  0.0248  0.0387
  620TMC3    O1 9246   4.460   1.049  13.754  0.3947  0.4336 -0.2912
  620TMC3    O2 9247   4.138   1.071  13.386  0.0720  0.4202  0.0208
  621MPD2     C 9248   4.675   1.032   9.662 -0.7031  0.3133 -0.1677
  621MPD2    C1 9249   4.732   1.022   9.787  0.1636  0.2978 -0.5219
  621MPD2    C2 9250   0.068   1.124   9.832 -0.3794  0.2980 -0.8660
  621MPD2    C3 9251   0.094   1.232   9.757  0.5989 -0.6949  0.0564
  621MPD2    C4 9252   0.044   1.240   9.629 -0.2186 -0.1806 -0.2668
  621MPD2    C5 9253   4.700   1.146   9.584  0.2073  0.3540  0.1984
  621MPD2     H 9254   0.123   1.124   9.925  2.4879 -0.0448 -2.5402
  621MPD2    H1 9255   0.048   1.326   9.562 -1.3656  1.5552  1.8863
  621MPD2    H2 9256   4.618   0.951   9.619  1.6312 -0.1146 -2.4527
  621MPD2    H3 9257   4.686   1.160   9.477 -1.0972  0.1803  0.3497
  621MPD2     N 9258   0.181   1.327   9.815  0.1348 -0.4712  0.4037
  621MPD2    H5 9259   0.236   1.298   9.895 -0.7528  1.3854  1.6670
  621MPD2    N1 9260   4.722   0.904   9.860 -0.2981  0.0592 -0.4242
  621MPD2    H7 9261   4.680   0.827   9.809  0.5347 -0.4984 -0.2686
  622TMC3    C1 9262   4.695   0.762  10.047  0.7859  0.6408 -0.6241
  622TMC3    C2 9263   4.608   0.753  10.149 -0.5500 -0.1407 -0.2291
  622TMC3    C3 9264   4.580   0.625  10.196 -1.1633  0.6142  0.5891
  622TMC3    C4 9265   0.008   0.654   9.986  0.0282  0.1560 -0.9938
  622TMC3    C5 9266   4.735   0.529  10.044  0.2453 -0.3435  0.1783
  622TMC3    C6 9267   4.644   0.511  10.145 -0.1249 -0.3885 -0.3596
  622TMC3     C 9268   4.725   0.897   9.999 -0.1323  0.0774 -0.0583
  622TMC3     O 9269   4.733   0.994  10.072  0.0751 -0.2778 -0.0257
  622TMC3     H 9270   4.559   0.838  10.196 -0.4036  0.5267 -1.2691
  622TMC3    H1 9271   0.087   0.674   9.914  0.0869  2.8133 -0.1799
  622TMC3    H2 9272   4.615   0.412  10.177 -0.1754 -0.9478 -2.1326
  622TMC3    C7 9273   0.001   0.414   9.956  0.1011  0.4988  0.5977
  622TMC3    C8 9274   4.442   0.604  10.211 -0.1852  0.3476  0.0833
  622TMC3    O1 9275   0.097   0.409   9.874  0.0264 -0.4463  0.2715
  622TMC3    O2 9276   4.397   0.525  10.132  0.0150 -0.1503 -1.0261
  623MPD2     C 9277   3.713   1.050  15.855 -0.4549  0.5212 -0.2340
  623MPD2    C1 9278   3.618   1.035  15.957  0.1409 -0.6355 -0.1366
  623MPD2    C2 9279   3.655   1.025  16.089 -0.2492  0.3737  0.5330
  623MPD2    C3 9280   3.789   1.019  16.119 -0.4400  0.2849  0.7458
  623MPD2    C4 9281   3.885   1.029  16.022  0.5762 -0.0206  0.6144
  623MPD2    C5 9282   3.845   1.047  15.891 -0.2984  0.0933 -0.6954
  623MPD2     H 9283   3.580   1.039  16.166 -0.7411  1.2367 -0.0926
  623MPD2    H1 9284   3.988   1.050  16.050  0.7130 -1.6315  1.3368
  623MPD2    H2 9285   3.690   1.070  15.751 -0.8188 -0.6677 -0.3849
  623MPD2    H3 9286   3.914   1.068  15.809  0.0619 -0.1045 -0.4397
  623MPD2     N 9287   3.826   1.009  16.253  0.2220 -0.1780  0.0847
  623MPD2    H5 9288   3.752   1.026  16.320  0.1481  1.2400 -0.3571
  623MPD2    N1 9289   3.484   1.056  15.920  0.6758 -0.3207  0.2851
  623MPD2    H7 9290   3.468   1.080  15.823  4.3318 -0.1887 -0.2841
  624TMC3    C1 9291   4.030   1.102  16.650  0.2965  0.2874  0.4624
  624TMC3    C2 9292   3.923   1.182  16.680 -0.3378  0.7678  0.0705
  624TMC3    C3 9293   3.837   1.228  16.578 -0.1930 -0.6745  0.6171
  624TMC3    C4 9294   4.040   1.042  16.524  0.6806  0.4530  0.3285
  624TMC3    C5 9295   3.945   1.075  16.436  0.6167 -0.0341  0.1415
  624TMC3    C6 9296   3.848   1.173  16.451 -0.1574  0.3257 -0.1088
  624TMC3     C 9297   4.140   1.088  16.749 -0.2878 -0.0048 -0.4681
  624TMC3     O 9298   4.189   0.977  16.762  0.3451  0.0225 -0.4592
  624TMC3     H 9299   3.917   1.218  16.782  0.2483  0.0770  0.3458
  624TMC3    H1 9300   4.122   0.976  16.499  0.2941 -0.6399  1.9314
  624TMC3    H2 9301   3.774   1.198  16.376 -0.8839  1.5379  1.0093
  624TMC3    C7 9302   3.953   1.009  16.308 -0.1987  0.1829  0.4950
  624TMC3    C8 9303   3.699   1.245  16.620  0.2267 -0.3432 -0.0458
  624TMC3    O1 9304   4.069   0.997  16.268 -0.7832  0.9329  0.4253
  624TMC3    O2 9305   3.668   1.183  16.722  0.0074 -0.1335  0.0478
  625MPD2     C 9306   4.602   1.957   0.794 -0.0164 -0.4376 -0.0959
  625MPD2    C1 9307   4.612   2.088   0.837 -0.7083 -0.3296  0.0809
  625MPD2    C2 9308   4.736   2.125   0.880 -0.1174  0.0812 -0.0069
  625MPD2    C3 9309   0.102   2.042   0.899 -0.6298  0.7726 -0.9013
  625MPD2    C4 9310   0.091   1.910   0.856  0.1756 -0.0245  0.4239
  625MPD2    C5 9311   4.714   1.875   0.790  0.8765  0.3949 -0.2465
  625MPD2     H 9312   4.736   2.227   0.919 -1.2378  0.9746 -2.3409
  625MPD2    H1 9313   0.168   1.833   0.862  0.1583 -0.1593 -1.0776
  625MPD2    H2 9314   4.519   1.922   0.735 -1.7008  1.5643  1.0698
  625MPD2    H3 9315   4.691   1.772   0.765  2.5279 -0.1705  0.5745
  625MPD2     N 9316   0.225   2.095   0.955  0.0991 -0.0578 -0.1215
  625MPD2    H5 9317   0.226   2.194   0.974  0.1118 -0.2610  0.9332
  625MPD2    N1 9318   4.511   2.187   0.842 -0.3601 -0.6377 -0.3367
  625MPD2    H7 9319   4.547   2.266   0.895  0.2510 -1.3473  0.3039
  626TMC3    C1 9320   4.317   2.308   0.793 -0.2481  0.3532  0.1785
  626TMC3    C2 9321   4.209   2.323   0.710 -0.2886 -0.1136  0.7958
  626TMC3    C3 9322   4.125   2.426   0.735  0.2396 -0.7098  0.3138
  626TMC3    C4 9323   4.348   2.399   0.892  0.1420  0.0321  0.2980
  626TMC3    C5 9324   4.266   2.510   0.894  0.7872  0.7273 -0.6567
  626TMC3    C6 9325   4.154   2.517   0.822 -0.3272  0.0214  0.7021
  626TMC3     C 9326   4.397   2.184   0.773 -0.1554  0.3908  0.1230
  626TMC3     O 9327   4.350   2.099   0.697  0.1073  0.1154 -0.0416
  626TMC3     H 9328   4.174   2.250   0.638 -1.0711  1.1034 -0.0570
  626TMC3    H1 9329   4.428   2.389   0.965 -0.1716 -2.3418  0.3403
  626TMC3    H2 9330   4.096   2.608   0.814 -1.5252 -0.8247 -0.2105
  626TMC3    C7 9331   4.305   2.616   0.984  1.1759 -0.4257 -0.6102
  626TMC3    C8 9332   4.014   2.440   0.638 -0.2960  0.6477  0.4966
  626TMC3    O1 9333   4.417   2.601   1.033 -0.3592 -0.1610 -0.9035
  626TMC3    O2 9334   4.007   2.361   0.540 -0.3784  0.7297 -0.0499
  627MPD2     C 9335   2.610   2.747  13.958 -0.9829 -0.0212 -0.4394
  627MPD2    C1 9336   2.525   2.781  14.060  0.8348  0.3915 -0.2996
  627MPD2    C2 9337   2.393   2.733  14.056  0.4217  0.4775 -0.2463
  627MPD2    C3 9338   2.353   2.651  13.955 -0.0997  0.2805 -0.2774
  627MPD2    C4 9339   2.436   2.620  13.852 -0.6374 -0.6056  0.1887
  627MPD2    C5 9340   2.560   2.675  13.853  0.3350  0.5827  0.2955
  627MPD2     H 9341   2.318   2.756  14.132 -0.8929 -3.0508 -0.4648
  627MPD2    H1 9342   2.396   2.561  13.770 -1.3157  1.2859 -0.8336
  627MPD2    H2 9343   2.712   2.783  13.951 -0.6161 -1.0891 -0.4632
  627MPD2    H3 9344   2.630   2.658  13.771  0.4785  2.2590  0.0789
  627MPD2     N 9345   2.218   2.609  13.955 -0.8945  0.1526 -0.0977
  627MPD2    H5 9346   2.158   2.654  14.023  2.0169  1.7447  1.4452
  627MPD2    N1 9347   2.565   2.863  14.169 -0.1252 -0.3026 -0.4163
  627MPD2    H7 9348   2.488   2.890  14.229  0.2655 -1.3765  0.5765
  628TMC3    C1 9349   2.699   2.957  14.334 -0.8357  0.3864  0.3242
  628TMC3    C2 9350   2.787   2.890  14.417  0.0813 -0.5705 -0.4864
  628TMC3    C3 9351   2.763   2.896  14.555 -0.7069 -0.4269 -0.8678
  628TMC3    C4 9352   2.582   3.013  14.382 -0.4478  0.2944  0.0963
  628TMC3    C5 9353   2.560   3.019  14.515  0.9873  0.2445 -0.1392
  628TMC3    C6 9354   2.657   2.967  14.602  0.0228 -0.3768  0.2199
  628TMC3     C 9355   2.698   2.901  14.198 -0.0549 -0.0954  0.3139
  628TMC3     O 9356   2.802   2.872  14.142 -0.2304  0.1340  0.3479
  628TMC3     H 9357   2.872   2.838  14.376  1.4783  0.1975  1.4445
  628TMC3    H1 9358   2.511   3.057  14.313  0.0521 -1.7362 -1.7087
  628TMC3    H2 9359   2.622   2.948  14.703 -3.4526 -0.4280 -0.9973
  628TMC3    C7 9360   2.434   3.098  14.559  0.0491 -0.8608 -0.0677
  628TMC3    C8 9361   2.850   2.830  14.642 -0.3695 -0.5623  0.2738
  628TMC3    O1 9362   2.335   3.091  14.489  0.1730  0.2135 -0.1375
  628TMC3    O2 9363   2.943   2.764  14.593  0.7055 -0.3129 -0.5489
  629MPD2     C 9364   0.476   1.421  16.537  0.6666  0.4174 -0.4631
  629MPD2    C1 9365   0.545   1.305  16.556 -0.0185 -0.3599  0.2779
  629MPD2    C2 9366   0.480   1.185  16.538 -0.7204 -0.7297 -0.9507
  629MPD2    C3 9367   0.342   1.188  16.514  0.2538  0.0872  0.7276
  629MPD2    C4 9368   0.273   1.306  16.503 -0.0914  0.4331  0.3940
  629MPD2    C5 9369   0.345   1.419  16.505 -0.2322  0.8051  0.5198
  629MPD2     H 9370   0.532   1.090  16.540 -0.0319 -0.3309  0.0440
  629MPD2    H1 9371   0.166   1.315  16.487  0.0221  1.1070  0.0022
  629MPD2    H2 9372   0.525   1.517  16.549 -1.2257  1.3146  0.0516
  629MPD2    H3 9373   0.291   1.510  16.480 -0.6420  0.0061 -1.5312
  629MPD2     N 9374   0.276   1.067  16.521 -0.2578 -0.5654 -0.4783
  629MPD2    H5 9375   0.331   0.985  16.544 -0.1551 -0.3438  0.0777
  629MPD2    N1 9376   0.685   1.310  16.565 -0.5816  0.6840  0.2234
  629MPD2    H7 9377   0.739   1.396  16.562  1.5733 -0.6689 -0.1096
  630TMC3    C1 9378   0.905   1.217  16.613 -0.4162  0.9525  0.8563
  630TMC3    C2 9379   0.969   1.319  16.542  0.0062  0.1315 -0.1770
  630TMC3    C3 9380   1.105   1.328  16.550  0.4316  0.9518  0.3411
  630TMC3    C4 9381   0.973   1.147  16.712  0.3155 -0.3785 -0.4308
  630TMC3    C5 9382   1.109   1.172  16.723  0.5721  0.1962  0.5552
  630TMC3    C6 9383   1.173   1.239  16.628 -0.6428  0.6451 -0.1955
  630TMC3     C 9384   0.760   1.201  16.604 -0.8547 -0.1669 -0.7007
  630TMC3     O 9385   0.730   1.087  16.637 -0.1551  0.3096  0.2283
  630TMC3     H 9386   0.922   1.366  16.457 -0.4875 -0.1586 -0.0641
  630TMC3    H1 9387   0.907   1.107  16.788  1.2570 -1.7159 -0.3116
  630TMC3    H2 9388   1.281   1.252  16.633 -0.8179  1.5144  1.2274
  630TMC3    C7 9389   1.183   1.129  16.836 -0.1050  0.4491  0.4166
  630TMC3    C8 9390   1.179   1.438  16.494 -0.4734  0.1336 -0.4172
  630TMC3    O1 9391   1.284   1.200  16.858 -0.2747 -0.0795 -0.2083
  630TMC3    O2 9392   1.287   1.401  16.448 -0.2815 -0.1219  0.6072
  631MPD2     C 9393   3.738   1.577  15.703  0.0692 -0.0061  0.0430
  631MPD2    C1 9394   3.859   1.633  15.664 -0.3965 -0.1377 -0.4312
  631MPD2    C2 9395   3.972   1.559  15.638 -0.2160 -0.4409  0.2356
  631MPD2    C3 9396   3.959   1.422  15.634  0.8907 -0.1904 -0.7631
  631MPD2    C4 9397   3.833   1.368  15.663 -0.4250 -0.7023  0.1957
  631MPD2    C5 9398   3.722   1.442  15.692 -0.2966  0.2702 -0.6469
  631MPD2     H 9399   4.070   1.596  15.612 -1.7980  1.3462 -3.2296
  631MPD2    H1 9400   3.823   1.261  15.678  2.2569 -1.3053 -2.2618
  631MPD2    H2 9401   3.662   1.639  15.751 -0.0287 -0.2209  0.1677
  631MPD2    H3 9402   3.625   1.397  15.709 -0.5488  1.1116  0.1450
  631MPD2     N 9403   4.073   1.344  15.603  0.2508 -0.0217 -0.5969
  631MPD2    H5 9404   4.161   1.394  15.595 -0.1105  0.6236 -0.5026
  631MPD2    N1 9405   3.860   1.770  15.647 -0.9080  0.6806 -0.1626
  631MPD2    H7 9406   3.768   1.812  15.641 -0.7046  0.9512 -1.4337
  632TMC3    C1 9407   3.927   1.990  15.596 -0.5065 -0.7592  0.7220
  632TMC3    C2 9408   3.799   2.033  15.603 -0.0628  0.0826  0.1294
  632TMC3    C3 9409   3.755   2.138  15.530 -0.9452  0.3770 -0.6675
  632TMC3    C4 9410   4.007   2.036  15.494  0.9763  0.4337 -0.0048
  632TMC3    C5 9411   3.959   2.141  15.418  0.1032 -1.0786 -0.1288
  632TMC3    C6 9412   3.839   2.210  15.444 -0.5455  0.0112  0.0753
  632TMC3     C 9413   3.969   1.855  15.629  0.3156  0.5654 -0.3904
  632TMC3     O 9414   4.087   1.820  15.638 -0.9259  0.8656 -0.6468
  632TMC3     H 9415   3.736   1.986  15.678  0.6116 -0.4888  0.3326
  632TMC3    H1 9416   4.091   1.974  15.466  0.7417 -0.7339  1.9018
  632TMC3    H2 9417   3.815   2.296  15.382  1.3992 -0.0440 -0.7536
  632TMC3    C7 9418   4.027   2.154  15.290  0.3196 -0.0870  0.3507
  632TMC3    C8 9419   3.609   2.152  15.522  0.4321 -0.4604  0.4694
  632TMC3    O1 9420   4.073   2.052  15.243  0.3985  0.2833 -0.8327
  632TMC3    O2 9421   3.548   2.053  15.556  0.7330  0.0160  0.8119
  633MPD2     C 9422   3.668   4.030  17.632 -0.1312 -0.2367 -0.1594
  633MPD2    C1 9423   3.748   3.987  17.534 -0.1220 -0.2611 -0.6790
  633MPD2    C2 9424   3.768   3.852  17.526 -0.1549 -0.2365  0.1398
  633MPD2    C3 9425   3.725   3.754  17.620 -0.9920 -0.1761  0.6824
  633MPD2    C4 9426   3.646   3.809  17.718 -0.0033 -0.1266 -0.0433
  633MPD2    C5 9427   3.623   3.946  17.730 -0.3381 -0.2798  0.1512
  633MPD2     H 9428   3.814   3.817  17.434  1.9149  0.2119  1.0023
  633MPD2    H1 9429   3.597   3.745   0.032  1.3600  1.1369  1.9613
  633MPD2    H2 9430   3.642   4.136  17.635 -0.6818 -0.3353 -1.4258
  633MPD2    H3 9431   3.576   3.995   0.055  0.6904  2.3929 -0.8244
  633MPD2     N 9432   3.755   3.609  17.622 -0.0403  0.0888  0.1988
  633MPD2    H5 9433   3.721   3.550  17.697  0.7088  0.4513  0.8232
  633MPD2    N1 9434   3.786   4.070  17.419 -0.2671  0.7754 -0.0568
  633MPD2    H7 9435   3.828   4.022  17.341  1.2861  3.5622 -0.9562
  634TMC3    C1 9436   3.841   4.243  17.274 -0.1829 -0.3407 -0.8627
  634TMC3    C2 9437   3.943   4.163  17.216 -0.0277 -0.2391 -0.0589
  634TMC3    C3 9438   3.975   4.188  17.084  0.1539  0.1305  0.6843
  634TMC3    C4 9439   3.804   4.361  17.209  0.4212  0.0613 -0.5034
  634TMC3    C5 9440   3.858   4.398  17.090 -0.1899 -0.2868 -0.2729
  634TMC3    C6 9441   3.940   4.306  17.025 -0.3813 -0.3138 -0.2568
  634TMC3     C 9442   3.779   4.204  17.402 -0.1614  0.4220  0.3184
  634TMC3     O 9443   3.725   4.292  17.471  0.6573  0.2490 -0.0108
  634TMC3     H 9444   3.969   4.064  17.250  1.8778  0.4104  0.3365
  634TMC3    H1 9445   3.742   4.425  17.272  0.0893  0.0114 -0.7796
  634TMC3    H2 9446   3.977   4.337  16.928 -2.0330 -0.3702 -0.9063
  634TMC3    C7 9447   3.795   4.496  17.007  0.1580  0.2745  0.4596
  634TMC3    C8 9448   3.994   4.072  17.000  0.0225  0.4910  0.8733
  634TMC3    O1 9449   3.809   4.494  16.886  0.2560  0.9357 -0.8128
  634TMC3    O2 9450   3.964   3.965  17.054 -0.2120  0.0386 -0.4381
  635TMC3    C1 9451   4.701   4.433  17.510  0.4841 -0.2297  0.6161
  635TMC3    C2 9452   0.012   4.387  17.624  0.2422 -0.2840 -0.1878
  635TMC3    C3 9453   0.143   4.383  17.646 -0.8574 -0.6529  0.7892
  635TMC3    C4 9454   0.045   4.462  17.411  0.4074 -0.6120  0.4812
  635TMC3    C5 9455   0.179   4.436  17.424  0.0492  0.0400 -0.1426
  635TMC3    C6 9456   0.230   4.385  17.542  0.5456 -0.3728  0.1093
  635TMC3     C 9457   4.583   4.515  17.514  0.4987 -0.1451  0.2024
  635TMC3     O 9458   4.590   4.617  17.444  0.3425 -0.7660  0.3491
  635TMC3     H 9459   4.678   4.373  17.701  0.4544  0.1399  0.0920
  635TMC3    H1 9460   0.004   4.522  17.330 -0.0243 -1.2484  0.2289
  635TMC3    H2 9461   0.337   4.374  17.558  0.7906 -0.5131 -1.6066
  635TMC3    C7 9462   0.265   4.467  17.323  0.9549  0.1484 -0.5627
  635TMC3    C8 9463   0.188   4.344   0.022 -0.1861  0.1381  0.2155
  635TMC3    O1 9464   0.382   4.473  17.350 -0.2956 -0.6115 -0.0709
  635TMC3    O2 9465   0.116   4.279   0.095 -0.8579  0.1873 -0.3290
  636MPD2     C 9466   0.010   0.107  15.500  0.7229  0.4321 -0.0770
  636MPD2    C1 9467   0.086   0.096  15.611  0.0491  1.2558  0.0169
  636MPD2    C2 9468   0.175   4.734  15.623 -0.3207  0.3808  0.3053
  636MPD2    C3 9469   0.189   4.639  15.523 -0.6034  0.6117  0.0550
  636MPD2    C4 9470   0.105   4.639  15.418 -0.0484  0.3469 -0.8234
  636MPD2    C5 9471   0.021   0.007  15.404 -0.6163  0.5985 -0.2753
  636MPD2     H 9472   0.252   4.739  15.699  1.7911 -1.4794 -1.6876
  636MPD2    H1 9473   0.126   4.571  15.336  0.8095  0.6679 -0.8665
  636MPD2    H2 9474   4.693   0.196  15.479 -3.7815 -2.1527  1.1581
  636MPD2    H3 9475   4.698   0.023  15.318 -1.8513  0.0806  0.5381
  636MPD2     N 9476   0.299   4.549  15.538 -0.5146 -0.3837 -0.0976
  636MPD2    H5 9477   0.345   4.554  15.628  1.8952  1.0120 -1.3829
  636MPD2    N1 9478   0.076   0.186  15.723  0.2556  0.2063 -0.0241
  636MPD2    H7 9479   0.123   0.157  15.808  1.1548  0.7132 -0.3571
  637TMC3    C1 9480   0.428   4.361  15.490 -0.1208  0.1563  0.0220
  637TMC3    C2 9481   0.408   4.316  15.621 -0.4890 -0.0344 -0.5257
  637TMC3    C3 9482   0.494   4.219  15.664  0.2150  0.0392  0.4076
  637TMC3    C4 9483   0.537   4.322  15.409  0.1486  0.4246 -0.2859
  637TMC3    C5 9484   0.625   4.232  15.462 -0.1698  0.7640  0.6367
  637TMC3    C6 9485   0.602   4.178  15.590  0.4492 -0.0676 -0.2003
  637TMC3     C 9486   0.342   4.462  15.437 -0.7677 -0.4454  0.2044
  637TMC3     O 9487   0.328   4.477  15.316  0.4286 -0.0178  0.3275
  637TMC3     H 9488   0.320   4.334  15.682 -0.7483 -1.2936 -0.5355
  637TMC3    H1 9489   0.541   4.344  15.303 -0.3238  0.3319 -0.3214
  637TMC3    H2 9490   0.670   4.098  15.615  2.7589  1.2466 -2.1660
  637TMC3    C7 9491   0.697   4.151  15.370 -0.3730 -0.3373 -0.4780
  637TMC3    C8 9492   0.517   4.250  15.805  0.4377  0.1774  1.0305
  637TMC3    O1 9493   0.664   4.032  15.385  0.1340  0.2748  0.0903
  637TMC3    O2 9494   0.450   4.333  15.862  0.1993 -0.5176 -0.2457
  638MPD2     C 9495   4.509   3.741  15.064 -0.7529 -0.3083 -0.3367
  638MPD2    C1 9496   4.566   3.636  14.989 -0.5864 -0.0629  0.0935
  638MPD2    C2 9497   4.579   3.517  15.052 -0.0409  0.1925 -0.5734
  638MPD2    C3 9498   4.531   3.497  15.178  0.2387 -0.0079 -0.2974
  638MPD2    C4 9499   4.483   3.602  15.255 -0.1854  0.2527  0.2187
  638MPD2    C5 9500   4.478   3.730  15.200 -0.6605  0.2365  0.3084
  638MPD2     H 9501   4.609   3.438  14.984 -2.8595  0.2699 -1.8928
  638MPD2    H1 9502   4.442   3.584  15.354  1.0013  1.3020  0.8926
  638MPD2    H2 9503   4.502   3.841  15.023  1.9394  0.3377  0.8391
  638MPD2    H3 9504   4.456   3.820  15.256 -1.5558  0.5342 -0.5091
  638MPD2     N 9505   4.540   3.366  15.220  0.2214 -0.1245  0.4384
  638MPD2    H5 9506   4.612   3.307  15.179 -0.9433 -2.2040  1.3677
  638MPD2    N1 9507   4.594   3.643  14.854 -0.5624  0.6997  0.1294
  638MPD2    H7 9508   4.617   3.556  14.805 -0.0364  0.0695  1.5120
  639TMC3    C1 9509   4.456   3.167  15.292  0.4324  0.3028  0.4512
  639TMC3    C2 9510   4.341   3.093  15.287  0.2232 -0.4531 -0.4208
  639TMC3    C3 9511   4.352   2.961  15.277 -1.0197  0.3784 -1.0343
  639TMC3    C4 9512   4.582   3.112  15.286  0.3421  0.3686  0.6534
  639TMC3    C5 9513   4.586   2.977  15.287  0.2178 -0.1852  0.4663
  639TMC3    C6 9514   4.473   2.896  15.283  0.2156 -0.3011  0.1285
  639TMC3     C 9515   4.439   3.306  15.292 -0.8935  0.4267 -0.8017
  639TMC3     O 9516   4.327   3.350  15.321 -0.3170  0.2896  0.5096
  639TMC3     H 9517   4.249   3.143  15.260  0.2001 -1.2977 -1.9189
  639TMC3    H1 9518   4.672   3.169  15.305  1.9616 -1.7158 -0.6896
  639TMC3    H2 9519   4.471   2.788  15.274 -0.3371 -0.4252  1.8306
  639TMC3    C7 9520   4.703   2.897  15.278  0.7662  0.1601  1.1855
  639TMC3    C8 9521   4.271   2.907  15.171 -0.5968  0.1459  0.2854
  639TMC3    O1 9522   4.692   2.780  15.309 -1.2350 -0.2814  0.0032
  639TMC3    O2 9523   4.329   2.834  15.095  0.6761  0.1074 -0.3098
  640MPD2     C 9524   0.449   2.407  10.206 -0.3829 -0.5731 -0.0331
  640MPD2    C1 9525   0.387   2.447  10.089  0.0083 -0.4572 -0.1930
  640MPD2    C2 9526   0.294   2.556  10.098 -0.2821 -0.4209  0.0232
  640MPD2    C3 9527   0.280   2.623  10.221  0.3748 -0.2095 -0.1036
  640MPD2    C4 9528   0.341   2.573  10.332 -0.0215 -0.2935 -0.1536
  640MPD2    C5 9529   0.429   2.468  10.321  0.3748  0.0389  0.2961
  640MPD2     H 9530   0.235   2.588  10.013 -0.2315 -0.3763  0.0050
  640MPD2    H1 9531   0.338   2.621  10.429 -0.8811  3.2271 -1.9011
  640MPD2    H2 9532   0.514   2.320  10.212  0.3725  0.1030  1.5050
  640MPD2    H3 9533   0.484   2.432  10.407  2.1610  0.9034 -0.4756
  640MPD2     N 9534   0.192   2.736  10.244  0.1065  0.6278 -0.3436
  640MPD2    H5 9535   0.165   2.775  10.334  3.5129  1.4439  0.3218
  640MPD2    N1 9536   0.425   2.377   9.970 -0.1080  0.3162  0.7630
  640MPD2    H7 9537   0.482   2.293   9.972 -0.0045  0.3578 -0.2070
  641TMC3    C1 9538   0.444   2.333   9.737  0.0974 -0.2915 -0.3561
  641TMC3    C2 9539   0.531   2.232   9.772  0.2530  0.7483 -0.0845
  641TMC3    C3 9540   0.530   2.118   9.691 -0.1182  0.5586  0.7662
  641TMC3    C4 9541   0.371   2.336   9.621 -0.2179 -0.0895 -0.4552
  641TMC3    C5 9542   0.384   2.224   9.540 -0.6469 -0.6894  0.4228
  641TMC3    C6 9543   0.457   2.115   9.576 -0.1411 -0.1191 -0.3179
  641TMC3     C 9544   0.389   2.419   9.840  0.6972  0.1839 -0.2952
  641TMC3     O 9545   0.329   2.521   9.805 -0.0171 -0.0669 -0.5705
  641TMC3     H 9546   0.589   2.239   9.863 -1.9056 -1.9658  1.4823
  641TMC3    H1 9547   0.302   2.416   9.596 -0.6037 -0.2418  0.1207
  641TMC3    H2 9548   0.439   2.027   9.516  0.3203  0.3009 -1.0746
  641TMC3    C7 9549   0.304   2.230   9.421 -0.2587  0.4607  0.7902
  641TMC3    C8 9550   0.613   1.998   9.715  1.1547  0.4559  0.2289
  641TMC3    O1 9551   0.223   2.320   9.399 -0.2973  0.4889  0.0757
  641TMC3    O2 9552   0.592   1.904   9.640  0.4069  0.5849 -0.0683
  642TMC3    C1 9553   1.239   3.456  12.876 -0.0761  0.0411 -0.7121
  642TMC3    C2 9554   1.370   3.465  12.826  0.1809  0.1734  0.4463
  642TMC3    C3 9555   1.386   3.403  12.702  0.1965 -0.7094 -0.4756
  642TMC3    C4 9556   1.136   3.382  12.821  0.6108  0.0935  0.5296
  642TMC3    C5 9557   1.161   3.325  12.695  0.0481 -0.0921  0.2580
  642TMC3    C6 9558   1.280   3.333  12.635  0.0791  0.0269 -0.0241
  642TMC3     C 9559   1.207   3.534  12.993  0.4870 -0.3418 -0.5650
  642TMC3     O 9560   1.295   3.612  13.021  0.6723 -0.1346  0.0068
  642TMC3     H 9561   1.453   3.508  12.881 -0.7462  1.1517  1.0839
  642TMC3    H1 9562   1.038   3.386  12.867  0.7200 -2.6252  1.0383
  642TMC3    H2 9563   1.307   3.260  12.559  2.4231 -1.8801  2.6567
  642TMC3    C7 9564   1.082   3.212  12.660 -0.2267  0.5769 -0.4144
  642TMC3    C8 9565   1.519   3.386  12.656  0.2000  0.1934 -0.5819
  642TMC3    O1 9566   1.093   3.175  12.540  0.4382 -0.2714  0.2175
  642TMC3    O2 9567   1.540   3.275  12.611  0.1246  0.5027 -0.3437
  643TMC3    C1 9568   1.056   1.957   0.157  0.1190  0.6282  0.3735
  643TMC3    C2 9569   0.935   1.992   0.102  0.4750 -0.0492  0.4805
  643TMC3    C3 9570   0.877   1.911   0.005  0.0870 -0.2370  0.1522
  643TMC3    C4 9571   1.126   1.857   0.111 -0.1839 -0.1768 -0.3868
  643TMC3    C5 9572   1.072   1.779   0.010 -0.6152 -0.0010  0.8752
  643TMC3    C6 9573   0.943   1.795  17.726 -0.5626  0.4410  0.4205
  643TMC3     C 9574   1.111   2.057   0.248  0.4985 -0.5162 -0.5921
  643TMC3     O 9575   1.055   2.164   0.267 -0.2086 -0.0066  0.5301
  643TMC3     H 9576   0.882   2.080   0.136 -1.6757 -0.4052 -2.0379
  643TMC3    H1 9577   1.229   1.842   0.142 -0.1599 -0.2744 -0.5123
  643TMC3    H2 9578   0.892   1.736  17.651 -0.0082  2.9890 -1.9624
  643TMC3    C7 9579   1.158   1.773  17.654 -0.3749  0.0631  0.0152
  643TMC3    C8 9580   0.834   1.976  17.642  0.0583  0.5903 -0.1266
  643TMC3    O1 9581   1.242   1.864  17.637  0.0866 -0.6619  0.2836
  643TMC3    O2 9582   0.764   1.907  17.568 -0.7902  0.5230 -0.6392
  644MPD2     C 9583   0.129   3.170   9.415 -0.4340 -0.1390 -0.1745
  644MPD2    C1 9584   0.234   3.175   9.504  0.6839 -0.3544  0.3305
  644MPD2    C2 9585   0.253   3.292   9.579 -0.1137 -0.0928 -0.7352
  644MPD2    C3 9586   0.181   3.405   9.549 -0.4531 -0.3333 -0.4839
  644MPD2    C4 9587   0.074   3.398   9.458  0.5228  0.7459  0.0743
  644MPD2    C5 9588   0.055   3.282   9.391 -0.2112 -0.5555  0.4847
  644MPD2     H 9589   0.337   3.295   9.647  2.0527 -0.9601 -3.3827
  644MPD2    H1 9590   0.004   3.476   9.430  2.1431  1.7971 -1.0202
  644MPD2    H2 9591   0.112   3.084   9.352  0.1510 -0.4038  0.0333
  644MPD2    H3 9592   4.717   3.274   9.316  1.1440  0.1994 -0.9988
  644MPD2     N 9593   0.213   3.529   9.611  0.8537 -0.3573 -0.5109
  644MPD2    H5 9594   0.293   3.534   9.673  1.4064 -0.9498 -1.1730
  644MPD2    N1 9595   0.310   3.059   9.519  0.4608  0.1105  0.3261
  644MPD2    H7 9596   0.270   2.975   9.479  1.5564 -0.3798  0.2783
  645TMC3    C1 9597   0.220   3.752   9.641 -0.5351 -0.0510 -0.2607
  645TMC3    C2 9598   0.357   3.744   9.670  0.1910 -0.0408 -0.4618
  645TMC3    C3 9599   0.417   3.848   9.732  0.3803 -0.2919 -0.0269
  645TMC3    C4 9600   0.154   3.874   9.650 -0.1486  1.0160  0.1131
  645TMC3    C5 9601   0.213   3.983   9.701  0.0876  0.3367 -0.3982
  645TMC3    C6 9602   0.348   3.970   9.752  0.1584  0.3989  0.9776
  645TMC3     C 9603   0.149   3.647   9.587 -0.3440  0.1393 -0.2081
  645TMC3     O 9604   0.046   3.676   9.541 -0.0201 -0.4171  0.3318
  645TMC3     H 9605   0.419   3.663   9.631 -0.7417 -0.9364 -0.0875
  645TMC3    H1 9606   0.057   3.889   9.603 -1.0379 -1.1250  1.1947
  645TMC3    H2 9607   0.392   4.055   9.802  0.1407  0.3481  1.0790
  645TMC3    C7 9608   0.160   4.117   9.676  0.1258 -0.3125  0.6309
  645TMC3    C8 9609   0.548   3.839   9.781  0.1102 -0.1997  1.1091
  645TMC3    O1 9610   0.050   4.124   9.625  0.9926  0.1307  0.4971
  645TMC3    O2 9611   0.607   3.946   9.786 -0.2564 -0.3738  0.3179
  646MPD2     C 9612   4.717   2.313  14.451  0.5356 -0.0796 -0.4842
  646MPD2    C1 9613   4.634   2.284  14.555  0.0951  0.0705 -0.5226
  646MPD2    C2 9614   4.505   2.339  14.545  0.1720  0.3242  0.9310
  646MPD2    C3 9615   4.470   2.434  14.454  0.1835  0.5730 -0.2407
  646MPD2    C4 9616   4.566   2.474  14.360 -0.1566 -0.0393  0.8738
  646MPD2    C5 9617   4.683   2.409  14.359 -0.0501  0.1150  0.0430
  646MPD2     H 9618   4.420   2.302  14.601 -0.1155  0.2133  0.4275
  646MPD2    H1 9619   4.543   2.550  14.287  1.4929  0.7833  1.2150
  646MPD2    H2 9620   0.077   2.270  14.452 -0.0019 -1.3416 -0.9664
  646MPD2    H3 9621   0.016   2.432  14.282  0.2684  0.0805  0.3359
  646MPD2     N 9622   4.343   2.484  14.459  0.2556  0.0382  0.0476
  646MPD2    H5 9623   4.284   2.437  14.527 -0.1037 -0.9614 -0.9670
  646MPD2    N1 9624   4.675   2.195  14.650 -0.3716 -0.4001  0.1219
  646MPD2    H7 9625   0.025   2.151  14.635 -0.6439 -1.4218  1.4651
  647TMC3    C1 9626   4.664   2.066  14.850 -0.2690 -1.0285  0.6897
  647TMC3    C2 9627   4.588   2.022  14.948  0.5511 -0.0965 -0.3579
  647TMC3    C3 9628   4.644   1.973  15.060  0.0862  1.0094  0.2356
  647TMC3    C4 9629   0.064   2.081  14.868 -0.0318 -0.5547 -0.2062
  647TMC3    C5 9630   0.113   2.023  14.982  0.0945  0.8658 -0.0110
  647TMC3    C6 9631   0.040   1.965  15.078  0.1546 -0.2991 -0.9316
  647TMC3     C 9632   4.599   2.165  14.762 -0.2433 -0.3769 -0.4752
  647TMC3     O 9633   4.489   2.207  14.796 -0.1553  0.2767  0.1246
  647TMC3     H 9634   4.482   2.006  14.929 -0.1924  0.9083  2.9451
  647TMC3    H1 9635   0.123   2.111  14.783 -0.3525 -2.0396 -0.9591
  647TMC3    H2 9636   0.089   1.951  15.174 -1.5914 -0.7585 -0.1156
  647TMC3    C7 9637   0.251   2.064  15.018 -0.1265  0.1486  0.5444
  647TMC3    C8 9638   4.549   1.944  15.158  0.3367  0.7803 -0.0439
  647TMC3    O1 9639   0.300   2.014  15.118  0.1045 -0.5137 -0.5433
  647TMC3    O2 9640   4.434   1.971  15.135 -0.3260  0.5632 -0.1235
  648TMC3    C1 9641   4.355   4.064  16.352  0.0366 -0.1449  0.6723
  648TMC3    C2 9642   4.387   3.945  16.288 -0.1242 -0.0271 -0.5603
  648TMC3    C3 9643   4.386   3.944  16.146  0.0199 -0.4627  1.0350
  648TMC3    C4 9644   4.300   4.169  16.284 -0.1516 -0.4047 -0.6428
  648TMC3    C5 9645   4.277   4.155  16.151  0.3726 -0.0416  0.4331
  648TMC3    C6 9646   4.322   4.040  16.075  1.0240 -0.0810  0.2550
  648TMC3     C 9647   4.343   4.068  16.496 -0.0912 -0.5697  0.5155
  648TMC3     O 9648   4.328   4.178  16.543  0.0582 -0.1251  0.7364
  648TMC3     H 9649   4.413   3.853  16.338  1.2125  0.9480  0.5170
  648TMC3    H1 9650   4.291   4.260  16.342  1.3922 -0.6600  0.0127
  648TMC3    H2 9651   4.312   4.034  15.967  1.8271  2.2245  0.0468
  648TMC3    C7 9652   4.250   4.276  16.072 -0.0517  0.0565 -1.0015
  648TMC3    C8 9653   4.406   3.806  16.093  0.9693 -0.1192  0.3421
  648TMC3    O1 9654   4.292   4.274  15.957 -0.6699 -0.1719 -1.3415
  648TMC3    O2 9655   4.393   3.708  16.168  0.0644  0.4211  0.1645
  649TMC3    C1 9656   2.813   0.796  12.947 -0.2722 -0.1531 -0.0193
  649TMC3    C2 9657   2.951   0.770  12.934 -0.2784  0.7645  0.2191
  649TMC3    C3 9658   3.009   0.689  13.030  0.5699 -0.3388 -0.0648
  649TMC3    C4 9659   2.737   0.758  13.057  0.2687 -0.7715  0.0559
  649TMC3    C5 9660   2.798   0.679  13.152  0.1517  0.3925  0.0897
  649TMC3    C6 9661   2.935   0.650  13.138  0.9556 -0.4473 -0.4133
  649TMC3     C 9662   2.758   0.882  12.842  0.0637 -0.4824  0.4491
  649TMC3     O 9663   2.647   0.927  12.872  0.2824  0.5103 -0.2021
  649TMC3     H 9664   3.016   0.814  12.859 -0.0719 -0.9015 -0.5878
  649TMC3    H1 9665   2.630   0.772  13.066  0.2654 -0.3609 -0.5845
  649TMC3    H2 9666   2.984   0.588  13.211 -0.6148 -1.4763 -0.2216
  649TMC3    C7 9667   2.714   0.604  13.246  0.1195  0.8342  0.6274
  649TMC3    C8 9668   3.150   0.675  13.036  0.0581 -0.5568  0.2429
  649TMC3    O1 9669   2.600   0.640  13.261  0.9552 -0.3167  0.0046
  649TMC3    O2 9670   3.210   0.659  12.930 -0.1494  0.0428  0.2480
  650TMC3    C1 9671   0.665   2.536  13.035 -0.2364  0.2958 -0.0929
  650TMC3    C2 9672   0.590   2.562  13.148  0.5169 -0.6161 -0.5397
  650TMC3    C3 9673   0.458   2.604  13.124 -0.5199  0.8504 -0.8715
  650TMC3    C4 9674   0.612   2.543  12.912  0.2346 -0.7457  0.4435
  650TMC3    C5 9675   0.478   2.587  12.889  0.0293  0.2556  0.2315
  650TMC3    C6 9676   0.400   2.621  12.995 -0.5742 -0.3067  0.4804
  650TMC3     C 9677   0.741   2.407  13.051  0.1413  0.1319 -0.0058
  650TMC3     O 9678   0.696   2.318  12.980 -0.4387  0.3314  0.4202
  650TMC3     H 9679   0.641   2.561  13.243 -0.4102  0.0373 -0.0329
  650TMC3    H1 9680   0.669   2.518  12.824 -1.7047  2.5103 -1.7414
  650TMC3    H2 9681   0.294   2.641  12.983 -0.2239  1.3732  0.1166
  650TMC3    C7 9682   0.461   2.670  12.765 -0.3951  0.2344  0.4756
  650TMC3    C8 9683   0.412   2.712  13.211  0.0656  0.2673 -0.3692
  650TMC3    O1 9684   0.476   2.617  12.656 -0.0682  0.1295 -0.1817
  650TMC3    O2 9685   0.495   2.787  13.260 -0.4337  0.5633  0.1360
  651MPD2     C 9686   4.511   4.355  10.851 -0.1600  0.0267 -0.5240
  651MPD2    C1 9687   4.515   4.494  10.862  1.0117 -0.2269  0.1259
  651MPD2    C2 9688   4.623   4.564  10.823  0.8325  0.3551 -0.3012
  651MPD2    C3 9689   4.736   4.505  10.775  0.2428  0.1526 -0.3257
  651MPD2    C4 9690   4.731   4.373  10.764  0.2871 -0.4565  0.8139
  651MPD2    C5 9691   4.628   4.298  10.802  0.4321 -0.0717  0.2771
  651MPD2     H 9692   4.625   4.672  10.835 -0.5624  0.5064 -1.4635
  651MPD2    H1 9693   0.068   4.322  10.708  0.6812  2.7869 -1.6318
  651MPD2    H2 9694   4.433   4.284  10.877  0.8187 -0.9411 -0.1850
  651MPD2    H3 9695   4.624   4.191  10.785 -2.6766 -0.0803  1.1201
  651MPD2     N 9696   0.103   4.585  10.745  0.1834 -0.3230 -0.3089
  651MPD2    H5 9697   0.089   4.682  10.771 -0.2774  0.0117 -1.8101
  651MPD2    N1 9698   4.403   4.567  10.901 -0.5616 -0.2421  0.2115
  651MPD2    H7 9699   4.420   4.667  10.904 -1.1966 -0.2084  2.8285
  652TMC3    C1 9700   0.529   4.712  10.615 -0.4646  0.3759 -0.2823
  652TMC3    C2 9701   0.444   4.613  10.650 -0.1364 -0.1634 -0.4943
  652TMC3    C3 9702   0.319   4.643  10.658 -0.1473 -0.1091 -0.1630
  652TMC3    C4 9703   0.489   0.106  10.602 -0.1998 -0.1269 -0.9198
  652TMC3    C5 9704   0.355   0.130  10.613 -0.6842 -0.1998  0.1153
  652TMC3    C6 9705   0.266   0.027  10.623 -0.1170 -0.5947 -0.2824
  652TMC3     C 9706   0.662   4.661  10.600  0.2680 -0.3622 -0.2223
  652TMC3     O 9707   0.682   4.545  10.622 -0.3373 -0.6763 -0.1284
  652TMC3     H 9708   0.471   4.513  10.684 -0.1784  0.4366  1.2831
  652TMC3    H1 9709   0.563   0.184  10.584 -0.5957  0.3164 -0.6374
  652TMC3    H2 9710   0.160   0.048  10.613 -0.4254 -1.8726  0.2908
  652TMC3    C7 9711   0.311   0.259  10.563 -0.8446  0.3344  0.4350
  652TMC3    C8 9712   0.227   4.541  10.698 -0.3864 -0.2624 -0.0405
  652TMC3    O1 9713   0.203   0.256  10.508 -0.2788 -0.1852 -0.1424
  652TMC3    O2 9714   0.264   4.424  10.701 -0.3188 -0.5014  0.0923
  653MPD2     C 9715   3.289   3.954   0.065  0.2229  0.0240 -0.1872
  653MPD2    C1 9716   3.281   4.034  17.717 -0.2533 -0.0607  0.5939
  653MPD2    C2 9717   3.251   3.976  17.595  0.0957 -0.3405 -0.1194
  653MPD2    C3 9718   3.200   3.847  17.592 -0.1936 -0.0064 -0.2461
  653MPD2    C4 9719   3.209   3.766  17.707 -0.0566 -0.1137 -0.7880
  653MPD2    C5 9720   3.254   3.822   0.061 -0.4820  0.3027 -0.0772
  653MPD2     H 9721   3.240   4.046  17.513 -2.1558  1.2690  1.5583
  653MPD2    H1 9722   3.175   3.663  17.717  0.4019 -0.4965 -3.1817
  653MPD2    H2 9723   3.330   3.980   0.162 -0.7710  0.0558  0.2227
  653MPD2    H3 9724   3.286   3.758   0.142  0.3061  1.6990  0.7080
  653MPD2     N 9725   3.134   3.791  17.478 -0.8063 -0.5960 -0.1049
  653MPD2    H5 9726   3.152   3.840  17.391  1.1557  0.7275  1.0392
  653MPD2    N1 9727   3.315   4.170  17.736 -0.2659 -0.6060  0.1091
  653MPD2    H7 9728   3.335   4.219  17.649 -0.3864 -0.7986 -0.0267
  654TMC3    C1 9729   3.069   3.614  17.335  0.1515 -0.7210  0.0073
  654TMC3    C2 9730   3.023   3.689  17.233 -0.2410 -0.1447 -0.2028
  654TMC3    C3 9731   2.977   3.620  17.119  0.1595  0.0585 -0.7895
  654TMC3    C4 9732   3.058   3.473  17.334 -0.2041 -0.1096  0.4602
  654TMC3    C5 9733   3.023   3.413  17.215 -0.2565 -0.5362 -0.0992
  654TMC3    C6 9734   2.979   3.481  17.103 -0.2369 -0.1758  0.4874
  654TMC3     C 9735   3.082   3.667  17.470 -0.1737 -0.2731 -0.3757
  654TMC3     O 9736   3.031   3.594  17.558  0.2813  0.5684 -0.3983
  654TMC3     H 9737   3.017   3.797  17.233  2.0473 -0.0130  0.4002
  654TMC3    H1 9738   3.105   3.420  17.416 -3.1888 -1.2130  1.4535
  654TMC3    H2 9739   2.973   3.425  17.010 -0.3233  0.6751 -0.0177
  654TMC3    C7 9740   3.015   3.274  17.209 -0.0584  0.0355 -0.5080
  654TMC3    C8 9741   2.863   3.685  17.060  0.1139 -0.3537  0.1496
  654TMC3    O1 9742   2.965   3.219  17.112 -0.1482 -0.5420  0.3425
  654TMC3    O2 9743   2.798   3.779  17.108 -0.0945  0.2057  0.3305
  655MPD2     C 9744   0.072   4.316  15.730 -0.2529 -0.5614  0.1367
  655MPD2    C1 9745   4.730   4.429  15.717  1.0179  0.6641 -0.6768
  655MPD2    C2 9746   4.663   4.447  15.597  0.6267 -0.1746  0.2786
  655MPD2    C3 9747   4.676   4.367  15.490 -0.6156 -0.4785 -0.5300
  655MPD2    C4 9748   0.017   4.256  15.507  0.2667  0.0686  1.7481
  655MPD2    C5 9749   0.085   4.232  15.622  0.0711 -0.4816 -0.5247
  655MPD2     H 9750   4.591   4.529  15.599  1.1940  0.3610 -1.2123
  655MPD2    H1 9751   0.026   4.190  15.421 -1.2740  1.1032  0.7740
  655MPD2    H2 9752   0.134   4.302  15.817  0.6375 -1.4570 -0.6300
  655MPD2    H3 9753   0.159   4.153  15.631 -0.3860 -1.0317 -1.5214
  655MPD2     N 9754   4.606   4.385  15.366 -0.1984 -0.1607 -0.3564
  655MPD2    H5 9755   4.624   4.307  15.303 -0.8453 -0.5891 -0.0119
  655MPD2    N1 9756   4.708   4.518  15.826  0.3409  0.3249  0.0209
  655MPD2    H7 9757   4.653   4.599  15.800  1.6586  2.3490  3.5649
  656TMC3    C1 9758   4.651   4.601  16.024 -0.2717 -0.2102  0.3253
  656TMC3    C2 9759   4.579   4.566  16.139  0.0909  0.0702 -0.4777
  656TMC3    C3 9760   4.468   4.643  16.171 -0.2674 -0.9445 -0.5823
  656TMC3    C4 9761   4.618   4.717  15.960 -0.1588 -0.4283 -0.4518
  656TMC3    C5 9762   4.508   0.055  15.995  0.0513 -0.0016  0.7804
  656TMC3    C6 9763   4.428   0.018  16.101 -0.9021  0.3072 -0.1178
  656TMC3     C 9764   4.725   4.493  15.959 -0.1468 -0.2998 -0.0052
  656TMC3     O 9765   0.001   4.387  16.019  0.0079  0.0169 -0.1157
  656TMC3     H 9766   4.590   4.466  16.180  0.1133  0.4572  0.4592
  656TMC3    H1 9767   4.669   0.004  15.868  2.0972  0.6505  1.1392
  656TMC3    H2 9768   4.323   0.044  16.103 -0.7295  1.2251 -3.0272
  656TMC3    C7 9769   4.441   0.103  15.874 -0.0146  0.4181 -1.0701
  656TMC3    C8 9770   4.368   4.601  16.265  0.3919 -0.3619 -0.0364
  656TMC3    O1 9771   4.462   0.047  15.770  0.2729  0.4870  0.6718
  656TMC3    O2 9772   4.390   4.488  16.305 -0.2993  0.7936 -0.3406
  657TMC3    C1 9773   3.201   4.074  15.391  0.5838  0.1407  0.5986
  657TMC3    C2 9774   3.219   4.092  15.519  0.3956  0.3612 -0.2045
  657TMC3    C3 9775   3.168   4.199  15.584  0.7880  0.2959 -0.6634
  657TMC3    C4 9776   3.106   4.143  15.329 -0.2588 -0.0708 -0.2573
  657TMC3    C5 9777   3.067   4.262  15.388 -0.4794 -0.6638 -0.6736
  657TMC3    C6 9778   3.092   4.288  15.515 -0.4001 -0.8977 -0.0841
  657TMC3     C 9779   3.243   3.952  15.326  0.6149 -0.2351 -0.3664
  657TMC3     O 9780   3.178   3.915  15.224 -0.3524 -0.3342 -0.9059
  657TMC3     H 9781   3.253   4.009  15.580 -0.5052  1.2191  1.4800
  657TMC3    H1 9782   3.082   4.106  15.230  2.0640  0.1805 -0.9202
  657TMC3    H2 9783   3.057   4.383  15.554 -1.1026 -1.1413 -0.1195
  657TMC3    C7 9784   3.048   4.385  15.308 -0.1198 -0.0798  0.3643
  657TMC3    C8 9785   3.189   4.210  15.725  0.5467  0.3660  0.4143
  657TMC3    O1 9786   3.035   4.498  15.356 -0.0985  0.0067 -0.2605
  657TMC3    O2 9787   3.273   4.138  15.776 -0.6490  0.1019  0.1269
  658MPD2     C 9788   4.727   4.247  14.660 -0.5365 -0.2888  0.7411
  658MPD2    C1 9789   4.630   4.338  14.688 -0.1024  0.3200 -0.2605
  658MPD2    C2 9790   4.589   4.416  14.585  1.1026  0.3547 -0.2278
  658MPD2    C3 9791   4.642   4.413  14.460 -0.0003 -0.0178  0.4240
  658MPD2    C4 9792   4.732   4.320  14.430  0.0088  0.7131  0.2085
  658MPD2    C5 9793   0.043   4.249  14.531 -0.1583 -0.5380 -0.5922
  658MPD2     H 9794   4.525   4.499  14.612  1.9357  0.9635 -0.1351
  658MPD2    H1 9795   0.037   4.309  14.332 -0.9078  0.9768 -0.2410
  658MPD2    H2 9796   0.020   4.167  14.725  1.2915  0.9143  1.3161
  658MPD2    H3 9797   0.121   4.180  14.503  1.4313  0.0065  2.5246
  658MPD2     N 9798   4.595   4.518  14.377  0.5972  0.0003 -0.2580
  658MPD2    H5 9799   4.516   4.575  14.405 -0.4964 -0.6282 -2.0677
  658MPD2    N1 9800   4.588   4.344  14.824  0.6994  0.4968 -0.1281
  658MPD2    H7 9801   4.621   4.277  14.893 -1.2414 -1.7467 -1.4036
  659TMC3    C1 9802   4.424   4.396  14.992 -0.0381  0.6082  0.3575
  659TMC3    C2 9803   4.512   4.418  15.096 -0.2297 -0.0427 -0.6845
  659TMC3    C3 9804   4.453   4.481  15.208  0.4709  0.3606 -0.7252
  659TMC3    C4 9805   4.294   4.425  14.989 -0.0865 -0.2582 -0.4091
  659TMC3    C5 9806   4.239   4.489  15.101  0.8767  0.2745  1.2647
  659TMC3    C6 9807   4.319   4.525  15.206 -0.3527  0.0077 -0.0164
  659TMC3     C 9808   4.483   4.428  14.867 -0.6323 -0.1466  0.6703
  659TMC3     O 9809   4.413   4.505  14.795 -0.6982 -0.2877 -0.6183
  659TMC3     H 9810   4.619   4.406  15.087 -0.1885  0.2715 -0.5783
  659TMC3    H1 9811   4.236   4.420  14.897 -0.8678  0.0087  0.0752
  659TMC3    H2 9812   4.268   4.540  15.301 -0.2256  0.1877  0.0223
  659TMC3    C7 9813   4.090   4.502  15.122 -0.5048  0.2243 -0.1527
  659TMC3    C8 9814   4.526   4.487  15.341  0.0228 -0.7737 -0.0255
  659TMC3    O1 9815   4.060   4.530  15.238 -0.0384  0.8447 -0.4238
  659TMC3    O2 9816   4.498   4.584  15.408  0.0681 -0.2769 -0.3128
  660MPD2     C 9817   2.548   3.878  12.851 -0.5779  0.0280  0.2883
  660MPD2    C1 9818   2.419   3.892  12.822  0.0570 -0.1309  0.5913
  660MPD2    C2 9819   2.317   3.806  12.865  0.2092 -0.0525  0.0636
  660MPD2    C3 9820   2.354   3.707  12.952  0.3347  0.0019  0.1693
  660MPD2    C4 9821   2.486   3.693  12.993 -0.1007  0.1584 -0.8138
  660MPD2    C5 9822   2.579   3.771  12.935  1.1064 -0.3527 -0.0214
  660MPD2     H 9823   2.214   3.804  12.832  1.0799 -1.1516 -2.5455
  660MPD2    H1 9824   2.528   3.617  13.057 -0.6814 -0.5448 -1.2647
  660MPD2    H2 9825   2.625   3.946  12.817 -1.7122  1.6243  0.8937
  660MPD2    H3 9826   2.683   3.754  12.959  0.8689 -1.1966  0.3733
  660MPD2     N 9827   2.262   3.606  12.996 -0.6284 -0.0558 -0.0472
  660MPD2    H5 9828   2.302   3.530  13.050 -0.7849 -0.2585 -0.2163
  660MPD2    N1 9829   2.395   4.001  12.737  0.5701  0.1319 -0.3000
  660MPD2    H7 9830   2.473   4.057  12.705  0.5097 -0.5944 -1.6966
  661TMC3    C1 9831   2.275   4.135  12.586  0.1538  0.1489  0.1193
  661TMC3    C2 9832   2.384   4.136  12.498  0.3268 -0.4440  0.2920
  661TMC3    C3 9833   2.370   4.215  12.388 -0.4546 -0.6150  0.3482
  661TMC3    C4 9834   2.162   4.199  12.561 -0.9905 -0.3601 -0.2215
  661TMC3    C5 9835   2.152   4.276  12.448  0.2420  0.3754  0.0595
  661TMC3    C6 9836   2.261   4.285  12.362 -0.5274  0.0015  0.1365
  661TMC3     C 9837   2.268   4.037  12.690 -0.2965  0.0491  0.1286
  661TMC3     O 9838   2.161   4.008  12.733  0.8661  0.3227  0.5348
  661TMC3     H 9839   2.477   4.085  12.519  0.6033 -1.1208 -2.5973
  661TMC3    H1 9840   2.090   4.210  12.642  0.1356  2.1896  0.4612
  661TMC3    H2 9841   2.253   4.324  12.261  2.0902  0.1766  0.0176
  661TMC3    C7 9842   2.023   4.290  12.378  0.1632  0.1437 -0.9922
  661TMC3    C8 9843   2.440   4.181  12.267 -0.3974  0.1431 -0.3300
  661TMC3    O1 9844   1.999   4.372  12.290  0.6595 -1.0989 -0.3921
  661TMC3    O2 9845   2.503   4.273  12.213 -0.3793 -0.2994  0.4662
  662MPD2     C 9846   2.961   2.470  17.296 -0.4464 -0.9373  0.4802
  662MPD2    C1 9847   3.085   2.407  17.312  0.8042  0.0552  0.7265
  662MPD2    C2 9848   3.148   2.420  17.434 -0.1297 -0.4717 -0.5187
  662MPD2    C3 9849   3.095   2.495  17.537  0.2224 -0.4710 -0.8938
  662MPD2    C4 9850   2.967   2.549  17.519 -1.0252  0.0706 -0.0450
  662MPD2    C5 9851   2.902   2.542  17.396  0.6032 -0.4070 -0.0906
  662MPD2     H 9852   3.240   2.363  17.445 -0.3722 -0.2383  2.6743
  662MPD2    H1 9853   2.912   2.599  17.599  1.2597  0.0654  1.5217
  662MPD2    H2 9854   2.920   2.468  17.196  0.9402  2.4357 -0.1625
  662MPD2    H3 9855   2.808   2.594  17.380  0.6488 -0.3854 -0.2874
  662MPD2     N 9856   3.143   2.508  17.670  0.2998 -0.0120  0.3808
  662MPD2    H5 9857   3.079   2.545  17.739  1.2077  0.0309  1.2112
  662MPD2    N1 9858   3.135   2.316  17.219 -0.6047 -0.6806  0.1331
  662MPD2    H7 9859   3.221   2.272  17.251  0.2563 -0.4077 -1.8266
  663TMC3    C1 9860   3.138   2.150  17.045 -0.0460  0.0597 -1.1374
  663TMC3    C2 9861   3.213   2.069  17.128 -0.2876  0.0521 -0.3180
  663TMC3    C3 9862   3.255   1.946  17.082  0.6319  0.2737 -0.6945
  663TMC3    C4 9863   3.086   2.104  16.923 -0.3884 -0.0619  0.0691
  663TMC3    C5 9864   3.132   1.984  16.878 -0.0851  0.0565  0.0375
  663TMC3    C6 9865   3.211   1.912  16.950 -0.4175 -0.1884  0.0242
  663TMC3     C 9866   3.088   2.279  17.099  0.3953  0.6676 -0.2386
  663TMC3     O 9867   2.996   2.330  17.034 -0.2924 -0.4991 -0.0844
  663TMC3     H 9868   3.291   2.113  17.189  0.6888 -2.6888  0.3974
  663TMC3    H1 9869   3.019   2.157  16.857 -1.7797 -0.4882  1.1424
  663TMC3    H2 9870   3.274   1.841  16.897 -0.3147  0.7266 -1.0823
  663TMC3    C7 9871   3.031   1.907  16.800  0.0580  0.1591  0.2445
  663TMC3    C8 9872   3.202   1.830  17.153  0.7871  0.0798  0.1945
  663TMC3    O1 9873   2.961   1.976  16.728  0.0793 -0.3271  0.0578
  663TMC3    O2 9874   3.189   1.726  17.090  0.2720  0.2284 -0.7703
  664MPD2     C 9875   0.935   1.177  17.451  0.9409  0.3945 -0.5233
  664MPD2    C1 9876   1.051   1.151  17.514  0.1717  0.3895  0.2721
  664MPD2    C2 9877   1.042   1.110  17.649 -0.0249  0.4838  0.8571
  664MPD2    C3 9878   0.921   1.089  17.711  0.2563 -0.1235 -0.5027
  664MPD2    C4 9879   0.802   1.115  17.643  0.3107  0.0565  0.2231
  664MPD2    C5 9880   0.821   1.161  17.513 -0.1301 -0.0112  0.0432
  664MPD2     H 9881   1.134   1.071  17.691  0.5997  0.7771 -0.2531
  664MPD2    H1 9882   0.705   1.103  17.690  1.2474 -1.7093  1.6613
  664MPD2    H2 9883   0.934   1.208  17.347  4.3901 -1.5265 -1.1258
  664MPD2    H3 9884   0.734   1.183  17.453 -1.3023 -1.7233  1.0897
  664MPD2     N 9885   0.924   1.049   0.083 -0.1422 -0.7032 -0.5537
  664MPD2    H5 9886   1.014   1.021   0.121 -0.1693  1.5560  1.1583
  664MPD2    N1 9887   1.175   1.160  17.447 -0.6111 -0.3223  0.3987
  664MPD2    H7 9888   1.249   1.118  17.503 -0.3471  0.2417  0.4674
  665TMC3    C1 9889   0.850   0.955   0.287  0.3961 -0.6882 -0.1810
  665TMC3    C2 9890   0.762   0.948   0.395  0.2298 -0.2324 -0.1534
  665TMC3    C3 9891   0.816   0.908   0.510 -0.2583  0.7389 -0.2181
  665TMC3    C4 9892   0.977   0.907   0.290 -0.7682 -0.7049 -0.7642
  665TMC3    C5 9893   1.021   0.855   0.412  0.0737  0.5646  0.2294
  665TMC3    C6 9894   0.942   0.861   0.522 -0.1006  0.1153 -0.1210
  665TMC3     C 9895   0.811   1.022   0.161 -0.6634  0.3437  0.1247
  665TMC3     O 9896   0.693   1.059   0.149 -0.1874  0.2052  0.0678
  665TMC3     H 9897   0.662   0.991   0.389  0.6518  0.6866 -0.6584
  665TMC3    H1 9898   1.039   0.888   0.203  1.2263  0.5453  0.3756
  665TMC3    H2 9899   0.976   0.793   0.600  1.4681  0.8404 -0.1757
  665TMC3    C7 9900   1.168   0.836   0.426  0.1306 -0.1709 -0.2422
  665TMC3    C8 9901   0.727   0.861   0.620 -0.8453 -0.3495  0.2207
  665TMC3    O1 9902   1.225   0.792   0.322 -0.1866  0.0209 -0.3765
  665TMC3    O2 9903   0.775   0.860   0.732  0.0704 -0.1598 -0.0952
  666TMC3    C1 9904   0.302   1.530   9.815 -0.1077 -0.8774 -0.3063
  666TMC3    C2 9905   0.401   1.481   9.898  1.1394  0.6479 -0.3917
  666TMC3    C3 9906   0.475   1.572   9.965 -0.5955  0.1846 -0.5468
  666TMC3    C4 9907   0.277   1.663   9.811 -0.2281  0.2589  0.1065
  666TMC3    C5 9908   0.355   1.752   9.880 -0.8637 -0.4533 -0.1505
  666TMC3    C6 9909   0.452   1.703   9.963 -0.1666 -0.7767 -0.5874
  666TMC3     C 9910   0.200   1.448   9.759  0.3194 -0.2511 -0.1552
  666TMC3     O 9911   0.125   1.506   9.679  0.3107  0.3110  0.0116
  666TMC3     H 9912   0.410   1.374   9.913  1.4344  0.7392  0.0826
  666TMC3    H1 9913   0.180   1.702   9.783 -0.0039  1.6285  1.2050
  666TMC3    H2 9914   0.493   1.773  10.034 -0.6548  0.6576 -1.7263
  666TMC3    C7 9915   0.313   1.892   9.906 -0.0555 -0.3192  0.3237
  666TMC3    C8 9916   0.536   1.510  10.085  0.2726 -0.1273 -0.2352
  666TMC3    O1 9917   0.366   1.944  10.006 -0.2554  0.5188  0.6426
  666TMC3    O2 9918   0.502   1.397  10.113  0.2012 -0.4841 -0.2519
  667MPD2     C 9919   1.846   1.277  14.493  0.5017 -0.0424  0.2758
  667MPD2    C1 9920   1.802   1.285  14.622 -0.6456 -0.2447 -0.1968
  667MPD2    C2 9921   1.694   1.219  14.664  0.3393 -0.8212  0.7331
  667MPD2    C3 9922   1.618   1.140  14.576  0.0231  0.5585 -0.7470
  667MPD2    C4 9923   1.651   1.138  14.439 -1.0340  0.1158  0.2244
  667MPD2    C5 9924   1.771   1.199  14.410  0.1659  0.6752  0.2985
  667MPD2     H 9925   1.655   1.248  14.760 -0.6533 -0.5736  0.2594
  667MPD2    H1 9926   1.600   1.077  14.366 -1.8520 -1.9599  2.5439
  667MPD2    H2 9927   1.936   1.328  14.459 -1.2939  1.2373 -2.5333
  667MPD2    H3 9928   1.805   1.188  14.308  0.8888  1.9322  0.4102
  667MPD2     N 9929   1.498   1.070  14.607 -0.0738  0.5648  0.1500
  667MPD2    H5 9930   1.453   1.027  14.526 -0.3639  0.8447  0.1639
  667MPD2    N1 9931   1.861   1.369  14.712 -0.6188  0.4833  0.3696
  667MPD2    H7 9932   1.819   1.377  14.804  1.1501 -1.4019  1.3321
  668TMC3    C1 9933   1.976   1.569  14.776  0.5906  0.5413  0.3622
  668TMC3    C2 9934   2.028   1.691  14.735 -0.0540 -0.4514 -0.7141
  668TMC3    C3 9935   2.085   1.770  14.835 -0.4985 -0.2465 -0.1235
  668TMC3    C4 9936   1.973   1.529  14.906  0.0580  0.6446 -0.1829
  668TMC3    C5 9937   2.014   1.622  14.999 -0.1772  0.3686 -0.3676
  668TMC3    C6 9938   2.071   1.740  14.971  0.3201  0.8176  0.3470
  668TMC3     C 9939   1.950   1.468  14.680  0.0749  0.2539  0.3116
  668TMC3     O 9940   1.999   1.502  14.572 -0.0504  0.5847  0.5501
  668TMC3     H 9941   2.025   1.718  14.630 -0.7808 -0.5391 -0.7126
  668TMC3    H1 9942   1.962   1.423  14.927 -0.3238  1.2321  2.5664
  668TMC3    H2 9943   2.104   1.804  15.052  0.8430  2.4519 -1.1360
  668TMC3    C7 9944   2.017   1.574  15.135  0.1598 -0.4085 -1.5348
  668TMC3    C8 9945   2.112   1.914  14.796  0.2441  0.0332  0.4998
  668TMC3    O1 9946   2.104   1.624  15.207 -0.6670 -1.0721 -0.1798
  668TMC3    O2 9947   2.076   1.999  14.879 -0.0358 -0.2838  0.3156
  669TMC3    C1 9948   4.451   1.422  14.537 -0.1993  0.0517  0.3471
  669TMC3    C2 9949   4.347   1.459  14.458 -0.3344 -0.4478  0.5651
  669TMC3    C3 9950   4.365   1.544  14.351 -0.0944 -0.4368 -0.0250
  669TMC3    C4 9951   4.578   1.455  14.521 -0.6534 -0.7286 -0.5172
  669TMC3    C5 9952   4.603   1.527  14.409 -0.2094 -0.9023  1.1034
  669TMC3    C6 9953   4.498   1.584  14.330 -0.7519  0.3068 -0.5778
  669TMC3     C 9954   4.416   1.339  14.656 -0.1711 -0.2866 -0.1191
  669TMC3     O 9955   4.306   1.358  14.709  0.0343  1.0290 -0.2666
  669TMC3     H 9956   4.247   1.425  14.483 -1.1381  0.8367 -0.9298
  669TMC3    H1 9957   4.653   1.432  14.595 -0.9759  1.9233  0.6479
  669TMC3    H2 9958   4.525   1.642  14.243  1.8990 -1.1923 -0.7607
  669TMC3    C7 9959   4.740   1.535  14.353 -0.0327  0.5441 -0.8665
  669TMC3    C8 9960   4.277   1.546  14.237 -1.2382 -1.2074  0.2908
  669TMC3    O1 9961   0.024   1.618  14.270 -0.2546 -0.4639 -0.0471
  669TMC3    O2 9962   4.206   1.445  14.232 -0.2890  0.1231  0.3983
  670MPD2     C 9963   2.424   3.489  13.430  0.6790 -0.0370  0.9088
  670MPD2    C1 9964   2.540   3.475  13.507 -0.1776 -0.2190  0.3477
  670MPD2    C2 9965   2.537   3.498  13.640 -0.0429 -0.7969 -0.1688
  670MPD2    C3 9966   2.420   3.523  13.700  0.5855 -0.3270  0.0396
  670MPD2    C4 9967   2.303   3.519  13.631  0.2481  0.3639  0.4050
  670MPD2    C5 9968   2.308   3.512  13.493  0.3948 -0.3391 -0.1038
  670MPD2     H 9969   2.627   3.490  13.700 -0.1922  2.3969  0.4719
  670MPD2    H1 9970   2.202   3.520  13.671 -0.0168  0.4628 -0.2667
  670MPD2    H2 9971   2.434   3.458  13.327  2.3778  2.3543  0.3538
  670MPD2    H3 9972   2.220   3.525  13.430  0.7977  3.1988  0.0613
  670MPD2     N 9973   2.437   3.534  13.842 -0.3077 -0.5501  0.1746
  670MPD2    H5 9974   2.533   3.519  13.872 -0.8307 -1.8341  1.2571
  670MPD2    N1 9975   2.666   3.468  13.446  0.6471 -0.2096 -0.7573
  670MPD2    H7 9976   2.745   3.469  13.510  1.5587  2.8052 -1.9044
  671TMC3    C1 9977   2.376   3.526  14.069 -0.7982  0.2084 -0.1510
  671TMC3    C2 9978   2.510   3.522  14.085  0.5359  0.1778 -0.1660
  671TMC3    C3 9979   2.568   3.438  14.172  0.7138  0.2322 -0.7134
  671TMC3    C4 9980   2.304   3.432  14.132  0.4020 -0.0946 -0.4210
  671TMC3    C5 9981   2.359   3.323  14.199 -0.1123 -0.0700  0.0884
  671TMC3    C6 9982   2.490   3.336  14.220  0.1253 -0.3157 -0.2942
  671TMC3     C 9983   2.336   3.549  13.928 -0.6017  0.3484  0.2542
  671TMC3     O 9984   2.218   3.563  13.901  0.1791  0.5768  0.2924
  671TMC3     H 9985   2.574   3.602  14.051  0.7620  0.7167  1.5157
  671TMC3    H1 9986   2.200   3.424  14.102  0.0351  1.7843  0.3382
  671TMC3    H2 9987   2.540   3.260  14.280  0.7957  0.4898  0.1721
  671TMC3    C7 9988   2.311   3.201  14.149  0.2842 -0.3006  0.5682
  671TMC3    C8 9989   2.712   3.405  14.145  0.1816 -0.0691  0.7452
  671TMC3    O1 9990   2.397   3.123  14.106  0.6868 -0.3415  0.0390
  671TMC3    O2 9991   2.742   3.427  14.030 -0.7222 -0.3819 -0.1956
  672MPD2     C 9992   3.693   3.581   1.067 -0.6596  0.6386  0.0096
  672MPD2    C1 9993   3.807   3.567   0.994  0.9856  0.3553  0.2155
  672MPD2    C2 9994   3.929   3.616   1.041 -0.3944  0.2017 -0.3688
  672MPD2    C3 9995   3.931   3.689   1.156 -0.0808  0.1308  0.1325
  672MPD2    C4 9996   3.815   3.710   1.224  0.4287 -1.2212 -0.5360
  672MPD2    C5 9997   3.701   3.650   1.184 -0.2803  0.2176  0.2658
  672MPD2     H 9998   4.013   3.601   0.974  1.2760  2.0914  1.2963
  672MPD2    H1 9999   3.817   3.779   1.308 -0.2192 -0.8229 -0.8437
  672MPD2    H210000   3.594   3.539   1.050 -2.3822  4.0334  1.7002
  672MPD2    H310001   3.611   3.661   1.242  0.2103  1.5133  0.7811
  672MPD2     N10002   4.048   3.755   1.195  0.3087 -0.3573 -0.7562
  672MPD2    H510003   4.058   3.804   1.284  0.8185 -2.5952  0.4112
  672MPD2    N110004   3.800   3.506   0.869 -0.0151 -0.2697  0.4932
  672MPD2    H710005   3.883   3.469   0.825 -0.2564  0.4201 -0.5430
  673TMC3    C110006   3.697   3.426   0.665 -0.6917 -0.6951  0.4767
  673TMC3    C210007   3.792   3.326   0.648 -0.0201  0.2086  0.4618
  673TMC3    C310008   3.781   3.249   0.541  0.2458 -0.3588 -0.1852
  673TMC3    C410009   3.591   3.444   0.578 -0.0663 -0.1537  0.5066
  673TMC3    C510010   3.579   3.356   0.471  0.3053  0.1374  0.4745
  673TMC3    C610011   3.674   3.257   0.457 -0.8619  0.4782 -0.7218
  673TMC3     C10012   3.681   3.487   0.805 -0.0093  0.2011  0.3960
  673TMC3     O10013   3.569   3.530   0.828 -0.5710  0.0490  0.1627
  673TMC3     H10014   3.844   3.299   0.739  0.8511  0.7645  0.1279
  673TMC3    H110015   3.523   3.528   0.588 -0.5366 -0.5308  0.4729
  673TMC3    H210016   3.679   3.201   0.365  2.4370 -1.4839  0.6358
  673TMC3    C710017   3.470   3.349   0.376 -0.7450 -0.8568  0.5362
  673TMC3    C810018   3.857   3.124   0.552  0.0466 -0.5668  0.5498
  673TMC3    O110019   3.492   3.274   0.281 -0.1365  0.7648  0.3018
  673TMC3    O210020   3.811   3.030   0.494 -0.3235  0.4450 -0.4405
  674MPD2     C10021   2.906   3.162  17.569  0.2853  0.3026 -0.5269
  674MPD2    C110022   2.927   3.073  17.676 -0.2079  0.4130 -0.8044
  674MPD2    C210023   2.897   3.115   0.038 -0.3857 -0.5626  0.6915
  674MPD2    C310024   2.834   3.240   0.066  0.1248 -0.2012 -0.1921
  674MPD2    C410025   2.816   3.328  17.721  0.8225 -0.2821 -0.3305
  674MPD2    C510026   2.852   3.287  17.596 -0.3305 -0.5308 -0.1161
  674MPD2     H10027   2.922   3.057   0.126  0.7024 -0.5064  0.4140
  674MPD2    H110028   2.776   3.429  17.730  1.1434  0.0008 -2.0270
  674MPD2    H210029   2.917   3.122  17.469 -0.4802  0.6232 -0.7409
  674MPD2    H310030   2.840   3.363  17.520 -3.8523 -2.4930 -1.5299
  674MPD2     N10031   2.800   3.246   0.197 -0.4324  0.2459 -0.2322
  674MPD2    H510032   2.837   3.168   0.251 -1.1718 -0.5501 -0.8754
  674MPD2    N110033   2.954   2.941  17.651  0.9759 -0.1281 -0.1843
  674MPD2    H710034   2.935   2.893  17.564 -1.5050  1.3584 -0.4633
  675TMC3    C110035   3.106   2.901   0.067  0.0385 -0.9271 -0.4307
  675TMC3    C210036   3.117   2.888   0.199  0.0187 -0.0355 -0.4005
  675TMC3    C310037   3.219   2.953   0.265  0.9577 -0.0976 -0.6119
  675TMC3    C410038   3.216   2.954  17.756 -0.8362 -0.3928 -0.0680
  675TMC3    C510039   3.316   3.012   0.063  0.5345 -0.5131  0.4794
  675TMC3    C610040   3.320   3.020   0.198  0.3930 -0.4097  0.6886
  675TMC3     C10041   2.988   2.862  17.752 -0.3058  0.0713 -0.3911
  675TMC3     O10042   2.966   2.740   0.007  0.3632  0.1205  0.2826
  675TMC3     H10043   3.031   2.862   0.259  0.9904  0.5378  1.2372
  675TMC3    H110044   3.217   2.960  17.648 -1.4170  1.6636  0.0263
  675TMC3    H210045   3.384   3.077   0.264  1.6295 -0.3837 -0.5621
  675TMC3    C710046   3.447   3.027   0.000 -0.2401 -0.7988  0.4020
  675TMC3    C810047   3.167   3.031   0.371 -0.1859  0.8192  0.0297
  675TMC3    O110048   3.461   3.044  17.640  0.2432  0.1605  0.2304
  675TMC3    O210049   3.049   3.054   0.366  0.3709 -0.2849 -0.2133
  676MPD2     C10050   1.008   2.378  11.419 -0.5456  0.1275  0.3013
  676MPD2    C110051   0.898   2.301  11.465  0.1444 -0.0641  0.0241
  676MPD2    C210052   0.865   2.190  11.391  0.0383 -0.5814  0.0894
  676MPD2    C310053   0.927   2.160  11.270  0.8032 -0.0904  0.6496
  676MPD2    C410054   1.034   2.237  11.227 -0.4400 -0.0644 -0.7712
  676MPD2    C510055   1.086   2.336  11.310  0.1038  0.1930  0.3819
  676MPD2     H10056   0.771   2.146  11.420 -0.5923 -0.5117 -1.8451
  676MPD2    H110057   1.066   2.216  11.126 -1.0071  3.5667 -1.7037
  676MPD2    H210058   1.052   2.466  11.466  0.7578  0.0870 -0.8238
  676MPD2    H310059   1.171   2.393  11.275  0.4239 -1.3970 -1.4057
  676MPD2     N10060   0.873   2.074  11.178 -1.0424 -0.2069 -0.3442
  676MPD2    H510061   0.907   2.083  11.083 -0.5467 -0.1240 -0.1635
  676MPD2    N110062   0.818   2.340  11.576 -0.0247  0.0154 -0.5872
  676MPD2    H710063   0.740   2.281  11.605  0.2302  1.1225  2.3430
  677TMC3    C110064   0.706   2.462  11.740 -0.4497  0.9546  0.5020
  677TMC3    C210065   0.594   2.383  11.717  0.5465 -0.5868 -0.7327
  677TMC3    C310066   0.496   2.400  11.814 -0.4298 -0.1085 -0.4448
  677TMC3    C410067   0.712   2.546  11.841  0.6234 -0.8643 -0.5377
  677TMC3    C510068   0.612   2.562  11.932 -0.4901  0.5869  0.0618
  677TMC3    C610069   0.495   2.493  11.915  0.1516 -0.7197 -0.5985
  677TMC3     C10070   0.820   2.458  11.645  0.1713 -0.3566 -0.1462
  677TMC3     O10071   0.909   2.543  11.642  0.2604 -0.0009 -0.3114
  677TMC3     H10072   0.589   2.305  11.642 -0.6799 -0.7595 -0.4708
  677TMC3    H110073   0.803   2.605  11.850  1.5466 -2.6931  2.0244
  677TMC3    H210074   0.409   2.505  11.980 -0.5401  2.1003 -2.0240
  677TMC3    C710075   0.636   2.611  12.070  0.0210 -0.2505  0.4567
  677TMC3    C810076   0.420   2.282  11.829 -0.2964 -0.1592 -0.5223
  677TMC3    O110077   0.562   2.562  12.152  0.2082 -0.1097  0.0688
  677TMC3    O210078   0.384   2.236  11.720  0.1083 -0.1622 -0.4503
  678MPD2     C10079   2.754   1.454   1.242  0.0118 -0.3278 -0.5498
  678MPD2    C110080   2.728   1.565   1.166 -0.3241  0.0395 -0.6736
  678MPD2    C210081   2.623   1.556   1.077  0.0749  0.3726 -0.1621
  678MPD2    C310082   2.536   1.443   1.077 -0.0932 -0.6459  0.4815
  678MPD2    C410083   2.577   1.330   1.147 -0.3434 -0.2666  0.0015
  678MPD2    C510084   2.691   1.335   1.221  0.2020  0.3827  0.2259
  678MPD2     H10085   2.585   1.644   1.026  2.0564  0.7150 -1.0590
  678MPD2    H110086   2.520   1.238   1.151 -0.4647 -0.1746  0.3827
  678MPD2    H210087   2.832   1.448   1.317 -0.7332 -0.7072  0.2030
  678MPD2    H310088   2.723   1.248   1.277 -0.9187 -0.2679 -0.1620
  678MPD2     N10089   2.417   1.437   1.002  0.0207  0.1650  0.1002
  678MPD2    H510090   2.390   1.525   0.958 -0.1035  0.2556  0.3568
  678MPD2    N110091   2.803   1.694   1.163 -0.2826  0.7555  1.1324
  678MPD2    H710092   2.783   1.762   1.090  0.1035 -1.0498 -0.6589
  679TMC3    C110093   3.143   1.969   1.316 -0.8941  0.3650  0.1276
  679TMC3    C210094   3.039   1.898   1.359 -0.1811 -0.7884 -0.3358
  679TMC3    C310095   2.940   1.872   1.261 -0.7289  0.0124 -0.1617
  679TMC3    C410096   3.137   2.047   1.198 -0.1990 -0.5331 -0.0006
  679TMC3    C510097   3.035   2.031   1.111 -0.6771 -0.0397 -0.3478
  679TMC3    C610098   2.944   1.937   1.135  0.0982  0.2927  0.4874
  679TMC3     C10099   3.267   1.896   1.299  0.2791 -0.1481 -0.2666
  679TMC3     O10100   3.331   1.920   1.197 -0.3280 -0.0964 -0.4813
  679TMC3     H10101   3.048   1.840   1.450 -1.8448 -0.8215 -0.2013
  679TMC3    H110102   3.223   2.107   1.171  0.9281 -2.5915 -0.9810
  679TMC3    H210103   2.883   1.904   1.051 -0.9065  0.2487  1.2430
  679TMC3    C710104   3.083   2.026   0.981  0.3997  0.5737 -0.0027
  679TMC3    C810105   2.888   1.733   1.262 -0.5047 -0.0717  0.0578
  679TMC3    O110106   2.990   2.043   0.900 -0.7652 -0.2841 -0.5591
  679TMC3    O210107   2.907   1.680   1.371 -0.4396 -0.6004  0.6414
  680MPD2     C10108   2.181   1.074  13.640 -0.3740 -0.1682 -0.5999
  680MPD2    C110109   2.249   1.029  13.751 -0.1883  0.8236 -0.2856
  680MPD2    C210110   2.350   1.107  13.807  0.3412  0.2155  0.0867
  680MPD2    C310111   2.380   1.235  13.749  0.1242 -0.1999 -0.1599
  680MPD2    C410112   2.299   1.282  13.648  0.4469 -0.3340 -0.4834
  680MPD2    C510113   2.200   1.200  13.593  0.1746 -0.3040  0.2045
  680MPD2     H10114   2.411   1.082  13.893  0.7789 -1.5756 -0.7501
  680MPD2    H110115   2.314   1.384  13.614 -1.3614  1.0538  2.8058
  680MPD2    H210116   2.115   1.013  13.580  1.4754 -2.5878 -0.1817
  680MPD2    H310117   2.137   1.239  13.515 -0.4591  0.4095  1.0629
  680MPD2     N10118   2.494   1.306  13.794  0.2127 -0.5385 -0.0467
  680MPD2    H510119   2.503   1.397  13.750  0.0891 -1.2011 -1.4346
  680MPD2    N110120   2.227   0.896  13.800 -0.4905 -0.5962 -0.2625
  680MPD2    H710121   2.292   0.881  13.876 -0.8539  0.9612  0.3587
  681TMC3    C110122   2.171   0.679  13.828 -0.5809  0.7537 -0.1440
  681TMC3    C210123   2.151   0.690  13.960  0.2651  0.3844 -0.7422
  681TMC3    C310124   2.234   0.610  14.038  0.2045 -0.1275  0.3421
  681TMC3    C410125   2.255   0.589  13.773 -0.2651 -0.4312 -0.4645
  681TMC3    C510126   2.336   0.514  13.852 -0.3598  0.3603 -0.0967
  681TMC3    C610127   2.328   0.525  13.989  0.5742  0.6891  0.4078
  681TMC3     C10128   2.146   0.795  13.750  0.0890  0.2563  1.1189
  681TMC3     O10129   2.084   0.785  13.644  0.4514  0.2337 -0.3525
  681TMC3     H10130   2.107   0.781  13.997 -0.1854 -1.0555  2.2516
  681TMC3    H110131   2.266   0.601  13.665 -2.8156  0.1493 -0.6641
  681TMC3    H210132   2.395   0.478  14.060  0.1575  0.8473  0.9106
  681TMC3    C710133   2.434   0.428  13.792 -0.2005  0.1285  0.4305
  681TMC3    C810134   2.241   0.647  14.179  0.0753  0.0386  0.1479
  681TMC3    O110135   2.481   0.344  13.867 -0.4016 -0.5580  0.9888
  681TMC3    O210136   2.129   0.672  14.224 -0.2309  0.1349  0.0271
  682MPD2     C10137   4.516   2.876  10.661 -0.7307  0.7296 -0.2715
  682MPD2    C110138   4.463   2.751  10.684  0.3301 -0.0259 -0.4254
  682MPD2    C210139   4.390   2.736  10.800  0.0165 -0.2161  0.1249
  682MPD2    C310140   4.359   2.837  10.885  0.3867  0.8161  0.4385
  682MPD2    C410141   4.403   2.966  10.852 -0.4107  0.5308  0.1572
  682MPD2    C510142   4.474   2.979  10.738 -0.1462 -0.2446 -0.2866
  682MPD2     H10143   4.357   2.635  10.820 -1.6170 -0.1021 -1.9490
  682MPD2    H110144   4.369   3.056  10.901  0.2837  0.0568  1.4905
  682MPD2    H210145   4.576   2.885  10.571  1.3058 -1.1553  0.8914
  682MPD2    H310146   4.493   3.079  10.701  0.1881 -0.6217 -1.1107
  682MPD2     N10147   4.284   2.819  11.001  0.4925 -0.2854  0.3378
  682MPD2    H510148   4.281   2.895  11.069  2.6148  0.3523 -0.2878
  682MPD2    N110149   4.477   2.637  10.594 -0.3692 -0.6716  0.1337
  682MPD2    H710150   4.450   2.546  10.630 -0.8333 -0.1306  1.1580
  683TMC3    C110151   4.263   2.708  11.408 -0.2710 -0.1591  0.0057
  683TMC3    C210152   4.177   2.608  11.450  0.9210 -0.4189 -0.1977
  683TMC3    C310153   4.091   2.565  11.359  0.6000 -0.3623 -0.6489
  683TMC3    C410154   4.273   2.759  11.279 -0.1389  0.1278 -0.4487
  683TMC3    C510155   4.186   2.709  11.190  0.2925 -0.5971 -0.0365
  683TMC3    C610156   4.096   2.608  11.229  0.1451 -0.5541 -0.9154
  683TMC3     C10157   4.320   2.788  11.514 -0.3650  0.1182  0.0302
  683TMC3     O10158   4.333   2.906  11.499  0.2508 -0.6371 -0.0207
  683TMC3     H10159   4.153   2.586  11.554 -0.0033 -0.5400 -0.4369
  683TMC3    H110160   4.347   2.827  11.239 -0.7361 -0.2151 -2.1383
  683TMC3    H210161   4.020   2.575  11.160 -0.1073  0.9831 -1.3641
  683TMC3    C710162   4.225   2.705  11.053 -0.4794  0.1673 -0.5008
  683TMC3    C810163   4.029   2.434  11.380  0.0154 -0.6888  0.5825
  683TMC3    O110164   4.232   2.592  11.003 -0.1778  0.0332 -0.1692
  683TMC3    O210165   3.914   2.421  11.335  0.0047  0.8943 -0.6357
  684MPD2     C10166   2.989   1.576  16.303  0.2936  0.2186 -0.1853
  684MPD2    C110167   3.013   1.588  16.164 -0.5428  0.2663  0.2263
  684MPD2    C210168   3.018   1.717  16.110 -0.2333 -0.4450 -0.3125
  684MPD2    C310169   2.987   1.828  16.185 -0.7949  0.3768 -0.2487
  684MPD2    C410170   2.950   1.813  16.318  0.3470 -0.8099  0.8338
  684MPD2    C510171   2.959   1.687  16.372 -0.0684 -1.1859 -0.2902
  684MPD2     H10172   3.044   1.724  16.005 -0.4647  0.9526 -0.2853
  684MPD2    H110173   2.924   1.896  16.383  0.7938  1.4101 -1.8373
  684MPD2    H210174   2.990   1.479  16.353 -0.2687  1.4327  2.1793
  684MPD2    H310175   2.944   1.672  16.478 -1.6866 -0.8902 -0.4771
  684MPD2     N10176   3.014   1.956  16.130  0.7725  0.8103  0.5172
  684MPD2    H510177   2.998   2.034  16.192  3.3190 -0.0676  2.2653
  684MPD2    N110178   3.042   1.480  16.076 -0.9578  0.7628  0.2054
  684MPD2    H710179   3.064   1.503  15.980  1.9137 -0.9444  0.4562
  685TMC3    C110180   3.082   1.258  16.006  0.4082 -0.0523  0.4317
  685TMC3    C210181   3.063   1.283  15.876 -0.1557 -0.1498  0.6178
  685TMC3    C310182   3.131   1.212  15.783 -0.0749 -0.8028  0.6451
  685TMC3    C410183   3.172   1.159  16.047  0.2195  0.0508 -0.1109
  685TMC3    C510184   3.248   1.098  15.957  0.5264  0.8713  0.1360
  685TMC3    C610185   3.229   1.125  15.821 -0.0598  0.5005  0.0882
  685TMC3     C10186   3.056   1.349  16.115 -0.0058 -0.0026 -0.5131
  685TMC3     O10187   3.038   1.298  16.227 -0.0242 -0.4005 -0.6438
  685TMC3     H10188   3.002   1.366  15.842  2.5290  1.1931 -0.9882
  685TMC3    H110189   3.188   1.137  16.152  0.1874 -0.0990 -0.1374
  685TMC3    H210190   3.295   1.083  15.747 -0.0685  0.7736 -0.0741
  685TMC3    C710191   3.375   1.045  16.006  0.0359 -0.1089  0.3306
  685TMC3    C810192   3.043   1.161  15.679 -0.5599  0.3151  0.0216
  685TMC3    O110193   3.369   0.997  16.118 -0.3328 -0.1152  0.0199
  685TMC3    O210194   3.077   1.107  15.574 -0.4000 -0.3516 -0.3730
  686MPD2     C10195   0.113   1.122  15.707 -0.7923  1.4065 -0.2377
  686MPD2    C110196   4.733   1.186  15.728 -0.6593  0.2015  0.0850
  686MPD2    C210197   4.651   1.229  15.616  0.3593  0.0724  0.0723
  686MPD2    C310198   4.691   1.209  15.488 -0.1276 -0.2913  0.2133
  686MPD2    C410199   0.080   1.157  15.470  0.1691  0.6335  0.0187
  686MPD2    C510200   0.146   1.113  15.577 -0.6528  0.3147 -0.1290
  686MPD2     H10201   4.559   1.282  15.636  1.0146  0.8989  0.8545
  686MPD2    H110202   0.114   1.127  15.371 -1.1288  0.1424 -0.2744
  686MPD2    H210203   0.181   1.092  15.786 -0.0473  1.0733 -1.0021
  686MPD2    H310204   0.241   1.069  15.550 -0.4333  1.1034 -0.6166
  686MPD2     N10205   4.617   1.244  15.372 -0.6651  0.3302 -0.0231
  686MPD2    H510206   4.671   1.271  15.291  1.0015  1.9443  1.6393
  686MPD2    N110207   4.686   1.195  15.861 -0.0228 -0.0799 -0.4970
  686MPD2    H710208   4.740   1.145  15.931 -0.1463  0.0488 -0.3088
  687TMC3    C110209   4.401   1.170  15.438  0.1975 -0.5683  0.4008
  687TMC3    C210210   4.282   1.226  15.469  0.3727 -0.0593 -0.4556
  687TMC3    C310211   4.207   1.160  15.564  0.1177 -0.1529  0.0164
  687TMC3    C410212   4.437   1.048  15.480  0.8974  0.6349  0.0999
  687TMC3    C510213   4.369   0.991  15.582 -0.1763 -0.3516 -0.9488
  687TMC3    C610214   4.245   1.041  15.621  0.1380  0.2171 -0.5354
  687TMC3     C10215   4.479   1.260  15.354 -0.6810  0.6767  0.6551
  687TMC3     O10216   4.423   1.317  15.266 -0.0953  0.0312  0.3945
  687TMC3     H10217   4.261   1.324  15.427 -0.5331 -0.9463 -2.0793
  687TMC3    H110218   4.516   0.995  15.427  1.6028  3.7792 -1.9799
  687TMC3    H210219   4.182   1.000  15.699 -0.9129 -0.4327 -1.7250
  687TMC3    C710220   4.446   0.933  15.686 -0.2036  0.0793  0.7133
  687TMC3    C810221   4.074   1.209  15.588 -0.5396  1.2755  0.0155
  687TMC3    O110222   4.417   0.956  15.802 -0.1205  0.3033  0.1356
  687TMC3    O210223   3.982   1.126  15.600  0.0634  0.0458 -0.5121
  688MPD2     C10224   3.724   0.017  17.439  0.4766 -0.2171  0.9080
  688MPD2    C110225   3.753   4.636  17.493 -0.4108 -0.5000  0.2942
  688MPD2    C210226   3.875   4.574  17.457  0.4515  0.1955 -0.0705
  688MPD2    C310227   3.964   4.628  17.368  0.0773 -0.0199  0.1988
  688MPD2    C410228   3.931   0.003  17.310  0.8441  0.5933  0.0627
  688MPD2    C510229   3.821   0.069  17.354 -0.8334 -0.2901 -0.1793
  688MPD2     H10230   3.899   4.478  17.501 -1.6918 -0.9495 -1.4141
  688MPD2    H110231   4.000   0.038  17.233  1.9105 -1.0629  0.2654
  688MPD2    H210232   3.631   0.064  17.468  0.2330  1.2680 -2.2058
  688MPD2    H310233   3.791   0.161  17.304  0.3175 -0.0314 -0.3788
  688MPD2     N10234   4.085   4.563  17.329 -0.2196 -0.2461  0.2640
  688MPD2    H510235   4.150   4.606  17.264  0.3038  1.2402  1.7779
  688MPD2    N110236   3.672   4.566  17.592  0.1631  0.5781 -0.2822
  688MPD2    H710237   3.712   4.477  17.621 -2.2449 -0.4494 -0.1031
  689TMC3    C110238   3.529   4.546   0.012  0.1437 -0.5572 -0.1593
  689TMC3    C210239   3.511   4.612   0.123 -0.5044 -0.2984 -0.1183
  689TMC3    C310240   3.428   4.567   0.225  0.3769  0.2356 -0.2547
  689TMC3    C410241   3.471   4.425  17.753 -0.3616 -0.0970 -0.5019
  689TMC3    C510242   3.391   4.376   0.091  0.2830  0.1755  0.8186
  689TMC3    C610243   3.373   4.443   0.212 -0.3021 -0.4232  0.1388
  689TMC3     C10244   3.564   4.627  17.659  0.2400  0.1408 -0.2238
  689TMC3     O10245   3.516   4.739  17.647 -0.3216  0.5596 -0.0966
  689TMC3     H10246   3.540   4.717   0.130 -2.0183  0.1812 -0.9149
  689TMC3    H110247   3.471   4.374  17.657 -0.2590  0.6612 -0.9051
  689TMC3    H210248   3.307   4.402   0.287 -0.1827  0.7110  0.8749
  689TMC3    C710249   3.338   4.235   0.099  0.7387  0.5041 -0.8619
  689TMC3    C810250   3.471   4.600   0.364  0.0814  0.3103 -0.5599
  689TMC3    O110251   3.321   4.193   0.213  0.4397 -0.3933 -0.5712
  689TMC3    O210252   3.443   4.516   0.446  0.1970 -0.0963 -0.3309
  690MPD2     C10253   1.836   2.106  15.996 -0.7112  0.1466 -0.1776
  690MPD2    C110254   1.726   2.187  15.980 -0.9002 -0.0505  1.0485
  690MPD2    C210255   1.745   2.303  15.890  0.3019  0.0336  0.4174
  690MPD2    C310256   1.866   2.318  15.822 -0.3945  0.9213 -0.2322
  690MPD2    C410257   1.969   2.231  15.850  0.1546  0.2937 -0.1992
  690MPD2    C510258   1.954   2.128  15.940  0.5986  0.3191 -0.3917
  690MPD2     H10259   1.660   2.363  15.861 -1.2082 -0.7943  3.0337
  690MPD2    H110260   2.058   2.250  15.791 -0.6525  0.9984 -1.1938
  690MPD2    H210261   1.825   2.021  16.063  3.7010 -0.2458  0.0420
  690MPD2    H310262   2.030   2.052  15.956  1.3650  1.4431  1.3069
  690MPD2     N10263   1.868   2.416  15.716 -0.4917  0.1652 -0.5634
  690MPD2    H510264   1.787   2.478  15.713  0.1902  1.1350  1.5083
  690MPD2    N110265   1.592   2.160  16.026  0.0781  0.2301 -0.1311
  690MPD2    H710266   1.522   2.232  16.011 -0.2027  0.0629  0.3889
  691TMC3    C110267   1.395   2.034  15.998  0.4398  0.1483 -0.4807
  691TMC3    C210268   1.352   2.121  15.909  0.1860  0.1838  0.1115
  691TMC3    C310269   1.224   2.106  15.853 -0.3631 -0.0384  0.4475
  691TMC3    C410270   1.314   1.927  16.040 -0.1050  1.0732 -0.2819
  691TMC3    C510271   1.188   1.922  15.986  0.6165  0.1837  0.1601
  691TMC3    C610272   1.136   2.015  15.903 -0.4500 -0.3689  0.3264
  691TMC3     C10273   1.532   2.036  16.048 -0.0081  0.2032 -0.9108
  691TMC3     O10274   1.580   1.928  16.073 -1.1687  0.8775  0.8821
  691TMC3     H10275   1.410   2.203  15.870  0.4549 -0.6390 -1.2079
  691TMC3    H110276   1.358   1.856  16.109 -0.3818  1.9153  0.7597
  691TMC3    H210277   1.055   1.989  15.836  0.3772  0.3609 -0.9681
  691TMC3    C710278   1.094   1.824  16.050  0.3215 -0.0147 -0.7451
  691TMC3    C810279   1.196   2.194  15.739 -0.3176 -0.5949  0.1314
  691TMC3    O110280   1.147   1.725  16.102 -0.4196 -0.4581  0.0264
  691TMC3    O210281   1.293   2.238  15.679  0.3910  0.1030 -0.4576
  692TMC3    C110282   2.547   3.118  15.825  1.0232  0.2548 -0.5161
  692TMC3    C210283   2.642   3.177  15.903  0.2022 -0.1857 -0.0971
  692TMC3    C310284   2.779   3.146  15.882 -0.1036  0.0996 -0.0594
  692TMC3    C410285   2.583   3.006  15.753 -0.6763  0.2377  0.2209
  692TMC3    C510286   2.711   2.967  15.745 -0.3466 -0.6616 -0.5936
  692TMC3    C610287   2.811   3.042  15.803  0.4564  0.1380  0.2231
  692TMC3     C10288   2.419   3.118  15.893 -0.3480  0.8873 -0.3082
  692TMC3     O10289   2.422   3.116  16.017  0.4533 -0.0714 -0.3291
  692TMC3     H10290   2.619   3.271  15.950  0.3054 -1.0522  1.6958
  692TMC3    H110291   2.507   2.946  15.704 -0.0225 -0.8553  0.5420
  692TMC3    H210292   2.912   3.021  15.768  0.8368  0.4036  1.1611
  692TMC3    C710293   2.742   2.861  15.653  0.7185 -0.2800 -0.1157
  692TMC3    C810294   2.869   3.164  15.994  0.0373  0.0890  0.3083
  692TMC3    O110295   2.666   2.847  15.557  0.2462 -0.3901  0.0586
  692TMC3    O210296   2.981   3.112  15.989 -0.1429  0.0040  0.0537
  693MPD2     C10297   2.024   1.583  10.649 -0.4562 -0.1097 -0.1087
  693MPD2    C110298   1.925   1.542  10.735 -0.3408  0.1347 -0.7086
  693MPD2    C210299   1.961   1.468  10.846  0.6517  0.0449 -0.5673
  693MPD2    C310300   2.099   1.433  10.858  1.0346 -0.3913  0.9978
  693MPD2    C410301   2.191   1.480  10.767 -0.4663  0.3106  0.4454
  693MPD2    C510302   2.154   1.548  10.658  0.1424 -0.0812  0.0856
  693MPD2     H10303   1.889   1.414  10.906  0.4405  0.8352 -0.1059
  693MPD2    H110304   2.298   1.467  10.779 -0.9270 -2.4260  1.5512
  693MPD2    H210305   1.994   1.657  10.577 -0.8252  1.6167  1.8185
  693MPD2    H310306   2.224   1.592  10.587 -0.7750 -0.9167 -1.3376
  693MPD2     N10307   2.139   1.338  10.953 -0.1010 -0.2514  0.4055
  693MPD2    H510308   2.233   1.301  10.948  0.4338  1.3651 -1.3492
  693MPD2    N110309   1.789   1.581  10.719  0.0794 -0.6513 -0.0114
  693MPD2    H710310   1.740   1.548  10.802 -1.2545  2.9416  0.6147
  694TMC3    C110311   1.590   1.656  10.632  0.1328  0.5951 -0.2809
  694TMC3    C210312   1.498   1.592  10.544 -0.6242  0.3265  0.0491
  694TMC3    C310313   1.387   1.534  10.600  0.7014 -0.2015  0.0355
  694TMC3    C410314   1.564   1.671  10.761  0.0580  0.2033  0.0153
  694TMC3    C510315   1.450   1.605  10.808  0.7231  1.0536 -0.7862
  694TMC3    C610316   1.360   1.550  10.733 -0.1167 -0.2874  0.2626
  694TMC3     C10317   1.730   1.641  10.610  0.1558  0.0875 -0.3372
  694TMC3     O10318   1.768   1.633  10.495 -0.2760 -0.8560  0.1158
  694TMC3     H10319   1.518   1.586  10.438  1.8939  0.9029  0.4885
  694TMC3    H110320   1.621   1.735  10.828 -0.9120  0.0670  0.9739
  694TMC3    H210321   1.269   1.507  10.773 -0.1550 -2.4505 -2.1352
  694TMC3    C710322   1.424   1.628  10.951 -0.1386  0.1309  0.1038
  694TMC3    C810323   1.306   1.449  10.524  0.8097 -0.5906 -0.2179
  694TMC3    O110324   1.462   1.740  10.991  0.2956  0.0375 -0.2168
  694TMC3    O210325   1.226   1.382  10.590  0.3233 -0.0737 -0.3783
  695MPD2     C10326   3.017   3.083  13.270  0.1788  0.0458  0.4072
  695MPD2    C110327   2.982   3.109  13.403  0.8205  0.0368  0.4891
  695MPD2    C210328   2.852   3.116  13.449  0.6274 -0.2764  0.0645
  695MPD2    C310329   2.745   3.109  13.365 -0.0374 -0.0246  0.7641
  695MPD2    C410330   2.776   3.088  13.232  0.3284 -0.0864  0.9493
  695MPD2    C510331   2.906   3.072  13.194  0.8421 -0.7744 -0.5715
  695MPD2     H10332   2.836   3.131  13.555 -0.7062  1.5062 -0.3817
  695MPD2    H110333   2.699   3.087  13.156  0.8967  1.7410  0.3470
  695MPD2    H210334   3.112   3.058  13.225  0.2371  0.0844  0.5092
  695MPD2    H310335   2.917   3.050  13.088  0.8259  0.4152 -0.8223
  695MPD2     N10336   2.616   3.113  13.416  0.3738  0.6997 -0.6226
  695MPD2    H510337   2.597   3.117  13.516  1.2256  0.9246 -0.4753
  695MPD2    N110338   3.082   3.107  13.508  0.2734 -0.7035 -0.4158
  695MPD2    H710339   3.053   3.132  13.602 -2.5298  0.9460 -1.7183
  696TMC3    C110340   2.379   3.127  13.401  0.5581 -0.1925  0.4902
  696TMC3    C210341   2.368   3.030  13.497 -0.1663 -0.4019  0.2598
  696TMC3    C310342   2.240   2.992  13.541 -0.6289 -0.0569 -0.0725
  696TMC3    C410343   2.264   3.185  13.349 -0.1784  0.0645 -0.1080
  696TMC3    C510344   2.144   3.149  13.392  0.0735  0.1502  0.2674
  696TMC3    C610345   2.127   3.048  13.490 -0.5271 -0.5238 -0.7554
  696TMC3     C10346   2.507   3.140  13.336 -0.0597  0.3307 -0.7238
  696TMC3     O10347   2.501   3.191  13.224  0.1758 -0.0286  0.3052
  696TMC3     H10348   2.450   2.965  13.525  0.9601  0.6419 -0.6589
  696TMC3    H110349   2.278   3.242  13.258 -0.3363 -0.4935 -0.4773
  696TMC3    H210350   2.026   3.017  13.511 -0.8151  0.0920 -1.2038
  696TMC3    C710351   2.040   3.250  13.398 -0.0631 -0.0415 -0.6516
  696TMC3    C810352   2.237   2.990  13.680  0.6412 -0.4745  0.7161
  696TMC3    O110353   2.035   3.312  13.297 -0.2877  0.1874 -0.0563
  696TMC3    O210354   2.331   3.047  13.731 -0.0618 -0.2347  0.2125
  697MPD2     C10355   1.921   4.738  15.360  0.2158  0.4513 -0.1887
  697MPD2    C110356   1.944   4.723  15.223 -0.4081  0.3700 -0.8977
  697MPD2    C210357   2.036   0.071  15.162 -0.4594  0.6534 -0.1476
  697MPD2    C310358   2.100   0.171  15.232 -0.1814 -0.5806 -0.3623
  697MPD2    C410359   2.085   0.172  15.371 -0.2858 -0.2575 -0.2298
  697MPD2    C510360   1.995   0.082  15.429  0.3023 -0.8970 -0.1607
  697MPD2     H10361   2.052   0.066  15.055 -0.4715  1.8611 -0.2045
  697MPD2    H110362   2.128   0.242  15.442 -0.7474 -0.5626  0.3559
  697MPD2    H210363   1.839   4.688  15.411  1.1287  0.5466  1.3990
  697MPD2    H310364   1.965   0.099  15.532  1.9077 -1.9521  0.4753
  697MPD2     N10365   2.199   0.246  15.171 -0.9819  0.2613  0.3182
  697MPD2    H510366   2.223   0.223  15.075 -1.2275  1.8339 -0.1223
  697MPD2    N110367   1.894   4.622  15.136  0.2818  0.4926 -1.0794
  697MPD2    H710368   1.922   4.628  15.038 -0.8460  0.4769 -1.4010
  698TMC3    C110369   2.404   0.360  15.166  0.1889 -0.2968 -0.1483
  698TMC3    C210370   2.517   0.371  15.247 -0.4022 -0.1623  0.3282
  698TMC3    C310371   2.626   0.420  15.185  0.0770 -0.8782  0.5247
  698TMC3    C410372   2.398   0.399  15.034  0.9951  0.2671 -0.1313
  698TMC3    C510373   2.515   0.444  14.981  0.0512  0.4822  0.7491
  698TMC3    C610374   2.637   0.452  15.053 -0.4701  0.1899 -0.2593
  698TMC3     C10375   2.283   0.334  15.235  0.1884  0.2228 -0.5647
  698TMC3     O10376   2.291   0.366  15.354 -0.2646 -0.4385 -0.4242
  698TMC3     H10377   2.522   0.335  15.349  3.0704  2.0309  0.9134
  698TMC3    H110378   2.312   0.375  14.973 -2.5002  3.5834  3.4897
  698TMC3    H210379   2.730   0.480  15.004 -0.8525  0.7519 -0.6639
  698TMC3    C710380   2.546   0.441  14.840  0.2065 -0.1402  0.9188
  698TMC3    C810381   2.734   0.467  15.273  0.0118 -0.0461 -1.3215
  698TMC3    O110382   2.660   0.464  14.801  0.4231  0.0108  0.3430
  698TMC3    O210383   2.780   0.393  15.358 -0.1737  0.0817 -0.4140
  699TMC3    C110384   2.078   3.485  13.042 -0.8668 -0.6260  0.6750
  699TMC3    C210385   2.146   3.372  13.003 -0.1425  0.0824 -0.8544
  699TMC3    C310386   2.075   3.257  12.978 -0.4434  0.2826 -0.3664
  699TMC3    C410387   1.945   3.485  13.057 -0.3469 -0.0646 -0.1310
  699TMC3    C510388   1.881   3.367  13.042  1.2730 -0.5711  0.4602
  699TMC3    C610389   1.939   3.250  12.996 -0.1048 -0.1924 -0.7592
  699TMC3     C10390   2.129   3.609  12.991  0.9021 -0.1002 -0.1015
  699TMC3     O10391   2.050   3.698  12.979 -0.2032  0.3211  0.1882
  699TMC3     H10392   2.251   3.378  12.974  0.0772 -1.7778 -0.4791
  699TMC3    H110393   1.883   3.565  13.097 -0.0508  1.4296 -2.6890
  699TMC3    H210394   1.893   3.153  12.996 -3.0358  1.2046 -0.5308
  699TMC3    C710395   1.743   3.359  13.074  0.0075 -0.6133 -0.2953
  699TMC3    C810396   2.144   3.133  13.005  0.6847  0.5276  0.0635
  699TMC3    O110397   1.701   3.445  13.151 -0.6376 -0.5731 -0.3234
  699TMC3    O210398   2.069   3.047  13.049  0.3438  0.4478  0.0994
  700TMC3    C110399   1.363   0.127  17.104 -0.0671 -0.3714  0.0282
  700TMC3    C210400   1.424   0.002  17.115 -0.0263  0.0159  0.2900
  700TMC3    C310401   1.524   4.723  17.210  0.0929  0.5851 -0.4587
  700TMC3    C410402   1.403   0.229  17.185  0.0766  0.3655 -0.0562
  700TMC3    C510403   1.476   0.196  17.297 -0.5236  0.7022  0.3940
  700TMC3    C610404   1.547   0.080  17.307 -0.8935  0.6726 -0.2749
  700TMC3     C10405   1.331   0.160  16.968  1.6282  0.1190  0.2164
  700TMC3     O10406   1.265   0.075  16.904  0.0863  0.4817  0.2601
  700TMC3     H10407   1.414   4.673  17.033  1.2995 -0.8658  0.8604
  700TMC3    H110408   1.355   0.326  17.188 -2.7164 -1.0705  1.6773
  700TMC3    H210409   1.618   0.065  17.387 -1.6376  2.1224  0.6547
  700TMC3    C710410   1.512   0.311  17.379 -0.1387 -0.0194 -0.2691
  700TMC3    C810411   1.608   4.607  17.199 -0.1837  0.7420  0.2219
  700TMC3    O110412   1.627   0.298  17.427 -0.3852  0.2892  0.1483
  700TMC3    O210413   1.579   4.516  17.125  0.2790  0.0518  0.6206
  701TMC3    C110414   1.269   4.483  15.227  0.1696 -0.4275  0.5389
  701TMC3    C210415   1.261   4.497  15.096 -0.2295  0.9931  0.1757
  701TMC3    C310416   1.337   4.586  15.032  0.2758 -0.6629 -0.4607
  701TMC3    C410417   1.357   4.552  15.303 -0.2837 -0.3914  0.3680
  701TMC3    C510418   1.418   4.663  15.244 -0.0484  0.0728 -0.0447
  701TMC3    C610419   1.410   4.674  15.106 -1.2661  0.3237  0.1425
  701TMC3     C10420   1.209   4.363  15.276  0.0369 -0.9525  0.8192
  701TMC3     O10421   1.185   4.269  15.205 -0.1000  0.8192  0.2691
  701TMC3     H10422   1.179   4.451  15.042 -0.3582  1.3007  0.1058
  701TMC3    H110423   1.371   4.522  15.406 -0.4584 -0.0759  0.4840
  701TMC3    H210424   1.462   0.018  15.061 -1.4153  1.5959  2.3560
  701TMC3    C710425   1.505   0.017  15.315  0.3074  0.6176 -0.7888
  701TMC3    C810426   1.317   4.627  14.892  0.3480 -0.3240 -0.3381
  701TMC3    O110427   1.569   0.098  15.247 -0.0615  0.6659  0.2298
  701TMC3    O210428   1.377   4.726  14.848 -0.5412 -0.2762 -0.0432
  702MPD2     C10429   0.855   2.072  10.494  0.0436  1.0401  0.3832
  702MPD2    C110430   0.788   2.145  10.594  0.4157 -0.5088  0.3879
  702MPD2    C210431   0.781   2.284  10.594 -0.0180 -0.0296  1.0054
  702MPD2    C310432   0.840   2.358  10.490 -0.0918 -0.2774 -0.1330
  702MPD2    C410433   0.913   2.286  10.397 -0.3255 -0.1969  0.2453
  702MPD2    C510434   0.908   2.144  10.392  0.0809  0.4075 -0.3826
  702MPD2     H10435   0.734   2.329  10.681 -0.8428  0.1449  0.4668
  702MPD2    H110436   0.971   2.339  10.322  1.0036 -0.4864  1.0519
  702MPD2    H210437   0.855   1.964  10.493  0.7968  1.0591 -0.5015
  702MPD2    H310438   0.966   2.095  10.315  0.6761  0.3541  0.1038
  702MPD2     N10439   0.846   2.502  10.493  0.2665 -0.8648  0.0191
  702MPD2    H510440   0.920   2.549  10.442  0.5479 -0.6214  0.6569
  702MPD2    N110441   0.742   2.080  10.715 -0.5822  0.2692  0.5324
  702MPD2    H710442   0.719   2.140  10.793 -0.4565 -1.5933  1.9966
  703TMC3    C110443   0.812   2.700  10.615 -0.3062  0.2029  0.6684
  703TMC3    C210444   0.752   2.744  10.732 -0.5482 -0.1299 -0.1621
  703TMC3    C310445   0.835   2.791  10.835  0.0950  0.2670  0.2905
  703TMC3    C410446   0.945   2.722  10.595 -0.1137  0.1040  0.4439
  703TMC3    C510447   1.012   2.793  10.693  0.7335 -0.2270 -0.3708
  703TMC3    C610448   0.963   2.823  10.817 -0.1179 -0.4307 -0.2973
  703TMC3     C10449   0.750   2.576  10.563 -0.6765  0.3043  0.1012
  703TMC3     O10450   0.636   2.541  10.604 -0.4030 -0.0865  0.5083
  703TMC3     H10451   0.644   2.739  10.742 -0.5548 -2.4606 -1.3889
  703TMC3    H110452   1.004   2.693  10.509  0.4538  1.8381  0.2385
  703TMC3    H210453   1.021   2.885  10.884 -0.0056 -0.4903 -0.3405
  703TMC3    C710454   1.143   2.843  10.647 -0.2624  0.1768  0.1968
  703TMC3    C810455   0.788   2.796  10.967 -0.0520  0.5169  0.0004
  703TMC3    O110456   1.155   2.857  10.527 -0.1764  0.1244  0.8608
  703TMC3    O210457   0.854   2.855  11.052  0.9494 -0.7064 -0.4865
  704TMC3    C110458   3.552   4.604  12.771  0.3456  0.3218  0.0354
  704TMC3    C210459   3.630   4.510  12.705  0.5594  0.1595 -0.4302
  704TMC3    C310460   3.703   4.422  12.785 -0.4102  0.8298 -0.1372
  704TMC3    C410461   3.559   4.616  12.910  0.5612 -0.4979 -0.1946
  704TMC3    C510462   3.630   4.523  12.977  0.3059 -0.2929 -0.3225
  704TMC3    C610463   3.706   4.430  12.919 -0.2218  0.4406 -0.2668
  704TMC3     C10464   3.424   4.631  12.714  0.4916 -0.2171  0.3705
  704TMC3     O10465   3.327   4.601  12.784  0.2613 -0.1216  0.1595
  704TMC3     H10466   3.628   4.499  12.598  0.5690 -2.4842 -0.1712
  704TMC3    H110467   3.510   4.703  12.952 -0.0881 -0.5999 -0.7438
  704TMC3    H210468   3.749   4.351  12.979  1.4375  1.0669 -0.6178
  704TMC3    C710469   3.579   4.488  13.113  0.1362  0.3009 -0.4967
  704TMC3    C810470   3.691   4.286  12.735 -0.5034 -0.3618  0.6045
  704TMC3    O110471   3.590   4.367  13.133 -0.4471 -0.1546  0.1673
  704TMC3    O210472   3.588   4.261  12.677 -0.2915 -0.1151  0.2851
  705MPD2     C10473   3.167   2.300  16.541  0.4191  0.2261 -0.8845
  705MPD2    C110474   3.151   2.422  16.603 -0.4330 -0.2426 -0.1476
  705MPD2    C210475   3.028   2.447  16.665 -0.4081  0.7730  0.2334
  705MPD2    C310476   2.926   2.352  16.669  0.3177  0.8177 -0.4871
  705MPD2    C410477   2.944   2.239  16.598 -0.0164  0.3913  0.0246
  705MPD2    C510478   3.065   2.207  16.538  0.5021 -0.8184  0.2037
  705MPD2     H10479   3.015   2.542  16.717 -1.4802  0.8170 -0.1186
  705MPD2    H110480   2.868   2.163  16.594 -1.0825  1.2812  3.1553
  705MPD2    H210481   3.265   2.263  16.512  1.2890  2.1376 -0.3893
  705MPD2    H310482   3.074   2.107  16.499  0.4068 -1.0181  0.6890
  705MPD2     N10483   2.796   2.369  16.729 -0.0340  0.1447 -0.4778
  705MPD2    H510484   2.728   2.295  16.725  0.3270 -0.1707 -0.7636
  705MPD2    N110485   3.248   2.523  16.602 -0.7947 -0.3155  0.1733
  705MPD2    H710486   3.214   2.609  16.645 -0.6423  1.2387 -2.8279
  706TMC3    C110487   3.434   2.713  16.265 -0.7899 -0.4956  0.4143
  706TMC3    C210488   3.396   2.836  16.309 -0.0300 -0.9171  0.4597
  706TMC3    C310489   3.372   2.852  16.442  0.6863  0.0995  1.3387
  706TMC3    C410490   3.448   2.611  16.355 -0.4239  0.2470  0.0442
  706TMC3    C510491   3.412   2.633  16.481  0.7361 -0.4038  0.0764
  706TMC3    C610492   3.375   2.748  16.536 -0.7401  0.1808  0.0155
  706TMC3     C10493   3.474   2.685  16.131  0.4987  0.4076  0.1654
  706TMC3     O10494   3.543   2.588  16.115 -0.3523  0.2710 -0.2587
  706TMC3     H10495   3.384   2.923  16.245 -2.8328 -2.3305 -0.9075
  706TMC3    H110496   3.489   2.516  16.323  0.6837  0.7302  0.0502
  706TMC3    H210497   3.374   2.759  16.643 -1.2375  1.6173 -0.1376
  706TMC3    C710498   3.368   2.513  16.543 -1.0838  0.3357  0.2071
  706TMC3    C810499   3.356   2.988  16.488  0.7263 -0.0343 -0.1821
  706TMC3    O110500   3.433   2.413  16.515 -0.1227 -0.2046  0.0339
  706TMC3    O210501   3.381   3.080  16.414  0.5924  0.3215 -0.1523
  707TMC3    C110502   0.399   1.887   1.615 -1.0670 -1.6176  0.1362
  707TMC3    C210503   0.281   1.835   1.557  0.1911  0.3488  0.4616
  707TMC3    C310504   0.156   1.879   1.598 -0.4618 -0.0606  0.0043
  707TMC3    C410505   0.393   2.002   1.680 -0.0480  0.0643 -0.0904
  707TMC3    C510506   0.265   2.055   1.708 -0.3598 -0.4231  0.7210
  707TMC3    C610507   0.147   1.996   1.673 -0.6563  0.3264  0.5805
  707TMC3     C10508   0.527   1.835   1.573  0.8703 -0.0506  0.4599
  707TMC3     O10509   0.525   1.746   1.485 -0.0666  0.3679 -0.2340
  707TMC3     H10510   0.294   1.754   1.487  3.2838 -0.3796  1.8682
  707TMC3    H110511   0.477   2.071   1.679 -1.2182  1.5357  1.5093
  707TMC3    H210512   0.054   2.028   1.718 -0.7113 -0.1297  0.7918
  707TMC3    C710513   0.256   2.190   1.759  0.5125 -0.6393 -0.4540
  707TMC3    C810514   0.035   1.806   1.575 -1.2413 -0.3015 -0.0196
  707TMC3    O110515   0.146   2.243   1.761 -0.7460  0.0162  0.6606
  707TMC3    O210516   4.671   1.860   1.550 -0.2338 -0.4293 -0.2706
  708MPD2     C10517   1.327   1.203  13.982 -0.0412 -0.2451  0.0465
  708MPD2    C110518   1.285   1.246  14.110  0.3786 -0.0202 -0.0593
  708MPD2    C210519   1.377   1.321  14.187  0.8244  0.3624  0.3221
  708MPD2    C310520   1.487   1.379  14.134 -0.1707 -0.9490 -0.5427
  708MPD2    C410521   1.524   1.338  14.005 -0.1443 -0.2448  0.4947
  708MPD2    C510522   1.444   1.249  13.930  0.1213  0.3797  0.1119
  708MPD2     H10523   1.354   1.349  14.289 -0.6972  5.0741 -1.3348
  708MPD2    H110524   1.617   1.373  13.961 -0.1244  0.5282  1.1375
  708MPD2    H210525   1.267   1.134  13.923 -0.9615 -1.2956  2.2104
  708MPD2    H310526   1.474   1.207  13.834  4.7552 -0.0929  1.7763
  708MPD2     N10527   1.567   1.458  14.221  0.4008  0.1687 -0.6978
  708MPD2    H510528   1.525   1.472  14.312 -0.5890 -1.6425 -0.8874
  708MPD2    N110529   1.167   1.206  14.175  0.6959 -0.5010  0.9401
  708MPD2    H710530   1.152   1.256  14.262  0.5786 -0.4801  0.9082
  709TMC3    C110531   0.958   1.145  14.208 -0.7499 -0.1129  0.1017
  709TMC3    C210532   0.854   1.184  14.130  0.0192  0.4120  0.5259
  709TMC3    C310533   0.791   1.304  14.164 -0.0858 -0.4004 -0.0673
  709TMC3    C410534   0.991   1.210  14.324 -0.0632  0.2276 -0.8950
  709TMC3    C510535   0.924   1.324  14.360 -0.4054  0.2501 -0.1566
  709TMC3    C610536   0.823   1.374  14.278  0.5785  0.2430  0.1744
  709TMC3     C10537   1.066   1.136  14.126 -0.3856 -0.4572 -0.3297
  709TMC3     O10538   1.058   1.078  14.018  0.5041  0.5030 -0.1606
  709TMC3     H10539   0.825   1.123  14.045 -2.0123  0.3518  1.2810
  709TMC3    H110540   1.050   1.156  14.396  0.2569  2.8829  0.8395
  709TMC3    H210541   0.771   1.465  14.301 -2.8918 -1.7573  0.1858
  709TMC3    C710542   1.020   1.420  14.413  0.3907 -0.0709 -0.1924
  709TMC3    C810543   0.678   1.347  14.089 -0.6575 -0.2296  0.2777
  709TMC3    O110544   1.136   1.384  14.408  0.1652 -0.1981 -0.0838
  709TMC3    O210545   0.572   1.346  14.146 -0.1344  0.4937 -0.1452
  710TMC3    C110546   2.771   1.954   0.293  0.4070  0.1653 -1.5844
  710TMC3    C210547   2.815   1.895   0.177 -0.1034 -1.0649  0.0342
  710TMC3    C310548   2.951   1.894   0.150 -0.1357  0.4704 -0.2673
  710TMC3    C410549   2.856   2.011   0.379 -0.6997 -0.1755 -0.2179
  710TMC3    C510550   2.990   2.016   0.344 -0.2001  0.0807  0.0670
  710TMC3    C610551   3.040   1.956   0.232 -0.1212 -0.3903 -0.9562
  710TMC3     C10552   2.625   1.943   0.318 -0.2549 -0.2477  0.3194
  710TMC3     O10553   2.559   1.907   0.226 -0.5440 -0.1457 -0.2313
  710TMC3     H10554   2.746   1.859   0.102  0.6851  0.4290 -1.3877
  710TMC3    H110555   2.814   2.065   0.463 -0.2372  0.5200 -0.4246
  710TMC3    H210556   3.144   1.967   0.204  0.4421 -1.4755  0.7065
  710TMC3    C710557   3.083   2.053   0.452  0.3445 -0.6190  0.3251
  710TMC3    C810558   2.994   1.879   0.011  0.2714  0.4360 -0.0294
  710TMC3    O110559   3.028   2.129   0.534 -0.4392 -0.1862  0.1020
  710TMC3    O210560   3.089   1.946  17.740  0.4266 -0.5483 -0.2390
  711TMC3    C110561   2.190   3.639  15.684 -0.4003  0.0515 -0.2613
  711TMC3    C210562   2.275   3.543  15.660  0.4176  0.1924  0.5876
  711TMC3    C310563   2.329   3.490  15.771 -0.2184  0.7192  0.0534
  711TMC3    C410564   2.157   3.688  15.809 -0.0783 -0.6594 -0.0712
  711TMC3    C510565   2.198   3.620  15.923  0.0937  0.1762 -0.4494
  711TMC3    C610566   2.285   3.519  15.903 -0.0888  0.1270 -0.4223
  711TMC3     C10567   2.096   3.662  15.576  0.3185  0.1571 -0.1085
  711TMC3     O10568   2.077   3.566  15.500  0.0415 -0.4671 -0.1443
  711TMC3     H10569   2.299   3.503  15.562  1.6207  2.4833 -0.0508
  711TMC3    H110570   2.078   3.760  15.827  0.8510  0.9317 -2.5051
  711TMC3    H210571   2.325   3.465  15.987 -0.6753 -2.0074 -1.5305
  711TMC3    C710572   2.250   3.713  16.023 -0.2815 -0.0714  0.4096
  711TMC3    C810573   2.469   3.479  15.760 -0.1159 -0.4583 -0.4317
  711TMC3    O110574   2.370   3.690  16.053  0.0624  0.6815 -0.1631
  711TMC3    O210575   2.498   3.420  15.655  0.1336  0.4069 -0.3218
  712MPD2     C10576   3.271   4.540  13.898  0.1177  0.6676  0.4518
  712MPD2    C110577   3.243   4.615  13.783 -0.0736 -0.8967 -0.4504
  712MPD2    C210578   3.257   0.016  13.783  0.5379  0.2222 -0.1371
  712MPD2    C310579   3.302   0.080  13.901  0.4192  0.1253 -0.0292
  712MPD2    C410580   3.337   0.003  14.015 -0.2836  0.0654  0.2192
  712MPD2    C510581   3.326   4.607  14.007 -0.3806  0.1572 -0.1929
  712MPD2     H10582   3.229   0.072  13.694  1.8821  0.1048 -0.6335
  712MPD2    H110583   3.379   0.041  14.108  0.8976  0.5868 -0.5353
  712MPD2    H210584   3.252   4.435  13.911 -0.3855  0.9271  1.8108
  712MPD2    H310585   3.350   4.545  14.093 -1.6375 -0.2509 -0.1371
  712MPD2     N10586   3.319   0.217  13.898 -0.4753 -0.1330 -0.4125
  712MPD2    H510587   3.374   0.267  13.967 -0.3932 -0.3017 -0.3578
  712MPD2    N110588   3.211   4.551  13.658  0.2185  0.3100 -0.3913
  712MPD2    H710589   3.203   4.622  13.586 -1.5187  0.8307  0.3209
  713TMC3    C110590   3.292   0.433  13.806  0.1879  0.1427  0.1008
  713TMC3    C210591   3.413   0.465  13.861 -0.0819  0.1395 -0.1806
  713TMC3    C310592   3.458   0.594  13.863  0.0083 -0.4378 -0.1861
  713TMC3    C410593   3.215   0.539  13.751  0.1722 -0.3341 -0.6093
  713TMC3    C510594   3.273   0.661  13.744  0.3460 -0.0058 -0.6532
  713TMC3    C610595   3.396   0.691  13.804 -0.0246 -0.6498  0.0615
  713TMC3     C10596   3.238   0.296  13.822 -0.2209  0.5796 -0.4010
  713TMC3     O10597   3.135   0.274  13.766  1.0717  0.0684 -0.0381
  713TMC3     H10598   3.492   0.390  13.868  0.1332  0.3602 -0.2647
  713TMC3    H110599   3.133   0.502  13.691 -1.1148  2.0505 -0.2945
  713TMC3    H210600   3.433   0.793  13.811  0.2946 -0.8084  0.7025
  713TMC3    C710601   3.210   0.771  13.679  0.2611  0.0841  0.2307
  713TMC3    C810602   3.598   0.612  13.845 -0.3447  0.0359  0.4770
  713TMC3    O110603   3.281   0.869  13.665 -0.5140 -0.1829  0.0122
  713TMC3    O210604   3.636   0.711  13.787  0.1297  0.3869 -0.4515
  714MPD2     C10605   1.371   3.034   1.549 -0.1639  0.1495  0.1079
  714MPD2    C110606   1.385   2.963   1.432 -0.8333 -0.5001  0.2526
  714MPD2    C210607   1.329   3.020   1.316  0.4149 -0.4647  0.8965
  714MPD2    C310608   1.255   3.136   1.318  0.2892  0.0362 -0.2273
  714MPD2    C410609   1.240   3.200   1.433 -0.3559  0.4637 -0.8802
  714MPD2    C510610   1.294   3.147   1.544 -0.8300 -0.2263 -0.5403
  714MPD2     H10611   1.323   2.959   1.226 -1.3546  0.2856  0.5250
  714MPD2    H110612   1.192   3.296   1.447 -2.4214 -0.8056  0.6904
  714MPD2    H210613   1.413   3.001   1.643  1.8255  0.8284 -0.5373
  714MPD2    H310614   1.276   3.197   1.638 -2.5693 -0.7531 -0.5870
  714MPD2     N10615   1.198   3.172   1.200 -0.1411  0.3560  0.1622
  714MPD2    H510616   1.227   3.114   1.121  2.1728 -0.9410  1.9602
  714MPD2    N110617   1.452   2.845   1.453  0.1011 -0.0685 -0.1875
  714MPD2    H710618   1.477   2.824   1.549 -2.0352 -0.5167  0.2573
  715TMC3    C110619   1.596   2.677   1.408 -0.1010  0.8364  0.7717
  715TMC3    C210620   1.621   2.561   1.339  0.9008  0.5268 -0.3514
  715TMC3    C310621   1.719   2.476   1.393 -0.1659 -0.0147 -0.0441
  715TMC3    C410622   1.677   2.715   1.513  0.0992 -0.0691  0.2180
  715TMC3    C510623   1.768   2.629   1.561  0.1244 -0.2993 -0.2876
  715TMC3    C610624   1.792   2.506   1.502 -0.1645  0.2750  0.7021
  715TMC3     C10625   1.483   2.753   1.365 -0.3026 -0.4157 -0.1024
  715TMC3     O10626   1.434   2.734   1.252  0.2709 -0.0548  0.7518
  715TMC3     H10627   1.562   2.527   1.254  0.5990  1.0558 -0.3518
  715TMC3    H110628   1.660   2.804   1.572 -0.5777 -0.1721  0.1738
  715TMC3    H210629   1.849   2.426   1.547 -1.6949 -1.0465  0.2937
  715TMC3    C710630   1.859   2.665   1.677  0.9643 -0.4717  0.8030
  715TMC3    C810631   1.773   2.378   1.302  0.1880 -0.1992  1.1534
  715TMC3    O110632   1.957   2.590   1.696  0.4941 -0.3554 -0.0104
  715TMC3    O210633   1.706   2.326   1.220  0.3522 -0.4567  0.0174
  716MPD2     C10634   0.882   1.928   9.967  0.0636  0.9595 -0.3019
  716MPD2    C110635   0.793   1.906   9.856  0.4867  0.3018  0.8078
  716MPD2    C210636   0.827   1.794   9.786  0.0579  0.0086  0.2472
  716MPD2    C310637   0.929   1.708   9.810  0.3845 -0.0421 -0.2481
  716MPD2    C410638   1.014   1.735   9.918  0.0455 -0.4767  0.6666
  716MPD2    C510639   0.985   1.843   9.995  0.2720 -0.5062  0.1059
  716MPD2     H10640   0.768   1.772   9.698  0.2387 -0.4588  0.2417
  716MPD2    H110641   1.097   1.673   9.949  0.9640  0.5613  0.2710
  716MPD2    H210642   0.870   2.021  10.021  0.5494  1.6965 -1.4734
  716MPD2    H310643   1.042   1.872  10.083  2.2261 -2.2493 -0.5802
  716MPD2     N10644   0.934   1.604   9.716 -0.0933  0.2224  0.0218
  716MPD2    H510645   0.861   1.615   9.647  1.9090  0.7692 -2.0300
  716MPD2    N110646   0.686   2.002   9.828  0.3201 -0.0952 -0.2955
  716MPD2    H710647   0.671   2.082   9.890 -0.4311 -0.5271  0.0781
  717TMC3    C110648   0.993   1.416   9.596  0.5279  0.1188 -0.9507
  717TMC3    C210649   0.904   1.464   9.498 -0.1342 -0.0164  0.9594
  717TMC3    C310650   0.908   1.386   9.383 -0.2018 -0.1732 -0.0583
  717TMC3    C410651   1.072   1.305   9.586  0.6614 -0.3586 -0.1679
  717TMC3    C510652   1.060   1.227   9.473 -0.4915 -0.6864 -0.0826
  717TMC3    C610653   0.988   1.274   9.366 -0.7764 -0.5668 -0.1686
  717TMC3     C10654   1.025   1.509   9.701 -0.7477  0.0727 -0.1352
  717TMC3     O10655   1.130   1.499   9.763 -0.1036 -0.2505 -0.3472
  717TMC3     H10656   0.827   1.539   9.511 -0.5000  0.0195 -1.5056
  717TMC3    H110657   1.137   1.272   9.667 -0.0064 -0.2719  0.4001
  717TMC3    H210658   0.972   1.211   9.279 -0.5411  1.0103 -1.3451
  717TMC3    C710659   1.064   1.082   9.481 -1.0224 -0.5531 -0.0669
  717TMC3    C810660   0.798   1.407   9.290  0.5267 -0.2312  0.7884
  717TMC3    O110661   1.001   1.023   9.401 -0.4329 -0.9514  0.3600
  717TMC3    O210662   0.712   1.483   9.336 -0.6552  0.5854  0.0807
  718MPD2     C10663   0.358   0.964  13.243  0.2001  0.4356 -0.3896
  718MPD2    C110664   0.275   0.989  13.141 -0.6814  0.3943  0.5271
  718MPD2    C210665   0.207   0.884  13.086  0.0521  0.5792 -0.1760
  718MPD2    C310666   0.244   0.756  13.131  0.9783 -0.5652 -0.6934
  718MPD2    C410667   0.336   0.729  13.232  0.1953 -0.6006  0.9188
  718MPD2    C510668   0.391   0.840  13.287 -0.1150  0.1830 -0.0559
  718MPD2     H10669   0.135   0.904  13.008 -0.4899 -0.1449  0.1377
  718MPD2    H110670   0.352   0.631  13.275  0.3509 -1.2080 -0.5288
  718MPD2    H210671   0.419   1.047  13.279 -0.1196  0.0242  1.1069
  718MPD2    H310672   0.453   0.814  13.372  1.2905  0.3568 -1.0261
  718MPD2     N10673   0.184   0.647  13.063  0.0139 -0.2904  0.7876
  718MPD2    H510674   0.120   0.670  12.987  2.5948  1.0345 -0.9888
  718MPD2    N110675   0.264   1.114  13.068 -0.6940  0.0181 -0.3887
  718MPD2    H710676   0.195   1.115  12.993  0.8995  1.4066 -1.8605
  719TMC3    C110677   0.308   1.333  13.004  0.7280  0.0631  0.7462
  719TMC3    C210678   0.184   1.324  12.941  0.0200  0.0188  0.5402
  719TMC3    C310679   0.166   1.312  12.801  0.0486 -0.0540  0.1266
  719TMC3    C410680   0.413   1.331  12.920 -0.2502  0.0250  0.0841
  719TMC3    C510681   0.403   1.329  12.785  0.6571  0.2563  0.3808
  719TMC3    C610682   0.284   1.312  12.723 -1.0742  0.1871 -0.2095
  719TMC3     C10683   0.319   1.228  13.104 -0.2677 -0.0517 -0.7926
  719TMC3     O10684   0.407   1.255  13.184  0.5042 -0.2406  0.0469
  719TMC3     H10685   0.098   1.320  13.007  1.1704  0.5947  2.0733
  719TMC3    H110686   0.514   1.328  12.960 -1.0393  0.5739  2.0938
  719TMC3    H210687   0.288   1.295  12.616  0.8665 -0.3360 -0.0479
  719TMC3    C710688   0.520   1.321  12.705 -0.3026  0.1112  0.7102
  719TMC3    C810689   0.085   1.193  12.787  0.9061  0.4181  0.6638
  719TMC3    O110690   0.509   1.305  12.586 -0.2242 -0.0458 -0.3315
  719TMC3    O210691   0.060   1.135  12.893  0.7558  0.0940  0.3969
  720MPD2     C10692   3.582   1.674  14.104 -0.5142 -0.0164  0.4989
  720MPD2    C110693   3.626   1.798  14.061 -0.8215 -0.0585  0.6198
  720MPD2    C210694   3.721   1.868  14.135  0.2301  0.4124  0.0676
  720MPD2    C310695   3.786   1.798  14.241  0.5183  1.1534 -0.5474
  720MPD2    C410696   3.745   1.670  14.279 -0.4750 -0.0735 -0.2084
  720MPD2    C510697   3.640   1.615  14.213 -0.5293  0.3985 -0.8722
  720MPD2     H10698   3.758   1.966  14.108 -2.4061  1.6761  1.0199
  720MPD2    H110699   3.793   1.615  14.359  0.2732  2.0618  0.7933
  720MPD2    H210700   3.500   1.618  14.060  0.6089 -1.2253 -0.0703
  720MPD2    H310701   3.596   1.522  14.245 -0.8732  0.4884 -1.0747
  720MPD2     N10702   3.883   1.861  14.327 -0.6117 -0.0134 -0.5123
  720MPD2    H510703   3.937   1.797  14.385  0.9147  0.4747 -1.3767
  720MPD2    N110704   3.573   1.846  13.939  0.3154  0.0522 -0.2761
  720MPD2    H710705   3.609   1.936  13.909 -0.1817  0.5042  0.4855
  721TMC3    C110706   4.042   2.010  14.398 -0.5087  0.0111  0.0069
  721TMC3    C210707   4.048   2.120  14.481 -0.6622  0.1982 -0.8506
  721TMC3    C310708   4.141   2.115  14.583  0.7137 -0.7635  0.2283
  721TMC3    C410709   4.133   1.909  14.415 -0.0703  0.7772  0.0342
  721TMC3    C510710   4.226   1.914  14.519 -0.5711  0.3548  0.3711
  721TMC3    C610711   4.230   2.016  14.612 -0.7007 -0.0156  0.2964
  721TMC3     C10712   3.920   1.990  14.321  0.0891 -0.6226 -0.2390
  721TMC3     O10713   3.858   2.086  14.272  0.6985 -0.3026  0.1079
  721TMC3     H10714   3.978   2.201  14.465 -1.1224 -0.5245 -2.5439
  721TMC3    H110715   4.127   1.820  14.353 -0.5667  0.9785 -0.2080
  721TMC3    H210716   4.302   2.009  14.692  1.3801  0.2690 -1.5641
  721TMC3    C710717   4.357   1.866  14.478  0.1782  0.1768  0.1722
  721TMC3    C810718   4.160   2.235  14.664  0.2555 -0.3257 -0.3191
  721TMC3    O110719   4.373   1.869  14.355  0.0328 -0.2381  0.0046
  721TMC3    O210720   4.156   2.346  14.605  0.1089  0.6728  0.0484
  722MPD2     C10721   2.067   0.434  13.442 -0.3737  0.1880 -0.5791
  722MPD2    C110722   2.033   0.544  13.364 -0.3303  0.7321 -0.2664
  722MPD2    C210723   1.902   0.557  13.331  0.1384  1.0684 -0.2056
  722MPD2    C310724   1.814   0.447  13.342  0.1653  0.1739 -0.2145
  722MPD2    C410725   1.848   0.335  13.414  0.2059  0.0543 -0.1800
  722MPD2    C510726   1.974   0.335  13.464 -0.4974  1.0389 -0.4816
  722MPD2     H10727   1.862   0.645  13.282  0.9859  0.3925 -2.1255
  722MPD2    H110728   1.774   0.258  13.435 -1.7358  1.6860 -1.0529
  722MPD2    H210729   2.160   0.415  13.496  0.3167  1.6760 -1.2186
  722MPD2    H310730   2.009   0.261  13.536  0.7568  1.1907 -0.9212
  722MPD2     N10731   1.693   0.465  13.274  0.0490 -0.2357  0.0376
  722MPD2    H510732   1.677   0.556  13.231  1.8239 -0.0671 -0.2812
  722MPD2    N110733   2.108   0.655  13.349 -0.4630 -0.1487  0.7271
  722MPD2    H710734   2.061   0.739  13.315  1.0654  0.0368 -0.9269
  723TMC3    C110735   1.482   0.434  13.194 -0.0973 -0.3579 -0.2983
  723TMC3    C210736   1.405   0.349  13.127 -0.2119 -0.2052  0.1272
  723TMC3    C310737   1.335   0.398  13.017  0.4754 -0.5908 -0.2506
  723TMC3    C410738   1.477   0.566  13.162 -0.2452 -0.1293  0.7140
  723TMC3    C510739   1.407   0.611  13.050  0.2781 -0.1050  0.5034
  723TMC3    C610740   1.331   0.527  12.974 -0.4990 -0.2849 -0.2482
  723TMC3     C10741   1.587   0.385  13.272  0.1781 -0.4627 -0.1641
  723TMC3     O10742   1.579   0.270  13.313 -0.5771  0.8097 -0.0588
  723TMC3     H10743   1.415   0.241  13.131 -2.1370 -0.3321  1.6168
  723TMC3    H110744   1.518   0.634  13.236  1.8411 -0.4984 -0.1262
  723TMC3    H210745   1.278   0.562  12.886  0.0067  0.3795 -0.2888
  723TMC3    C710746   1.404   0.754  13.012 -0.4237 -0.2333  0.0799
  723TMC3    C810747   1.217   0.313  12.987  0.4977  0.3787 -0.0756
  723TMC3    O110748   1.329   0.788  12.917  0.1465 -0.4032  0.3736
  723TMC3    O210749   1.219   0.188  12.988 -0.7015 -0.8154 -0.0543
  724TMC3    C110750   3.005   4.124  10.282  0.3386  0.4259 -0.4679
  724TMC3    C210751   2.970   4.096  10.152  0.7806 -0.7282  0.6044
  724TMC3    C310752   3.013   4.191  10.060 -0.1967  0.0981  0.7109
  724TMC3    C410753   3.022   4.256  10.319 -0.1623  0.4003 -0.4970
  724TMC3    C510754   3.035   4.349  10.222 -0.5683 -0.2157 -0.2507
  724TMC3    C610755   3.031   4.322  10.090 -0.4491  0.0772  0.2529
  724TMC3     C10756   2.993   4.029  10.387 -0.3061  0.2941  0.6366
  724TMC3     O10757   3.024   4.056  10.503 -0.5771 -0.0257 -0.5563
  724TMC3     H10758   2.961   3.999  10.107 -3.0807  0.1556 -0.4639
  724TMC3    H110759   3.039   4.274  10.424 -1.8318 -1.5489  0.1156
  724TMC3    H210760   3.056   4.401  10.019 -2.0474  0.7606  0.4572
  724TMC3    C710761   3.065   4.488  10.271  0.0302 -0.0019  0.9027
  724TMC3    C810762   3.018   4.150   9.921  0.6042 -0.2082  0.0914
  724TMC3    O110763   3.125   4.567  10.199 -0.3326  0.2217 -0.3956
  724TMC3    O210764   3.035   4.031   9.893 -0.5013  0.3790  0.4792
  725TMC3    C110765   4.057   2.927  13.011 -0.4781  0.3974 -0.2757
  725TMC3    C210766   4.017   2.885  12.890  0.5531 -0.6656 -0.1263
  725TMC3    C310767   3.973   2.755  12.893  0.1174  0.8934 -0.2203
  725TMC3    C410768   4.057   2.860  13.128 -0.4238  0.4942 -0.1483
  725TMC3    C510769   4.018   2.728  13.124 -0.8538  0.0267 -0.4076
  725TMC3    C610770   3.972   2.674  13.002  0.3097  0.1491  0.4501
  725TMC3     C10771   4.127   3.054  13.005  0.4068  0.9050 -1.0898
  725TMC3     O10772   4.104   3.127  12.915 -0.5499  0.4772  0.5780
  725TMC3     H10773   4.017   2.949  12.803  1.7505 -0.7020 -0.1573
  725TMC3    H110774   4.058   2.902  13.228 -0.2899 -0.1375  0.1197
  725TMC3    H210775   3.944   2.570  12.992  3.5521 -0.8110  1.4193
  725TMC3    C710776   3.996   2.679  13.254 -0.8568  0.2047  0.1593
  725TMC3    C810777   3.952   2.688  12.763  0.5369 -0.2123  0.5967
  725TMC3    O110778   3.934   2.761  13.327  0.9502 -0.1115 -0.2821
  725TMC3    O210779   3.963   2.561  12.758 -0.3715  0.5031  0.0006
  726MPD2     C10780   1.911   3.726  10.863  0.2534  0.0505  0.2196
  726MPD2    C110781   1.801   3.757  10.788 -0.1260 -0.2236  0.1920
  726MPD2    C210782   1.672   3.706  10.818  0.2168 -0.2718 -0.4635
  726MPD2    C310783   1.658   3.639  10.941 -0.3856 -0.3657 -0.2113
  726MPD2    C410784   1.766   3.620  11.016 -0.3973  0.2148 -0.1947
  726MPD2    C510785   1.890   3.654  10.979  0.2423 -0.6396 -0.2435
  726MPD2     H10786   1.585   3.742  10.766  1.4805  1.3536 -1.4386
  726MPD2    H110787   1.754   3.574  11.114 -1.6221  2.7047  0.8154
  726MPD2    H210788   2.012   3.760  10.845  0.8759 -2.5286 -1.0117
  726MPD2    H310789   1.970   3.633  11.049 -0.0526 -0.4404  0.1554
  726MPD2     N10790   1.536   3.586  10.983  0.3353  0.5768 -0.2151
  726MPD2    H510791   1.541   3.537  11.072  0.0205 -1.2397 -1.1966
  726MPD2    N110792   1.813   3.840  10.671 -0.2285 -0.3155  0.3277
  726MPD2    H710793   1.743   3.819  10.601 -1.2966  0.3904  1.1729
  727TMC3    C110794   1.933   3.983  10.518 -0.3745  0.2811 -0.0881
  727TMC3    C210795   1.998   4.104  10.498  0.5114  0.5460  0.4552
  727TMC3    C310796   2.004   4.157  10.375 -0.2673 -0.4273  0.3950
  727TMC3    C410797   1.874   3.915  10.414  0.1805 -1.2344 -0.3238
  727TMC3    C510798   1.882   3.978  10.293  0.0715  0.2745 -0.0616
  727TMC3    C610799   1.955   4.095  10.269 -0.5070 -0.1831  0.1688
  727TMC3     C10800   1.930   3.924  10.649 -0.3659 -0.5438  0.4001
  727TMC3     O10801   2.010   3.961  10.730  0.6727 -0.4554 -0.5029
  727TMC3     H10802   2.049   4.151  10.581 -0.8819  1.4266  0.8274
  727TMC3    H110803   1.828   3.817  10.426  2.1272 -1.8320  2.2101
  727TMC3    H210804   1.965   4.140  10.171  2.1242  0.6448  0.8288
  727TMC3    C710805   1.819   3.903  10.188  0.7454 -0.1687  0.6735
  727TMC3    C810806   2.075   4.279  10.373 -0.4738  0.2161  0.8841
  727TMC3    O110807   1.816   3.784  10.209 -0.3864 -0.8268 -0.0327
  727TMC3    O210808   2.160   4.296  10.463 -0.3890  0.4372 -0.3478
  728TMC3    C110809   1.944   2.542  15.527 -0.4704  0.7969  0.4987
  728TMC3    C210810   2.054   2.578  15.449  0.1676  0.4531  0.5264
  728TMC3    C310811   2.029   2.666  15.352 -0.2302  0.3328  0.0700
  728TMC3    C410812   1.817   2.585  15.502 -0.5780  0.0203 -0.2767
  728TMC3    C510813   1.803   2.682  15.411  0.1273 -0.9529 -0.4817
  728TMC3    C610814   1.902   2.715  15.324 -0.2811  0.8049  0.1963
  728TMC3     C10815   1.974   2.444  15.629  0.8479  0.0221 -0.5915
  728TMC3     O10816   2.080   2.385  15.616  0.1666  0.1010 -0.1410
  728TMC3     H10817   2.155   2.555  15.482  0.6353  0.3526 -0.9721
  728TMC3    H110818   1.740   2.539  15.563 -0.3311 -0.1551 -0.0900
  728TMC3    H210819   1.883   2.770  15.233  2.7965 -1.5350 -1.8342
  728TMC3    C710820   1.676   2.746  15.403 -0.3790  0.4769 -0.2235
  728TMC3    C810821   2.127   2.699  15.255 -0.9282  0.1238 -0.6165
  728TMC3    O110822   1.576   2.693  15.451  0.0265  0.6221  0.7818
  728TMC3    O210823   2.117   2.795  15.183 -0.1239 -0.0821 -0.1139
  729MPD2     C10824   3.433   3.455  17.012  0.1824 -1.2114 -0.0886
  729MPD2    C110825   3.539   3.369  17.009 -1.0085 -0.6342  0.2877
  729MPD2    C210826   3.583   3.315  17.129 -0.4225  0.3243 -0.5831
  729MPD2    C310827   3.528   3.343  17.251 -0.0660  0.3315  0.0044
  729MPD2    C410828   3.412   3.417  17.252 -0.3380 -0.0931  0.3674
  729MPD2    C510829   3.365   3.473  17.134  0.1302  0.2877 -0.0651
  729MPD2     H10830   3.670   3.250  17.129  1.0673  2.3229 -1.8727
  729MPD2    H110831   3.365   3.442  17.347 -1.0664 -1.7515  0.4452
  729MPD2    H210832   3.393   3.500  16.921  2.4228  1.1258  0.0793
  729MPD2    H310833   3.288   3.548  17.148 -1.4625 -1.6135  1.2991
  729MPD2     N10834   3.591   3.298  17.371  0.4317  0.1718 -0.2929
  729MPD2    H510835   3.565   3.348  17.456 -0.4669 -0.0235 -0.4551
  729MPD2    N110836   3.606   3.349  16.890 -0.8028  0.3714 -0.1761
  729MPD2    H710837   3.573   3.404  16.811 -0.2229 -1.6092 -1.8249
  730TMC3    C110838   3.786   3.226  17.488 -0.2901 -0.0336  0.4157
  730TMC3    C210839   3.909   3.177  17.453 -0.2824 -0.4923  0.2227
  730TMC3    C310840   4.021   3.257  17.460 -0.8609  0.3501  0.5260
  730TMC3    C410841   3.776   3.351  17.540  0.0549  0.1862 -0.4843
  730TMC3    C510842   3.888   3.429  17.555 -0.7581  0.1432 -0.2777
  730TMC3    C610843   4.007   3.389  17.506  0.7387 -0.4101  0.0667
  730TMC3     C10844   3.695   3.200  17.379 -1.1370 -0.5052 -0.2870
  730TMC3     O10845   3.699   3.106  17.302  0.3862  0.6838 -0.0335
  730TMC3     H10846   3.911   3.096  17.381  0.3549 -0.6697  0.4343
  730TMC3    H110847   3.682   3.383  17.584 -0.0172 -1.4540  0.5590
  730TMC3    H210848   4.086   3.462  17.510  0.0458  0.3158  0.3899
  730TMC3    C710849   3.848   3.560  17.530  0.6601  0.4204 -0.4439
  730TMC3    C810850   4.123   3.219  17.359  0.2770  0.1322  0.3023
  730TMC3    O110851   3.910   3.619  17.443  0.2448  0.2553  0.2481
  730TMC3    O210852   4.130   3.105  17.318 -0.4240 -0.3539 -0.1068
  731MPD2     C10853   4.007   1.609  11.921 -0.1285 -0.4337  0.7405
  731MPD2    C110854   4.018   1.729  11.977 -0.3958  0.0842  0.0098
  731MPD2    C210855   4.087   1.731  12.102  0.1281  0.4990 -0.2037
  731MPD2    C310856   4.154   1.619  12.150  0.1958 -0.0048 -0.1399
  731MPD2    C410857   4.139   1.498  12.080  0.4728 -0.6451  1.3825
  731MPD2    C510858   4.069   1.497  11.966 -0.1747 -0.6878  0.6733
  731MPD2     H10859   4.099   1.827  12.150  0.0186 -0.1490  1.1259
  731MPD2    H110860   4.172   1.400  12.113 -1.9187 -1.9271 -0.0824
  731MPD2    H210861   3.955   1.592  11.827 -0.6138  1.0667  0.7471
  731MPD2    H310862   4.042   1.402  11.922 -2.1187  1.1565 -2.0991
  731MPD2     N10863   4.243   1.631  12.258 -0.5455  0.4521 -0.2107
  731MPD2    H510864   4.250   1.729  12.287 -1.5644  0.5519 -0.2838
  731MPD2    N110865   3.948   1.843  11.925 -0.4751  0.5053 -0.3805
  731MPD2    H710866   3.884   1.825  11.849 -1.1159 -0.3565  0.3778
  732TMC3    C110867   3.907   2.077  11.881  0.8498 -0.0854  0.4163
  732TMC3    C210868   3.812   2.049  11.790  0.4578  0.1821  0.3384
  732TMC3    C310869   3.791   2.138  11.683  0.4120  0.4843 -0.4224
  732TMC3    C410870   3.978   2.193  11.881  0.8393 -0.2012 -0.1683
  732TMC3    C510871   3.964   2.279  11.777  0.5659 -0.6820 -0.3598
  732TMC3    C610872   3.872   2.249  11.675 -0.4972  0.7417 -0.7571
  732TMC3     C10873   3.957   1.975  11.971  0.2773  0.6978  0.4912
  732TMC3     O10874   4.032   2.013  12.057 -0.3423  0.3379 -0.6778
  732TMC3     H10875   3.763   1.953  11.780 -0.5592  0.8495 -1.3097
  732TMC3    H110876   4.048   2.207  11.963  0.9604 -3.6747  0.3036
  732TMC3    H210877   3.853   2.325  11.600  2.0389  0.4487 -1.6932
  732TMC3    C710878   4.020   2.409  11.789 -0.3823  0.5392  0.0022
  732TMC3    C810879   3.670   2.145  11.609  0.2278 -0.2533 -0.2669
  732TMC3    O110880   3.963   2.498  11.728  0.2540 -0.3845 -0.8108
  732TMC3    O210881   3.663   2.222  11.520  0.7991  0.1696  0.0360
  733TMC3    C110882   4.707   0.317  12.908  0.6457  0.2906  0.2133
  733TMC3    C210883   0.064   0.352  13.000  0.1464 -0.4706  0.3101
  733TMC3    C310884   0.145   0.455  12.960 -0.4650 -0.4376 -0.1599
  733TMC3    C410885   4.680   0.393  12.794  0.3346 -0.2079  0.5242
  733TMC3    C510886   0.029   0.484  12.761 -0.3091 -0.1848 -0.3670
  733TMC3    C610887   0.129   0.524  12.846  0.3092 -0.3269 -0.1026
  733TMC3     C10888   4.603   0.224  12.949 -0.7823 -0.5920 -0.1001
  733TMC3     O10889   4.513   0.203  12.871 -0.2407 -0.1390  0.2131
  733TMC3     H10890   0.082   0.293  13.089  1.3477  0.2785  0.5652
  733TMC3    H110891   4.596   0.371  12.728  0.1113  1.1042  0.3608
  733TMC3    H210892   0.202   0.604  12.840  0.4217 -0.2827  2.0167
  733TMC3    C710893   0.000   0.563  12.649 -0.4462 -0.5265 -0.0683
  733TMC3    C810894   0.231   0.519  13.053 -0.4792 -0.4246  0.7262
  733TMC3    O110895   4.739   0.508  12.540  0.0058 -0.2045 -0.3222
  733TMC3    O210896   0.316   0.462  13.120  0.2837 -0.3045  0.5734
  734MPD2     C10897   1.870   2.760  12.393  0.3426  0.1323 -0.2029
  734MPD2    C110898   1.735   2.727  12.377  0.4789  0.2269 -0.4186
  734MPD2    C210899   1.665   2.790  12.274  0.3550  0.4748  1.0858
  734MPD2    C310900   1.727   2.885  12.197  0.1465  0.5243  0.3023
  734MPD2    C410901   1.858   2.926  12.219 -1.3848 -0.5732  0.5935
  734MPD2    C510902   1.930   2.860  12.319 -1.2865  0.1379  0.2997
  734MPD2     H10903   1.561   2.765  12.255  1.5663 -3.6333 -0.1829
  734MPD2    H110904   1.925   2.993  12.166 -0.5759 -1.1923  0.8356
  734MPD2    H210905   1.931   2.709  12.467 -1.2106  0.9303  1.6084
  734MPD2    H310906   2.036   2.878  12.330 -1.3381 -1.3609  3.0270
  734MPD2     N10907   1.652   2.935  12.088 -0.1324  0.1719 -0.2201
  734MPD2    H510908   1.560   2.893  12.083 -0.3247  0.4495  0.9559
  734MPD2    N110909   1.680   2.626  12.461  0.7119  0.0479  0.4882
  734MPD2    H710910   1.738   2.589  12.536 -0.5047  0.8145  1.8175
  735TMC3    C110911   1.553   2.434  12.498  0.0471  0.6981 -0.6216
  735TMC3    C210912   1.439   2.377  12.452 -0.2605  0.1085  0.3600
  735TMC3    C310913   1.437   2.252  12.396  0.3590  0.9132  0.8911
  735TMC3    C410914   1.671   2.366  12.491 -0.1235 -0.5133  0.2486
  735TMC3    C510915   1.671   2.246  12.425  0.4114  0.0570 -0.1572
  735TMC3    C610916   1.556   2.185  12.378  0.0302  0.2358 -0.1931
  735TMC3     C10917   1.559   2.567  12.440  0.6012  0.0580 -0.3032
  735TMC3     O10918   1.471   2.588  12.356 -1.0245 -0.1568  0.1269
  735TMC3     H10919   1.343   2.424  12.475  0.2701 -0.2207  3.2430
  735TMC3    H110920   1.766   2.411  12.519  1.8264 -2.9915 -2.3701
  735TMC3    H210921   1.554   2.091  12.326 -2.3117  1.5503 -2.4838
  735TMC3    C710922   1.797   2.207  12.380 -0.1802  0.2142  0.4574
  735TMC3    C810923   1.359   2.243  12.275 -0.0035  0.6853  0.4436
  735TMC3    O110924   1.881   2.287  12.378  0.0159  0.2473 -0.4792
  735TMC3    O210925   1.328   2.131  12.237 -0.0616 -0.3639 -0.1284
  736MPD2     C10926   1.916   1.860  12.388 -0.1162 -0.5717  0.3310
  736MPD2    C110927   1.918   1.996  12.360 -0.0650 -0.0741 -0.1166
  736MPD2    C210928   2.040   2.049  12.315  0.8235  0.4412 -0.0122
  736MPD2    C310929   2.154   1.970  12.289 -0.9732  0.0119 -0.7362
  736MPD2    C410930   2.153   1.835  12.323 -0.3993  0.0296 -0.0818
  736MPD2    C510931   2.035   1.782  12.372 -1.1195 -0.4846 -0.3444
  736MPD2     H10932   2.046   2.155  12.294 -1.4008  0.6103  0.1700
  736MPD2    H110933   2.240   1.771  12.314  0.1728  0.4117  2.8748
  736MPD2    H210934   1.825   1.810  12.419 -1.1186 -0.3744 -2.3279
  736MPD2    H310935   2.036   1.674  12.383  1.2109 -0.4752 -0.5980
  736MPD2     N10936   2.273   2.018  12.229  0.7266 -0.4828  0.9527
  736MPD2    H510937   2.328   1.943  12.189 -1.1496 -1.1068 -0.4404
  736MPD2    N110938   1.804   2.068  12.376  0.2066  0.2431 -0.6242
  736MPD2    H710939   1.721   2.013  12.398  0.6351 -0.6214 -1.1611
  737TMC3    C110940   2.396   2.160  12.077  0.4351  0.3329 -0.3674
  737TMC3    C210941   2.443   2.283  12.050  0.6295  0.0909 -0.0047
  737TMC3    C310942   2.512   2.302  11.936  0.2375 -0.0412 -0.2073
  737TMC3    C410943   2.403   2.058  11.981  0.7382 -0.1769  1.0839
  737TMC3    C510944   2.476   2.080  11.864 -0.0881 -0.2704 -0.3001
  737TMC3    C610945   2.522   2.207  11.841 -0.3083  1.2045  0.4309
  737TMC3     C10946   2.310   2.150  12.200  0.3707 -0.0182  0.1597
  737TMC3     O10947   2.275   2.259  12.235 -0.4437 -0.4339 -0.0676
  737TMC3     H10948   2.433   2.364  12.122  0.1064  0.5126 -0.5526
  737TMC3    H110949   2.370   1.957  12.003 -3.0243  0.5687 -1.1147
  737TMC3    H210950   2.576   2.232  11.750 -0.0080  2.7726  1.0412
  737TMC3    C710951   2.494   1.976  11.761  0.3377 -0.5797  0.1844
  737TMC3    C810952   2.517   2.437  11.893  0.1143  0.8993 -0.5634
  737TMC3    O110953   2.457   1.864  11.783 -0.1445 -0.4777  0.9295
  737TMC3    O210954   2.529   2.521  11.982  0.3329 -0.2235 -0.2022
  738MPD2     C10955   2.965   0.608  15.370  0.1700  0.1441 -0.1793
  738MPD2    C110956   2.869   0.669  15.292 -0.2673 -0.0550  0.2878
  738MPD2    C210957   2.882   0.796  15.246  0.1591 -0.1925 -0.3664
  738MPD2    C310958   2.993   0.866  15.268 -0.1326 -0.5672 -0.6047
  738MPD2    C410959   3.090   0.818  15.354  0.4964  0.3548 -0.3107
  738MPD2    C510960   3.079   0.689  15.401  0.1029  0.1677  0.0135
  738MPD2     H10961   2.806   0.827  15.176 -0.2738  0.9648  0.6223
  738MPD2    H110962   3.173   0.879  15.387  0.5042  0.3035 -0.2358
  738MPD2    H210963   2.954   0.508  15.411  0.5665  0.2411  0.1525
  738MPD2    H310964   3.151   0.654  15.474 -1.8727 -0.2913  1.7659
  738MPD2     N10965   3.031   0.985  15.196 -0.5546  0.2182  0.2428
  738MPD2    H510966   3.116   1.032  15.224 -0.8931  0.3337  1.0909
  738MPD2    N110967   2.754   0.596  15.242 -0.0040  0.6915  0.2577
  738MPD2    H710968   2.694   0.639  15.171 -0.7384  1.4083  1.3056
  739TMC3    C110969   3.005   1.149  15.034 -0.2616  0.4162 -0.4009
  739TMC3    C210970   2.972   1.171  14.907  0.1040  0.0865 -0.1157
  739TMC3    C310971   3.024   1.282  14.856 -0.1214  0.8404  0.1620
  739TMC3    C410972   3.068   1.238  15.116  0.2804 -0.3321  0.1469
  739TMC3    C510973   3.117   1.349  15.061 -0.2181  0.4699  0.8112
  739TMC3    C610974   3.099   1.373  14.926  0.6443 -0.1898 -0.3367
  739TMC3     C10975   2.963   1.024  15.081  0.2149  0.1061  0.4113
  739TMC3     O10976   2.854   0.986  15.033 -0.0977  0.0826  0.0607
  739TMC3     H10977   2.905   1.107  14.851 -1.9517  0.3502  2.0312
  739TMC3    H110978   3.054   1.235  15.224  1.5753 -2.2428  0.2590
  739TMC3    H210979   3.128   1.466  14.878 -1.1010 -0.2441 -1.4754
  739TMC3    C710980   3.185   1.441  15.148 -0.4343  0.2182 -0.0722
  739TMC3    C810981   3.020   1.293  14.714 -0.0413  0.3636  0.5346
  739TMC3    O110982   3.223   1.404  15.255 -0.1092  0.8352  0.1638
  739TMC3    O210983   2.915   1.271  14.661  0.0875  0.1469  0.1626
  740TMC3    C110984   3.303   2.474  14.194 -0.4066 -0.2482  0.9623
  740TMC3    C210985   3.377   2.488  14.307  0.6446 -0.1097  0.0939
  740TMC3    C310986   3.487   2.411  14.322 -0.9588  0.1445 -0.3513
  740TMC3    C410987   3.342   2.402  14.090 -0.8157  0.5219  0.2347
  740TMC3    C510988   3.458   2.330  14.107  0.3069 -0.2726  0.2533
  740TMC3    C610989   3.535   2.341  14.220  0.4483  0.6113  0.4025
  740TMC3     C10990   3.165   2.515  14.201 -0.1063  0.3963 -0.1561
  740TMC3     O10991   3.105   2.512  14.098  0.0065  0.2644  0.1093
  740TMC3     H10992   3.339   2.550  14.387  2.9163  0.0880  1.0230
  740TMC3    H110993   3.277   2.374  14.009 -1.0516 -0.4083  0.7480
  740TMC3    H210994   3.634   2.296  14.221 -0.3313 -1.1309 -1.1058
  740TMC3    C710995   3.526   2.274  13.992  0.3863 -0.3107  0.9259
  740TMC3    C810996   3.552   2.416  14.456  0.1174 -0.4337  0.0771
  740TMC3    O110997   3.623   2.204  14.016 -0.8833 -0.2149 -0.3135
  740TMC3    O210998   3.522   2.518  14.517 -0.0164  0.5912 -0.0310
  741TMC3    C110999   3.025   1.739  14.275 -0.3892 -0.6094  0.0048
  741TMC3    C211000   2.904   1.681  14.295 -0.3052 -0.5485  0.3292
  741TMC3    C311001   2.871   1.620  14.416 -0.0838  0.2923 -0.9508
  741TMC3    C411002   3.109   1.740  14.384 -0.1874  0.1027 -0.3397
  741TMC3    C511003   3.081   1.683  14.505  0.0875  0.0688 -0.8230
  741TMC3    C611004   2.961   1.613  14.520 -0.1340  0.2806  0.0011
  741TMC3     C11005   3.083   1.737  14.142  0.5422  0.0186 -0.5131
  741TMC3     O11006   3.198   1.694  14.134 -0.4645  0.3656  0.4103
  741TMC3     H11007   2.829   1.695  14.218 -1.5170 -2.4860  1.1472
  741TMC3    H111008   3.207   1.783  14.367 -0.5524  1.4773  0.9981
  741TMC3    H211009   2.943   1.560  14.613 -1.0018  0.9543  0.2103
  741TMC3    C711010   3.175   1.683  14.617  0.2215 -0.5921  0.2365
  741TMC3    C811011   2.736   1.562  14.417  0.1746  0.6887 -0.2766
  741TMC3    O111012   3.139   1.666  14.738  0.2645 -0.0463  0.3486
  741TMC3    O211013   2.650   1.632  14.364 -0.3566  0.3989  0.2780
  742TMC3    C111014   2.358   4.728  15.553 -0.3966  0.2018  0.3120
  742TMC3    C211015   2.304   4.696  15.432 -0.8281 -1.0373 -0.1951
  742TMC3    C311016   2.390   4.698  15.318  0.4780  0.1223 -0.3019
  742TMC3    C411017   2.491   0.034  15.554 -0.7501  0.4588 -0.4459
  742TMC3    C511018   2.568   0.054  15.440 -0.6337 -0.1367  0.9044
  742TMC3    C611019   2.516   0.007  15.323 -0.5429  0.3289 -0.0053
  742TMC3     C11020   2.282   4.705  15.672 -0.1080  0.3216  0.5887
  742TMC3     O11021   2.189   4.625  15.670 -0.1807  0.1080 -0.2513
  742TMC3     H11022   2.207   4.646  15.435 -0.8354 -1.0335 -0.3371
  742TMC3    H111023   2.539   0.025  15.650  0.2974  1.4148 -0.8755
  742TMC3    H211024   2.566   0.011  15.227 -0.5912  2.3887  0.0721
  742TMC3    C711025   2.709   0.049  15.451 -0.2801  0.1274  0.0197
  742TMC3    C811026   2.364   4.616  15.202 -0.0880 -0.3550 -0.2978
  742TMC3    O111027   2.771   0.024  15.351  0.1478  0.3088 -0.4812
  742TMC3    O211028   2.444   4.630  15.110  0.4630 -0.0324 -0.3124
  743MPD2     C11029   0.326   0.627   1.820  0.3486 -0.0400  0.8477
  743MPD2    C111030   0.400   0.635   1.706 -0.0673 -0.2293  1.0944
  743MPD2    C211031   0.500   0.540   1.680  0.1005 -0.7879 -0.1422
  743MPD2    C311032   0.524   0.441   1.773 -0.0117 -0.6379 -0.2188
  743MPD2    C411033   0.455   0.440   1.896  0.3966  0.2036  0.7491
  743MPD2    C511034   0.359   0.535   1.914  0.0969  0.2564  0.1925
  743MPD2     H11035   0.552   0.540   1.585 -0.2270  1.8546 -0.3000
  743MPD2    H111036   0.486   0.386   1.984 -1.3829 -1.5311  0.3139
  743MPD2    H211037   0.238   0.686   1.839  1.0976  0.6429  2.1589
  743MPD2    H311038   0.321   0.546   2.015 -0.5358  1.3337 -0.1604
  743MPD2     N11039   0.641   0.360   1.755  0.5487 -0.1233 -0.6714
  743MPD2    H511040   0.688   0.373   1.666 -1.4560  0.7918 -1.6050
  743MPD2    N111041   0.364   0.731   1.609  0.3200 -0.5104  0.3073
  743MPD2    H711042   0.279   0.784   1.627  1.3189  1.1460  0.1483
  744TMC3    C111043   0.367   0.871   1.418  0.3234 -0.6721 -0.5322
  744TMC3    C211044   0.287   0.961   1.483 -0.5017  0.1452  0.2106
  744TMC3    C311045   0.204   1.034   1.406  0.5896 -0.2451 -1.3592
  744TMC3    C411046   0.366   0.860   1.285 -0.0652 -0.5026 -0.5646
  744TMC3    C511047   0.278   0.932   1.216 -0.6657 -0.4996 -0.2643
  744TMC3    C611048   0.199   1.026   1.267  0.5357 -0.4533 -0.8680
  744TMC3     C11049   0.431   0.764   1.494 -0.8991 -0.3636  0.2075
  744TMC3     O11050   0.535   0.724   1.447 -0.0821  0.0264 -1.0183
  744TMC3     H11051   0.282   0.965   1.591 -2.6075 -1.7268  0.1879
  744TMC3    H111052   0.416   0.780   1.231  1.8162  0.2477  0.0438
  744TMC3    H211053   0.143   1.087   1.197  0.8790  0.1001 -0.6626
  744TMC3    C711054   0.251   0.904   1.083  0.2258 -0.0625 -0.7771
  744TMC3    C811055   0.150   1.152   1.472 -0.1895 -0.2633 -0.4477
  744TMC3    O111056   0.142   0.931   1.031 -0.3692 -0.2208  0.1417
  744TMC3    O211057   0.206   1.200   1.570 -0.3330 -0.1412 -0.2652
  745TMC3    C111058   3.153   4.397  13.493 -0.4797 -0.3478  0.1819
  745TMC3    C211059   3.034   4.342  13.490 -0.7656 -0.0484  0.2962
  745TMC3    C311060   2.940   4.392  13.397  0.4264 -0.2054  0.1345
  745TMC3    C411061   3.179   4.505  13.412 -0.3238 -0.3978  0.0124
  745TMC3    C511062   3.086   4.561  13.325 -0.5826 -0.3781  0.1346
  745TMC3    C611063   2.962   4.502  13.321  0.4581  0.1813  0.3196
  745TMC3     C11064   3.197   4.419  13.636  0.0662 -0.4832 -0.1116
  745TMC3     O11065   3.232   4.322  13.706 -0.0148  0.2939  0.2702
  745TMC3     H11066   3.008   4.262  13.559 -1.3514  1.3904  1.7409
  745TMC3    H111067   3.278   4.549  13.402  0.1193 -1.2355  0.7337
  745TMC3    H211068   2.881   4.545  13.264  1.8648  2.4451  0.0367
  745TMC3    C711069   3.077   4.700  13.359 -0.6006 -0.0258  0.2461
  745TMC3    C811070   2.815   4.403  13.465  0.6404 -0.4493  0.5375
  745TMC3    O111071   3.032   4.722  13.472  0.0056  0.3111 -1.0281
  745TMC3    O211072   2.757   4.298  13.501  0.4326 -0.4031  0.6607
  746TMC3    C111073   0.733   1.905  11.093  0.2733 -0.0364  0.1639
  746TMC3    C211074   0.765   1.954  10.965 -0.8129  0.3051 -0.2965
  746TMC3    C311075   0.703   1.888  10.863  0.1252 -0.6941  0.9692
  746TMC3    C411076   0.645   1.803  11.118 -0.2449 -0.5709 -0.1201
  746TMC3    C511077   0.591   1.744  11.010  0.0309 -0.1008  0.5123
  746TMC3    C611078   0.623   1.783  10.886 -0.4833 -0.3820  0.2843
  746TMC3     C11079   0.789   1.971  11.212 -0.5030 -0.1743  0.6770
  746TMC3     O11080   0.743   1.941  11.321  0.1500  0.8727  0.0370
  746TMC3     H11081   0.829   2.041  10.951  0.5036 -0.9729 -2.1775
  746TMC3    H111082   0.614   1.782  11.219  2.1306 -2.1087  0.2687
  746TMC3    H211083   0.581   1.736  10.798  0.4191 -4.0292  1.8209
  746TMC3    C711084   0.468   1.672  11.013 -0.2550  0.3075 -0.7832
  746TMC3    C811085   0.723   1.944  10.730 -0.0037  0.5580  0.4792
  746TMC3    O111086   0.394   1.680  10.916 -0.0441 -0.2206 -0.3708
  746TMC3    O211087   0.702   1.873  10.633 -0.1835 -0.0698  0.1126
  747TMC3    C111088   2.892   2.089  10.768  0.1155  0.1600  0.5026
  747TMC3    C211089   2.816   2.023  10.855  0.2431 -0.5705  0.1890
  747TMC3    C311090   2.808   2.070  10.979  0.7663  0.4021  0.0598
  747TMC3    C411091   2.961   2.206  10.809  0.1772  0.6558  0.0221
  747TMC3    C511092   2.954   2.249  10.936  0.5116  0.4867 -0.9797
  747TMC3    C611093   2.873   2.179  11.023 -0.0054 -0.2963  0.3434
  747TMC3     C11094   2.916   2.046  10.628  0.0541 -0.3716  0.9264
  747TMC3     O11095   2.952   2.132  10.547 -0.6658  0.2918 -0.7506
  747TMC3     H11096   2.752   1.945  10.817 -1.7147 -0.0510  2.3960
  747TMC3    H111097   3.024   2.255  10.736 -0.6982  0.1613 -1.0762
  747TMC3    H211098   2.863   2.209  11.127 -0.4332 -2.3148  0.8777
  747TMC3    C711099   3.012   2.373  10.983 -0.0355 -0.0967  0.0365
  747TMC3    C811100   2.736   1.977  11.066 -0.3826 -0.4891  0.2625
  747TMC3    O111101   3.025   2.378  11.105  0.1085 -0.1121 -0.0541
  747TMC3    O211102   2.715   1.863  11.018 -0.1717 -0.7305 -0.7741
  748MPD2     C11103   0.140   2.179   1.370  0.4973  0.7512 -0.2897
  748MPD2    C111104   0.173   2.060   1.304 -0.3748  0.2209 -0.0271
  748MPD2    C211105   0.305   2.032   1.285  1.3669 -0.0660  0.0271
  748MPD2    C311106   0.404   2.109   1.338  0.5975  0.2060 -0.7121
  748MPD2    C411107   0.365   2.222   1.408 -0.5903  1.0496  0.2319
  748MPD2    C511108   0.236   2.259   1.431 -0.2853 -0.2076  0.1242
  748MPD2     H11109   0.330   1.948   1.221 -0.1654  0.7317 -1.6154
  748MPD2    H111110   0.439   2.290   1.448 -1.3402  1.9840  0.0425
  748MPD2    H211111   0.035   2.204   1.380  0.4491  0.9198 -1.2007
  748MPD2    H311112   0.201   2.340   1.494  0.1812  0.8549 -0.9936
  748MPD2     N11113   0.541   2.071   1.321  0.2328 -0.2226  0.0882
  748MPD2    H511114   0.554   1.994   1.255  0.8152 -0.6066  0.6568
  748MPD2    N111115   0.068   1.986   1.244  0.5067 -0.3364  0.0528
  748MPD2    H711116   4.714   2.015   1.266  0.7128  0.0530  0.4343
  749TMC3    C111117   0.773   2.071   1.335  0.1707 -0.2902 -0.1755
  749TMC3    C211118   0.883   2.096   1.412 -0.3809  0.4790 -0.0356
  749TMC3    C311119   1.003   2.121   1.354  0.4860  0.8501  0.4519
  749TMC3    C411120   0.789   2.045   1.197 -0.0385 -0.4232 -0.1237
  749TMC3    C511121   0.916   2.074   1.148  0.7292 -0.3213  0.1416
  749TMC3    C611122   1.025   2.122   1.222  0.2193 -0.3463  0.1583
  749TMC3     C11123   0.643   2.105   1.393  0.2543  0.3340 -0.2018
  749TMC3     O11124   0.631   2.161   1.501 -0.1262 -0.1867 -0.2540
  749TMC3     H11125   0.866   2.095   1.519 -1.6523 -1.1646 -0.2579
  749TMC3    H111126   0.710   2.017   1.127 -0.9142 -0.2832  0.8056
  749TMC3    H211127   1.123   2.147   1.184 -0.4884  1.2966 -0.6009
  749TMC3    C711128   0.919   2.101   1.002  0.1829 -0.0462  0.1867
  749TMC3    C811129   1.113   2.080   1.435  0.2887 -0.5370  0.6313
  749TMC3    O111130   0.836   2.044   0.931  0.1172 -0.2577  0.0137
  749TMC3    O211131   1.117   2.128   1.547  0.5832  0.0550 -0.4583
  750MPD2     C11132   0.777   3.711  11.436  0.0284  0.1193  0.3305
  750MPD2    C111133   0.663   3.669  11.497 -0.3990  0.4944 -0.3099
  750MPD2    C211134   0.578   3.589  11.421 -0.3051 -0.0863 -0.0231
  750MPD2    C311135   0.607   3.563  11.288  0.1375  0.2665 -0.7343
  750MPD2    C411136   0.719   3.621  11.228  0.6108 -0.4087 -0.6856
  750MPD2    C511137   0.808   3.696  11.306  0.6609 -0.6657  0.1675
  750MPD2     H11138   0.484   3.558  11.466 -0.1165  0.3843  0.7045
  750MPD2    H111139   0.744   3.598  11.125 -0.8621  0.4732 -1.2483
  750MPD2    H211140   0.845   3.767  11.498  2.5762 -0.7923 -1.6042
  750MPD2    H311141   0.900   3.736  11.264 -0.5525  0.8292 -1.0853
  750MPD2     N11142   0.551   3.451  11.214  0.3584  0.1741 -0.2774
  750MPD2    H511143   0.584   3.427  11.121 -0.9073 -3.1039  0.1134
  750MPD2    N111144   0.635   3.719  11.628 -1.3101 -0.1055 -0.2887
  750MPD2    H711145   0.701   3.779  11.677 -0.8461 -0.0875 -0.9396
  751TMC3    C111146   0.469   3.237  11.203  0.1476 -0.0056  0.4681
  751TMC3    C211147   0.407   3.123  11.251  0.1103  0.1537  0.9293
  751TMC3    C311148   0.407   3.009  11.177 -0.0978  0.2967 -0.2701
  751TMC3    C411149   0.535   3.225  11.078 -0.0611  0.3913 -0.4620
  751TMC3    C511150   0.528   3.106  11.013  0.1918 -0.3172  0.2951
  751TMC3    C611151   0.467   2.994  11.059 -0.3514 -0.0157  0.6506
  751TMC3     C11152   0.464   3.361  11.273 -0.1615 -0.1533  0.5476
  751TMC3     O11153   0.402   3.365  11.379  0.2300  0.3091  0.1126
  751TMC3     H11154   0.357   3.137  11.346  0.5904 -1.9662  1.4905
  751TMC3    H111155   0.566   3.311  11.020  1.9874 -0.7735 -1.0687
  751TMC3    H211156   0.455   2.909  10.992 -0.2329 -0.7226  1.5323
  751TMC3    C711157   0.585   3.111  10.874 -0.2718 -0.4420 -0.1586
  751TMC3    C811158   0.292   2.912  11.195 -0.0101 -0.0260 -0.6867
  751TMC3    O111159   0.679   3.185  10.854  0.4043 -0.2418  0.5459
  751TMC3    O211160   0.253   2.856  11.093 -0.6318 -0.4730  0.4385
  752TMC3    C111161   4.615   2.914  17.161 -0.0324  0.0279 -0.2400
  752TMC3    C211162   4.662   2.827  17.254 -0.2243  0.1575 -0.3829
  752TMC3    C311163   4.661   2.858  17.389  0.2539 -0.2690  0.8302
  752TMC3    C411164   4.557   3.035  17.194  0.0044  0.3242 -0.2035
  752TMC3    C511165   4.549   3.055  17.331  0.1183 -0.0963  0.0095
  752TMC3    C611166   4.597   2.972  17.431 -0.5161  0.0908 -0.4215
  752TMC3     C11167   4.608   2.875  17.024  0.0651 -0.3361  0.8772
  752TMC3     O11168   4.671   2.775  16.981  0.3662 -0.6655  0.6285
  752TMC3     H11169   4.702   2.733  17.219  0.2124  0.0290  0.4477
  752TMC3    H111170   4.515   3.108  17.126 -2.4803  0.1374  1.1316
  752TMC3    H211171   4.593   3.007  17.533  1.2254  0.1121 -0.3488
  752TMC3    C711172   4.560   3.185  17.375  0.5418 -0.5278  0.6580
  752TMC3    C811173   4.688   2.756  17.487 -0.0707  0.3169 -1.0247
  752TMC3    O111174   4.536   3.210  17.493  0.4877 -0.1990 -0.6415
  752TMC3    O211175   4.711   2.646  17.436 -0.0307  0.4037 -0.0013
  753TMC3    C111176   1.209   0.071  13.339  0.0068  0.4738 -0.2695
  753TMC3    C211177   1.333   0.060  13.391 -0.6266 -0.3326 -0.3958
  753TMC3    C311178   1.407   4.703  13.335  0.2839  0.5867  0.1185
  753TMC3    C411179   1.161   4.729  13.241 -0.1877  0.1127  0.3873
  753TMC3    C511180   1.244   4.634  13.182  0.5772 -0.1822  0.2124
  753TMC3    C611181   1.372   4.624  13.232 -0.1125 -0.7186  0.2267
  753TMC3     C11182   1.143   0.201  13.340 -0.6371 -0.4061 -0.3657
  753TMC3     O11183   1.064   0.237  13.253  0.4333  0.1773  0.3615
  753TMC3     H11184   1.374   0.120  13.472  1.8493 -0.6774 -1.3987
  753TMC3    H111185   1.060   0.005  13.206  0.1075  2.4670  0.6318
  753TMC3    H211186   1.435   4.542  13.200 -2.6387 -2.5992  0.1263
  753TMC3    C711187   1.189   4.544  13.088  0.0168  0.1526  0.0766
  753TMC3    C811188   1.553   4.689  13.369  0.1659  1.1251  0.2698
  753TMC3    O111189   1.089   4.481  13.117  0.2301 -0.0243 -0.4960
  753TMC3    O211190   1.623   4.635  13.287 -0.1474 -0.3856 -0.3469
  754MPD2     C11191   0.655   3.696  13.666  0.1865 -0.0062  0.1573
  754MPD2    C111192   0.600   3.569  13.674 -0.0950 -0.4210 -0.4809
  754MPD2    C211193   0.470   3.555  13.633 -0.0336 -0.3571  0.0245
  754MPD2    C311194   0.398   3.667  13.592  0.6478  0.1885 -0.0980
  754MPD2    C411195   0.457   3.788  13.591  0.3915 -0.3329  0.3276
  754MPD2    C511196   0.582   3.806  13.638  0.1918 -0.4937  0.0286
  754MPD2     H11197   0.426   3.458  13.612  1.2858 -0.8970 -0.2455
  754MPD2    H111198   0.409   3.884  13.578 -0.3787 -0.6043  1.2012
  754MPD2    H211199   0.761   3.710  13.681 -0.5698  3.6334  2.0989
  754MPD2    H311200   0.624   3.906  13.637 -0.6267 -0.1607 -0.3885
  754MPD2     N11201   0.258   3.662  13.570  0.4029  0.8625 -0.4972
  754MPD2    H511202   0.204   3.748  13.567 -1.3926 -0.2928 -2.0756
  754MPD2    N111203   0.685   3.461  13.707  0.1405 -0.3011  0.7114
  754MPD2    H711204   0.785   3.480  13.709 -0.0532  0.3942  3.1566
  755MPD2     C11205   4.182   4.159  13.792 -0.0921 -0.6307 -0.6387
  755MPD2    C111206   4.159   4.043  13.862  0.2033 -0.6537  0.2823
  755MPD2    C211207   4.234   3.935  13.836 -0.2727 -0.0533 -0.7859
  755MPD2    C311208   4.339   3.930  13.748  0.1823  0.7523 -0.1934
  755MPD2    C411209   4.360   4.041  13.671 -0.3780 -0.9297  0.2985
  755MPD2    C511210   4.286   4.158  13.695 -0.9583 -0.4276 -0.3820
  755MPD2     H11211   4.227   3.848  13.900  2.9265 -0.1020 -0.4751
  755MPD2    H111212   4.423   4.046  13.583 -3.2589 -3.0725 -1.8794
  755MPD2    H211213   4.129   4.251  13.816 -0.1661 -0.7683 -0.2683
  755MPD2    H311214   4.296   4.244  13.629  1.2566 -0.8564 -0.6016
  755MPD2     N11215   4.416   3.812  13.729  0.8127 -0.1456  0.6733
  755MPD2    H511216   4.395   3.726  13.780 -0.5615 -0.2417 -0.0541
  755MPD2    N111217   4.075   4.036  13.969  0.1535  0.0108  0.7988
  755MPD2    H711218   4.076   3.946  14.015 -0.6955 -1.1966 -1.5287
  756MPD2     C11219   0.611   4.335   9.985  0.2827  0.4700 -0.1244
  756MPD2    C111220   0.530   4.236  10.045 -0.3170  0.7894 -0.8679
  756MPD2    C211221   0.392   4.247  10.046 -0.0366  0.1909  0.1373
  756MPD2    C311222   0.333   4.361   9.991  0.2272  0.3105  0.4209
  756MPD2    C411223   0.412   4.458   9.934 -0.1845  0.2499 -0.7772
  756MPD2    C511224   0.549   4.441   9.930 -0.3641  0.3610 -0.1153
  756MPD2     H11225   0.328   4.164  10.073  3.8745 -2.8198  0.0375
  756MPD2    H111226   0.381   4.555   9.898  0.8901  1.1217  0.6414
  756MPD2    H211227   0.719   4.326   9.977  0.2772  0.4563 -0.1894
  756MPD2    H311228   0.608   4.517   9.879  0.4501 -0.3622 -0.2535
  756MPD2     N11229   0.195   4.375   9.991 -0.3416 -0.6767  0.0827
  756MPD2    H511230   0.137   4.298  10.023 -1.8984  1.3292  2.1351
  756MPD2    N111231   0.579   4.118  10.099  0.5589 -0.2109  0.2792
  756MPD2    H711232   0.512   4.055  10.143  0.7617 -0.3243  0.4246
  757MPD2     C11233   4.283   3.859   9.652  0.0628  0.1525 -0.0640
  757MPD2    C111234   4.405   3.850   9.717  0.2085 -0.2729  0.2370
  757MPD2    C211235   4.472   3.953   9.776  0.0943  0.5216  0.3385
  757MPD2    C311236   4.426   4.081   9.745  0.0335 -0.4519 -0.4669
  757MPD2    C411237   4.308   4.094   9.666 -0.1626  0.2806 -0.5181
  757MPD2    C511238   4.241   3.984   9.619  0.4739 -0.4056  0.3390
  757MPD2     H11239   4.566   3.940   9.829  1.5316 -0.2458 -2.4232
  757MPD2    H111240   4.272   4.192   9.638  1.8449  0.9503 -0.7035
  757MPD2    H211241   4.242   3.767   9.612  1.4774  0.8601 -3.1220
  757MPD2    H311242   4.153   3.991   9.557  1.2718  0.2793 -0.7216
  757MPD2     N11243   4.488   4.187   9.812  0.2890 -0.6530  0.7993
  757MPD2    H511244   4.565   4.154   9.870 -0.1687 -1.7816  0.7615
  757MPD2    N111245   4.455   3.717   9.738  0.4675 -0.7037  0.3396
  757MPD2    H711246   4.406   3.647   9.683 -0.7898  0.5805 -0.1714
  758MPD2     C11247   0.398   2.866  15.836 -0.2351 -0.1884 -0.2892
  758MPD2    C111248   0.460   2.763  15.897 -0.1977  0.0037 -0.1030
  758MPD2    C211249   0.389   2.680  15.985  0.2459  0.1856 -0.7720
  758MPD2    C311250   0.262   2.714  16.026  0.2444  0.0714  0.4074
  758MPD2    C411251   0.207   2.829  15.976  0.2525  0.5586 -0.4180
  758MPD2    C511252   0.276   2.904  15.878 -0.5445 -0.0364 -0.6634
  758MPD2     H11253   0.432   2.589  16.025 -1.2130 -0.6601 -1.1157
  758MPD2    H111254   0.115   2.873  16.014 -0.1210 -0.1603 -0.4954
  758MPD2    H211255   0.446   2.936  15.769  0.2573 -0.3500 -0.0979
  758MPD2    H311256   0.225   2.992  15.842 -2.2971 -0.4031  0.8977
  758MPD2     N11257   0.192   2.666  16.132  0.2897 -0.0340  0.2209
  758MPD2    H511258   0.121   2.723  16.176 -0.3042 -0.9069  0.4095
  758MPD2    N111259   0.598   2.737  15.862 -0.5083  0.0479  0.2748
  758MPD2    H711260   0.643   2.795  15.791  2.4875 -1.8574  0.6198
  759MPD2     C11261   3.864   1.885  10.450 -0.1962 -0.4077  0.3090
  759MPD2    C111262   3.968   1.790  10.446  0.0424  0.0430  0.0969
  759MPD2    C211263   4.090   1.828  10.383  0.3166  0.1388  0.0508
  759MPD2    C311264   4.099   1.950  10.321 -0.1691 -0.1947 -0.1595
  759MPD2    C411265   3.998   2.045  10.331 -0.3171  0.6536  0.2226
  759MPD2    C511266   3.877   2.011  10.393 -0.3881 -0.2408 -0.2976
  759MPD2     H11267   4.168   1.753  10.372 -0.9834 -0.5443 -4.6483
  759MPD2    H111268   3.999   2.141  10.282  0.6177  0.4652 -0.1220
  759MPD2    H211269   3.771   1.863  10.501  1.4618 -1.8133  2.7665
  759MPD2    H311270   3.798   2.085  10.400 -1.1049 -0.9957 -0.3933
  759MPD2     N11271   4.212   1.968  10.248 -0.6928 -0.7854  0.7055
  759MPD2    H511272   4.279   1.891  10.250 -0.8810 -0.9276  1.5369
  759MPD2    N111273   3.943   1.664  10.499 -0.0781  0.0740 -0.1465
  759MPD2    H711274   3.856   1.642  10.545  1.5720 -0.3390  2.8030
  760MPD2     C11275   3.464   3.724  12.360 -0.7196 -0.0421  0.3141
  760MPD2    C111276   3.604   3.739  12.354 -0.1545  0.8393 -0.0133
  760MPD2    C211277   3.678   3.633  12.300 -0.2057 -0.1206 -0.3896
  760MPD2    C311278   3.615   3.516  12.262 -0.0592  0.2159 -0.6393
  760MPD2    C411279   3.482   3.505  12.280 -0.0295 -0.2577 -0.4840
  760MPD2    C511280   3.405   3.609  12.324  0.9819  1.0007 -0.7636
  760MPD2     H11281   3.784   3.642  12.277  0.1838  1.1551  1.9817
  760MPD2    H111282   3.434   3.410  12.260  0.6241 -0.7570  0.2944
  760MPD2    H211283   3.395   3.803  12.386  0.2940  1.6172 -1.9412
  760MPD2    H311284   3.296   3.612  12.327  0.9543 -0.7058 -0.0687
  760MPD2     N11285   3.678   3.404  12.196 -0.0327 -0.6792 -0.4343
  760MPD2    H511286   3.621   3.321  12.183  0.3422 -1.0369  0.2060
  760MPD2    N111287   3.671   3.864  12.381  0.3512 -0.2745 -0.5774
  760MPD2    H711288   3.772   3.862  12.391  0.3595  0.7617 -0.4744
  761MPD2     C11289   4.675   2.688  11.463  0.4926  0.3060  0.5195
  761MPD2    C111290   4.697   2.696  11.323  0.4834 -0.0777  0.5408
  761MPD2    C211291   0.049   2.780  11.276 -0.6303  0.2278  0.3889
  761MPD2    C311292   0.138   2.834  11.364 -0.1758 -0.2368  0.0109
  761MPD2    C411293   0.119   2.828  11.500 -0.1578  0.6481  0.0863
  761MPD2    C511294   0.018   2.755  11.553 -0.1716  0.0049  0.3430
  761MPD2     H11295   0.064   2.790  11.169 -1.3906 -0.6464  0.2037
  761MPD2    H111296   0.186   2.879  11.568  0.3827  0.7289 -0.4991
  761MPD2    H211297   4.604   2.621  11.510  2.7804 -1.8973  0.7888
  761MPD2    H311298   4.739   2.757  11.659 -0.1244 -0.1276  0.3535
  761MPD2     N11299   0.248   2.908  11.321  0.3925 -0.0779  0.3083
  761MPD2    H511300   0.309   2.951  11.390 -0.3159 -0.7148  1.3367
  761MPD2    N111301   4.626   2.602  11.253 -0.0780  0.0570 -0.2177
  761MPD2    H711302   4.587   2.535  11.318  0.4206  0.6902  0.7408
  762MPD2     C11303   0.489   2.643  11.357 -0.9326 -0.2521  0.0166
  762MPD2    C111304   0.437   2.589  11.244  0.3308 -0.1660  0.1189
  762MPD2    C211305   0.504   2.618  11.122  0.1085  0.1942  0.2588
  762MPD2    C311306   0.615   2.703  11.117 -0.2135  0.5737 -0.0567
  762MPD2    C411307   0.661   2.758  11.238 -0.9249  0.0975 -0.4263
  762MPD2    C511308   0.594   2.727  11.352  0.4336 -0.2222 -0.0227
  762MPD2     H11309   0.473   2.576  11.027  0.6576  1.5126 -0.5074
  762MPD2    H111310   0.748   2.821  11.253 -0.2906 -1.1793  1.2838
  762MPD2    H211311   0.442   2.629  11.454  0.2840 -2.7723  0.2479
  762MPD2    H311312   0.638   2.763  11.445  3.8462 -1.4155 -1.1763
  762MPD2     N11313   0.669   2.730  10.988 -0.4161 -0.2082 -0.0624
  762MPD2    H511314   0.632   2.681  10.907 -1.5867  1.3481 -0.4531
  762MPD2    N111315   0.327   2.502  11.248  0.0226  0.2546 -0.3619
  762MPD2    H711316   0.291   2.476  11.340  0.1977  0.1253 -0.3288
  763MPD2     C11317   2.939   2.675  16.442 -0.5194 -0.3859 -0.2469
  763MPD2    C111318   2.801   2.656  16.430 -0.1582 -0.0389  0.2587
  763MPD2    C211319   2.718   2.710  16.522 -0.3375 -1.1612 -0.2029
  763MPD2    C311320   2.768   2.779  16.630  0.2531  0.1641  0.0298
  763MPD2    C411321   2.901   2.787  16.647  0.1484 -0.5821  0.3486
  763MPD2    C511322   2.983   2.747  16.544 -0.6843 -0.4890 -0.1423
  763MPD2     H11323   2.612   2.705  16.499 -0.9929  2.8237  2.1323
  763MPD2    H111324   2.944   2.844  16.728  0.9059 -0.6416 -0.0047
  763MPD2    H211325   3.010   2.661  16.363  0.1164  1.3261  0.0165
  763MPD2    H311326   3.089   2.759  16.565 -0.5065 -0.9446 -0.7816
  763MPD2     N11327   2.685   2.852  16.720 -0.0495  0.1544 -0.1150
  763MPD2    H511328   2.738   2.908  16.786 -0.6830  1.4159 -0.6583
  763MPD2    N111329   2.736   2.606  16.311  0.3723  0.0594 -0.1103
  763MPD2    H711330   2.637   2.623  16.298  0.3106 -0.5201 -0.4173
  764MPD2     C11331   0.974   4.442  17.362  0.0197  0.1607  0.7176
  764MPD2    C111332   0.860   4.375  17.317  0.1144 -0.1302 -0.3352
  764MPD2    C211333   0.803   4.272  17.394  0.4456 -0.1226 -0.4164
  764MPD2    C311334   0.844   4.251  17.520 -0.4384 -0.4202  0.1271
  764MPD2    C411335   0.958   4.312  17.563 -0.9042 -0.1409 -0.2365
  764MPD2    C511336   1.016   4.404  17.487  0.3505  0.7277  0.2638
  764MPD2     H11337   0.715   4.216  17.363 -1.4589  2.4258  0.3133
  764MPD2    H111338   1.008   4.283  17.655 -2.8825  0.8219  1.1516
  764MPD2    H211339   1.022   4.520  17.305  1.8691 -1.4761  0.0208
  764MPD2    H311340   1.107   4.451  17.523  0.1249 -0.1437  1.9764
  764MPD2     N11341   0.764   4.162  17.604 -0.5571 -0.2484  0.9459
  764MPD2    H511342   0.682   4.121  17.562 -0.0113 -1.3245  0.9251
  764MPD2    N111343   0.797   4.407  17.200 -0.3124  0.7305 -0.0118
  764MPD2    H711344   0.703   4.372  17.184 -0.0364 -0.5716  1.1661
  765MPD2     C11345   0.878   2.408  15.391 -0.5759 -0.0793  0.5495
  765MPD2    C111346   0.809   2.376  15.504 -0.2177  0.2285  0.6463
  765MPD2    C211347   0.880   2.316  15.604  0.4946 -0.4021 -0.1095
  765MPD2    C311348   1.008   2.280  15.597 -0.0675 -0.1318 -0.8341
  765MPD2    C411349   1.074   2.305  15.480 -0.4836  0.6426  0.9352
  765MPD2    C511350   1.009   2.377  15.381  0.7220  0.3639 -0.0033
  765MPD2     H11351   0.826   2.291  15.695  1.2626  0.4665  0.5828
  765MPD2    H111352   1.180   2.285  15.474 -0.5398  0.5130  0.3865
  765MPD2    H211353   0.840   2.474  15.313 -0.6835  0.0360  0.7006
  765MPD2    H311354   1.067   2.403  15.293  1.6171 -2.3359 -0.2079
  765MPD2     N11355   1.062   2.227  15.720  0.1509 -0.0537 -0.1483
  765MPD2    H511356   0.997   2.209  15.796  2.3282 -1.7492  1.2915
  765MPD2    N111357   0.673   2.415  15.512 -0.4181 -0.3177  0.9477
  765MPD2    H711358   0.625   2.456  15.433 -1.8677 -1.0246  1.4702
  766MPD2     C11359   4.619   2.299  15.391 -0.5875 -0.6336 -0.4160
  766MPD2    C111360   4.740   2.351  15.335 -0.4149 -0.4027  0.5350
  766MPD2    C211361   4.739   2.384  15.194  0.3617 -0.9337  0.1452
  766MPD2    C311362   4.619   2.369  15.121  1.1558 -0.0073 -0.7996
  766MPD2    C411363   4.508   2.312  15.185  0.0543 -0.1886 -0.0279
  766MPD2    C511364   4.508   2.279  15.319  1.2828  0.7075  0.7282
  766MPD2     H11365   0.077   2.451  15.159 -0.1641  0.2818  1.3199
  766MPD2    H111366   4.421   2.301  15.121  0.4935  3.9413 -1.3317
  766MPD2    H211367   4.615   2.278  15.497 -1.3108 -2.4473 -0.8145
  766MPD2    H311368   4.420   2.233  15.363  0.6661  1.5486  0.3723
  766MPD2     N11369   4.605   2.427  14.992 -0.7512  0.5556 -0.0772
  766MPD2    H511370   4.513   2.439  14.952 -0.8681 -1.3895 -0.3606
  766MPD2    N111371   0.107   2.399  15.414 -0.0551 -0.0401  0.1797
  766MPD2    H711372   0.187   2.438  15.364  0.7635  1.2153  2.4525
  767MPD2     C11373   3.909   2.883  15.137 -0.4373  0.4857 -0.3935
  767MPD2    C111374   4.038   2.889  15.089 -0.3029 -0.2992  0.0697
  767MPD2    C211375   4.069   2.841  14.963 -0.1049 -0.3726  0.3569
  767MPD2    C311376   3.966   2.802  14.877  0.6546  0.0083  0.0785
  767MPD2    C411377   3.835   2.818  14.920 -0.0658  0.2151 -0.4027
  767MPD2    C511378   3.808   2.852  15.050 -0.3208  0.2873  0.5794
  767MPD2     H11379   4.173   2.835  14.931 -0.0625 -0.7697  0.5653
  767MPD2    H111380   3.755   2.802  14.849  0.0303 -0.4947 -0.3556
  767MPD2    H211381   3.888   2.896  15.242  2.2592  1.8696 -0.0378
  767MPD2    H311382   3.705   2.851  15.085 -0.4423 -0.1428  0.2152
  767MPD2     N11383   4.004   2.744  14.749 -0.2953  0.3307 -0.5612
  767MPD2    H511384   4.102   2.744  14.723 -0.4902 -1.1165 -1.2863
  767MPD2    N111385   4.137   2.923  15.184  0.1267  0.1012 -0.0375
  767MPD2    H711386   4.100   2.975  15.263 -3.3976  1.3347 -2.4857
  768MPD2     C11387   0.394   1.436  10.634 -0.2246 -0.1060  0.1400
  768MPD2    C111388   0.319   1.360  10.716 -0.2107 -0.0678  0.0938
  768MPD2    C211389   0.367   1.311  10.837  0.2738  0.6548  0.5656
  768MPD2    C311390   0.501   1.348  10.869 -0.1680 -0.0494  0.1980
  768MPD2    C411391   0.571   1.425  10.787 -0.1759  0.6981  0.9591
  768MPD2    C511392   0.519   1.468  10.670  0.0503 -0.5011  0.3549
  768MPD2     H11393   0.310   1.246  10.903  0.0903 -0.1300 -0.3763
  768MPD2    H111394   0.671   1.451  10.820  0.7775 -0.8563 -0.7319
  768MPD2    H211395   0.359   1.470  10.538  1.2268  0.0167 -0.3496
  768MPD2    H311396   0.571   1.530  10.598 -2.3752  0.6014 -0.4454
  768MPD2     N11397   0.568   1.295  10.988  0.2848 -0.7504 -0.0575
  768MPD2    H511398   0.647   1.346  11.026 -0.0866 -0.5709  0.4765
  768MPD2    N111399   0.176   1.333  10.696  0.1181  0.5367 -0.1468
  768MPD2    H711400   0.134   1.270  10.763  3.0449  0.6338  1.7850
  769MPD2     C11401   1.115   4.552  14.428  0.0188 -0.7058  0.6112
  769MPD2    C111402   1.122   4.432  14.494  0.1865 -0.2994 -0.4406
  769MPD2    C211403   1.173   4.431  14.622  0.0993 -0.2696  0.7459
  769MPD2    C311404   1.220   4.539  14.682  0.4340 -0.3303  0.1704
  769MPD2    C411405   1.216   4.658  14.620 -0.5204  0.2828  0.4687
  769MPD2    C511406   1.161   4.664  14.495  0.1436 -0.3609  0.4718
  769MPD2     H11407   1.177   4.345  14.688  0.4770 -1.2442 -0.5631
  769MPD2    H111408   1.242   0.011  14.670  0.1372  0.1973  0.2864
  769MPD2    H211409   1.080   4.558  14.326 -3.2359  0.6059  1.7901
  769MPD2    H311410   1.152   0.023  14.453 -2.7560 -0.8765 -0.1654
  769MPD2     N11411   1.260   4.526  14.811 -0.1513 -0.2290  0.2965
  769MPD2    H511412   1.261   4.430  14.844  0.0296 -0.1677  0.4712
  769MPD2    N111413   1.065   4.318  14.432  0.2163 -0.6284  0.9358
  769MPD2    H711414   1.018   4.334  14.343 -0.6583  0.5421  1.6150
  770MPD2     C11415   1.075   3.242  14.300 -0.7634  0.1757  0.1838
  770MPD2    C111416   0.966   3.263  14.389  0.1533  0.3672 -0.2596
  770MPD2    C211417   0.918   3.395  14.399  0.2223 -0.2693 -0.2180
  770MPD2    C311418   0.989   3.495  14.331  0.0615 -0.5699 -0.7569
  770MPD2    C411419   1.095   3.467  14.248 -0.0539  0.3138 -0.2845
  770MPD2    C511420   1.131   3.339  14.229 -0.1333  0.2095  0.1763
  770MPD2     H11421   0.840   3.419  14.471  1.0233  0.4322  0.4191
  770MPD2    H111422   1.149   3.544  14.194 -0.1624 -1.1978 -2.5956
  770MPD2    H211423   1.104   3.137  14.293  0.5423  0.4276  1.8167
  770MPD2    H311424   1.211   3.313  14.160 -1.3251  0.2708 -1.2155
  770MPD2     N11425   0.950   3.630  14.364 -0.3137 -0.3724  0.0584
  770MPD2    H511426   0.857   3.657  14.397  0.0926 -0.1182  0.9922
  770MPD2    N111427   0.925   3.157  14.479  0.1260 -0.0915 -0.0855
  770MPD2    H711428   0.973   3.069  14.475 -1.0313 -0.7255 -0.0653
  771MPD2     C11429   2.400   1.956  13.506 -0.2274  0.0698  0.7374
  771MPD2    C111430   2.287   2.014  13.454 -0.3299  0.6071 -0.2194
  771MPD2    C211431   2.177   1.932  13.435 -0.6294  0.5789 -0.2557
  771MPD2    C311432   2.191   1.795  13.447 -0.5497 -0.5449 -0.4106
  771MPD2    C411433   2.315   1.741  13.476 -0.3016 -0.2405 -0.7882
  771MPD2    C511434   2.416   1.824  13.507 -0.0233 -0.3544  0.7474
  771MPD2     H11435   2.081   1.971  13.404  0.5775  1.6654 -2.6185
  771MPD2    H111436   2.348   1.638  13.479 -0.6268 -0.3533 -1.0347
  771MPD2    H211437   2.487   2.019  13.524 -0.5203 -0.2071  3.0981
  771MPD2    H311438   2.511   1.781  13.536  0.0222 -0.9594 -0.2890
  771MPD2     N11439   2.078   1.715  13.430  0.0744  0.5388  0.2264
  771MPD2    H511440   1.988   1.763  13.426 -0.2839 -0.0693  1.0531
  771MPD2    N111441   2.275   2.150  13.441 -0.2362 -0.1970 -0.3867
  771MPD2    H711442   2.182   2.185  13.421 -1.4069 -1.2602  3.0860
  772MPD2     C11443   1.816   2.712  13.533  0.0959 -0.2449  1.0609
  772MPD2    C111444   1.870   2.590  13.575  0.8319 -0.2256  0.0836
  772MPD2    C211445   1.778   2.504  13.641 -0.3095 -0.2615 -0.2215
  772MPD2    C311446   1.645   2.534  13.646 -0.2562 -0.3636  0.7941
  772MPD2    C411447   1.598   2.659  13.608 -0.2567  0.4592 -0.1507
  772MPD2    C511448   1.687   2.750  13.556  0.1335 -0.0570  0.8963
  772MPD2     H11449   1.814   2.411  13.684 -0.2829 -0.6106 -0.9815
  772MPD2    H111450   1.495   2.694  13.607 -0.6064 -0.5335  0.7076
  772MPD2    H211451   1.884   2.783  13.488  0.3165  0.0304  1.8144
  772MPD2    H311452   1.646   2.848  13.535 -0.8910 -0.3880  1.3454
  772MPD2     N11453   1.550   2.457  13.713 -0.3180 -0.4557  0.7620
  772MPD2    H511454   1.463   2.505  13.732 -0.0122  0.3761  0.0709
  772MPD2    N111455   2.004   2.540  13.556 -0.3747 -0.5226 -0.3489
  772MPD2    H711456   2.010   2.441  13.574 -3.8687 -0.6413  0.2451
  773MPD2     C11457   1.623   2.564  17.740 -0.6582 -0.2983  0.1838
  773MPD2    C111458   1.497   2.516  17.702 -0.1749  0.7691  0.3013
  773MPD2    C211459   1.465   2.387  17.748  0.5806  0.5002 -0.3005
  773MPD2    C311460   1.555   2.306   0.057  0.0884  0.1239 -0.6235
  773MPD2    C411461   1.677   2.367   0.089  0.0924  0.1587 -0.0823
  773MPD2    C511462   1.705   2.498   0.061  0.0272  1.7276 -0.5238
  773MPD2     H11463   1.365   2.349  17.733  0.7799 -0.3838  0.5706
  773MPD2    H111464   1.745   2.318   0.158 -0.4060 -0.6337 -0.1571
  773MPD2    H211465   1.659   2.662  17.710 -0.2722 -0.2744  0.7189
  773MPD2    H311466   1.803   2.533   0.092  0.4022  0.8861 -0.7668
  773MPD2     N11467   1.515   2.174   0.080  0.3030  0.4133 -0.7094
  773MPD2    H511468   1.421   2.150   0.050 -0.3190 -0.3716  1.9142
  773MPD2    N111469   1.411   2.593  17.623  0.1398  0.3239 -0.2690
  773MPD2    H711470   1.324   2.547  17.599  0.4367  0.9787 -2.6095
  774MPD2     C11471   0.174   2.505  13.636 -0.2550  0.3487 -0.2070
  774MPD2    C111472   0.200   2.515  13.777  0.8661  0.0563  0.1456
  774MPD2    C211473   0.240   2.637  13.821 -0.0863  0.1802 -0.3883
  774MPD2    C311474   0.243   2.747  13.735 -1.2027 -0.3417 -0.2890
  774MPD2    C411475   0.227   2.727  13.602 -0.6484 -0.8530  0.0092
  774MPD2    C511476   0.177   2.611  13.558 -0.1828  0.0630 -0.0672
  774MPD2     H11477   0.258   2.647  13.927 -0.7031 -2.3755 -0.0568
  774MPD2    H111478   0.239   2.800  13.522 -1.5738 -1.1381 -0.3894
  774MPD2    H211479   0.139   2.413  13.592  1.5860 -1.4313  2.0709
  774MPD2    H311480   0.150   2.596  13.455 -1.7727  2.6817 -0.0322
  774MPD2     N11481   0.295   2.873  13.787  0.3105 -0.2065  0.1275
  774MPD2    H511482   0.300   2.877  13.888 -0.2463  1.6847  0.0895
  774MPD2    N111483   0.207   2.393  13.846 -0.4153 -0.0940 -0.2363
  774MPD2    H711484   0.199   2.310  13.788  1.5407 -0.4940  0.0613
  775MPD2     C11485   1.278   3.745  15.200 -0.2850  0.2802  0.1475
  775MPD2    C111486   1.319   3.850  15.282 -0.8107 -0.1676 -0.3633
  775MPD2    C211487   1.401   3.951  15.232  0.4854 -0.5370  0.4150
  775MPD2    C311488   1.430   3.956  15.098 -1.0618  0.3860  0.1526
  775MPD2    C411489   1.383   3.857  15.010 -0.2802  0.4323  0.1094
  775MPD2    C511490   1.305   3.758  15.063 -0.5611  0.2744  0.2002
  775MPD2     H11491   1.429   4.038  15.291 -0.0206 -0.1060  0.0240
  775MPD2    H111492   1.410   3.842  14.906  0.7655  0.5225  0.3580
  775MPD2    H211493   1.222   3.660  15.238  2.8018 -0.6018  2.7134
  775MPD2    H311494   1.274   3.680  14.994  0.0046  0.5588 -0.3740
  775MPD2     N11495   1.502   4.058  15.043  0.0004  0.1848 -0.0880
  775MPD2    H511496   1.526   4.051  14.945  0.0489 -0.8924  0.0001
  775MPD2    N111497   1.291   3.835  15.424 -0.1730 -0.3298 -0.5492
  775MPD2    H711498   1.249   3.746  15.451 -0.1711 -0.0642  0.3361
  776MPD2     C11499   0.158   4.333  11.727  0.4425  0.2567 -0.2860
  776MPD2    C111500   0.286   4.289  11.703  0.3279  0.5798  0.0240
  776MPD2    C211501   0.346   4.315  11.582  0.4307  0.2819 -0.4352
  776MPD2    C311502   0.279   4.392  11.491 -0.1955 -0.2232 -0.5032
  776MPD2    C411503   0.156   4.447  11.511  0.3889 -0.6163 -0.2938
  776MPD2    C511504   0.094   4.411  11.624 -0.2574  0.1157 -0.2779
  776MPD2     H11505   0.436   4.261  11.553 -0.0345 -0.9703  0.4373
  776MPD2    H111506   0.106   4.514  11.442 -1.1753 -3.7725 -2.2093
  776MPD2    H211507   0.099   4.312  11.815  0.2165 -1.5927 -0.8659
  776MPD2    H311508   4.730   4.435  11.639  0.2074 -0.2528  3.5406
  776MPD2     N11509   0.342   4.425  11.370 -0.1886  0.7098 -0.2885
  776MPD2    H511510   0.285   4.432  11.286 -4.1214 -1.9469  2.1563
  776MPD2    N111511   0.346   4.190  11.780 -0.0623 -0.5444  0.1866
  776MPD2    H711512   0.286   4.151  11.852  2.3666 -1.0963  1.9148
  777MPD2     C11513   1.602   0.969   0.639  0.8121  0.2165 -0.0472
  777MPD2    C111514   1.501   1.011   0.718 -0.1974  0.5679 -0.1566
  777MPD2    C211515   1.372   0.993   0.679 -0.6530  0.0132 -0.3775
  777MPD2    C311516   1.346   0.919   0.568 -0.5198 -0.7474 -0.4398
  777MPD2    C411517   1.448   0.862   0.491 -0.2676 -0.1340  0.3615
  777MPD2    C511518   1.574   0.893   0.526 -0.5013  0.0381  0.0478
  777MPD2     H11519   1.291   1.029   0.741  0.8327  1.4398  0.7495
  777MPD2    H111520   1.437   0.788   0.412 -0.4694  0.6038 -0.2971
  777MPD2    H211521   1.707   0.985   0.662  0.2656 -0.0862  2.6800
  777MPD2    H311522   1.653   0.866   0.457  1.4003  2.8838  1.1058
  777MPD2     N11523   1.215   0.903   0.539 -0.1986  0.5210  0.0275
  777MPD2    H511524   1.150   0.951   0.601 -0.9972 -0.5508  0.0147
  777MPD2    N111525   1.544   1.083   0.836 -0.0095 -0.2229  0.2857
  777MPD2    H711526   1.644   1.094   0.850  0.2065 -1.6119 -0.1195
  778MPD2     C11527   2.165   2.172  14.652  0.4073  0.0920  0.1964
  778MPD2    C111528   2.222   2.054  14.613  0.0232 -0.4332 -0.5084
  778MPD2    C211529   2.307   2.050  14.506  0.2435  1.0634 -0.0256
  778MPD2    C311530   2.362   2.166  14.460  0.5069 -0.2643 -0.3368
  778MPD2    C411531   2.324   2.287  14.513 -0.4429 -0.6619 -0.3134
  778MPD2    C511532   2.215   2.289  14.598 -0.2879  0.3596 -1.1060
  778MPD2     H11533   2.335   1.953  14.465  1.1068  1.0532  0.5756
  778MPD2    H111534   2.364   2.382  14.480  1.4492 -0.2586  3.1089
  778MPD2    H211535   2.090   2.182  14.730 -1.9704 -5.2373 -1.3885
  778MPD2    H311536   2.187   2.383  14.644  0.2067 -0.7034  1.3595
  778MPD2     N11537   2.456   2.151  14.354 -0.3804 -0.5553 -0.6647
  778MPD2    H511538   2.503   2.062  14.342 -1.2280 -0.8564 -1.8069
  778MPD2    N111539   2.178   1.929  14.666  0.0506 -0.1396 -0.0335
  778MPD2    H711540   2.220   1.847  14.624  2.1550  0.8972  0.0385
  779MPD2     C11541   1.649   0.814  14.161  0.4511  0.9811  0.4090
  779MPD2    C111542   1.777   0.777  14.172  0.1148 -0.6132 -0.0889
  779MPD2    C211543   1.871   0.871  14.143  0.2087 -0.7495  0.0388
  779MPD2    C311544   1.831   0.997  14.090  0.1828 -0.0664  0.1695
  779MPD2    C411545   1.705   1.031  14.080 -0.0135  0.6758  0.2085
  779MPD2    C511546   1.609   0.942  14.118  0.7126  0.1500  0.4698
  779MPD2     H11547   1.973   0.842  14.163  1.3956  0.9338 -3.6558
  779MPD2    H111548   1.674   1.125  14.035 -0.2221  1.2191  1.4912
  779MPD2    H211549   1.562   0.753  14.182  0.8486  0.3658  0.2537
  779MPD2    H311550   1.503   0.963  14.114  0.3915 -1.2351  1.3408
  779MPD2     N11551   1.932   1.086  14.047  0.2551  0.3532 -0.3672
  779MPD2    H511552   2.024   1.055  14.076  0.1367  1.3087  0.9876
  779MPD2    N111553   1.822   0.645  14.184  0.4858  0.6779 -0.0834
  779MPD2    H711554   1.923   0.632  14.184  0.2769 -0.8879 -1.8102
  780MPD2     C11555   1.542   0.112   1.018  0.9188  0.3172 -0.1137
  780MPD2    C111556   1.428   0.085   0.949 -0.3760  0.2578 -0.4896
  780MPD2    C211557   1.416   0.121   0.814  0.1616 -0.0466 -0.0698
  780MPD2    C311558   1.511   0.207   0.749 -1.2161  0.7139  0.5349
  780MPD2    C411559   1.617   0.247   0.830 -0.3450  0.1213  0.3034
  780MPD2    C511560   1.636   0.186   0.950  1.3889 -0.4718 -0.1396
  780MPD2     H11561   1.327   0.095   0.758  0.2120 -1.6206  0.5772
  780MPD2    H111562   1.707   0.291   0.789 -0.4637 -0.6600 -0.7717
  780MPD2    H211563   1.558   0.082   1.121 -1.1757 -0.2016  0.0515
  780MPD2    H311564   1.732   0.207   0.996  1.2521 -0.3497  0.0851
  780MPD2     N11565   1.497   0.241   0.617  0.9675  0.2260 -0.3842
  780MPD2    H511566   1.415   0.209   0.566 -0.9246  2.0999  1.4893
  780MPD2    N111567   1.327   0.009   1.016  1.4292 -0.0429 -0.1308
  780MPD2    H711568   1.349   4.720   1.111 -1.7989  1.5734  1.1488
  781MPD2     C11569   3.197   2.279  11.826  0.4686  0.4312  0.2014
  781MPD2    C111570   3.194   2.401  11.881 -0.4766  0.0701 -0.0151
  781MPD2    C211571   3.251   2.507  11.812  0.8630 -0.3620 -0.0337
  781MPD2    C311572   3.303   2.497  11.683  0.1421 -0.0539 -0.4176
  781MPD2    C411573   3.305   2.368  11.632  0.2543  0.6598 -0.0529
  781MPD2    C511574   3.246   2.267  11.697  0.7533  0.6118  0.5365
  781MPD2     H11575   3.243   2.602  11.863  1.3707 -0.3906  0.0993
  781MPD2    H111576   3.351   2.342  11.537 -1.8701  0.4071 -1.0065
  781MPD2    H211577   3.150   2.192  11.869 -0.6741  0.4902 -0.9396
  781MPD2    H311578   3.234   2.171  11.649 -0.9331  0.7076  0.7541
  781MPD2     N11579   3.361   2.606  11.602 -0.1983  0.4198 -0.3421
  781MPD2    H511580   3.381   2.588  11.505  0.4477 -3.1489  0.4596
  781MPD2    N111581   3.139   2.424  12.011  0.2011 -0.5380 -0.5711
  781MPD2    H711582   3.155   2.513  12.058  0.4004 -0.2532 -1.1712
  782MPD2     C11583   0.693   3.402  10.465  0.1063 -0.0018  0.8966
  782MPD2    C111584   0.817   3.446  10.430  0.0937 -0.4651  0.0007
  782MPD2    C211585   0.903   3.481  10.533  0.2976 -0.6061  0.3247
  782MPD2    C311586   0.852   3.485  10.663  0.1138  0.3572 -0.3610
  782MPD2    C411587   0.724   3.449  10.692 -0.1671  0.0297  0.1938
  782MPD2    C511588   0.645   3.401  10.592  0.7914 -1.3670 -0.2858
  782MPD2     H11589   1.005   3.506  10.506  0.2759 -0.9133 -0.0450
  782MPD2    H111590   0.680   3.446  10.791  1.1517 -0.1532  0.7641
  782MPD2    H211591   0.622   3.365  10.391 -0.0083  0.6444  0.6867
  782MPD2    H311592   0.546   3.368  10.623  0.3117 -0.4887 -0.8761
  782MPD2     N11593   0.945   3.514  10.762  0.6104 -0.7896 -0.3954
  782MPD2    H511594   1.030   3.551  10.719  1.4360 -2.0698  0.1317
  782MPD2    N111595   0.850   3.451  10.291  0.4273  0.1991 -0.4591
  782MPD2    H711596   0.797   3.392  10.228 -0.4150  0.5394 -0.0755
  783MPD2     C11597   0.493   2.915  10.567 -0.3349 -0.5123  0.4695
  783MPD2    C111598   0.571   2.995  10.651 -0.1029  0.9277 -0.0033
  783MPD2    C211599   0.689   3.033  10.602  0.4832  0.2791 -0.1299
  783MPD2    C311600   0.734   3.009  10.471 -0.1596 -0.6192 -0.6456
  783MPD2    C411601   0.656   2.921  10.401 -0.6052 -0.5643 -0.1564
  783MPD2    C511602   0.539   2.874  10.446  0.2502  0.0058 -0.4140
  783MPD2     H11603   0.758   3.080  10.671  2.6974 -0.8651 -1.5346
  783MPD2    H111604   0.689   2.892  10.301 -0.1520  0.0424 -0.1871
  783MPD2    H211605   0.390   2.891  10.589 -0.4925 -0.4086 -0.1489
  783MPD2    H311606   0.477   2.816  10.379 -0.1727 -0.8745  0.7507
  783MPD2     N11607   0.858   3.067  10.430 -0.3297  0.5106 -0.0024
  783MPD2    H511608   0.906   3.119  10.502  0.6971 -0.3446 -0.0738
  783MPD2    N111609   0.521   3.028  10.784 -0.7528 -0.7769 -0.2660
  783MPD2    H711610   0.426   3.001  10.808 -0.9654  0.8144  0.6739
  784MPD2     C11611   4.257   2.842   0.662 -0.3760  0.1621  0.2974
  784MPD2    C111612   4.283   2.970   0.709  0.6024 -0.6710  0.3894
  784MPD2    C211613   4.191   3.067   0.694  0.3164 -0.5777  0.0579
  784MPD2    C311614   4.067   3.038   0.642 -0.2202 -0.3869 -0.4014
  784MPD2    C411615   4.038   2.912   0.606  0.0761 -0.1443  0.4042
  784MPD2    C511616   4.132   2.814   0.621 -0.1066 -0.5231 -0.0536
  784MPD2     H11617   4.212   3.172   0.715  3.1974 -1.0443 -0.4791
  784MPD2    H111618   3.942   2.880   0.567  1.7332 -1.2539 -2.7856
  784MPD2    H211619   4.333   2.765   0.679 -0.2630 -0.0212 -1.0500
  784MPD2    H311620   4.110   2.710   0.598  0.2052 -0.9731  1.6618
  784MPD2     N11621   3.972   3.141   0.614 -0.3082 -0.6316  0.0490
  784MPD2    H511622   3.997   3.235   0.642  0.9400 -0.5696 -1.2561
  784MPD2    N111623   4.407   3.007   0.765 -0.4328  0.0405  0.1491
  784MPD2    H711624   4.424   3.100   0.800  1.3462 -0.0375 -0.4968
  785MPD2     C11625   3.891   1.825  10.905  0.1663 -0.0010 -0.4332
  785MPD2    C111626   3.794   1.920  10.902  0.4456  0.0812  0.1600
  785MPD2    C211627   3.674   1.895  10.836 -0.7191 -0.5292 -0.1739
  785MPD2    C311628   3.652   1.777  10.770  0.3744  0.2723 -0.2030
  785MPD2    C411629   3.750   1.681  10.781 -0.1311  0.2745  0.3373
  785MPD2    C511630   3.870   1.706  10.839 -0.5764  0.0875  0.6134
  785MPD2     H11631   3.595   1.969  10.838  0.1235  0.2921  1.5071
  785MPD2    H111632   3.745   1.589  10.725  2.5042 -0.4139  1.2259
  785MPD2    H211633   3.984   1.840  10.960  0.6386  1.9133 -1.7816
  785MPD2    H311634   3.940   1.625  10.857 -4.1432 -3.1308 -0.0132
  785MPD2     N11635   3.531   1.764  10.702  0.3974 -0.3524  0.5391
  785MPD2    H511636   3.469   1.844  10.698  1.5124  0.4684 -0.4348
  785MPD2    N111637   3.800   2.055  10.942 -0.0258 -0.3352 -0.5526
  785MPD2    H711638   3.717   2.112  10.924  1.6923  2.2289 -0.3206
  786MPD2     C11639   2.238   4.155  15.025 -0.7018  0.7527  0.3360
  786MPD2    C111640   2.290   4.264  14.956  0.4469 -0.3512  0.0624
  786MPD2    C211641   2.305   4.384  15.016 -0.2043  0.0348  0.2088
  786MPD2    C311642   2.261   4.398  15.151  0.6457  0.7873  0.2491
  786MPD2    C411643   2.198   4.289  15.208  0.2751  0.5354  0.2060
  786MPD2    C511644   2.193   4.166  15.152  0.2758  0.5125 -0.6999
  786MPD2     H11645   2.343   4.473  14.965  0.4145  0.1676  0.8958
  786MPD2    H111646   2.156   4.296  15.307  0.4205  0.8542  0.2437
  786MPD2    H211647   2.198   4.069  14.972 -1.6225  2.4879 -1.7656
  786MPD2    H311648   2.144   4.082  15.200 -0.2412  0.6534 -0.9806
  786MPD2     N11649   2.276   4.513  15.232 -0.8521 -0.0451  0.7186
  786MPD2    H511650   2.239   4.522  15.326 -0.5439 -1.9938  1.0245
  786MPD2    N111651   2.317   4.233  14.819  0.3843  0.2567  0.0855
  786MPD2    H711652   2.319   4.137  14.787 -1.3707  0.3656 -0.3178
  787MPD2     C11653   2.598   3.743  14.700  0.0976  0.4765  0.3006
  787MPD2    C111654   2.591   3.792  14.572  0.5355 -0.1259 -0.1568
  787MPD2    C211655   2.702   3.758  14.492 -0.6547 -1.0834  0.3437
  787MPD2    C311656   2.799   3.664  14.532 -0.0096 -0.0908 -0.8385
  787MPD2    C411657   2.798   3.617  14.662 -0.2481 -0.2163 -0.5266
  787MPD2    C511658   2.693   3.649  14.742 -0.0208  0.0043  0.3227
  787MPD2     H11659   2.712   3.802  14.393  1.5057  0.0141  1.0533
  787MPD2    H111660   2.873   3.552  14.705 -1.1327 -1.4642 -0.8464
  787MPD2    H211661   2.521   3.762  14.774 -0.5762 -1.4568  0.0961
  787MPD2    H311662   2.696   3.616  14.845  1.0151  0.5004  0.4480
  787MPD2     N11663   2.911   3.630  14.450 -0.1664 -0.3796  0.1399
  787MPD2    H511664   2.905   3.667  14.355 -1.1486 -0.5619  0.1274
  787MPD2    N111665   2.484   3.889  14.540 -0.4748  0.3508 -0.1458
  787MPD2    H711666   2.421   3.923  14.612 -0.6685 -1.6585  0.6466
  788MPD2     C11667   0.467   2.752   1.018  0.2117  0.1126  0.0053
  788MPD2    C111668   0.485   2.694   0.896 -0.5774 -0.8496  0.3179
  788MPD2    C211669   0.496   2.767   0.784  0.3290 -0.0011  0.4494
  788MPD2    C311670   0.468   2.899   0.789  0.1632  0.4104  0.1429
  788MPD2    C411671   0.434   2.949   0.909  0.2099 -0.1295  0.4580
  788MPD2    C511672   0.450   2.884   1.024 -0.1687 -0.1639  0.4106
  788MPD2     H11673   0.542   2.722   0.697 -0.1880  1.5499 -0.6228
  788MPD2    H111674   0.408   3.054   0.924 -1.7417 -0.7430  1.4074
  788MPD2    H211675   0.466   2.703   1.114 -2.1539 -3.1293 -1.6929
  788MPD2    H311676   0.430   2.932   1.119 -0.4635  0.4089  0.0615
  788MPD2     N11677   0.450   2.976   0.673 -0.2958 -0.6710  0.3394
  788MPD2    H511678   0.421   3.073   0.681 -0.2518 -0.5554 -0.7846
  788MPD2    N111679   0.506   2.553   0.878  0.2655  0.6379  0.3740
  788MPD2    H711680   0.512   2.521   0.782 -2.6318 -0.4560  0.5783
  789MPD2     C11681   0.159   2.170  16.587 -0.0769 -0.6215 -0.1875
  789MPD2    C111682   0.078   2.246  16.509 -0.3732 -0.6651 -0.2613
  789MPD2    C211683   4.716   2.316  16.562 -0.6014 -0.2331  0.1276
  789MPD2    C311684   4.707   2.334  16.698 -0.1320  0.7190 -0.3768
  789MPD2    C411685   0.066   2.278  16.773 -0.6701 -0.1244  0.6162
  789MPD2    C511686   0.147   2.179  16.720 -0.0097 -0.1235  0.0580
  789MPD2     H11687   4.657   2.375  16.494  1.8836  2.3032  0.1783
  789MPD2    H111688   0.078   2.303  16.878 -0.4922 -0.9489  0.7905
  789MPD2    H211689   0.236   2.107  16.543 -1.7933 -2.7743 -0.1250
  789MPD2    H311690   0.215   2.118  16.777  1.5534  1.7980  0.2387
  789MPD2     N11691   4.618   2.425  16.760 -0.0627  0.4804 -0.1778
  789MPD2    H511692   4.647   2.453  16.853  0.3644  0.2781 -0.2507
  789MPD2    N111693   0.070   2.228  16.367  0.3939  0.0335  0.0860
  789MPD2    H711694   4.738   2.271  16.311 -0.8800 -1.1013  0.8616
  790MPD2     C11695   0.912   4.543  12.854 -0.2899 -0.2968 -0.1786
  790MPD2    C111696   0.797   4.520  12.925  0.8804  0.7065  0.2042
  790MPD2    C211697   0.680   4.527  12.853  0.3425  0.0702  0.2205
  790MPD2    C311698   0.686   4.567  12.722 -0.2487  0.0426 -0.1193
  790MPD2    C411699   0.807   4.597  12.660 -0.5897  0.1496  0.0348
  790MPD2    C511700   0.924   4.584  12.727  0.5725 -0.5682  0.3213
  790MPD2     H11701   0.586   4.497  12.899  0.5749  0.3239  0.8565
  790MPD2    H111702   0.821   4.617  12.555 -0.8830 -1.1790 -0.2627
  790MPD2    H211703   1.007   4.533  12.906  0.4542  0.2573 -1.4429
  790MPD2    H311704   1.020   4.609  12.685 -1.2300  1.6034 -2.5138
  790MPD2     N11705   0.568   4.583  12.652  0.4765  0.2204  0.0623
  790MPD2    H511706   0.486   4.543  12.698 -0.1247  1.6835  0.2496
  790MPD2    N111707   0.806   4.487  13.065 -0.2936 -0.0627  0.1576
  790MPD2    H711708   0.900   4.481  13.103 -0.1818 -0.1298 -0.1277
  791MPD2     C11709   4.470   4.496  12.527  0.0803 -0.1348  0.6341
  791MPD2    C111710   4.592   4.458  12.592 -0.0156  0.2353 -0.1342
  791MPD2    C211711   4.590   4.371  12.701 -0.1115  0.4583  0.1655
  791MPD2    C311712   4.466   4.330  12.746  0.0149 -0.5596  0.1124
  791MPD2    C411713   4.354   4.367  12.680  0.2496  0.2945 -0.2765
  791MPD2    C511714   4.353   4.447  12.571 -0.1812  0.2844 -0.2892
  791MPD2     H11715   4.683   4.337  12.746  0.8989  0.2612 -2.0355
  791MPD2    H111716   4.255   4.326  12.696  0.3109  0.3489  0.2384
  791MPD2    H211717   4.466   4.559  12.439 -0.5969 -1.1831 -0.0876
  791MPD2    H311718   4.259   4.461  12.519  0.2199  1.6930 -0.6314
  791MPD2     N11719   4.464   4.241  12.859 -0.4559 -0.3769  0.4647
  791MPD2    H511720   4.555   4.212  12.894  0.5536  2.7106  0.4087
  791MPD2    N111721   4.706   4.522  12.540  0.0559  0.9355 -0.2428
  791MPD2    H711722   4.695   4.593  12.469  1.6846  0.8185 -0.6034
  792MPD2     C11723   1.062   4.241  11.443  0.4986 -0.6711  0.2915
  792MPD2    C111724   1.031   4.215  11.312 -0.4434 -0.1117  0.2458
  792MPD2    C211725   0.907   4.163  11.281  0.6712  0.0281  0.5596
  792MPD2    C311726   0.822   4.120  11.379 -0.3542  0.0101  0.5501
  792MPD2    C411727   0.865   4.119  11.508  0.4490 -0.4632  0.1172
  792MPD2    C511728   0.982   4.189  11.543 -0.7805 -0.1660  0.0169
  792MPD2     H11729   0.893   4.144  11.176 -1.5560 -1.3444  1.1101
  792MPD2    H111730   0.807   4.081  11.592  1.3657 -1.3588  0.3510
  792MPD2    H211731   1.153   4.292  11.472  0.3433  0.7790 -1.8261
  792MPD2    H311732   1.009   4.199  11.647  0.0635  0.2082 -0.2411
  792MPD2     N11733   0.698   4.063  11.354 -0.2712  0.1816  0.1697
  792MPD2    H511734   0.642   4.050  11.437 -2.5743 -1.7076 -1.6737
  792MPD2    N111735   1.118   4.263  11.218 -0.5211 -0.2351  0.4406
  792MPD2    H711736   1.199   4.308  11.259 -0.9262  1.0916 -0.2024
  793MPD2     C11737   0.322   3.666  10.548 -1.4986  0.3769  0.0765
  793MPD2    C111738   0.418   3.767  10.563 -0.1857 -0.1792 -0.1693
  793MPD2    C211739   0.420   3.841  10.683  0.2240  0.2891  0.4178
  793MPD2    C311740   0.329   3.811  10.778 -0.0553  0.2025  0.0099
  793MPD2    C411741   0.225   3.721  10.763  0.6364  0.2300 -0.1164
  793MPD2    C511742   0.225   3.649  10.645  0.4828  0.4084  0.5061
  793MPD2     H11743   0.506   3.902  10.710 -0.1149  0.9575 -0.0067
  793MPD2    H111744   0.139   3.705  10.826 -1.0786  2.6456 -1.8582
  793MPD2    H211745   0.329   3.597  10.464 -0.0790  2.4311 -1.4911
  793MPD2    H311746   0.146   3.578  10.624  1.1134  0.1396 -0.9493
  793MPD2     N11747   0.334   3.884  10.895  0.5710 -1.0056 -0.2580
  793MPD2    H511748   0.383   3.973  10.892  1.4807 -1.5514 -1.6881
  793MPD2    N111749   0.523   3.787  10.473 -1.1932  0.3149 -0.1191
  793MPD2    H711750   0.579   3.871  10.487 -0.8617  0.4196 -2.1023
  794MPD2     C11751   0.963   3.271  17.463 -0.0190  1.2101  0.0877
  794MPD2    C111752   0.957   3.187  17.356 -1.1799  0.4647  0.4907
  794MPD2    C211753   0.860   3.206  17.267  0.2408 -0.2334  0.1974
  794MPD2    C311754   0.767   3.313  17.284 -0.6544  0.5569 -0.0750
  794MPD2    C411755   0.790   3.408  17.381 -0.4388  0.0396  0.0431
  794MPD2    C511756   0.885   3.384  17.474 -0.1644  0.2026 -0.8760
  794MPD2     H11757   0.850   3.126  17.195  1.1817 -2.2107  2.2475
  794MPD2    H111758   0.734   3.500  17.390  2.3077  1.7699 -0.7790
  794MPD2    H211759   1.045   3.258  17.532 -0.6026  1.2579  0.7929
  794MPD2    H311760   0.909   3.462  17.545 -1.2290  0.2731 -0.6094
  794MPD2     N11761   0.662   3.343  17.190  0.6221 -0.9119 -0.4573
  794MPD2    H511762   0.592   3.415  17.206  1.5702 -0.2420  0.6663
  794MPD2    N111763   1.036   3.072  17.339  0.0910 -0.1792  0.3331
  794MPD2    H711764   1.018   3.020  17.254 -0.1635 -0.6849  0.6981
  795MPD2     C11765   2.879   1.008  13.357  0.8217 -0.2069  0.2240
  795MPD2    C111766   2.810   0.909  13.425 -0.3649 -0.3771 -0.0414
  795MPD2    C211767   2.875   0.823  13.510 -0.1324  0.4177  0.1088
  795MPD2    C311768   3.015   0.844  13.536  0.5591 -1.5557 -0.4169
  795MPD2    C411769   3.078   0.940  13.470 -0.0014  0.0376  0.0470
  795MPD2    C511770   3.013   1.024  13.389 -0.3159 -0.0002  0.0026
  795MPD2     H11771   2.822   0.748  13.567 -1.6812 -0.2823 -2.2488
  795MPD2    H111772   3.183   0.962  13.487  0.2298  0.2020 -1.6557
  795MPD2    H211773   2.848   1.081  13.283 -2.9064 -2.7899 -0.7629
  795MPD2    H311774   3.071   1.096  13.332 -0.7521  0.3351 -0.0123
  795MPD2     N11775   3.078   0.757  13.632  1.0466 -0.1371  0.5208
  795MPD2    H511776   3.027   0.673  13.655  1.4690  0.1750  2.6435
  795MPD2    N111777   2.675   0.886  13.420  0.4317  0.1245 -0.1815
  795MPD2    H711778   2.632   0.825  13.489 -1.4471  1.0557 -0.5217
  796MPD2     C11779   2.987   2.425  15.525  0.4118  0.2442 -0.1165
  796MPD2    C111780   3.016   2.459  15.650 -0.5460  0.2514  0.3922
  796MPD2    C211781   2.961   2.570  15.703  0.0956  0.3620  0.9661
  796MPD2    C311782   2.873   2.657  15.634  1.1262  0.0915 -0.0299
  796MPD2    C411783   2.848   2.618  15.507 -1.1390 -0.1845  0.0499
  796MPD2    C511784   2.901   2.504  15.453 -0.5692  0.2390  0.6400
  796MPD2     H11785   2.974   2.589  15.809  2.4391  1.1616  0.5274
  796MPD2    H111786   2.778   2.680  15.450  0.2682  0.9732 -0.4134
  796MPD2    H211787   3.006   2.330  15.478 -1.2323 -0.1343 -0.0264
  796MPD2    H311788   2.877   2.460  15.357 -1.2389 -0.6786  1.2278
  796MPD2     N11789   2.838   2.775  15.699 -0.1063  0.2327  0.0404
  796MPD2    H511790   2.870   2.789  15.794  0.3496  2.7399 -0.4987
  796MPD2    N111791   3.097   2.372  15.727  0.7392  0.4124 -0.2956
  796MPD2    H711792   3.125   2.281  15.691 -0.7082 -0.0830 -0.1807
  797MPD2     C11793   3.953   1.438  16.942  0.5843 -0.5118  0.1059
  797MPD2    C111794   4.035   1.533  16.988  0.3614  0.2649  0.5044
  797MPD2    C211795   4.025   1.663  16.928 -0.8259 -0.0312  0.1514
  797MPD2    C311796   3.919   1.702  16.849  0.3647 -0.2207  0.1920
  797MPD2    C411797   3.834   1.600  16.806  0.8263 -0.4476  0.0602
  797MPD2    C511798   3.853   1.469  16.857  0.2270 -0.2956 -0.2246
  797MPD2     H11799   4.094   1.741  16.961 -1.2356 -0.0535  1.0631
  797MPD2    H111800   3.746   1.615  16.745  1.8921  1.6923 -0.9389
  797MPD2    H211801   3.962   1.333  16.967 -0.0771 -0.9270 -1.4518
  797MPD2    H311802   3.787   1.390  16.825 -0.7252  0.1679  0.5959
  797MPD2     N11803   3.888   1.836  16.829 -0.0741  0.0989 -0.0579
  797MPD2    H511804   3.821   1.852  16.755 -1.0763 -3.9017 -0.0373
  797MPD2    N111805   4.141   1.510  17.082  0.0646 -0.4690  1.0426
  797MPD2    H711806   4.213   1.582  17.084  0.1121 -0.4872 -0.2641
  798MPD2     C11807   4.269   2.216  17.264  0.9460 -0.4012  0.0338
  798MPD2    C111808   4.207   2.115  17.192 -0.3538  0.0543  0.6178
  798MPD2    C211809   4.248   1.982  17.192 -0.5649  0.3260 -0.6244
  798MPD2    C311810   4.349   1.951  17.280 -0.6094 -0.3962 -0.1553
  798MPD2    C411811   4.410   2.040  17.367 -0.5360 -0.4652  0.2277
  798MPD2    C511812   4.368   2.176  17.351 -0.5233 -0.0772 -0.8380
  798MPD2     H11813   4.204   1.904  17.131 -0.0304 -0.0933 -0.4746
  798MPD2    H111814   4.493   2.021  17.434 -0.2268  1.6736  0.4317
  798MPD2    H211815   4.239   2.320  17.259 -0.5747 -0.8636 -0.4464
  798MPD2    H311816   4.413   2.250  17.417 -0.8537 -0.4792 -0.1544
  798MPD2     N11817   4.376   1.807  17.279  1.0434 -0.1431  0.1520
  798MPD2    H511818   4.336   1.755  17.202  0.8740  0.8925 -0.4577
  798MPD2    N111819   4.094   2.149  17.118  0.1429  0.4652 -0.6308
  798MPD2    H711820   4.045   2.072  17.074 -0.1219  1.1867 -1.5929
  799MPD2     C11821   2.429   3.384  14.798  0.3727  0.5417  0.4797
  799MPD2    C111822   2.397   3.315  14.687 -0.5821 -0.4619  0.0175
  799MPD2    C211823   2.296   3.357  14.596  0.9603 -0.4947  0.7340
  799MPD2    C311824   2.251   3.492  14.608 -0.6959  0.3754 -0.6628
  799MPD2    C411825   2.301   3.568  14.712 -0.4612  0.0874 -0.3273
  799MPD2    C511826   2.382   3.514  14.810 -0.4553 -0.2530 -0.1547
  799MPD2     H11827   2.265   3.299  14.509  3.2449  2.1910 -1.8813
  799MPD2    H111828   2.269   3.671  14.720  0.5010  0.3784 -0.2388
  799MPD2    H211829   2.499   3.354  14.875 -0.1428 -1.4501  0.1717
  799MPD2    H311830   2.409   3.571  14.898  0.1560 -2.2190  0.9343
  799MPD2     N11831   2.156   3.551  14.511  0.5330  0.3073 -0.6534
  799MPD2    H511832   2.124   3.645  14.532  1.5715  0.6816 -0.7418
  799MPD2    N111833   2.463   3.189  14.660 -0.4552  0.1151  0.2587
  799MPD2    H711834   2.544   3.155  14.711 -0.4437  0.1017  0.2315
  800MPD2     C11835   2.557   4.643  13.848 -0.1146 -0.1047  0.3142
  800MPD2    C111836   2.694   4.693  13.832 -0.3962  0.4229  0.6761
  800MPD2    C211837   2.773   4.647  13.731  0.1657  0.6795 -0.0631
  800MPD2    C311838   2.728   4.557  13.635  0.2817  0.1543 -0.0740
  800MPD2    C411839   2.601   4.503  13.663  0.1056 -0.2015 -0.0055
  800MPD2    C511840   2.514   4.550  13.759  0.1699  0.1892  0.2705
  800MPD2     H11841   2.875   4.680  13.719  0.3019 -0.3840 -1.8724
  800MPD2    H111842   2.571   4.431  13.588 -2.2492  2.6362 -1.7927
  800MPD2    H211843   2.487   4.664  13.928 -1.5307  1.2387 -1.2812
  800MPD2    H311844   2.423   4.494  13.779  0.0079  0.5904  0.6485
  800MPD2     N11845   2.817   4.523  13.527  0.3136  0.2469 -0.1372
  800MPD2    H511846   2.901   4.579  13.519  0.7634 -0.4151 -0.0106
  800MPD2    N111847   2.747   0.037  13.929  0.1767  0.0135  0.0487
  800MPD2    H711848   2.684   0.085  13.993 -1.3232 -0.0277 -1.4027
  801MPD2     C11849   2.857   0.798  13.941 -0.0019 -0.6410  0.4345
  801MPD2    C111850   2.936   0.744  14.032  0.6790  0.3360  0.0783
  801MPD2    C211851   2.997   0.818  14.138 -0.2209 -0.0373  0.0537
  801MPD2    C311852   2.963   0.952  14.153 -0.3105 -0.8068 -0.2683
  801MPD2    C411853   2.878   1.013  14.056  0.1000  0.1381  0.3933
  801MPD2    C511854   2.819   0.931  13.962  0.6646  0.5657  0.3453
  801MPD2     H11855   3.049   0.774  14.223  1.5389  0.0440 -0.9889
  801MPD2    H111856   2.858   1.119  14.054 -1.0661 -0.1079 -1.7114
  801MPD2    H211857   2.816   0.744  13.857  0.9937 -1.5067  0.5094
  801MPD2    H311858   2.754   0.984  13.894  0.6463 -1.0129 -0.8841
  801MPD2     N11859   3.005   1.026  14.261  0.0343  0.1776 -0.6443
  801MPD2    H511860   2.950   1.107  14.288  0.8652  0.8520 -0.9778
  801MPD2    N111861   2.962   0.605  14.044  0.3556  0.7417 -0.1145
  801MPD2    H711862   3.046   0.577  14.094 -1.4537 -1.5977  1.5895
  802MPD2     C11863   2.879   0.779   0.320 -0.2893 -0.6758  0.3082
  802MPD2    C111864   2.769   0.701   0.290 -0.2934 -0.9870 -0.4491
  802MPD2    C211865   2.785   0.604   0.191  0.0741 -0.1519  0.1106
  802MPD2    C311866   2.903   0.596   0.116  0.3368 -0.0963  0.0782
  802MPD2    C411867   3.003   0.690   0.142  0.1130 -0.3815  0.8788
  802MPD2    C511868   2.991   0.776   0.246  0.0100  0.2455  0.3297
  802MPD2     H11869   2.703   0.536   0.171  0.3149 -1.3548  3.2246
  802MPD2    H111870   3.097   0.696   0.088 -0.1069 -2.1500  0.3183
  802MPD2    H211871   2.871   0.855   0.397 -1.5965 -2.4946  1.9668
  802MPD2    H311872   3.075   0.841   0.267 -0.1738  0.2832  0.9521
  802MPD2     N11873   2.920   0.492   0.027  0.5384  0.1189 -0.3099
  802MPD2    H511874   2.844   0.424   0.018  1.1593 -0.3479 -2.1491
  802MPD2    N111875   2.642   0.727   0.344  0.7025  0.4092  0.2090
  802MPD2    H711876   2.561   0.689   0.296  0.4198 -1.4332  2.1306
  803MPD2     C11877   3.011   3.890  13.141 -0.1917  0.7585  0.7301
  803MPD2    C111878   3.137   3.832  13.128  0.7829 -0.2309 -0.7878
  803MPD2    C211879   3.235   3.855  13.223 -0.6623  0.1741  0.5223
  803MPD2    C311880   3.201   3.925  13.340  0.4739  0.0979  0.7101
  803MPD2    C411881   3.072   3.967  13.357  0.0222  0.3742  0.0773
  803MPD2    C511882   2.981   3.956  13.257 -0.2875  0.0689 -0.3315
  803MPD2     H11883   3.333   3.809  13.211 -1.7579 -1.3252 -2.7228
  803MPD2    H111884   3.047   4.029  13.442 -0.6501 -0.6778  0.6375
  803MPD2    H211885   2.944   3.882  13.057  1.0606 -1.6988 -0.0498
  803MPD2    H311886   2.885   4.003  13.275  0.1499  0.7102  0.3250
  803MPD2     N11887   3.288   3.948  13.447  0.2785  0.6219 -0.5354
  803MPD2    H511888   3.248   4.006  13.519  1.6154  1.2049 -0.2560
  803MPD2    N111889   3.170   3.757  13.012  0.4568 -0.4314 -0.0574
  803MPD2    H711890   3.266   3.724  13.015  1.3057  1.9889 -0.8335
  804MPD2     C11891   3.208   0.338  17.125  0.0578 -1.0901 -0.1824
  804MPD2    C111892   3.268   0.313  17.242 -0.3961 -0.1905 -0.6730
  804MPD2    C211893   3.342   0.415  17.307 -0.2658  0.1676 -0.5926
  804MPD2    C311894   3.364   0.538  17.249 -0.3320  0.1111  0.9901
  804MPD2    C411895   3.311   0.567  17.125 -0.4677  0.5666  0.4974
  804MPD2    C511896   3.238   0.464  17.065  0.7276  0.1741 -0.2013
  804MPD2     H11897   3.385   0.400  17.405 -1.2337  4.2622  0.4522
  804MPD2    H111898   3.345   0.648  17.061 -0.3882  2.6240  3.1249
  804MPD2    H211899   3.143   0.265  17.077 -1.4184  1.2696 -1.7502
  804MPD2    H311900   3.198   0.483  16.966 -0.0414  2.4632  0.5542
  804MPD2     N11901   3.445   0.631  17.313 -0.5915 -0.7098  0.0113
  804MPD2    H511902   3.499   0.601  17.393  3.6480  4.0752 -1.0506
  804MPD2    N111903   3.248   0.199  17.325  0.4092  0.6497  0.2949
  804MPD2    H711904   3.284   0.204  17.420 -0.3000 -0.2000  0.6013
  805MPD2     C11905   2.763   3.481  15.822  0.1781  0.4625  0.9629
  805MPD2    C111906   2.670   3.541  15.905 -1.0033 -0.2053 -0.5309
  805MPD2    C211907   2.702   3.602  16.026 -0.0953  0.4016 -0.0967
  805MPD2    C311908   2.832   3.593  16.073  0.9535  0.7644  0.1163
  805MPD2    C411909   2.930   3.550  15.984 -0.1390  0.6844 -0.7506
  805MPD2    C511910   2.895   3.484  15.865 -0.2272 -0.4847 -0.0764
  805MPD2     H11911   2.622   3.647  16.084 -0.5163  1.1397 -1.2340
  805MPD2    H111912   3.033   3.558  16.015 -0.1883  2.8877 -1.1523
  805MPD2    H211913   2.734   3.433  15.729 -1.6368  2.2800  0.6037
  805MPD2    H311914   2.973   3.445  15.801 -0.0433 -1.1077  0.5347
  805MPD2     N11915   2.852   3.625  16.206  0.1227  0.3496 -0.1734
  805MPD2    H511916   2.768   3.640  16.262  1.2038 -1.1991  1.8327
  805MPD2    N111917   2.537   3.542  15.865  0.4251 -0.3604  0.1866
  805MPD2    H711918   2.476   3.583  15.935  1.6350  1.1018  0.3838
  806MPD2     C11919   3.212   3.331   0.769  0.0487 -0.4375 -0.7146
  806MPD2    C111920   3.312   3.237   0.775  0.0378 -0.4551  0.2312
  806MPD2    C211921   3.331   3.156   0.669  0.2899  0.3004  0.6923
  806MPD2    C311922   3.238   3.150   0.567  0.1640 -0.0509  0.3521
  806MPD2    C411923   3.128   3.236   0.576  0.1579  0.2287  0.2005
  806MPD2    C511924   3.116   3.326   0.678  0.3992 -0.1151 -0.8648
  806MPD2     H11925   3.417   3.091   0.656 -0.2189 -0.2511  0.0547
  806MPD2    H111926   3.061   3.232   0.490 -0.1737  0.7032  0.4365
  806MPD2    H211927   3.202   3.405   0.848  0.9406 -1.2862  0.1962
  806MPD2    H311928   3.043   3.406   0.677  1.4368  0.8471  0.3190
  806MPD2     N11929   3.265   3.059   0.464  0.8550 -0.0385 -0.0493
  806MPD2    H511930   3.356   3.015   0.469  0.9321  0.1951  0.5648
  806MPD2    N111931   3.408   3.252   0.876  0.6369 -0.7556 -0.4986
  806MPD2    H711932   3.388   3.319   0.950 -2.5259 -2.1979 -0.0854
  807MPD2     C11933   3.376   3.327   1.609 -0.1087  0.0392  0.0609
  807MPD2    C111934   3.352   3.249   1.492 -0.0176  0.4726  0.1727
  807MPD2    C211935   3.262   3.137   1.495  0.4651  0.0925  0.6944
  807MPD2    C311936   3.195   3.106   1.614 -0.8825  0.2461 -0.1019
  807MPD2    C411937   3.219   3.187   1.721 -0.1282 -0.1908  0.6635
  807MPD2    C511938   3.310   3.289   1.723 -1.0542 -0.5855 -0.3765
  807MPD2     H11939   3.257   3.076   1.406  0.2582  0.0231  0.7544
  807MPD2    H111940   3.165   3.181   1.815 -0.0594  0.3225  0.7337
  807MPD2    H211941   3.440   3.414   1.610 -1.5117  1.0312  1.9560
  807MPD2    H311942   3.318   3.347   1.814  0.6501 -1.8823  0.2967
  807MPD2     N11943   3.107   2.987   1.624  0.0178  0.1976  0.1452
  807MPD2    H511944   3.101   2.931   1.540  0.6788 -2.1269  1.6396
  807MPD2    N111945   3.425   3.253   1.373  0.4949  0.4423 -0.1571
  807MPD2    H711946   3.415   3.180   1.303  1.4932 -1.7625  2.0174
  808MPD2     C11947   2.648   0.563   9.583 -0.2896  0.6002  0.2925
  808MPD2    C111948   2.768   0.501   9.555  0.2118  0.0114  0.2930
  808MPD2    C211949   2.891   0.554   9.588 -0.5232 -0.0990 -0.1567
  808MPD2    C311950   2.896   0.686   9.630  0.5092 -0.3764 -0.5340
  808MPD2    C411951   2.779   0.753   9.659 -0.2183  0.4914  0.0042
  808MPD2    C511952   2.656   0.685   9.647  0.1037 -0.5255 -0.2015
  808MPD2     H11953   2.979   0.492   9.575  0.4945  1.1545  0.7637
  808MPD2    H111954   2.774   0.855   9.693  0.1276  0.4855  0.0656
  808MPD2    H211955   2.547   0.527   9.569 -0.0803  0.0961  0.1028
  808MPD2    H311956   2.570   0.748   9.671  0.4221 -1.6404  3.8546
  808MPD2     N11957   3.013   0.753   9.658  0.3164 -0.3522  0.2446
  808MPD2    H511958   3.013   0.851   9.687 -2.5216 -0.7077  1.4840
  808MPD2    N111959   2.775   0.373   9.500  0.0740  0.3173  0.3120
  808MPD2    H711960   2.865   0.326   9.503  0.1097  0.3422 -0.4590
  809MPD2     C11961   3.681   0.367  10.288  0.2990 -1.3051 -0.4629
  809MPD2    C111962   3.697   0.351  10.149 -0.0859  0.1438 -0.1416
  809MPD2    C211963   3.635   0.441  10.066  0.5742  0.0683 -0.1828
  809MPD2    C311964   3.578   0.558  10.120  0.0867 -0.2846  0.1564
  809MPD2    C411965   3.565   0.569  10.259 -0.0994  0.7020  0.0714
  809MPD2    C511966   3.615   0.470  10.339 -0.0691 -0.6532  0.0387
  809MPD2     H11967   3.639   0.432   9.958  1.4039 -0.2994 -0.1173
  809MPD2    H111968   3.506   0.647  10.306 -2.5340 -2.0584  1.5424
  809MPD2    H211969   3.715   0.289  10.355  0.6386 -1.1487 -0.4523
  809MPD2    H311970   3.592   0.480  10.444 -1.8190 -0.5423 -0.3523
  809MPD2     N11971   3.499   0.653  10.046 -0.0268  0.3620  0.5331
  809MPD2    H511972   3.464   0.736  10.092 -0.6071  1.4476 -1.9059
  809MPD2    N111973   3.754   0.238  10.086  0.4247 -0.0268  0.2379
  809MPD2    H711974   3.761   0.246   9.985  0.1996 -1.0709  0.1442
  810MPD2     C11975   2.742   4.392  10.947  0.6018 -0.0302 -0.2924
  810MPD2    C111976   2.731   4.414  10.810 -0.0297 -0.6459  0.2694
  810MPD2    C211977   2.699   4.537  10.760  0.1889 -0.1244 -0.2153
  810MPD2    C311978   2.669   4.642  10.845 -1.4058  0.0631 -0.3269
  810MPD2    C411979   2.676   4.623  10.980  0.1686  0.5172  0.4855
  810MPD2    C511980   2.707   4.501  11.029 -0.6037 -0.3593 -0.0578
  810MPD2     H11981   2.704   4.553  10.652 -1.1884 -0.7679 -0.3685
  810MPD2    H111982   2.652   4.705  11.046  3.0059  1.3583  0.4406
  810MPD2    H211983   2.756   4.294  10.991  3.1278  0.4353 -0.0342
  810MPD2    H311984   2.697   4.483  11.135  1.6182  4.2225  0.9255
  810MPD2     N11985   2.614   0.017  10.793 -0.3081 -0.5345  0.3823
  810MPD2    H511986   2.584   0.082  10.865  1.3708  0.4897  0.1554
  810MPD2    N111987   2.754   4.306  10.721  0.4304 -0.6199  0.2461
  810MPD2    H711988   2.768   4.215  10.764 -0.1803 -0.6346  0.4119
  811MPD2     C11989   2.225   4.149  10.011  0.1842  0.0331 -0.4170
  811MPD2    C111990   2.318   4.219  10.084 -0.0627  0.0150  0.5392
  811MPD2    C211991   2.322   4.356  10.072  0.5728  0.3827 -0.2300
  811MPD2    C311992   2.237   4.430   9.991 -0.4655 -0.5009  0.6617
  811MPD2    C411993   2.143   4.352   9.927  0.1262  0.3115  0.0695
  811MPD2    C511994   2.138   4.215   9.934  0.1885 -0.7039 -0.3372
  811MPD2     H11995   2.389   4.423  10.125  0.0687  0.2075  0.6123
  811MPD2    H111996   2.074   4.389   9.852  1.1673  0.9003 -0.6098
  811MPD2    H211997   2.224   4.042  10.025 -0.3824 -0.0250 -0.8984
  811MPD2    H311998   2.061   4.153   9.889  0.9118 -0.5366 -1.7992
  811MPD2     N11999   2.247   4.567   9.976  0.6203  0.0348 -0.1813
  811MPD2    H512000   2.334   4.603  10.014 -0.8816  2.8373  0.6034
  811MPD2    N112001   2.415   4.150  10.161 -0.2731 -0.6811 -0.1527
  811MPD2    H712002   2.392   4.051  10.161  0.7373 -0.9142  0.1141
  812MPD2     C12003   1.175   4.372  11.897 -0.0526  0.1529 -0.5520
  812MPD2    C112004   1.310   4.371  11.903  0.2617  0.3478  0.1523
  812MPD2    C212005   1.367   4.322  12.017  0.1337 -0.2523 -0.0474
  812MPD2    C312006   1.312   4.262  12.122 -0.1182  0.3025 -0.0810
  812MPD2    C412007   1.171   4.271  12.117  0.0126  0.2318  0.5648
  812MPD2    C512008   1.107   4.330  12.007  0.3206 -0.2888 -0.7781
  812MPD2     H12009   1.476   4.316  12.015  0.2812  2.0702  0.8634
  812MPD2    H112010   1.107   4.244  12.201 -1.0710  0.1045 -0.3002
  812MPD2    H212011   1.119   4.402  11.809 -0.5724 -0.9195 -0.5900
  812MPD2    H312012   1.000   4.340  12.011  0.4860  0.9366  0.7510
  812MPD2     N12013   1.390   4.200  12.220 -0.0361 -0.0299 -0.2589
  812MPD2    H512014   1.488   4.220  12.233 -0.3978  0.0773  2.3388
  812MPD2    N112015   1.381   4.422  11.791 -0.3058  0.4086  0.5566
  812MPD2    H712016   1.321   4.467  11.722  0.4664  2.5189  1.2408
  813MPD2     C12017   0.273   1.826  13.051 -0.2684  0.4426 -0.2015
  813MPD2    C112018   0.334   1.739  13.135  0.6908  0.5888  0.7137
  813MPD2    C212019   0.268   1.705  13.253  0.8206  0.5618  1.0949
  813MPD2    C312020   0.148   1.771  13.278 -0.0545  0.0674  0.5273
  813MPD2    C412021   0.101   1.868  13.195 -0.0798  0.1174 -0.2495
  813MPD2    C512022   0.174   1.908  13.084  0.0741  0.5340 -0.1223
  813MPD2     H12023   0.313   1.648  13.333 -0.4805  1.7621  2.6748
  813MPD2    H112024   0.014   1.927  13.222 -0.0368  0.8717 -1.7948
  813MPD2    H212025   0.307   1.863  12.955  2.3588 -0.8189  0.2340
  813MPD2    H312026   0.132   1.980  13.015 -1.2213 -0.6793 -0.6073
  813MPD2     N12027   0.093   1.743  13.403  0.2980 -0.4201 -0.8252
  813MPD2    H512028   0.131   1.659  13.446 -0.8373 -0.7705 -0.5280
  813MPD2    N112029   0.458   1.679  13.101  0.0492 -0.2307  0.3537
  813MPD2    H712030   0.500   1.692  13.010 -1.3821  0.7256 -0.1754
  814MPD2     C12031   0.938   2.733  12.755  0.0176  0.0986 -0.1658
  814MPD2    C112032   1.012   2.781  12.651 -0.5243  1.0302  0.0673
  814MPD2    C212033   1.050   2.910  12.654  0.1019 -0.5319 -0.5937
  814MPD2    C312034   1.016   2.997  12.755 -0.3577  0.2070 -0.2626
  814MPD2    C412035   0.944   2.945  12.860 -0.2014 -0.5015 -0.0901
  814MPD2    C512036   0.903   2.811  12.867  0.2457  0.4833 -0.5435
  814MPD2     H12037   1.109   2.945  12.570 -0.3255  1.0615 -0.2355
  814MPD2    H112038   0.912   3.011  12.939  0.0258  1.9940 -2.0548
  814MPD2    H212039   0.910   2.628  12.755  0.0431  0.0892 -1.0304
  814MPD2    H312040   0.844   2.772  12.948 -0.1241  2.7889  0.3134
  814MPD2     N12041   1.042   3.139  12.767 -0.1604 -0.7318 -0.2979
  814MPD2    H512042   1.024   3.191  12.852 -1.2580 -3.0453  0.8699
  814MPD2    N112043   1.058   2.702  12.546  0.2303 -0.1597  0.6443
  814MPD2    H712044   1.125   2.741  12.481 -1.4272  0.6492 -0.5877
  815MPD2     C12045   1.787   1.346  11.721  0.6407 -0.7420 -0.5204
  815MPD2    C112046   1.694   1.271  11.665  0.7782 -0.0223  0.0629
  815MPD2    C212047   1.563   1.292  11.705  0.0601  0.4605 -1.6453
  815MPD2    C312048   1.528   1.375  11.809  0.7750  0.1528 -0.0760
  815MPD2    C412049   1.632   1.439  11.874  0.0093  0.3307 -0.3873
  815MPD2    C512050   1.761   1.435  11.824  0.1166 -0.7775 -0.3680
  815MPD2     H12051   1.483   1.232  11.662  0.3622  1.0916 -3.1098
  815MPD2    H112052   1.617   1.512  11.953 -0.6198 -0.6565  0.4032
  815MPD2    H212053   1.892   1.336  11.697  0.7653  2.1070 -1.1094
  815MPD2    H312054   1.838   1.480  11.886 -0.1081 -0.7974 -0.0762
  815MPD2     N12055   1.391   1.383  11.859  0.7495 -0.7249 -0.4860
  815MPD2    H512056   1.319   1.323  11.820  0.8144 -0.1840 -1.4462
  815MPD2    N112057   1.730   1.177  11.564 -0.1175 -0.2723  0.1827
  815MPD2    H712058   1.830   1.163  11.556  0.0158  1.4534 -1.2605
  816MPD2     C12059   1.875   4.507  17.421 -0.4339 -1.1660  0.1243
  816MPD2    C112060   1.794   4.497  17.313  0.7296 -1.0584  0.2139
  816MPD2    C212061   1.823   4.388  17.224  0.2273  0.1978 -0.0470
  816MPD2    C312062   1.926   4.295  17.255  0.4160  0.6806  0.1273
  816MPD2    C412063   1.992   4.307  17.373 -0.5236 -0.2152  0.2877
  816MPD2    C512064   1.972   4.417  17.449 -0.0671 -0.1654 -0.3405
  816MPD2     H12065   1.765   4.376  17.134  0.6249  0.7892 -0.3834
  816MPD2    H112066   2.081   4.251  17.395 -0.4331  0.1033  0.7450
  816MPD2    H212067   1.867   4.593  17.487 -0.6280 -2.3955  1.7027
  816MPD2    H312068   2.035   4.428  17.537 -0.3358 -1.6403  0.0335
  816MPD2     N12069   1.958   4.205  17.153  0.3677 -0.3058 -0.0839
  816MPD2    H512070   1.905   4.209  17.067  0.7174  0.6245 -0.2545
  816MPD2    N112071   1.699   4.600  17.300 -0.2090 -0.1638  0.4478
  816MPD2    H712072   1.704   4.680  17.363 -1.7639  0.0921  0.2542
  817MPD2     C12073   0.917   2.301  10.031  1.2814 -0.6535 -0.6053
  817MPD2    C112074   0.947   2.305   9.897  0.3251 -0.8208 -0.1365
  817MPD2    C212075   0.868   2.384   9.815  0.0237 -0.2116  0.1808
  817MPD2    C312076   0.780   2.477   9.862 -0.3414  0.2576  0.4207
  817MPD2    C412077   0.754   2.477   9.998 -0.2551 -0.2810  0.6952
  817MPD2    C512078   0.821   2.391  10.076  0.4547  0.5184 -0.8663
  817MPD2     H12079   0.904   2.388   9.712 -0.7513 -1.4128 -0.1350
  817MPD2    H112080   0.676   2.540  10.041 -0.1566  0.2688  0.0638
  817MPD2    H212081   0.963   2.233  10.102  3.1680  2.0575  0.7944
  817MPD2    H312082   0.787   2.382  10.179 -0.0013 -0.5858 -1.1121
  817MPD2     N12083   0.718   2.573   9.772 -0.3015  0.4110  0.4809
  817MPD2    H512084   0.746   2.566   9.675  1.6022 -3.9640  1.3374
  817MPD2    N112085   1.046   2.222   9.833  0.0215  0.1086 -0.6397
  817MPD2    H712086   1.048   2.221   9.732  0.3833  0.8980 -0.6436
  818MPD2     C12087   0.029   2.308   9.818 -0.0355 -0.1096  0.4558
  818MPD2    C112088   0.077   2.254   9.935 -0.4234  0.0844  0.7135
  818MPD2    C212089   0.139   2.135   9.934 -0.0027  0.3837  0.3144
  818MPD2    C312090   0.165   2.066   9.819  0.4392 -0.3205 -0.0644
  818MPD2    C412091   0.097   2.106   9.706  0.6489  0.1709  0.1631
  818MPD2    C512092   0.031   2.227   9.712 -0.5990 -0.3468  0.3374
  818MPD2     H12093   0.169   2.091  10.028  1.8029  2.4626  0.7175
  818MPD2    H112094   0.105   2.054   9.611 -0.9136 -1.2418  0.8020
  818MPD2    H212095   4.727   2.407   9.818 -1.1133 -0.5733  0.0239
  818MPD2    H312096   4.729   2.269   9.621 -1.7924  2.1025  1.9990
  818MPD2     N12097   0.230   1.946   9.812  0.0934  0.4089  0.2891
  818MPD2    H512098   0.222   1.903   9.720  0.0305 -0.1915  0.5788
  818MPD2    N112099   0.049   2.304  10.061  0.2146 -0.5847  0.2948
  818MPD2    H712100   0.088   2.269  10.148  0.2928 -0.9226  0.1198
  819MPD2     C12101   3.265   3.909  16.498  0.1381 -0.1989  0.0712
  819MPD2    C112102   3.247   3.850  16.375 -0.9055  0.4137  0.0297
  819MPD2    C212103   3.333   3.745  16.333 -0.3801  0.1195  0.2079
  819MPD2    C312104   3.404   3.681  16.428 -0.0798 -0.1747 -0.1149
  819MPD2    C412105   3.405   3.724  16.554  0.2054 -0.0424  0.5624
  819MPD2    C512106   3.348   3.844  16.590 -0.1134  0.2768 -0.9907
  819MPD2     H12107   3.330   3.706  16.232 -3.0589 -0.6389  0.5648
  819MPD2    H112108   3.455   3.671  16.633 -0.7193 -0.5358  0.8168
  819MPD2    H212109   3.200   3.992  16.524  0.2223 -0.7859  2.1590
  819MPD2    H312110   3.361   3.866  16.696 -3.3158  2.1956 -0.9910
  819MPD2     N12111   3.468   3.558  16.379 -0.7965 -0.4849  0.8206
  819MPD2    H512112   3.445   3.527  16.285 -0.6044 -2.3867  1.4013
  819MPD2    N112113   3.148   3.908  16.296  0.0768  0.0318 -0.6913
  819MPD2    H712114   3.097   3.988  16.332 -1.1980 -0.5749 -1.1466
  820MPD2     C12115   2.163   4.066  16.076  0.0517  0.5219  0.6713
  820MPD2    C112116   2.240   3.956  16.072 -0.1887 -0.1917 -0.4348
  820MPD2    C212117   2.380   3.974  16.106 -0.2880  0.3452 -0.0839
  820MPD2    C312118   2.438   4.098  16.116  0.2221 -0.2070 -0.0314
  820MPD2    C412119   2.358   4.206  16.092 -0.2459 -0.6967  0.9575
  820MPD2    C512120   2.219   4.191  16.082 -0.1430  0.0499 -0.5406
  820MPD2     H12121   2.435   3.882  16.125  0.8672  0.4690 -2.8721
  820MPD2    H112122   2.397   4.307  16.090  1.5798 -1.4837 -3.7015
  820MPD2    H212123   2.055   4.063  16.064  0.1429  0.8263 -0.1946
  820MPD2    H312124   2.156   4.278  16.068  2.2691  2.1969  2.0183
  820MPD2     N12125   2.582   4.110  16.138  0.0777  0.9872 -0.8220
  820MPD2    H512126   2.625   4.201  16.127  2.2616 -0.0136 -0.5493
  820MPD2    N112127   2.185   3.830  16.030 -1.0124  0.5465  0.1890
  820MPD2    H712128   2.088   3.832  16.002 -0.7322 -0.2816 -0.7987
  821MPD2     C12129   3.212   0.208  13.428 -0.9585 -0.3816  0.0468
  821MPD2    C112130   3.251   0.137  13.315  0.2478  0.2754 -0.1166
  821MPD2    C212131   3.367   0.175  13.246 -0.2239 -0.1855  0.3803
  821MPD2    C312132   3.432   0.289  13.284 -0.0917 -0.1048 -0.1810
  821MPD2    C412133   3.390   0.366  13.393  0.0846 -0.2822  0.2406
  821MPD2    C512134   3.280   0.321  13.467  0.4551  0.0294 -0.2441
  821MPD2     H12135   3.409   0.120  13.162 -0.3029  0.6439 -0.1929
  821MPD2    H112136   3.456   0.449  13.417 -0.2155  0.7573 -2.4719
  821MPD2    H212137   3.124   0.188  13.488 -0.6752 -0.9286  0.2779
  821MPD2    H312138   3.229   0.382  13.541  1.5816  1.5962 -0.7539
  821MPD2     N12139   3.534   0.326  13.208 -0.3314 -0.3601 -0.4219
  821MPD2    H512140   3.568   0.422  13.207  0.1604 -0.5569 -2.1132
  821MPD2    N112141   3.185   0.017  13.284 -0.0633 -0.1066 -0.5172
  821MPD2    H712142   3.218   4.698  13.208  0.5038 -0.3069 -0.1141
  822MPD2     C12143   4.165   4.534  15.968 -0.2809 -0.2267  0.1776
  822MPD2    C112144   4.116   4.481  16.088  0.1405 -0.0499  0.3730
  822MPD2    C212145   4.024   4.565  16.162  0.6157  0.3401 -0.4802
  822MPD2    C312146   3.970   4.686  16.111 -0.1145  0.4977 -0.0632
  822MPD2    C412147   4.020   4.724  15.989 -0.2824  0.0992  0.3533
  822MPD2    C512148   4.116   4.655  15.924  0.0043  0.7584  0.6513
  822MPD2     H12149   3.985   4.526  16.255  1.0081 -0.1983 -0.5428
  822MPD2    H112150   3.982   0.074  15.943 -0.8063 -0.7478 -0.8802
  822MPD2    H212151   4.249   4.494  15.912 -0.7841  1.6056 -1.8775
  822MPD2    H312152   4.154   4.706  15.837 -0.8460 -1.6691 -1.1639
  822MPD2     N12153   3.880   0.017  16.191  0.1836  0.3604  0.6331
  822MPD2    H512154   3.874   0.004  16.291 -1.7017  0.2277  0.5014
  822MPD2    N112155   4.159   4.355  16.133  0.1468  0.2257  0.6437
  822MPD2    H712156   4.118   4.322  16.219  0.6535 -1.4118  0.2520
  823MPD2     C12157   3.541   0.196  16.941 -0.2092  0.0342 -0.3619
  823MPD2    C112158   3.624   0.132  16.852 -0.2420  0.4211 -0.0966
  823MPD2    C212159   3.683   0.009  16.889 -0.6783 -0.2065  0.0306
  823MPD2    C312160   3.659   4.696  17.014 -0.2834 -0.0417 -0.2475
  823MPD2    C412161   3.581   0.033  17.108  0.0402 -0.4200 -0.3647
  823MPD2    C512162   3.533   0.152  17.068  0.0161  0.2477  0.2473
  823MPD2     H12163   3.754   4.704  16.821 -2.6521 -0.7652 -1.6520
  823MPD2    H112164   3.556   4.738  17.207 -1.5236  0.6397 -0.3808
  823MPD2    H212165   3.497   0.292  16.915  0.7382  0.5576 -0.0752
  823MPD2    H312166   3.480   0.222  17.132  0.8805 -0.0244  1.2604
  823MPD2     N12167   3.724   4.584  17.068 -0.0118 -0.4587 -0.5050
  823MPD2    H512168   3.721   4.580  17.170  0.1676 -0.0155 -0.4814
  823MPD2    N112169   3.653   0.193  16.728 -0.1051  0.2019  0.3582
  823MPD2    H712170   3.639   0.290  16.703  0.2747  0.5158  1.3726
  824MPD2     C12171   4.419   3.563  15.915 -0.1511  0.0215 -0.1182
  824MPD2    C112172   4.467   3.692  15.881 -0.7323 -0.3321 -0.3174
  824MPD2    C212173   4.532   3.714  15.761  0.1171 -0.5678  0.0265
  824MPD2    C312174   4.554   3.609  15.676  0.5056  0.5123  0.7674
  824MPD2    C412175   4.504   3.484  15.708 -0.4525  0.4078 -0.4688
  824MPD2    C512176   4.436   3.464  15.828  0.5269  0.3983  0.0497
  824MPD2     H12177   4.580   3.809  15.740 -0.7602 -0.1171  0.0847
  824MPD2    H112178   4.517   3.397  15.645 -0.2491  0.2578 -0.2205
  824MPD2    H212179   4.351   3.553  16.000  0.9426  0.2179  0.7750
  824MPD2    H312180   4.379   3.375  15.852  0.2991  1.0633  1.9681
  824MPD2     N12181   4.638   3.623  15.559  0.1298  0.3131  0.0844
  824MPD2    H512182   4.661   3.720  15.539  0.8218  0.1473  0.0659
  824MPD2    N112183   4.452   3.805  15.961  0.4733 -0.0241 -0.5346
  824MPD2    H712184   4.479   3.895  15.921  0.8895  1.6051  3.3843
  825MPD2     C12185   0.273   3.859  14.821 -0.3507  0.4415  0.1549
  825MPD2    C112186   0.198   3.906  14.927 -0.2749  1.1114  0.3718
  825MPD2    C212187   0.181   4.046  14.941 -0.4823 -0.4369 -0.1796
  825MPD2    C312188   0.246   4.129  14.845 -0.1859  0.5213  0.8518
  825MPD2    C412189   0.323   4.076  14.741  0.5481 -0.2167 -0.6796
  825MPD2    C512190   0.323   3.940  14.721 -0.2591 -0.0258 -1.0289
  825MPD2     H12191   0.120   4.086  15.021  0.6094 -0.9261  0.8841
  825MPD2    H112192   0.372   4.126  14.657  0.9456 -0.0218 -0.3334
  825MPD2    H212193   0.282   3.751  14.820  0.9585  0.5456  1.8980
  825MPD2    H312194   0.364   3.899  14.629  0.0569 -0.6677 -0.5972
  825MPD2     N12195   0.253   4.273  14.855 -0.3721  0.2265 -0.0313
  825MPD2    H512196   0.315   4.318  14.789  0.0417  0.1659  0.3208
  825MPD2    N112197   0.145   3.808  15.019  0.8898 -0.8002 -0.4102
  825MPD2    H712198   0.162   3.713  14.990  1.8276 -2.0379  4.1801
  826MPD2     C12199   4.353   4.294  14.188  0.3785 -0.7372 -0.0142
  826MPD2    C112200   4.351   4.335  14.054  0.0125 -0.0250 -0.6997
  826MPD2    C212201   4.249   4.407  14.009  0.1194 -0.4410 -0.2854
  826MPD2    C312202   4.134   4.435  14.088  0.5327  0.2328  0.3339
  826MPD2    C412203   4.134   4.392  14.224  0.6302 -0.0669  0.1207
  826MPD2    C512204   4.247   4.321  14.267 -0.6865  0.1682 -0.4303
  826MPD2     H12205   4.252   4.434  13.904 -0.9178 -1.5895 -0.6052
  826MPD2    H112206   4.054   4.416  14.294 -0.0923 -2.0914 -0.0215
  826MPD2    H212207   4.426   4.223  14.226 -1.2351 -2.8655 -0.8549
  826MPD2    H312208   4.253   4.293  14.372 -2.4891  0.8318 -0.1485
  826MPD2     N12209   4.019   4.507  14.040  0.1401 -0.9140  0.0496
  826MPD2    H512210   3.942   4.508  14.106 -0.1305  1.4450 -0.2939
  826MPD2    N112211   4.469   4.298  13.973  0.5445 -0.3956 -0.2455
  826MPD2    H712212   4.531   4.233  14.021 -1.1077 -1.1205  0.9260
  827MPD2     C12213   0.470   0.994   9.911 -0.3778  0.1790  0.5999
  827MPD2    C112214   0.500   0.873   9.969 -0.3834  0.0154  0.4970
  827MPD2    C212215   0.461   0.757   9.906  0.3850 -0.0729 -0.2858
  827MPD2    C312216   0.379   0.762   9.795  1.1299 -0.2082  0.1053
  827MPD2    C412217   0.349   0.888   9.741  1.1187  0.5389 -0.2052
  827MPD2    C512218   0.395   1.004   9.797 -0.4524 -0.4312  0.2692
  827MPD2     H12219   0.494   0.661   9.944  0.7039  1.2378  2.7686
  827MPD2    H112220   0.288   0.901   9.652 -3.8214 -0.3014  3.0695
  827MPD2    H212221   0.509   1.088   9.950  0.8515  0.3239 -0.9751
  827MPD2    H312222   0.377   1.103   9.758 -0.7274 -0.3471  0.6119
  827MPD2     N12223   0.353   0.648   9.720  0.0654 -0.1843  0.2409
  827MPD2    H512224   0.406   0.566   9.745  0.0916 -0.5479 -1.0288
  827MPD2    N112225   0.577   0.876  10.085  0.5140  0.0016  0.2852
  827MPD2    H712226   0.609   0.969  10.111 -0.0612 -0.2089  1.7293
  828MPD2     C12227   3.766   0.236  12.732 -0.4285 -0.6548 -0.0819
  828MPD2    C112228   3.698   0.338  12.668 -0.0418 -0.1014 -0.4277
  828MPD2    C212229   3.771   0.426  12.594 -0.2430  0.0549 -0.4167
  828MPD2    C312230   3.914   0.411  12.584 -0.2858 -0.1951 -0.4649
  828MPD2    C412231   3.969   0.303  12.642  0.0901 -0.4761 -0.9373
  828MPD2    C512232   3.899   0.220  12.719  0.2360 -0.3216 -0.8255
  828MPD2     H12233   3.719   0.492  12.526 -1.3823 -0.9315 -0.5066
  828MPD2    H112234   4.076   0.290  12.635  0.3842 -0.2982  3.2513
  828MPD2    H212235   3.714   0.157  12.786  1.1421 -0.5710  1.5663
  828MPD2    H312236   3.946   0.136  12.770 -0.2651  0.8698  1.5529
  828MPD2     N12237   3.994   0.493  12.501 -0.2151 -0.0921 -0.2036
  828MPD2    H512238   4.093   0.476  12.497 -0.2396 -0.4000  0.5186
  828MPD2    N112239   3.557   0.334  12.670  0.3849 -0.3037  0.0224
  828MPD2    H712240   3.505   0.399  12.613 -0.1668  1.4625  2.5337
  829MPD2     C12241   2.992   0.697  12.098  0.2308  0.2171  0.1279
  829MPD2    C112242   2.918   0.661  12.215  0.1544 -0.3440  0.4296
  829MPD2    C212243   2.968   0.561  12.295  0.2273  0.2809  0.3498
  829MPD2    C312244   3.097   0.507  12.274  0.6087 -0.7732 -0.4846
  829MPD2    C412245   3.168   0.541  12.161  0.8399  0.0481 -0.0428
  829MPD2    C512246   3.110   0.640  12.081 -0.3683 -0.0709 -0.3854
  829MPD2     H12247   2.906   0.532  12.378  1.2761 -0.7678  0.7722
  829MPD2    H112248   3.271   0.513  12.141  1.2347  1.4685  0.0119
  829MPD2    H212249   2.955   0.778  12.037 -1.3278  0.1688  1.0026
  829MPD2    H312250   3.176   0.687  12.009 -0.1241  0.3452  0.1066
  829MPD2     N12251   3.161   0.408  12.360 -0.0404 -0.6171  0.4073
  829MPD2    H512252   3.252   0.374  12.330 -1.0056 -2.1602 -0.7701
  829MPD2    N112253   2.798   0.729  12.241 -0.1563 -0.3815  0.4411
  829MPD2    H712254   2.785   0.810  12.182  1.5656 -0.1816  0.3545
  830MPD2     C12255   3.987   3.764  16.146  0.2923  0.0660  0.5395
  830MPD2    C112256   3.985   3.634  16.097 -0.1043 -0.7262 -0.1968
  830MPD2    C212257   4.039   3.601  15.976  0.1686 -0.5219 -0.8643
  830MPD2    C312258   4.078   3.711  15.896 -0.0773  0.0896  0.4072
  830MPD2    C412259   4.077   3.837  15.949  0.9211 -0.2022 -0.0459
  830MPD2    C512260   4.040   3.860  16.078  0.1766 -0.9037 -0.6021
  830MPD2     H12261   4.028   3.502  15.933  1.3729 -0.1308 -2.0620
  830MPD2    H112262   4.117   3.924  15.899 -0.3403 -0.2878 -1.2053
  830MPD2    H212263   3.954   3.786  16.247 -0.3625 -0.6077  0.4744
  830MPD2    H312264   4.035   3.962  16.114 -0.3241 -0.7332 -1.1473
  830MPD2     N12265   4.128   3.692  15.766  0.1282  0.0803 -0.5219
  830MPD2    H512266   4.153   3.777  15.716 -0.2959  0.8224  0.5417
  830MPD2    N112267   3.909   3.540  16.166 -0.3096 -0.1281 -0.9593
  830MPD2    H712268   3.855   3.575  16.245 -1.1648 -2.5684 -0.4549
  831MPD2     C12269   4.176   0.053  16.509 -0.0231  0.7225  0.1317
  831MPD2    C112270   4.206   4.687  16.429  0.4336  0.0833 -0.6900
  831MPD2    C212271   4.139   4.570  16.451  0.1842  0.7360  0.0865
  831MPD2    C312272   4.036   4.560  16.541  0.7261 -0.4358  0.0119
  831MPD2    C412273   4.017   4.669  16.627  0.0378  0.1949 -0.1203
  831MPD2    C512274   4.094   0.040  16.614 -0.2998  0.5266 -1.0480
  831MPD2     H12275   4.163   4.482  16.392 -0.0705 -0.5232  1.8327
  831MPD2    H112276   3.941   4.658  16.704  1.0783 -0.9306  0.7467
  831MPD2    H212277   4.217   0.152  16.494  2.0054  0.1198  1.5806
  831MPD2    H312278   4.077   0.122  16.683  0.7836 -0.9718  0.9896
  831MPD2     N12279   3.947   4.449  16.551  0.0782  0.1962 -0.1695
  831MPD2    H512280   3.872   4.453  16.619  1.0807 -1.1494  1.0191
  831MPD2    N112281   4.295   4.703  16.320  0.3991 -0.3871 -0.2787
  831MPD2    H712282   4.323   0.061  16.318 -0.3620 -0.1377  1.2605
  832MPD2     C12283   2.317   0.776  17.351  0.3549  0.7703 -0.1142
  832MPD2    C112284   2.342   0.883  17.266 -0.1154 -0.3964 -0.0098
  832MPD2    C212285   2.240   0.916  17.181 -0.5885  0.2808  0.0084
  832MPD2    C312286   2.115   0.839  17.171 -0.1136  0.3842 -0.5085
  832MPD2    C412287   2.104   0.726  17.245  0.1726  0.1979 -0.3949
  832MPD2    C512288   2.208   0.695  17.328  0.8525 -0.0902  0.1515
  832MPD2     H12289   2.239   1.016  17.140 -0.5795 -0.4482 -1.7816
  832MPD2    H112290   2.020   0.658  17.240 -1.9382  2.6120  2.9193
  832MPD2    H212291   2.398   0.748  17.417 -1.0729 -2.2869  0.3569
  832MPD2    H312292   2.188   0.610  17.392 -1.7935  2.0041  2.1365
  832MPD2     N12293   2.006   0.865  17.083 -0.2203  0.2083 -0.0422
  832MPD2    H512294   1.928   0.800  17.092  0.3975 -0.6544 -0.8613
  832MPD2    N112295   2.457   0.962  17.275  0.5244  0.4232 -0.4541
  832MPD2    H712296   2.528   0.932  17.341 -0.4602  2.7832  1.6593
  833MPD2     C12297   4.309   3.112  12.626 -0.2638 -0.0584  0.1878
  833MPD2    C112298   4.310   3.244  12.601  0.5848 -0.4921 -0.0620
  833MPD2    C212299   4.392   3.304  12.507 -0.3458  0.3234  0.3669
  833MPD2    C312300   4.476   3.222  12.422  0.4007 -0.1631  0.1275
  833MPD2    C412301   4.476   3.090  12.452 -0.3061  0.1317 -0.3883
  833MPD2    C512302   4.394   3.036  12.551  0.4370 -0.0710  0.1076
  833MPD2     H12303   4.385   3.410  12.486  0.4397  0.0973 -1.0000
  833MPD2    H112304   4.547   3.023  12.405 -1.0216 -1.4355  0.7657
  833MPD2    H212305   4.242   3.069  12.698  1.2835 -0.5455  1.3431
  833MPD2    H312306   4.414   2.932  12.572  2.1480 -0.0508 -1.3828
  833MPD2     N12307   4.554   3.271  12.310  0.3769  0.5205 -0.0041
  833MPD2    H512308   4.577   3.198  12.243 -2.0658 -1.3117  1.1438
  833MPD2    N112309   4.214   3.317  12.675 -0.5437 -0.3383  0.5105
  833MPD2    H712310   4.136   3.267  12.717 -0.3729 -0.1855  1.0045
  834MPD2     C12311   4.487   2.661  11.821 -0.1003  1.0782  1.0895
  834MPD2    C112312   4.437   2.753  11.730 -0.9988 -1.0173  0.2352
  834MPD2    C212313   4.478   2.886  11.757 -0.4038  0.4755 -0.0478
  834MPD2    C312314   4.543   2.913  11.868  0.4399  0.6070 -0.7678
  834MPD2    C412315   4.591   2.820  11.964 -0.0792 -0.7662  0.0181
  834MPD2    C512316   4.567   2.690  11.933  0.8708  0.7192  0.1461
  834MPD2     H12317   4.452   2.974  11.698 -0.6267  0.4181 -0.0377
  834MPD2    H112318   4.642   2.844  12.057 -0.7437 -2.0409  0.7033
  834MPD2    H212319   4.456   2.558  11.803 -0.0704  1.0005  1.4860
  834MPD2    H312320   4.605   2.611  11.996  2.8190 -1.4694 -3.8289
  834MPD2     N12321   4.572   3.046  11.886 -0.4752 -0.2996  0.1053
  834MPD2    H512322   4.555   3.108  11.807 -1.9101  0.4568  1.0156
  834MPD2    N112323   4.363   2.712  11.616  0.0276  0.5828 -0.3753
  834MPD2    H712324   4.354   2.610  11.616 -0.2625  0.6125  0.4945
  835MPD2     C12325   0.016   0.958  10.943 -0.1768  0.2761 -0.6371
  835MPD2    C112326   4.637   1.021  10.972 -1.1592 -0.0234  0.7601
  835MPD2    C212327   4.622   1.090  11.091 -0.3520 -0.0095  0.2492
  835MPD2    C312328   4.724   1.089  11.182  0.8307  0.5598  0.2090
  835MPD2    C412329   0.100   1.030  11.150 -0.4101  0.4976 -0.5081
  835MPD2    C512330   0.121   0.973  11.028  0.7649  0.8659  0.0363
  835MPD2     H12331   4.527   1.140  11.108  0.0318  0.2966  1.5337
  835MPD2    H112332   0.177   1.009  11.223 -1.1454 -0.3847  0.0011
  835MPD2    H212333   0.030   0.910  10.847  0.7878 -0.6531 -0.0281
  835MPD2    H312334   0.219   0.934  11.003  0.2806  0.2239 -0.8393
  835MPD2     N12335   4.710   1.131  11.317 -0.7339 -0.0039  0.3067
  835MPD2    H512336   0.048   1.118  11.381  1.6964 -1.8691 -3.0435
  835MPD2    N112337   4.521   1.014  10.886 -0.2766  0.0086  0.4237
  835MPD2    H712338   4.454   1.079  10.924  0.3140  0.5426  0.5655
  836MPD2     C12339   3.985   1.313  11.576 -0.1476 -0.3379  0.2910
  836MPD2    C112340   4.057   1.240  11.666 -0.2375  0.1061  0.1235
  836MPD2    C212341   3.990   1.193  11.778 -0.4695  0.3279  0.3636
  836MPD2    C312342   3.851   1.218  11.793  0.5612 -0.2673  0.4938
  836MPD2    C412343   3.783   1.292  11.696  0.6650 -0.1410  0.8108
  836MPD2    C512344   3.849   1.337  11.585 -0.2567 -0.1794  0.3214
  836MPD2     H12345   4.043   1.130  11.848  0.6479  0.7152 -0.1214
  836MPD2    H112346   3.678   1.318  11.696  0.6131 -0.3530 -2.3800
  836MPD2    H212347   4.021   1.354  11.482 -1.5131 -0.5810 -0.3453
  836MPD2    H312348   3.798   1.398  11.512 -0.6280 -1.1413 -0.2216
  836MPD2     N12349   3.780   1.174  11.904  0.0652 -0.4256  0.3151
  836MPD2    H512350   3.681   1.196  11.897  0.3447  0.6642 -0.1314
  836MPD2    N112351   4.193   1.219  11.639  0.2839 -0.0447 -0.1787
  836MPD2    H712352   4.215   1.248  11.544 -2.1203  0.8420 -0.4674
  837MPD2     C12353   2.504   0.483  10.362  0.4884  0.1950  0.0672
  837MPD2    C112354   2.371   0.482  10.325 -0.0896  0.2562  0.1697
  837MPD2    C212355   2.291   0.591  10.357 -0.1414  0.6050  0.1159
  837MPD2    C312356   2.348   0.699  10.421  0.0437  0.1757  0.6308
  837MPD2    C412357   2.472   0.685  10.474  1.0959 -0.1637  0.0219
  837MPD2    C512358   2.549   0.584  10.443 -0.4263 -0.4387 -0.2381
  837MPD2     H12359   2.189   0.600  10.321 -0.3630  1.6095  0.9994
  837MPD2    H112360   2.512   0.768  10.532 -0.4175  0.2505  0.4630
  837MPD2    H212361   2.574   0.407  10.329 -1.2012 -0.0519 -2.9976
  837MPD2    H312362   2.649   0.596  10.485 -0.5100  1.7875 -0.6960
  837MPD2     N12363   2.266   0.812  10.423  0.5978 -0.6971  0.0698
  837MPD2    H512364   2.174   0.799  10.382  1.0588 -0.0613 -1.1679
  837MPD2    N112365   2.312   0.374  10.257 -0.1643  0.2952 -0.1648
  837MPD2    H712366   2.212   0.384  10.244 -0.0022  1.8252 -0.2738
  838MPD2     C12367   1.081   3.760  12.538  0.3721  0.4580  0.3280
  838MPD2    C112368   1.026   3.629  12.542 -0.3156  0.7517 -0.5399
  838MPD2    C212369   0.939   3.594  12.647  0.0091  0.0607  0.1422
  838MPD2    C312370   0.918   3.689  12.748  0.2068 -0.4467 -0.0396
  838MPD2    C412371   0.991   3.808  12.754  0.5787 -0.1758 -0.4895
  838MPD2    C512372   1.063   3.844  12.644 -0.6165 -0.4447 -0.4639
  838MPD2     H12373   0.876   3.506  12.649  2.6093 -1.7979 -0.2415
  838MPD2    H112374   0.977   3.875  12.838  0.4686 -0.2102 -0.4805
  838MPD2    H212375   1.126   3.807  12.451  3.2448  0.9826  2.1045
  838MPD2    H312376   1.106   3.943  12.645 -0.0962 -0.6973  1.2912
  838MPD2     N12377   0.816   3.685  12.842 -0.0982 -0.3267 -0.6042
  838MPD2    H512378   0.796   3.764  12.903 -0.6224 -0.8557 -0.0973
  838MPD2    N112379   1.050   3.539  12.439 -0.1396 -0.1779  0.2016
  838MPD2    H712380   0.985   3.462  12.428  0.0278 -0.3868  0.6695
  839MPD2     C12381   0.687   2.765  12.317 -0.5299  0.0031  0.7978
  839MPD2    C112382   0.750   2.787  12.200  0.7238  0.1670  0.1068
  839MPD2    C212383   0.830   2.902  12.186 -0.4343 -0.0830 -0.2207
  839MPD2    C312384   0.838   2.998  12.283  0.2140 -0.1514 -0.5729
  839MPD2    C412385   0.778   2.968  12.405 -0.2502  0.2723 -0.2205
  839MPD2    C512386   0.713   2.849  12.420 -0.6629 -0.0439 -0.0843
  839MPD2     H12387   0.879   2.921  12.092  2.6469 -1.0566  1.1864
  839MPD2    H112388   0.778   3.041  12.485  0.2504  0.4518 -0.3822
  839MPD2    H212389   0.619   2.683  12.337  1.3703 -1.0275  3.0536
  839MPD2    H312390   0.656   2.839  12.512  0.3091  1.5867  0.6856
  839MPD2     N12391   0.910   3.118  12.270  0.0110  0.0977 -0.4788
  839MPD2    H512392   0.929   3.171  12.354  1.4351  2.3622 -2.2486
  839MPD2    N112393   0.727   2.712  12.078  0.3930  0.0185 -0.5239
  839MPD2    H712394   0.768   2.751  11.994  0.7275  0.2346 -0.2613
  840MPD2     C12395   1.070   1.271  10.099  0.6258  0.2887 -0.3231
  840MPD2    C112396   1.067   1.225  10.224  0.3670 -0.3110 -0.1619
  840MPD2    C212397   1.150   1.283  10.321 -0.4254  0.1798  0.8503
  840MPD2    C312398   1.228   1.397  10.290 -0.6882 -0.8696  0.2732
  840MPD2    C412399   1.241   1.435  10.157 -0.3834 -0.2665 -0.0327
  840MPD2    C512400   1.167   1.370  10.064  0.3710  0.1126  0.0114
  840MPD2     H12401   1.156   1.242  10.421  1.9989  1.5505  1.2628
  840MPD2    H112402   1.299   1.522  10.128 -0.6915 -0.5510 -1.4930
  840MPD2    H212403   0.997   1.235  10.027 -0.3726  1.1023  0.2764
  840MPD2    H312404   1.160   1.405   9.961 -0.5935  0.9333  0.3577
  840MPD2     N12405   1.303   1.477  10.387 -0.0964  0.2398  0.2076
  840MPD2    H512406   1.364   1.552  10.356  0.6125 -0.0278  0.9661
  840MPD2    N112407   0.987   1.104  10.243  0.2313 -0.2119 -0.4229
  840MPD2    H712408   0.938   1.071  10.160  0.2849  2.0278 -1.3612
  841MPD2     C12409   0.531   1.312  14.755  0.3666  0.5325  0.1035
  841MPD2    C112410   0.533   1.177  14.780  0.4468  0.0564  0.2368
  841MPD2    C212411   0.650   1.112  14.793  0.0545 -0.2590  0.0856
  841MPD2    C312412   0.770   1.180  14.781  0.6056  0.2864 -0.6193
  841MPD2    C412413   0.770   1.316  14.750  1.4213  0.4615  0.7196
  841MPD2    C512414   0.648   1.376  14.735  0.1948 -0.5527 -0.2226
  841MPD2     H12415   0.647   1.007  14.818 -2.1131 -0.0839  0.5322
  841MPD2    H112416   0.860   1.375  14.739  1.3518  0.0452 -2.2218
  841MPD2    H212417   0.438   1.362  14.728  0.1911 -2.1064 -4.3704
  841MPD2    H312418   0.646   1.482  14.711 -1.9245 -0.1387  1.6672
  841MPD2     N12419   0.890   1.102  14.792 -1.0152  0.6263 -0.0589
  841MPD2    H512420   0.877   1.008  14.829  1.4345  0.1190 -0.4648
  841MPD2    N112421   0.418   1.095  14.789  0.2992 -0.1647 -0.3157
  841MPD2    H712422   0.438   0.996  14.799  0.1794 -0.4497 -3.0558
  842MPD2     C12423   1.164   0.811  17.025  0.0557  0.2923  1.2271
  842MPD2    C112424   1.215   0.930  16.979 -0.2546 -0.2220 -0.1958
  842MPD2    C212425   1.344   0.965  17.034  0.3800 -0.2107  0.3646
  842MPD2    C312426   1.418   0.880  17.122  0.0798 -0.6595  0.0660
  842MPD2    C412427   1.363   0.763  17.158  0.4417 -0.9331  0.6754
  842MPD2    C512428   1.237   0.734  17.119  0.2374 -0.5980  0.1700
  842MPD2     H12429   1.396   1.049  16.989  0.7935 -0.4824  0.3361
  842MPD2    H112430   1.419   0.697  17.223  1.4663  1.5142  2.2712
  842MPD2    H212431   1.067   0.771  16.998  0.5632 -2.3654  3.3256
  842MPD2    H312432   1.186   0.642  17.146  1.4762 -0.4077  3.1383
  842MPD2     N12433   1.549   0.918  17.173 -0.3747  0.6675  0.5041
  842MPD2    H512434   1.615   0.844  17.194 -0.2241  0.4466 -0.7739
  842MPD2    N112435   1.145   1.008  16.887 -0.7398 -0.4770 -0.7264
  842MPD2    H712436   1.058   0.973  16.847 -1.2392 -1.9262  1.6725
  843MPD2     C12437   4.022   2.056  17.665 -0.2518 -0.4139 -0.1556
  843MPD2    C112438   3.933   2.145  17.727  0.7888 -0.2052  0.2882
  843MPD2    C212439   3.988   2.257   0.044  0.1965  0.6361  0.3250
  843MPD2    C312440   4.119   2.280   0.055  0.5198 -0.2256  0.1011
  843MPD2    C412441   4.205   2.192  17.749 -0.5108 -0.0000  1.1265
  843MPD2    C512442   4.155   2.078  17.678  0.0456  0.6934  0.3004
  843MPD2     H12443   3.920   2.320   0.100 -0.4352 -0.7944  1.1716
  843MPD2    H112444   4.312   2.208  17.742 -0.8054  1.9971  1.3842
  843MPD2    H212445   3.982   1.975  17.606  0.4404  0.5033 -1.8996
  843MPD2    H312446   4.221   2.006  17.631 -0.4471  0.0913  0.5407
  843MPD2     N12447   4.174   2.386   0.130  0.4030  1.0883 -0.0747
  843MPD2    H512448   4.271   2.366   0.153  0.5964  2.5119  0.3666
  843MPD2    N112449   3.797   2.124  17.709  0.0775 -0.0904 -0.2652
  843MPD2    H712450   3.764   2.061  17.638 -1.3286 -0.6801  0.9121
  844MPD2     C12451   1.708   0.274  16.688 -0.0955 -0.2360 -0.3981
  844MPD2    C112452   1.789   0.312  16.583 -0.0589  0.2280 -0.6456
  844MPD2    C212453   1.887   0.405  16.610  0.1943 -0.1354 -0.6004
  844MPD2    C312454   1.913   0.458  16.731  0.0460 -0.1472  0.3446
  844MPD2    C412455   1.825   0.423  16.831 -0.3867 -0.0881  0.1178
  844MPD2    C512456   1.727   0.334  16.811 -0.0599  0.5578  0.6465
  844MPD2     H12457   1.957   0.428  16.531  2.3973  0.3434  1.5020
  844MPD2    H112458   1.827   0.473  16.927  3.6177 -1.4389  0.7230
  844MPD2    H212459   1.626   0.204  16.677  0.7980 -1.1824 -1.0447
  844MPD2    H312460   1.664   0.302  16.892 -2.2677  1.2558 -0.7896
  844MPD2     N12461   2.015   0.550  16.737  0.7805  0.0420 -0.4512
  844MPD2    H512462   2.065   0.577  16.653 -0.8251  1.9866 -0.7857
  844MPD2    N112463   1.784   0.249  16.452 -0.3771  0.1690  0.2357
  844MPD2    H712464   1.864   0.265  16.393 -1.8077 -1.1125 -2.0554
  845MPD2     C12465   2.294   1.523  16.771 -0.0707  0.3461 -0.2908
  845MPD2    C112466   2.372   1.471  16.868 -0.3645  0.2211 -0.6321
  845MPD2    C212467   2.391   1.328  16.871 -0.1602 -0.4649 -0.3094
  845MPD2    C312468   2.322   1.248  16.783  0.2484 -0.4372 -0.9549
  845MPD2    C412469   2.249   1.311  16.682 -0.4097 -0.0876 -0.3658
  845MPD2    C512470   2.231   1.448  16.682 -0.0036  0.7916 -0.4195
  845MPD2     H12471   2.456   1.276  16.940  2.1652 -0.3803 -2.4277
  845MPD2    H112472   2.191   1.263  16.604  0.9242 -1.4775 -0.4929
  845MPD2    H212473   2.272   1.629  16.776 -1.7904 -0.0748  0.8728
  845MPD2    H312474   2.175   1.486  16.597 -1.9069 -2.3649 -0.6038
  845MPD2     N12475   2.337   1.102  16.797  0.0871  0.2293 -0.1380
  845MPD2    H512476   2.391   1.074  16.879 -0.9682 -0.5877  0.2764
  845MPD2    N112477   2.438   1.561  16.953  0.1909 -0.5099 -0.1307
  845MPD2    H712478   2.426   1.660  16.933  3.0056 -0.1558 -0.0609
  846MPD2     C12479   3.673   2.253  13.504  0.3709 -0.2618 -0.1160
  846MPD2    C112480   3.575   2.351  13.518 -0.6028 -0.3045  0.1022
  846MPD2    C212481   3.519   2.368  13.636  0.8559 -0.2137  0.6156
  846MPD2    C312482   3.548   2.288  13.746  0.2143 -0.0003 -0.5018
  846MPD2    C412483   3.655   2.200  13.743 -0.2276 -0.8336  0.2253
  846MPD2    C512484   3.710   2.182  13.618 -0.3099 -0.1282  0.1955
  846MPD2     H12485   3.444   2.447  13.642  1.1510 -0.1046  2.9207
  846MPD2    H112486   3.693   2.143  13.826 -0.0085 -0.4516  0.3866
  846MPD2    H212487   3.720   2.242  13.407 -0.9885 -1.5665 -0.6216
  846MPD2    H312488   3.794   2.117  13.596  1.1439  1.3163  1.4598
  846MPD2     N12489   3.489   2.324  13.871  0.2701 -0.7203 -0.3101
  846MPD2    H512490   3.406   2.381  13.862 -0.0593 -1.4583 -2.0014
  846MPD2    N112491   3.551   2.454  13.426 -0.3699 -0.2951 -0.4532
  846MPD2    H712492   3.487   2.527  13.456 -1.9164 -2.3857  1.2560
  847MPD2     C12493   2.940   3.430  15.029  0.4079  1.1866  0.1620
  847MPD2    C112494   3.051   3.482  14.965 -0.0606  0.4288 -0.2272
  847MPD2    C212495   3.168   3.408  14.963 -0.3304  0.2549  0.1895
  847MPD2    C312496   3.181   3.286  15.023  0.9097  0.1847 -0.9835
  847MPD2    C412497   3.065   3.241  15.088  1.3215 -0.1374  0.4738
  847MPD2    C512498   2.951   3.312  15.088 -0.4935  0.5226 -0.5251
  847MPD2     H12499   3.255   3.456  14.919  0.0431  0.0560  0.7101
  847MPD2    H112500   3.059   3.140  15.125 -0.7667  0.0824  0.7333
  847MPD2    H212501   2.841   3.474  15.030 -0.0864  0.0431  1.8250
  847MPD2    H312502   2.861   3.270  15.131  1.6772 -0.9903  2.5308
  847MPD2     N12503   3.304   3.215  15.023 -0.0255 -0.3646  0.3085
  847MPD2    H512504   3.381   3.248  14.967 -0.2916 -0.3450 -0.0412
  847MPD2    N112505   3.051   3.609  14.904  0.0724  0.1802  0.3325
  847MPD2    H712506   3.126   3.635  14.841 -3.1025  2.4098 -2.5904
  848MPD2     C12507   1.993   1.214  16.374 -0.3785  0.4679 -0.6645
  848MPD2    C112508   1.917   1.260  16.471  0.2886 -0.2411 -0.1942
  848MPD2    C212509   1.897   1.392  16.493  0.1987 -0.2471 -0.2318
  848MPD2    C312510   1.957   1.495  16.417 -0.6422 -1.2818  0.4653
  848MPD2    C412511   2.038   1.450  16.313  0.3968  0.3295 -0.1914
  848MPD2    C512512   2.050   1.312  16.294 -0.2624 -0.4338 -0.1833
  848MPD2     H12513   1.837   1.419  16.580  1.7599 -0.7610  1.0002
  848MPD2    H112514   2.080   1.520  16.242  1.9469 -2.6677 -2.2194
  848MPD2    H212515   2.015   1.109  16.362 -1.5446 -0.0129  1.4371
  848MPD2    H312516   2.108   1.282  16.207 -0.3008 -0.4712 -0.1959
  848MPD2     N12517   1.911   1.624  16.431 -0.2916 -0.6995  0.0612
  848MPD2    H512518   1.841   1.654  16.498  0.3565  0.8478  0.0313
  848MPD2    N112519   1.867   1.172  16.568 -0.1488  0.3813  0.3926
  848MPD2    H712520   1.820   1.209  16.650  0.8581  0.6985  0.8361
  849MPD2     C12521   0.985   1.771  14.562  0.2767  0.1624  0.4180
  849MPD2    C112522   1.044   1.653  14.499  0.5142  0.5877  0.8057
  849MPD2    C212523   1.180   1.652  14.504  0.1896 -0.0415 -0.1393
  849MPD2    C312524   1.257   1.759  14.546 -1.4642  0.3481 -0.5970
  849MPD2    C412525   1.195   1.868  14.603 -0.3227 -0.0963  0.5169
  849MPD2    C512526   1.059   1.876  14.611  0.5333 -0.3656 -0.1019
  849MPD2     H12527   1.231   1.569  14.456  1.1113  0.6653 -0.3722
  849MPD2    H112528   1.259   1.947  14.640 -1.0556  0.3353  0.8563
  849MPD2    H212529   0.877   1.772  14.573  0.4481  1.8589  1.9648
  849MPD2    H312530   0.999   1.960  14.647 -0.9736 -1.6592  0.4378
  849MPD2     N12531   1.396   1.758  14.546 -0.6339  0.3978  0.6235
  849MPD2    H512532   1.443   1.848  14.548  2.0228 -1.0071  1.1902
  849MPD2    N112533   0.968   1.540  14.456  0.3102 -0.6283 -0.3393
  849MPD2    H712534   0.867   1.546  14.454  0.1652 -2.8558  0.6657
  850MPD2     C12535   3.605   4.515  14.956  0.4521  0.0020  0.6797
  850MPD2    C112536   3.662   4.488  15.089 -0.3404  0.5133 -0.5012
  850MPD2    C212537   3.797   4.490  15.103  0.0853 -0.2179 -0.4336
  850MPD2    C312538   3.881   4.515  14.994  0.4293 -0.3268 -1.0516
  850MPD2    C412539   3.820   4.537  14.872 -0.6254  0.2776 -0.1105
  850MPD2    C512540   3.685   4.539  14.849  0.3455  1.1443  0.5116
  850MPD2     H12541   3.848   4.473  15.197 -0.4505  1.4235  0.1522
  850MPD2    H112542   3.891   4.541  14.791  0.2059  2.3429  0.7287
  850MPD2    H212543   3.497   4.515  14.944  0.7935  1.5717 -2.2314
  850MPD2    H312544   3.650   4.546  14.747 -0.3738 -0.2170  0.6573
  850MPD2     N12545   4.022   4.508  15.002 -0.0264  0.3205 -0.1935
  850MPD2    H512546   4.072   4.512  14.913 -0.8173  0.6563 -0.6193
  850MPD2    N112547   3.579   4.448  15.196 -0.1944  0.2833  0.1373
  850MPD2    H712548   3.618   4.409  15.281  0.1209  0.0252 -0.1231
  851MPD2     C12549   3.833   4.283  15.798  0.3811 -0.5829 -0.1074
  851MPD2    C112550   3.774   4.223  15.694  0.6628  0.1030  0.5856
  851MPD2    C212551   3.842   4.124  15.630 -0.0958 -0.2513  0.0506
  851MPD2    C312552   3.973   4.090  15.662  0.3751  0.2651 -0.5101
  851MPD2    C412553   4.035   4.145  15.776 -0.3783 -0.3986 -0.6606
  851MPD2    C512554   3.963   4.247  15.836 -0.7317  0.4866 -0.3598
  851MPD2     H12555   3.799   4.082  15.539  0.4622 -1.0183  0.1378
  851MPD2    H112556   4.137   4.123  15.805 -0.6790 -3.5169 -1.9742
  851MPD2    H212557   3.793   4.357  15.867  0.9854 -1.6595  1.4152
  851MPD2    H312558   4.007   4.301  15.919 -2.2169 -0.3506  0.9855
  851MPD2     N12559   4.033   4.007  15.563  0.7892  0.2693 -0.4982
  851MPD2    H512560   3.974   3.979  15.485  0.1633  0.9256 -0.2557
  851MPD2    N112561   3.651   4.275  15.657 -0.0692  0.4927 -0.4067
  851MPD2    H712562   3.630   4.369  15.690 -0.0944  0.1238  0.6100
  852MPD2     C12563   3.543   1.895   9.970 -0.4675 -0.1563 -0.1656
  852MPD2    C112564   3.561   1.952  10.094  0.4276  0.4603  0.7320
  852MPD2    C212565   3.650   2.052  10.105  0.8499 -0.1192 -0.1646
  852MPD2    C312566   3.734   2.087  10.007  0.8676 -0.2332 -0.3187
  852MPD2    C412567   3.728   2.025   9.882  0.3047 -0.0447 -0.1013
  852MPD2    C512568   3.632   1.933   9.867  0.5190  0.8689 -0.2189
  852MPD2     H12569   3.664   2.102  10.200  1.1271 -0.0972 -0.2171
  852MPD2    H112570   3.787   2.047   9.794  0.1017 -1.8848 -0.6981
  852MPD2    H212571   3.481   1.808   9.949  0.3965 -0.9370  0.4728
  852MPD2    H312572   3.637   1.871   9.778  0.7028  1.3726 -0.5602
  852MPD2     N12573   3.814   2.200  10.024  0.3967  0.4085  0.2125
  852MPD2    H512574   3.817   2.246  10.115  0.0701  0.0031  0.4331
  852MPD2    N112575   3.494   1.916  10.212  0.3567 -0.3514  1.0158
  852MPD2    H712576   3.492   1.980  10.290  2.6548  0.8474  0.0940
  853MPD2     C12577   0.805   1.891  12.632  0.2586 -0.1963 -0.6733
  853MPD2    C112578   0.667   1.902  12.615 -0.1124 -0.4669 -0.3135
  853MPD2    C212579   0.594   1.847  12.507 -0.2478 -0.1750  0.2306
  853MPD2    C312580   0.671   1.780  12.411  0.3313  0.5195 -0.2758
  853MPD2    C412581   0.809   1.772  12.427 -0.6875  1.1626  0.0968
  853MPD2    C512582   0.873   1.824  12.533 -0.6098 -0.0870 -0.1502
  853MPD2     H12583   0.487   1.839  12.518 -0.4486  1.7782 -0.2959
  853MPD2    H112584   0.870   1.725  12.351 -0.5211  0.9704  0.3486
  853MPD2    H212585   0.862   1.921  12.719 -0.6343  1.4839 -0.6696
  853MPD2    H312586   0.979   1.805  12.541 -0.5078  1.4696  2.2047
  853MPD2     N12587   0.609   1.753  12.287 -0.5226 -0.2417 -0.1286
  853MPD2    H512588   0.674   1.719  12.216  1.7304 -0.4614  2.0311
  853MPD2    N112589   0.597   1.962  12.729 -0.4967 -0.3668 -0.1108
  853MPD2    H712590   0.656   1.999  12.802 -2.0007 -0.5469  1.2102
  854MPD2     C12591   2.164   1.799  12.968  0.0733 -0.3128 -0.0508
  854MPD2    C112592   2.238   1.821  12.856  0.2404 -0.0727  0.0271
  854MPD2    C212593   2.343   1.733  12.817 -0.3873 -0.9342  0.1920
  854MPD2    C312594   2.367   1.636  12.910  0.0460 -0.7241  0.1453
  854MPD2    C412595   2.295   1.620  13.029  0.6639 -0.3184 -0.0112
  854MPD2    C512596   2.191   1.695  13.052  0.3696 -0.1632 -0.2512
  854MPD2     H12597   2.406   1.753  12.731 -0.4436  0.7991  0.5479
  854MPD2    H112598   2.323   1.548  13.106  1.8114  0.4232  0.2642
  854MPD2    H212599   2.081   1.863  12.995 -0.0912 -0.7672  0.5250
  854MPD2    H312600   2.137   1.686  13.146 -1.7699 -0.0468 -1.4749
  854MPD2     N12601   2.476   1.553  12.896  0.3665  0.0538 -0.1926
  854MPD2    H512602   2.490   1.483  12.968  1.6128  0.9821  0.4639
  854MPD2    N112603   2.205   1.938  12.787 -0.3358 -0.6007 -0.2600
  854MPD2    H712604   2.124   1.986  12.824  0.8283  0.3445  1.0677
  855MPD2     C12605   3.187   1.468  13.499  0.8329  0.0348  0.1665
  855MPD2    C112606   3.051   1.450  13.501  1.1541  0.3077  0.2482
  855MPD2    C212607   2.995   1.442  13.383  0.2549  0.0414 -0.6137
  855MPD2    C312608   3.068   1.435  13.263  0.2123  0.1168 -0.6790
  855MPD2    C412609   3.204   1.460  13.263 -0.3048  0.2086 -0.1636
  855MPD2    C512610   3.262   1.477  13.386 -1.0473 -0.1106  0.2714
  855MPD2     H12611   2.887   1.432  13.388  0.3769 -1.5533 -1.2178
  855MPD2    H112612   3.264   1.469  13.173 -0.4287 -0.3246 -0.3005
  855MPD2    H212613   3.247   1.482  13.589 -1.6655 -0.9189  2.0023
  855MPD2    H312614   3.369   1.491  13.397 -0.6324 -2.2360 -1.1099
  855MPD2     N12615   2.996   1.407  13.145  0.3659 -0.1710 -0.6748
  855MPD2    H512616   3.049   1.398  13.059  1.7372 -2.3702  0.3993
  855MPD2    N112617   2.965   1.448  13.608  0.1565  0.7407  0.0726
  855MPD2    H712618   2.868   1.427  13.588 -0.2453  1.1874  1.5570
  856MPD2     C12619   0.086   2.872  14.227 -0.0965 -0.0800  0.1917
  856MPD2    C112620   0.020   2.989  14.277  0.3092 -0.0712  0.5983
  856MPD2    C212621   4.625   3.003  14.261 -0.1498 -0.7302 -0.5771
  856MPD2    C312622   4.551   2.905  14.197  0.7692  0.0998  0.3500
  856MPD2    C412623   4.616   2.788  14.155 -0.7307 -0.2600  0.3015
  856MPD2    C512624   0.010   2.778  14.166  0.5211  0.0205  0.0921
  856MPD2     H12625   4.578   3.091  14.302  1.8615 -1.1313  2.5793
  856MPD2    H112626   4.564   2.709  14.101 -0.7682  1.4717 -2.2152
  856MPD2    H212627   0.194   2.861  14.225 -0.0909 -0.0285  0.2099
  856MPD2    H312628   0.060   2.690  14.127 -0.5310 -1.0000  1.0771
  856MPD2     N12629   4.415   2.920  14.175  0.3747  0.0243  0.6975
  856MPD2    H512630   4.362   2.841  14.141 -0.8722  1.4534 -0.6611
  856MPD2    N112631   0.092   3.099  14.343  0.5827 -0.2067  0.0155
  856MPD2    H712632   0.035   3.175  14.378  1.7990 -0.1963  1.9683
  857MPD2     C12633   0.808   0.308  12.681  0.3867 -0.0826 -0.0302
  857MPD2    C112634   0.846   0.434  12.717 -0.8037 -0.4876  0.3304
  857MPD2    C212635   0.929   0.456  12.822  0.2865  0.4787  0.2568
  857MPD2    C312636   0.999   0.352  12.876  0.9050  0.0251 -0.5141
  857MPD2    C412637   0.967   0.224  12.835 -0.5285  0.5103 -0.7613
  857MPD2    C512638   0.875   0.203  12.738 -0.2008  0.3736 -0.6421
  857MPD2     H12639   0.942   0.557  12.857 -2.5260  0.3892  1.5900
  857MPD2    H112640   1.017   0.143  12.888  0.5728  2.0841  0.5869
  857MPD2    H212641   0.725   0.293  12.613  0.0394 -1.7622  0.7689
  857MPD2    H312642   0.846   0.100  12.719  0.1629  0.6023 -2.4825
  857MPD2     N12643   1.115   0.398  12.948  0.1481  0.0316 -0.1527
  857MPD2    H512644   1.132   0.496  12.970  3.0110 -0.2358 -1.0899
  857MPD2    N112645   0.784   0.541  12.642 -0.3796  0.8615 -0.2699
  857MPD2    H712646   0.708   0.513  12.580 -2.6374  1.2756  2.2800
  858MPD2     C12647   2.640   2.860  17.397  0.3040  0.2123 -0.6391
  858MPD2    C112648   2.635   2.992  17.357  0.4417  0.2024 -0.1632
  858MPD2    C212649   2.597   3.095  17.442 -1.0450  0.2957  0.0313
  858MPD2    C312650   2.568   3.068  17.574  0.1546 -0.3064  0.1441
  858MPD2    C412651   2.564   2.940  17.612 -1.0135  0.2004 -0.4272
  858MPD2    C512652   2.605   2.837  17.532  0.1213  0.0665  0.3442
  858MPD2     H12653   2.587   3.198  17.410 -3.2992  0.3374  0.9010
  858MPD2    H112654   2.530   2.926  17.714  1.5382 -2.7886  0.0178
  858MPD2    H212655   2.660   2.777  17.331 -0.6687  1.4842 -2.5187
  858MPD2    H312656   2.611   2.736  17.569  2.1367 -0.2905 -0.9454
  858MPD2     N12657   2.521   3.159  17.673 -0.1950 -0.4771  0.2312
  858MPD2    H512658   2.507   3.122   0.008 -0.6412  0.0713  0.3799
  858MPD2    N112659   2.653   3.007  17.216  0.6282 -1.0025 -0.2489
  858MPD2    H712660   2.685   2.931  17.158  0.1651 -3.1951  2.4023
  859MPD2     C12661   1.265   1.869  15.661  0.1099 -0.4456 -0.4478
  859MPD2    C112662   1.147   1.850  15.602  0.3849 -0.4063  0.4241
  859MPD2    C212663   1.063   1.744  15.627  0.3846  0.8709  0.0578
  859MPD2    C312664   1.094   1.650  15.720 -0.4015 -0.6997 -0.5593
  859MPD2    C412665   1.217   1.669  15.786  0.1146 -0.0429 -0.2145
  859MPD2    C512666   1.301   1.776  15.753 -0.3494 -0.1764  0.2807
  859MPD2     H12667   0.975   1.719  15.569  0.1806  1.1357  0.2508
  859MPD2    H112668   1.261   1.598  15.855  0.9518  2.0787  1.4404
  859MPD2    H212669   1.340   1.936  15.620 -1.5702  1.2556 -0.7337
  859MPD2    H312670   1.390   1.782  15.814  0.9571  0.6488 -1.7060
  859MPD2     N12671   1.017   1.541  15.765 -0.3194  0.6217  0.2829
  859MPD2    H512672   1.048   1.499  15.852  0.5923 -0.3997 -0.5275
  859MPD2    N112673   1.118   1.930  15.495  0.0548 -0.4913  0.6486
  859MPD2    H712674   1.194   1.991  15.466 -2.0433  0.9777 -1.7434
  860MPD2     C12675   3.425   2.069  11.445 -0.0339 -0.7909 -0.5576
  860MPD2    C112676   3.464   2.022  11.568  0.1294  0.2700 -0.7266
  860MPD2    C212677   3.385   1.930  11.629 -0.4594 -0.1163  0.2390
  860MPD2    C312678   3.272   1.889  11.570 -0.1214 -0.8131  0.0438
  860MPD2    C412679   3.245   1.925  11.443 -0.0552  0.2555  0.0793
  860MPD2    C512680   3.320   2.018  11.374 -0.4057 -0.2962  0.3411
  860MPD2     H12681   3.394   1.899  11.732 -0.2774  1.2785  0.6396
  860MPD2    H112682   3.168   1.886  11.377 -0.7587  0.5919  0.7046
  860MPD2    H212683   3.479   2.150  11.397  0.4717  1.1356  3.3045
  860MPD2    H312684   3.287   2.065  11.282 -1.2816  0.7195  1.1785
  860MPD2     N12685   3.181   1.809  11.638 -0.1214  0.3395 -0.0845
  860MPD2    H512686   3.214   1.761  11.721 -1.8048 -3.3430 -1.5461
  860MPD2    N112687   3.574   2.060  11.649 -0.4473  0.1958  0.2637
  860MPD2    H712688   3.583   2.018  11.741 -0.6129  0.1737  0.2699
  861MPD2     C12689   2.395   4.573  11.182 -0.5610 -0.1725  0.2413
  861MPD2    C112690   2.370   4.702  11.206 -0.4677 -0.4570  0.3266
  861MPD2    C212691   2.288   0.015  11.104  0.4434  0.0342  0.5450
  861MPD2    C312692   2.239   4.685  10.996  0.9865 -0.7096  0.0815
  861MPD2    C412693   2.284   4.555  10.981  0.8560  0.1511 -0.3623
  861MPD2    C512694   2.362   4.500  11.076  0.4563 -0.0645  0.8466
  861MPD2     H12695   2.252   0.116  11.117 -0.7031 -0.7441  3.4567
  861MPD2    H112696   2.254   4.490  10.899  1.3169 -0.6241  0.0770
  861MPD2    H212697   2.451   4.518  11.257 -3.0345 -2.9862  0.0378
  861MPD2    H312698   2.396   4.397  11.062  1.6423  0.6674 -1.7132
  861MPD2     N12699   2.147   4.729  10.895 -0.0830 -0.5698 -0.0569
  861MPD2    H512700   2.135   4.658  10.823 -1.8107 -1.3708  1.0096
  861MPD2    N112701   2.417   0.033  11.317  0.2711  0.4209  0.4561
  861MPD2    H712702   2.386   0.130  11.325 -1.1827 -0.1626  1.9097
  862MPD2     C12703   1.678   4.433  10.445 -1.0397 -0.2075  0.3165
  862MPD2    C112704   1.736   4.449  10.570  0.5529  0.5074 -0.0811
  862MPD2    C212705   1.722   4.349  10.670  0.3342 -0.9311 -0.4648
  862MPD2    C312706   1.655   4.231  10.642  0.1437  0.1165 -0.1475
  862MPD2    C412707   1.604   4.211  10.514 -0.1257  0.0079  0.4579
  862MPD2    C512708   1.624   4.308  10.421  0.2212  0.7242  0.6496
  862MPD2     H12709   1.776   4.365  10.763 -0.5819 -1.0408  0.0905
  862MPD2    H112710   1.548   4.124  10.483  1.1366 -1.0685  1.1661
  862MPD2    H212711   1.676   4.496  10.356 -0.7580  0.5273  0.8361
  862MPD2    H312712   1.586   4.289  10.321  0.3581  3.1755  0.1379
  862MPD2     N12713   1.637   4.133  10.741  0.0572  0.7407  0.1357
  862MPD2    H512714   1.580   4.052  10.719  0.7078 -0.3830  2.6449
  862MPD2    N112715   1.806   4.564  10.609  0.3832 -0.2536  0.6233
  862MPD2    H712716   1.852   4.557  10.699  2.2340 -0.8788 -0.3607
  863MPD2     C12717   0.617   2.105  16.446 -0.3193  0.0342  0.6129
  863MPD2    C112718   0.592   2.211  16.532 -0.7704  0.5209  0.1189
  863MPD2    C212719   0.683   2.235  16.635  0.6740  0.6288 -0.0141
  863MPD2    C312720   0.800   2.163  16.642  0.2174  0.3665  0.1054
  863MPD2    C412721   0.829   2.065  16.556 -0.0834 -0.1130  0.2240
  863MPD2    C512722   0.740   2.040  16.455  0.1047  0.7029 -0.2331
  863MPD2     H12723   0.664   2.316  16.703  1.5444  0.9879 -0.2064
  863MPD2    H112724   0.918   2.004  16.555 -0.3076 -0.3801 -1.9354
  863MPD2    H212725   0.542   2.080  16.371  1.1656 -1.6875 -0.2828
  863MPD2    H312726   0.760   1.957  16.388 -1.4402  0.2378 -0.1125
  863MPD2     N12727   0.891   2.177  16.743 -0.2059  0.5149 -0.7416
  863MPD2    H512728   0.970   2.115  16.742 -0.8717 -0.3431 -0.3117
  863MPD2    N112729   0.472   2.287  16.521  0.0353 -0.1303  0.2767
  863MPD2    H712730   0.408   2.258  16.447 -0.7586  1.9939  0.1364
  864MPD2     C12731   0.889   3.975  17.098 -0.8625  0.4493 -0.6072
  864MPD2    C112732   0.892   3.980  16.959  0.1980  0.1630  0.5157
  864MPD2    C212733   0.980   4.070  16.892 -0.0534  0.1584  0.0796
  864MPD2    C312734   1.060   4.153  16.967 -0.1028  0.4682 -0.2346
  864MPD2    C412735   1.050   4.155  17.104  0.4740  0.3507  0.0726
  864MPD2    C512736   0.968   4.063  17.171  0.3577 -0.0146  0.3490
  864MPD2     H12737   0.990   4.070  16.784 -2.9358 -1.3946 -0.1892
  864MPD2    H112738   1.112   4.222  17.163  3.1621 -0.5508 -1.7407
  864MPD2    H212739   0.831   3.897  17.146 -0.1702 -0.5750 -1.4403
  864MPD2    H312740   0.973   4.055  17.279  0.6821 -0.4494  0.3008
  864MPD2     N12741   1.167   4.225  16.921  0.7730  0.2043 -0.4517
  864MPD2    H512742   1.212   4.278  16.994 -0.1656 -1.3044  1.2469
  864MPD2    N112743   0.819   3.876  16.889 -0.0092 -0.5656  0.7336
  864MPD2    H712744   0.774   3.812  16.954  0.4796 -0.6741  0.9590
  865MPD2     C12745   1.341   4.439  15.952 -0.1132  1.0345 -0.5564
  865MPD2    C112746   1.333   4.313  16.011  0.0735  0.0671 -0.0749
  865MPD2    C212747   1.363   4.296  16.146  0.5821  0.3134 -0.4404
  865MPD2    C312748   1.400   4.406  16.223  0.4491  0.1471  0.3761
  865MPD2    C412749   1.407   4.530  16.168  0.5935  0.0672  0.1627
  865MPD2    C512750   1.385   4.543  16.025 -0.3139 -0.0669  0.4089
  865MPD2     H12751   1.333   4.202  16.189 -1.1339 -0.1329 -2.6023
  865MPD2    H112752   1.440   4.620  16.220 -0.6969  1.0920 -0.7907
  865MPD2    H212753   1.312   4.453  15.848 -1.7280 -0.5446 -0.3252
  865MPD2    H312754   1.390   4.642  15.982 -0.4837  0.0611  0.6846
  865MPD2     N12755   1.419   4.396  16.364  0.0858  0.1487 -0.2318
  865MPD2    H512756   1.428   4.480  16.421 -2.6722  0.2765  0.0259
  865MPD2    N112757   1.275   4.215  15.926  0.7048  0.2127  0.3807
  865MPD2    H712758   1.282   4.220  15.825  0.1490 -1.3908  0.2564
  866MPD2     C12759   2.762   0.597  11.433  0.2563  0.3784 -0.2686
  866MPD2    C112760   2.729   0.484  11.374  0.5113  0.0829  0.0341
  866MPD2    C212761   2.603   0.461  11.319 -0.1586 -0.3089  0.5303
  866MPD2    C312762   2.508   0.566  11.317  0.6377 -0.1059 -0.9289
  866MPD2    C412763   2.548   0.685  11.364 -0.5713 -1.1818  0.5023
  866MPD2    C512764   2.676   0.702  11.418 -0.3479 -0.9488 -0.4413
  866MPD2     H12765   2.569   0.368  11.275 -0.0640  0.5524 -1.3618
  866MPD2    H112766   2.480   0.769  11.378  1.1696  0.5311 -1.3636
  866MPD2    H212767   2.858   0.616  11.480  0.5495 -2.5622  0.2879
  866MPD2    H312768   2.705   0.794  11.466  0.4648 -1.5984  0.3053
  866MPD2     N12769   2.371   0.547  11.277  0.0640  0.5148 -0.0251
  866MPD2    H512770   2.310   0.628  11.278  0.0057  0.4733 -0.3566
  866MPD2    N112771   2.819   0.380  11.394 -0.2285 -0.0255  0.0064
  866MPD2    H712772   2.914   0.400  11.423  0.5923 -1.9268 -1.3582
  867MPD2     C12773   0.342   3.799  16.546 -0.2114  0.0794 -1.0016
  867MPD2    C112774   0.390   3.796  16.675 -0.1925  0.7537  0.4288
  867MPD2    C212775   0.436   3.914  16.736  0.1717  0.4385  0.5903
  867MPD2    C312776   0.447   4.032  16.662 -0.9967 -0.3473 -0.5072
  867MPD2    C412777   0.394   4.030  16.533  1.1887  0.8075 -0.0974
  867MPD2    C512778   0.340   3.913  16.479  0.4535 -0.4517  0.0051
  867MPD2     H12779   0.489   3.907  16.831  0.8277  0.2111  0.2050
  867MPD2    H112780   0.382   4.121  16.475 -3.0636 -1.1320 -2.2171
  867MPD2    H212781   0.302   3.708  16.502  2.4254 -1.1505 -0.8976
  867MPD2    H312782   0.301   3.909  16.378  0.6855 -1.5292 -0.0478
  867MPD2     N12783   0.519   4.151  16.702 -0.1950  0.0470 -0.0025
  867MPD2    H512784   0.534   4.218  16.627 -2.5707 -2.6600 -2.8547
  867MPD2    N112785   0.384   3.668  16.740 -0.5176 -0.9688  0.2754
  867MPD2    H712786   0.324   3.598  16.697  2.2827 -0.4794 -4.4909
  868MPD2     C12787   1.477   3.157  12.933  0.3373 -0.3321 -0.4319
  868MPD2    C112788   1.534   3.242  13.027 -0.2288  0.0612 -0.0822
  868MPD2    C212789   1.459   3.284  13.136  0.2927 -0.4682 -0.1215
  868MPD2    C312790   1.328   3.240  13.155  0.3475  0.0967  0.7154
  868MPD2    C412791   1.271   3.154  13.055 -0.2537 -0.1134  0.1374
  868MPD2    C512792   1.350   3.116  12.950 -0.0221  0.8735  0.2915
  868MPD2     H12793   1.502   3.357  13.203 -0.0476 -0.6299  0.2752
  868MPD2    H112794   1.165   3.129  13.048 -0.2547 -0.6128  2.1136
  868MPD2    H212795   1.524   3.127  12.840 -1.6810  0.5953 -1.7470
  868MPD2    H312796   1.301   3.064  12.868  1.5434 -2.0868  1.2353
  868MPD2     N12797   1.251   3.292  13.255  0.6772  0.1023 -0.0603
  868MPD2    H512798   1.285   3.375  13.304  1.1969 -1.7781  2.7472
  868MPD2    N112799   1.671   3.267  13.004  0.1167 -0.2835 -0.1566
  868MPD2    H712800   1.720   3.211  12.936 -1.1599 -0.6372 -0.7879
  869MPD2     C12801   3.062   0.604   0.836 -0.4446  0.5160  0.5217
  869MPD2    C112802   3.097   0.655   0.713  0.3038  0.3798  0.5162
  869MPD2    C212803   3.107   0.792   0.700  0.0566 -0.2039  0.0102
  869MPD2    C312804   3.091   0.879   0.809 -0.3864  0.9365  0.3471
  869MPD2    C412805   3.070   0.826   0.935 -0.5458  0.1846  0.0621
  869MPD2    C512806   3.045   0.688   0.938  0.0857  0.0198 -0.1197
  869MPD2     H12807   3.112   0.840   0.603  2.1909 -1.7410 -0.6616
  869MPD2    H112808   3.060   0.889   1.023 -1.3224  0.3078 -0.1196
  869MPD2    H212809   3.042   0.497   0.834 -0.4511  0.5502 -1.3054
  869MPD2    H312810   3.017   0.646   1.034 -2.3930 -1.6182 -1.5821
  869MPD2     N12811   3.099   1.018   0.791 -0.4778  0.0597 -0.1685
  869MPD2    H512812   3.077   1.078   0.869  1.4574  1.7000 -0.9052
  869MPD2    N112813   3.108   0.559   0.608  0.1223 -0.1883  0.7198
  869MPD2    H712814   3.069   0.466   0.619  0.2148 -0.5577 -2.1661
  870MPD2     C12815   2.682   4.641   1.315 -0.7315  0.6881  0.3637
  870MPD2    C112816   2.705   4.513   1.350  0.5179  0.3340  0.4896
  870MPD2    C212817   2.592   4.425   1.335 -0.2571  0.0599  0.3920
  870MPD2    C312818   2.468   4.478   1.303 -0.7408 -0.5475  0.3876
  870MPD2    C412819   2.455   4.608   1.266 -0.3662  0.2265 -0.3322
  870MPD2    C512820   2.560   4.695   1.276 -0.2959 -0.3235  0.6079
  870MPD2     H12821   2.598   4.321   1.365 -2.4932 -0.1683  0.0856
  870MPD2    H112822   2.359   4.641   1.228  0.5588  1.0475 -1.9379
  870MPD2    H212823   2.767   4.707   1.328  1.5919 -2.4662  0.8605
  870MPD2    H312824   2.546   0.058   1.247  1.6925  0.5502  2.7246
  870MPD2     N12825   2.360   4.393   1.302  0.2018  0.7594  0.0206
  870MPD2    H512826   2.391   4.297   1.311 -0.4900  0.6348  1.1678
  870MPD2    N112827   2.831   4.469   1.400 -0.9808  0.2229  0.2581
  870MPD2    H712828   2.904   4.538   1.391  0.9181 -2.1742 -2.6891
  871MPD2     C12829   4.036   4.067  16.641  0.3493 -0.0628  0.2632
  871MPD2    C112830   4.010   4.023  16.766 -0.3149  0.7466  0.0845
  871MPD2    C212831   3.954   3.898  16.776 -0.3168  0.3087  0.0624
  871MPD2    C312832   3.933   3.820  16.665  0.1173 -0.1571  0.2850
  871MPD2    C412833   3.965   3.875  16.538  1.0388 -0.2015  0.4986
  871MPD2    C512834   4.025   3.995  16.528 -0.5349 -0.9823  0.1960
  871MPD2     H12835   3.922   3.848  16.868 -0.7464  0.1089 -0.1943
  871MPD2    H112836   3.949   3.818  16.447 -1.6360  1.1078  0.1761
  871MPD2    H212837   4.077   4.167  16.630 -2.8822  1.1250 -1.2701
  871MPD2    H312838   4.050   4.037  16.431 -0.7488 -1.1455  0.0725
  871MPD2     N12839   3.891   3.682  16.673  0.5768 -0.0696 -0.2162
  871MPD2    H512840   3.867   3.661  16.769 -0.0008 -1.5719 -0.6691
  871MPD2    N112841   4.028   4.107  16.875 -0.1903 -0.0678 -0.1646
  871MPD2    H712842   4.072   4.198  16.860  1.2685 -0.9961 -1.5860
  872MPD2     C12843   0.119   1.870  14.507 -0.3095 -0.0987 -0.4162
  872MPD2    C112844   0.041   1.935  14.420  0.0831 -0.0598 -0.2368
  872MPD2    C212845   4.644   1.932  14.431  0.1556  0.4728 -0.2525
  872MPD2    C312846   4.588   1.877  14.547  0.2921  0.3300 -0.0045
  872MPD2    C412847   4.671   1.820  14.640  1.1140  0.6986  0.5615
  872MPD2    C512848   0.058   1.816  14.619 -0.9103 -0.1109  0.1506
  872MPD2     H12849   4.585   1.979  14.353 -0.3038  0.0497 -0.1611
  872MPD2    H112850   4.627   1.764  14.723 -1.7110 -3.4439 -3.7178
  872MPD2    H212851   0.227   1.867  14.509 -0.2098  3.9421  0.5705
  872MPD2    H312852   0.111   1.739  14.675  0.8828  0.6068 -0.5727
  872MPD2     N12853   4.450   1.861  14.573  0.1046  0.6543  0.6136
  872MPD2    H512854   4.425   1.815  14.660 -0.5849  0.7292  0.4569
  872MPD2    N112855   0.099   1.996  14.301 -0.4031  0.6687  0.1573
  872MPD2    H712856   0.041   2.054  14.240  0.0396  1.0048  0.0483
  873MPD2     C12857   2.061   0.794   0.629 -0.5611 -0.5302 -0.1773
  873MPD2    C112858   1.983   0.873   0.713  0.6572  0.2621  0.3802
  873MPD2    C212859   1.867   0.817   0.761 -0.2831  0.2132  0.3022
  873MPD2    C312860   1.817   0.700   0.710 -0.9462  0.0750 -0.0641
  873MPD2    C412861   1.888   0.630   0.618 -0.0424  0.1359  0.1834
  873MPD2    C512862   2.016   0.675   0.588 -0.3076 -0.6535 -0.2852
  873MPD2     H12863   1.803   0.864   0.835 -1.5161 -0.7183 -0.1699
  873MPD2    H112864   1.852   0.531   0.592  0.2452  0.6915 -2.3062
  873MPD2    H212865   2.159   0.831   0.603 -1.5269  0.7855 -1.9537
  873MPD2    H312866   2.082   0.615   0.526 -1.8568 -3.6601  0.9523
  873MPD2     N12867   1.691   0.643   0.734 -0.0176  0.5515 -0.5754
  873MPD2    H512868   1.658   0.574   0.667 -0.2108  0.8087 -0.7457
  873MPD2    N112869   2.026   1.007   0.743 -0.3078  0.1370 -0.3169
  873MPD2    H712870   2.121   1.020   0.710 -0.5795  0.1716 -1.0788
  874MPD2     C12871   1.071   1.785  16.436  0.5722 -0.9162 -0.2497
  874MPD2    C112872   1.160   1.679  16.446  0.1115 -0.7930  0.1726
  874MPD2    C212873   1.298   1.702  16.437  0.2059 -0.4726  0.0053
  874MPD2    C312874   1.345   1.828  16.410 -0.0824  0.3680 -0.7611
  874MPD2    C412875   1.256   1.926  16.389  0.1975 -0.5792 -0.1435
  874MPD2    C512876   1.124   1.907  16.403 -0.3846  0.6358  0.5884
  874MPD2     H12877   1.372   1.626  16.461  0.7116  0.3744  1.1388
  874MPD2    H112878   1.291   2.021  16.350 -1.5886 -0.5770 -1.7249
  874MPD2    H212879   0.969   1.753  16.457  0.7649 -1.2248  0.2218
  874MPD2    H312880   1.062   1.988  16.365  0.5105  1.4902  0.9582
  874MPD2     N12881   1.485   1.852  16.426 -0.1666  1.0185 -0.3816
  874MPD2    H512882   1.538   1.771  16.457 -0.6595  0.7649 -0.1909
  874MPD2    N112883   1.109   1.553  16.489 -0.6593 -0.1950 -0.6043
  874MPD2    H712884   1.021   1.560  16.539  0.9137  0.8968  2.0842
  875MPD2     C12885   2.426   0.335  14.351 -1.3960  0.3648 -0.4777
  875MPD2    C112886   2.305   0.346  14.425 -0.5914 -0.1589 -0.0837
  875MPD2    C212887   2.310   0.369  14.555 -0.0369  0.0998 -0.4351
  875MPD2    C312888   2.435   0.382  14.616  0.2582 -0.8603 -0.0697
  875MPD2    C412889   2.555   0.386  14.546 -0.4961  0.0431  0.3613
  875MPD2    C512890   2.545   0.360  14.411  0.4147 -0.1051 -0.4736
  875MPD2     H12891   2.220   0.381  14.614 -0.4588  1.2157 -1.3122
  875MPD2    H112892   2.651   0.384  14.596 -0.5701  1.1125  0.5359
  875MPD2    H212893   2.425   0.320  14.244  2.1117  0.3838 -0.5100
  875MPD2    H312894   2.639   0.369  14.357  1.0942 -1.2623  0.5325
  875MPD2     N12895   2.433   0.412  14.754  0.2911 -0.3548 -0.4830
  875MPD2    H512896   2.341   0.419  14.796  0.7995  0.1662  0.5409
  875MPD2    N112897   2.174   0.323  14.376 -0.4167  0.2395  0.0349
  875MPD2    H712898   2.099   0.348  14.440 -0.9359 -3.1579  0.7402
  876MPD2     C12899   1.499   1.657  15.471 -0.0595 -0.0172 -0.3187
  876MPD2    C112900   1.603   1.693  15.558  0.3618  0.4247  1.1587
  876MPD2    C212901   1.604   1.643  15.686 -0.3939 -0.2083 -0.4257
  876MPD2    C312902   1.510   1.546  15.721  1.2200 -0.2262  0.1820
  876MPD2    C412903   1.410   1.500  15.629 -0.0485  0.2045  0.4462
  876MPD2    C512904   1.406   1.562  15.508 -0.1233 -0.0863 -0.2151
  876MPD2     H12905   1.685   1.668  15.753  0.1444 -1.0781 -0.7512
  876MPD2    H112906   1.329   1.432  15.653 -0.0641  0.4910  1.2185
  876MPD2    H212907   1.509   1.685  15.367 -0.7380 -0.5908 -0.5373
  876MPD2    H312908   1.325   1.538  15.439  0.4538 -1.8349 -0.2664
  876MPD2     N12909   1.525   1.499  15.855  0.0370 -0.6213  0.2810
  876MPD2    H512910   1.606   1.533  15.906  0.9608 -0.9782 -0.9501
  876MPD2    N112911   1.702   1.776  15.502 -0.7581 -0.0073 -0.1399
  876MPD2    H712912   1.693   1.785  15.401  0.9748  1.6714 -0.1322
  877MPD2     C12913   1.585   2.282  15.239 -0.6300 -0.3342  0.5154
  877MPD2    C112914   1.715   2.302  15.198 -0.6274  0.4290 -0.2996
  877MPD2    C212915   1.729   2.341  15.064  0.8606  0.3664  0.2274
  877MPD2    C312916   1.621   2.361  14.985  0.3048  0.3232  0.0857
  877MPD2    C412917   1.491   2.354  15.038  0.0250  0.0244  0.0421
  877MPD2    C512918   1.476   2.314  15.168  0.2954 -0.5099  0.0593
  877MPD2     H12919   1.829   2.353  15.022  1.4441 -3.2391  0.5147
  877MPD2    H112920   1.405   2.369  14.974  0.1323  0.2941 -0.0418
  877MPD2    H212921   1.566   2.238  15.336 -0.3928  0.5458  0.9620
  877MPD2    H312922   1.377   2.306  15.211  0.4654  0.3690  0.6031
  877MPD2     N12923   1.628   2.396  14.847 -0.5642 -0.1513 -0.4078
  877MPD2    H512924   1.539   2.397  14.798 -0.7660 -0.7094 -0.0597
  877MPD2    N112925   1.830   2.268  15.266 -0.0184  0.0225 -0.7206
  877MPD2    H712926   1.916   2.276  15.213  0.7046 -2.2848  0.1127
  878MPD2     C12927   0.482   1.473  13.640 -0.4453 -1.3417 -0.6278
  878MPD2    C112928   0.619   1.489  13.629  0.2735 -0.1899 -0.4020
  878MPD2    C212929   0.697   1.456  13.739 -0.0403 -0.4093  0.1353
  878MPD2    C312930   0.636   1.410  13.859  0.3223 -0.0761 -0.1076
  878MPD2    C412931   0.501   1.375  13.863 -0.6320 -0.1773 -0.7957
  878MPD2    C512932   0.425   1.411  13.754 -0.3441  0.1560  0.4247
  878MPD2     H12933   0.804   1.466  13.734 -0.0705  0.9508  2.1949
  878MPD2    H112934   0.444   1.335  13.946 -0.6819 -1.3070 -1.3802
  878MPD2    H212935   0.426   1.496  13.550  0.9872  0.5842 -1.0395
  878MPD2    H312936   0.322   1.379  13.764 -0.9963  1.4480 -1.9286
  878MPD2     N12937   0.719   1.385  13.965  0.4513 -0.8116 -0.0258
  878MPD2    H512938   0.819   1.391  13.947  0.5542 -2.2729  0.0884
  878MPD2    N112939   0.669   1.517  13.495 -0.3633  0.4476 -0.2472
  878MPD2    H712940   0.602   1.523  13.419  1.7799 -2.6977 -2.3498
  879MPD2     C12941   2.005   2.599  16.980  0.3946  0.0162 -0.0962
  879MPD2    C112942   1.943   2.495  17.047 -0.8601  0.6659  0.6569
  879MPD2    C212943   1.818   2.449  16.998 -0.1364 -0.1698  1.0204
  879MPD2    C312944   1.785   2.485  16.870 -0.5115  0.3847 -0.5104
  879MPD2    C412945   1.854   2.578  16.796  0.3203 -0.1994  0.2316
  879MPD2    C512946   1.964   2.632  16.853 -0.4698  0.0573 -0.0725
  879MPD2     H12947   1.766   2.371  17.052  1.8640 -0.4079  2.6044
  879MPD2    H112948   1.841   2.609  16.693  1.1113 -1.0572 -0.1303
  879MPD2    H212949   2.099   2.636  17.020  0.2180 -1.7893  1.9673
  879MPD2    H312950   2.025   2.690  16.785  0.5815 -1.3023 -0.2819
  879MPD2     N12951   1.678   2.425  16.801 -0.6604  0.1692 -0.4875
  879MPD2    H512952   1.658   2.453  16.706  0.6241  0.6932 -0.6031
  879MPD2    N112953   2.004   2.438  17.160  0.0508 -0.1607 -0.4471
  879MPD2    H712954   2.086   2.489  17.191  0.2143 -0.2153 -0.7844
  880MPD2     C12955   3.037   3.511   0.170  0.3049  0.3478 -0.5033
  880MPD2    C112956   3.053   3.566   0.291 -0.1211  0.2894  0.7419
  880MPD2    C212957   3.158   3.537   0.374  0.1974 -0.6240  0.1295
  880MPD2    C312958   3.248   3.440   0.337 -0.1800  0.4811  0.1391
  880MPD2    C412959   3.236   3.376   0.217 -0.5212  0.6248  0.1349
  880MPD2    C512960   3.134   3.415   0.129 -0.1662 -0.2350 -0.4671
  880MPD2     H12961   3.188   3.600   0.457  0.2896 -0.9283  0.3260
  880MPD2    H112962   3.301   3.300   0.176  2.4942  1.7286  2.9160
  880MPD2    H212963   2.966   3.540   0.094 -1.0886 -0.9605  0.3249
  880MPD2    H312964   3.127   3.377   0.028  4.1231 -1.0770 -0.4604
  880MPD2     N12965   3.362   3.416   0.413 -0.3149 -0.6473  0.9430
  880MPD2    H512966   3.370   3.459   0.504 -0.9476  0.2377  0.5807
  880MPD2    N112967   2.950   3.655   0.327  0.5761 -0.2674 -0.0447
  880MPD2    H712968   2.893   3.696   0.253  0.6862 -2.7020 -1.4853
  881MPD2     C12969   3.020   4.623   0.243  0.3080  0.1253 -0.6424
  881MPD2    C112970   3.014   4.524   0.141  0.4433 -0.8029 -0.2169
  881MPD2    C212971   2.962   4.395   0.171  0.2400  0.0777  0.3955
  881MPD2    C312972   2.913   4.378   0.301 -0.3268  0.2092  0.9684
  881MPD2    C412973   2.911   4.478   0.389  0.3616 -0.4503 -0.3480
  881MPD2    C512974   2.958   4.604   0.361 -0.3204 -0.1101  0.7976
  881MPD2     H12975   2.968   4.310   0.104 -1.3029  0.2822 -0.0073
  881MPD2    H112976   2.857   4.464   0.482 -0.0445  0.2740 -0.4748
  881MPD2    H212977   3.059   4.723   0.224  0.5310 -0.3146 -2.4885
  881MPD2    H312978   2.950   4.683   0.434 -0.6236  1.6227 -1.1311
  881MPD2     N12979   2.861   4.259   0.353  0.5361 -0.0476  0.3568
  881MPD2    H512980   2.831   4.263   0.450 -3.2673  1.7884 -0.8775
  881MPD2    N112981   3.080   4.530   0.016  0.4441 -0.1411 -0.0615
  881MPD2    H712982   3.071   4.443  17.724  0.1336 -0.0924 -0.0907
  882MPD2     C12983   1.464   1.934  14.244  0.0828 -0.3479 -0.1886
  882MPD2    C112984   1.420   2.044  14.303 -0.1240 -0.5608  0.3380
  882MPD2    C212985   1.278   2.053  14.319  0.5137  0.0185 -0.3407
  882MPD2    C312986   1.191   1.954  14.272 -0.6202 -0.1206  0.1727
  882MPD2    C412987   1.254   1.844  14.215 -0.2991  0.0117  0.3184
  882MPD2    C512988   1.387   1.837  14.197  0.3858 -1.1011  0.2674
  882MPD2     H12989   1.221   2.128  14.371  1.5909  0.6960 -0.1349
  882MPD2    H112990   1.190   1.762  14.184  0.2999 -0.9102  1.5040
  882MPD2    H212991   1.569   1.914  14.226 -0.2552 -3.5127  1.4299
  882MPD2    H312992   1.422   1.743  14.157  1.8870 -1.1991  1.8170
  882MPD2     N12993   1.053   1.955  14.287  0.1779  0.4306  0.3155
  882MPD2    H512994   1.013   1.873  14.242  0.5763  0.0881  0.5870
  882MPD2    N112995   1.508   2.148  14.328  0.1904 -0.0094  0.1920
  882MPD2    H712996   1.606   2.133  14.311  0.4877  1.3116  0.7181
  883MPD2     C12997   3.299   1.497  15.773 -0.4676 -0.4406 -0.0669
  883MPD2    C112998   3.238   1.622  15.804 -0.6121  0.2597 -0.3297
  883MPD2    C212999   3.299   1.700  15.900 -0.4222 -0.2435 -0.2369
  883MPD2    C313000   3.405   1.657  15.975  0.3072 -0.4527  0.4796
  883MPD2    C413001   3.446   1.529  15.958 -1.2387  0.1342  0.1284
  883MPD2    C513002   3.394   1.452  15.859 -0.3404  0.1970  0.5857
  883MPD2     H13003   3.273   1.803  15.923 -0.7668 -0.3255 -0.2599
  883MPD2    H113004   3.531   1.489  16.011 -2.2369 -0.6713  1.1381
  883MPD2    H213005   3.270   1.434  15.689 -1.6172  1.6653 -1.2646
  883MPD2    H313006   3.440   1.354  15.850  0.3204  0.3327  2.4031
  883MPD2     N13007   3.480   1.746  16.056 -0.2010 -0.3289 -0.0604
  883MPD2    H513008   3.479   1.844  16.028  0.3523 -0.2367  0.2443
  883MPD2    N113009   3.125   1.675  15.731 -0.1851 -0.7943  0.4280
  883MPD2    H713010   3.093   1.766  15.765  0.8188 -0.2006 -0.2007
  884MPD2     C13011   0.379   2.766  14.995  0.2408 -0.3627 -0.2315
  884MPD2    C113012   0.381   2.905  15.011 -0.7280 -0.6798  0.0892
  884MPD2    C213013   0.266   2.961  15.062 -0.3616  0.5350  0.4071
  884MPD2    C313014   0.161   2.884  15.127  0.0374  0.5386  0.1573
  884MPD2    C413015   0.175   2.747  15.124 -0.3586  0.6321  0.1437
  884MPD2    C513016   0.280   2.692  15.057 -0.4606  0.1632  0.8141
  884MPD2     H13017   0.253   3.067  15.079 -0.6267  0.3817  1.1557
  884MPD2    H113018   0.112   2.674  15.175 -2.1294  2.3265  0.4064
  884MPD2    H213019   0.462   2.717  14.945  0.4910 -0.7222  0.5272
  884MPD2    H313020   0.287   2.584  15.060 -1.5985  0.0496 -0.7309
  884MPD2     N13021   0.053   2.953  15.193 -0.0021 -0.1176  0.3829
  884MPD2    H513022   0.048   3.053  15.178  1.9494 -0.1938 -0.7341
  884MPD2    N113023   0.484   2.991  14.956  0.3128 -0.4349  0.3035
  884MPD2    H713024   0.474   3.090  14.975  0.3462 -0.5439  0.8903
  885MPD2     C13025   3.704   2.609   0.675 -0.5520 -0.4153 -0.0356
  885MPD2    C113026   3.808   2.561   0.604  0.4197  0.1557 -0.3828
  885MPD2    C213027   3.796   2.549   0.461 -0.1485 -0.3027 -0.3533
  885MPD2    C313028   3.685   2.605   0.397 -0.1983  1.0922  0.2335
  885MPD2    C413029   3.571   2.623   0.475 -0.0274  0.5557  0.5044
  885MPD2    C513030   3.588   2.629   0.608  0.3384 -0.2380 -0.2473
  885MPD2     H13031   3.883   2.528   0.399 -0.6073  1.1342 -1.5105
  885MPD2    H113032   3.479   2.651   0.425 -0.2772  1.0654  1.2453
  885MPD2    H213033   3.698   2.620   0.783  0.2401  3.3036 -0.3778
  885MPD2    H313034   3.506   2.676   0.660  0.0953  0.0855 -0.9347
  885MPD2     N13035   3.686   2.612   0.257  0.2779  0.5991 -0.6139
  885MPD2    H513036   3.773   2.601   0.206  0.9256 -0.4934  0.7287
  885MPD2    N113037   3.918   2.524   0.682  0.2067 -0.4072  0.5980
  885MPD2    H713038   3.912   2.541   0.782 -2.0919  1.1074  0.1951
  886MPD2     C13039   4.485   1.850  15.659 -0.1972  0.0111  0.6337
  886MPD2    C113040   4.591   1.777  15.606 -0.9599  0.2465 -0.1703
  886MPD2    C213041   4.619   1.775  15.472 -0.3914  0.5595 -0.6422
  886MPD2    C313042   4.543   1.857  15.390  0.3850 -0.0382 -0.9827
  886MPD2    C413043   4.446   1.940  15.437 -0.7576  0.1861 -0.2828
  886MPD2    C513044   4.416   1.935  15.571 -0.7907  0.3057  0.0738
  886MPD2     H13045   4.697   1.714  15.427  0.1236 -0.8719  2.1661
  886MPD2    H113046   4.398   2.019  15.381 -2.2986 -0.7688 -0.3123
  886MPD2    H213047   4.465   1.865  15.764 -1.1827 -0.5363  0.5225
  886MPD2    H313048   4.340   2.002  15.609  0.4940  1.5104  0.5152
  886MPD2     N13049   4.595   1.871  15.260  0.3975 -0.1946 -0.3119
  886MPD2    H513050   4.687   1.828  15.256 -0.1452 -1.3127 -0.6726
  886MPD2    N113051   4.692   1.718  15.687 -0.8441 -0.0929 -0.1094
  886MPD2    H713052   0.034   1.686  15.637  0.0689  0.1859  1.2051
  887MPD2     C13053   0.623   1.661  16.200 -0.0502  0.1572  0.7678
  887MPD2    C113054   0.609   1.747  16.095  0.4636 -0.1993  0.0569
  887MPD2    C213055   0.719   1.817  16.044 -0.3060 -0.1561 -0.1060
  887MPD2    C313056   0.848   1.787  16.088 -0.2644  0.5948  0.0420
  887MPD2    C413057   0.857   1.696  16.191  0.4124 -0.4175  0.3129
  887MPD2    C513058   0.749   1.642  16.245 -0.1886 -0.3500 -0.4571
  887MPD2     H13059   0.720   1.880  15.955  0.1058 -0.6877 -0.4848
  887MPD2    H113060   0.955   1.657  16.215  0.2884 -1.5429 -1.0286
  887MPD2    H213061   0.540   1.611  16.248 -1.6088  1.2010 -0.8390
  887MPD2    H313062   0.761   1.565  16.321 -0.6477  1.1646  1.1683
  887MPD2     N13063   0.965   1.861  16.040  0.3333 -0.7353  0.6724
  887MPD2    H513064   0.942   1.939  15.980  2.1251  1.1523  2.4081
  887MPD2    N113065   0.484   1.756  16.031 -0.2942 -0.0158 -0.1687
  887MPD2    H713066   0.486   1.790  15.935 -0.3374 -0.4213 -0.3146
  888MPD2     C13067   2.329   1.514  14.675  0.3758  0.1065  0.7803
  888MPD2    C113068   2.350   1.533  14.816 -0.4547 -0.6720  0.3824
  888MPD2    C213069   2.405   1.655  14.865 -0.5686 -0.2690 -0.6672
  888MPD2    C313070   2.450   1.751  14.777 -0.0374 -0.2919 -0.4164
  888MPD2    C413071   2.442   1.719  14.638 -1.1580 -0.3501 -0.4851
  888MPD2    C513072   2.382   1.609  14.588 -0.1781 -0.4636 -0.3408
  888MPD2     H13073   2.415   1.666  14.972 -1.7878 -0.2670 -0.5533
  888MPD2    H113074   2.466   1.795  14.565 -1.1940  1.3946  1.3063
  888MPD2    H213075   2.271   1.428  14.643  0.9259 -0.7656  2.1275
  888MPD2    H313076   2.362   1.597  14.482  0.8872 -1.9591 -0.3764
  888MPD2     N13077   2.491   1.879  14.827 -0.5876 -0.6463  0.1069
  888MPD2    H513078   2.449   1.906  14.916 -1.8673  1.5560 -1.1824
  888MPD2    N113079   2.301   1.440  14.912 -0.1305  0.3540  0.1462
  888MPD2    H713080   2.315   1.453  15.011 -0.7582  1.6245  0.0682
  889MPD2     C13081   1.480   1.037  12.947  0.0689  0.0569 -0.5005
  889MPD2    C113082   1.490   0.976  13.074  0.0444  0.7224  0.2834
  889MPD2    C213083   1.562   1.044  13.169 -0.2270  0.1280 -0.1659
  889MPD2    C313084   1.602   1.179  13.153 -0.6820  0.3527 -0.1471
  889MPD2    C413085   1.575   1.239  13.036  0.0577  0.8151  0.1791
  889MPD2    C513086   1.524   1.165  12.934  0.4671 -0.0797 -0.8368
  889MPD2     H13087   1.574   0.999  13.267 -2.0175 -0.7622 -0.3683
  889MPD2    H113088   1.605   1.339  13.008 -0.8252  0.4578 -2.0704
  889MPD2    H213089   1.440   0.999  12.853 -3.0514 -2.0113  1.6624
  889MPD2    H313090   1.493   1.212  12.841 -0.7909  2.4024  0.8469
  889MPD2     N13091   1.674   1.241  13.266 -0.1081 -0.0679 -0.6305
  889MPD2    H513092   1.678   1.190  13.354  1.2229 -0.5610 -0.9760
  889MPD2    N113093   1.473   0.839  13.090  0.4657 -0.6370  0.0097
  889MPD2    H713094   1.533   0.800  13.163  0.7995  1.5931  0.9159
  890MPD2     C13095   1.373   3.114  15.210  0.7493  0.1031  0.2687
  890MPD2    C113096   1.502   3.149  15.180  0.1088  0.2392  0.2937
  890MPD2    C213097   1.602   3.066  15.233  0.0269  0.1724  0.3747
  890MPD2    C313098   1.573   2.949  15.295  0.6642 -0.6470 -0.7531
  890MPD2    C413099   1.447   2.922  15.327  0.1041  0.6917  0.3136
  890MPD2    C513100   1.348   3.003  15.291  0.4990  0.0209 -0.0963
  890MPD2     H13101   1.707   3.078  15.210 -0.1706 -0.1371 -0.6835
  890MPD2    H113102   1.408   2.830  15.370  0.7599  1.0241  1.6256
  890MPD2    H213103   1.289   3.175  15.179  0.4608  0.3290  1.4775
  890MPD2    H313104   1.245   2.985  15.321 -0.0394  0.0741 -1.9563
  890MPD2     N13105   1.685   2.862  15.337 -0.2696 -0.0524  0.3967
  890MPD2    H513106   1.773   2.906  15.315 -1.6389  2.2506 -0.4980
  890MPD2    N113107   1.536   3.267  15.104  0.3453  0.7269  0.0283
  890MPD2    H713108   1.636   3.288  15.098  0.7684 -0.9099  1.3288
  891MPD2     C13109   4.351   1.352  16.893  1.0214  0.0371 -0.7931
  891MPD2    C113110   4.309   1.219  16.873  0.3469  0.2774  0.3541
  891MPD2    C213111   4.375   1.113  16.939  0.4984 -0.1058  0.4549
  891MPD2    C313112   4.484   1.146  17.019  0.1424  0.7887 -0.4983
  891MPD2    C413113   4.521   1.275  17.042 -0.0728  0.2792  0.8619
  891MPD2    C513114   4.459   1.378  16.973  0.2839 -0.5141  0.3312
  891MPD2     H13115   4.345   1.009  16.933 -2.0464  0.7993 -2.0905
  891MPD2    H113116   4.602   1.296  17.112 -0.3830  1.0974  0.9751
  891MPD2    H213117   4.301   1.437  16.847  2.1297  1.3287  0.3852
  891MPD2    H313118   4.485   1.482  16.991  0.7966 -0.4255 -0.8743
  891MPD2     N13119   4.542   1.029  17.076 -0.4394  0.0553  0.2435
  891MPD2    H513120   4.505   0.937  17.059 -0.8089  0.5557 -1.7198
  891MPD2    N113121   4.202   1.205  16.785  0.2036  0.6074 -0.0327
  891MPD2    H713122   4.167   1.288  16.738  1.0260  0.7850 -0.3343
  892MPD2     C13123   0.391   2.708  14.394 -0.2235  0.4375  0.6747
  892MPD2    C113124   0.326   2.591  14.435 -0.6488 -1.0415  0.0658
  892MPD2    C213125   0.383   2.462  14.418 -1.3788 -0.0189 -0.3148
  892MPD2    C313126   0.509   2.454  14.360  0.2756  0.2062 -0.0588
  892MPD2    C413127   0.583   2.567  14.336 -0.3265 -0.5272 -0.1014
  892MPD2    C513128   0.522   2.694  14.343 -0.4278 -0.0364 -0.0804
  892MPD2     H13129   0.318   2.384  14.455 -0.6473  0.6179  2.3153
  892MPD2    H113130   0.683   2.563  14.295 -0.0276 -0.7681  0.6375
  892MPD2    H213131   0.343   2.805  14.397  1.3411  1.1809  1.2486
  892MPD2    H313132   0.566   2.786  14.307  1.1122 -0.4044  0.8597
  892MPD2     N13133   0.577   2.331  14.343  0.4788 -0.1619 -0.3633
  892MPD2    H513134   0.665   2.331  14.292  0.5580  1.1938 -0.2360
  892MPD2    N113135   0.206   2.594  14.498  0.5905  0.2207 -0.1263
  892MPD2    H713136   0.173   2.508  14.541 -0.2891  0.9014  0.5758
  893MPD2     C13137   2.018   4.643   1.046  0.5664  0.1538 -0.0712
  893MPD2    C113138   2.073   4.527   0.996 -0.5838 -0.2780 -0.5730
  893MPD2    C213139   1.998   4.414   0.971  0.2174  0.1875 -0.3122
  893MPD2    C313140   1.853   4.428   0.985 -0.8773 -0.4032 -0.3126
  893MPD2    C413141   1.806   4.545   1.040 -0.3341  0.7005  0.1195
  893MPD2    C513142   1.888   4.649   1.080 -0.4102  0.1022 -0.0920
  893MPD2     H13143   2.045   4.324   0.933 -1.4198 -0.3610 -1.0140
  893MPD2    H113144   1.699   4.555   1.048 -0.2259  0.6654  1.6228
  893MPD2    H213145   2.080   4.726   1.077  2.2541 -1.2970  0.4328
  893MPD2    H313146   1.849   4.731   1.138  0.7784  0.0427  0.7734
  893MPD2     N13147   1.772   4.319   0.955  0.2294  0.6449 -0.4446
  893MPD2    H513148   1.682   4.324   1.000 -0.4490 -1.6576 -1.5221
  893MPD2    N113149   2.217   4.516   0.978 -0.3299  0.3593  0.2881
  893MPD2    H713150   2.265   4.601   1.006  0.6757  0.0550 -0.5330
  894MPD2     C13151   0.803   2.601   0.994  0.6624  0.4352  0.4563
  894MPD2    C113152   0.790   2.687   1.101  0.3938 -0.0660 -0.1899
  894MPD2    C213153   0.801   2.821   1.077  0.3091 -0.8883  0.3629
  894MPD2    C313154   0.833   2.867   0.944  0.0608 -0.2822  0.7884
  894MPD2    C413155   0.842   2.774   0.842  0.2270 -0.1759 -0.4463
  894MPD2    C513156   0.825   2.644   0.868  0.1646 -0.4230  0.0915
  894MPD2     H13157   0.794   2.884   1.164  0.1967  2.0109 -1.7392
  894MPD2    H113158   0.866   2.801   0.739 -1.7502 -1.2164 -1.1752
  894MPD2    H213159   0.793   2.494   1.008 -0.1300  0.4651  0.1572
  894MPD2    H313160   0.826   2.569   0.789 -1.0415 -2.1666  1.7102
  894MPD2     N13161   0.868   3.001   0.927  0.2617  0.1330 -0.2871
  894MPD2    H513162   0.872   3.058   1.011 -0.1982  0.2985 -0.3729
  894MPD2    N113163   0.766   2.636   1.231 -0.5685  0.0087 -0.2732
  894MPD2    H713164   0.743   2.708   1.299 -0.7256  1.0569 -1.4393
  895MPD2     C13165   4.168   1.500  13.713 -0.0920  0.2455  0.3877
  895MPD2    C113166   4.153   1.456  13.584 -0.4800 -0.5168  0.1434
  895MPD2    C213167   4.218   1.339  13.542 -0.1738 -0.6932  0.4593
  895MPD2    C313168   4.290   1.255  13.626  0.3777 -0.4351  0.0902
  895MPD2    C413169   4.329   1.313  13.747  0.2615  0.2557  0.0276
  895MPD2    C513170   4.258   1.425  13.790 -0.2522  0.2505  0.0719
  895MPD2     H13171   4.193   1.306  13.442  1.4747 -0.8917  0.1144
  895MPD2    H113172   4.389   1.269  13.825 -2.0867 -0.1579  1.6029
  895MPD2    H213173   4.120   1.586  13.757  0.2199  0.5394  0.1502
  895MPD2    H313174   4.296   1.457  13.886  2.2940  2.0789 -1.5273
  895MPD2     N13175   4.332   1.131  13.577  0.1135 -0.5028 -0.1091
  895MPD2    H513176   4.283   1.109  13.491  1.4188 -1.7769 -0.5338
  895MPD2    N113177   4.071   1.521  13.490  0.2878  0.7340 -0.0030
  895MPD2    H713178   4.055   1.470  13.404 -1.4110 -0.1050  0.8220
  896MPD2     C13179   2.332   3.255   2.082  0.6186  0.9122  0.8725
  896MPD2    C113180   2.338   3.237   1.944  0.2731  1.1105  0.2759
  896MPD2    C213181   2.215   3.206   1.884 -0.1789  0.1285  0.8558
  896MPD2    C313182   2.099   3.185   1.953  0.0327 -0.2466 -0.3066
  896MPD2    C413183   2.100   3.205   2.084  1.0198 -0.5928  0.6301
  896MPD2    C513184   2.214   3.230   2.150  0.0725  0.7460  0.6778
  896MPD2     H13185   2.199   3.175   1.781 -0.9160  1.0454  0.6966
  896MPD2    H113186   2.007   3.202   2.139  0.5384 -0.0340 -0.1434
  896MPD2    H213187   2.425   3.259   2.138  0.5080 -1.4417  1.2205
  896MPD2    H313188   2.228   3.227   2.258  1.2898  0.2518  0.5014
  896MPD2     N13189   1.982   3.173   1.868 -0.9977  0.4084 -0.4681
  896MPD2    H513190   1.999   3.171   1.768  0.1474 -1.6390 -0.2402
  896MPD2    N113191   2.467   3.245   1.881  0.5035  0.1103  1.0278
  896MPD2    H713192   2.545   3.276   1.938  1.7450 -1.4350  0.1748
  897MPD2     C13193   2.686   0.755  10.797  0.5438  0.8374  0.2912
  897MPD2    C113194   2.648   0.882  10.761 -1.0280 -0.2377  0.0863
  897MPD2    C213195   2.568   0.950  10.846  0.0948 -0.0101 -0.2675
  897MPD2    C313196   2.517   0.892  10.962  0.9957 -0.9729  0.4223
  897MPD2    C413197   2.550   0.763  10.993 -0.2066 -0.3930  0.1776
  897MPD2    C513198   2.633   0.699  10.913  0.2947  0.3887 -0.2811
  897MPD2     H13199   2.554   1.056  10.827 -0.1831  0.1881  1.0529
  897MPD2    H113200   2.512   0.719  11.085  1.0834 -1.5365  0.1652
  897MPD2    H213201   2.751   0.699  10.731  0.3839  0.0448  0.8155
  897MPD2    H313202   2.660   0.595  10.931  0.3829  0.2441 -1.2303
  897MPD2     N13203   2.439   0.975  11.043  0.2469  0.0933 -0.2368
  897MPD2    H513204   2.427   1.074  11.020  1.2448  0.5609  1.2383
  897MPD2    N113205   2.700   0.947  10.642  0.3493 -0.0415  0.1018
  897MPD2    H713206   2.751   0.882  10.583 -1.1078  0.2327 -1.4688
  898MPD2     C13207   0.300   1.334  17.657 -0.2153  0.7970  0.1199
  898MPD2    C113208   0.386   1.437  17.631 -0.1953 -0.4956  0.3582
  898MPD2    C213209   0.371   1.518  17.524 -0.2902  0.2909  0.5276
  898MPD2    C313210   0.254   1.514  17.448  0.0988 -0.1506  0.4756
  898MPD2    C413211   0.165   1.416  17.477  0.1379 -0.2316  0.9155
  898MPD2    C513212   0.185   1.329  17.583  0.1562 -0.0362  0.1983
  898MPD2     H13213   0.440   1.597  17.497 -0.6820  0.3263 -0.3699
  898MPD2    H113214   0.060   1.429  17.455  0.4731  1.8679  0.5563
  898MPD2    H213215   0.296   1.272  17.746  0.5976 -0.0345 -0.4278
  898MPD2    H313216   0.100   1.272  17.618  0.7651 -0.7633  0.5077
  898MPD2     N13217   0.221   1.613  17.358  1.1162  0.4118  0.0249
  898MPD2    H513218   0.290   1.687  17.352  1.7005 -0.1127  0.3355
  898MPD2    N113219   0.495   1.458  17.721 -0.5071 -0.1533 -0.4889
  898MPD2    H713220   0.568   1.519  17.688 -0.6774  0.8215  0.8997
  899MPD2     C13221   1.043   1.712  17.155  0.6082  0.4288 -0.1841
  899MPD2    C113222   1.077   1.830  17.223 -0.0264 -0.4627  0.7380
  899MPD2    C213223   1.105   1.819  17.361 -0.5145  0.2793  0.4522
  899MPD2    C313224   1.091   1.701  17.427 -0.3647 -0.0721  0.1532
  899MPD2    C413225   1.045   1.591  17.362 -0.3844 -1.0670  0.6658
  899MPD2    C513226   1.021   1.597  17.224  0.0316 -0.4851  0.6730
  899MPD2     H13227   1.142   1.903  17.419  2.9521 -1.8445  1.3203
  899MPD2    H113228   1.031   1.492  17.402  1.0277 -2.1329 -1.4996
  899MPD2    H213229   1.024   1.718  17.049  0.6066 -0.8319 -0.2539
  899MPD2    H313230   0.985   1.510  17.169 -1.0955 -0.2244  0.9974
  899MPD2     N13231   1.102   1.687  17.568 -0.9294 -0.2125  0.5614
  899MPD2    H513232   1.047   1.613  17.609  1.1501 -0.9866  1.9559
  899MPD2    N113233   1.083   1.951  17.145 -0.4178  0.3527  0.9455
  899MPD2    H713234   1.050   1.939  17.050 -0.9644 -1.1634  1.3160
  900MPD2     C13235   0.513   4.080  13.053 -0.5009  1.1004 -0.0258
  900MPD2    C113236   0.413   3.984  13.020 -0.5225  0.2127  0.1954
  900MPD2    C213237   0.324   4.014  12.911  0.0549 -0.4896 -0.3835
  900MPD2    C313238   0.348   4.124  12.828  0.2355 -0.5779 -0.9012
  900MPD2    C413239   0.446   4.216  12.862 -0.3784 -0.1023 -0.1666
  900MPD2    C513240   0.533   4.188  12.969 -0.0387 -0.4280  0.4908
  900MPD2     H13241   0.253   3.938  12.880  0.3276 -1.5547  1.5671
  900MPD2    H113242   0.460   4.305  12.802 -1.7903  0.0260 -0.3112
  900MPD2    H213243   0.580   4.075  13.139 -0.9660  0.1672  0.2852
  900MPD2    H313244   0.605   4.262  13.002  0.5759  0.1827 -2.2716
  900MPD2     N13245   0.284   4.122  12.703  0.0505  0.1419  0.0001
  900MPD2    H513246   0.199   4.068  12.695  0.8096 -0.6430 -2.9460
  900MPD2    N113247   0.395   3.881  13.115  0.0664 -0.2818  0.2187
  900MPD2    H713248   0.458   3.880  13.194  0.4870  1.5085 -0.0902
  901MPD2     C13249   0.056   2.833  13.222  0.1489 -0.3722 -0.7822
  901MPD2    C113250   0.196   2.843  13.217  0.6096 -0.2924  0.3272
  901MPD2    C213251   0.253   2.962  13.211  0.6162 -0.3239 -0.2126
  901MPD2    C313252   0.179   3.086  13.228  0.0457  0.0408  0.6346
  901MPD2    C413253   0.044   3.076  13.243 -0.0631  0.2550  0.1464
  901MPD2    C513254   4.724   2.952  13.237 -0.5026  0.3910  0.6416
  901MPD2     H13255   0.359   2.959  13.188 -0.2512  1.3371 -4.4240
  901MPD2    H113256   4.724   3.166  13.241  0.8301  0.8262 -0.9757
  901MPD2    H213257   0.008   2.736  13.210 -0.0455 -0.3605 -0.0905
  901MPD2    H313258   4.616   2.946  13.235 -0.4671  0.8420 -2.4025
  901MPD2     N13259   0.246   3.213  13.242  0.6210 -0.0965  0.0746
  901MPD2    H513260   0.347   3.209  13.230  0.6725  1.9935 -0.3087
  901MPD2    N113261   0.274   2.722  13.198 -0.2246 -0.0597 -0.0272
  901MPD2    H713262   0.223   2.641  13.166 -0.0086 -0.1704 -0.0920
  902MPD2     C13263   4.126   2.321  13.245  0.3362 -0.5737  0.3690
  902MPD2    C113264   4.127   2.461  13.210 -0.4831  0.2434 -0.1807
  902MPD2    C213265   4.213   2.497  13.110 -0.0676 -0.1292  1.0903
  902MPD2    C313266   4.287   2.401  13.037  0.5014  0.1479  0.0185
  902MPD2    C413267   4.289   2.273  13.090  0.3380 -0.9002 -0.1687
  902MPD2    C513268   4.205   2.230  13.184 -0.7686  0.2035  0.2014
  902MPD2     H13269   4.219   2.599  13.073 -0.2716 -0.9687 -1.2776
  902MPD2    H113270   4.342   2.192  13.042 -0.4269 -0.8724 -1.0594
  902MPD2    H213271   4.058   2.287  13.322  1.3667 -1.0108  1.0798
  902MPD2    H313272   4.198   2.126  13.212 -0.8721  0.1172 -0.1444
  902MPD2     N13273   4.366   2.430  12.927 -0.0151  0.9466 -0.0674
  902MPD2    H513274   4.424   2.358  12.885  1.2104  0.9719  1.5962
  902MPD2    N113275   4.037   2.546  13.281 -0.4468 -0.0470  0.3167
  902MPD2    H713276   3.998   2.508  13.367 -2.5327 -0.9342 -1.0120
  903MPD2     C13277   4.247   2.722  12.123 -0.1814  0.4716 -0.1789
  903MPD2    C113278   4.283   2.595  12.152  0.4839 -0.2390 -0.8826
  903MPD2    C213279   4.248   2.489  12.067  0.0977 -0.1625 -0.1613
  903MPD2    C313280   4.165   2.516  11.963  0.1009  0.1665  0.4740
  903MPD2    C413281   4.134   2.648  11.933  0.0050  0.0688  0.1093
  903MPD2    C513282   4.177   2.755  12.013  0.6044  0.0590  0.2356
  903MPD2     H13283   4.270   2.385  12.084  1.2378 -0.2354 -2.1263
  903MPD2    H113284   4.079   2.672  11.843  0.1639 -0.5205 -0.1514
  903MPD2    H213285   4.254   2.801  12.197 -1.2511  0.1665  0.2559
  903MPD2    H313286   4.144   2.857  11.995 -1.3944 -0.7156 -0.4533
  903MPD2     N13287   4.114   2.409  11.888 -0.2695  0.0699  0.4666
  903MPD2    H513288   4.163   2.322  11.907  0.6268  0.0671 -1.8376
  903MPD2    N113289   4.338   2.556  12.275  0.1964 -0.5976 -0.5147
  903MPD2    H713290   4.341   2.456  12.290 -0.1251 -0.6145 -0.5633
  904MPD2     C13291   3.605   0.952  14.048  0.3612  0.0855 -0.2870
  904MPD2    C113292   3.704   1.041  14.009 -0.3818 -0.1668 -0.8942
  904MPD2    C213293   3.836   1.006  14.030 -0.5967  0.2297 -0.5898
  904MPD2    C313294   3.870   0.883  14.083  0.2238 -0.2511 -0.5394
  904MPD2    C413295   3.773   0.795  14.118  0.2234  0.5214  0.0690
  904MPD2    C513296   3.642   0.837  14.109 -0.0054  0.1673 -0.6654
  904MPD2     H13297   3.911   1.075  13.993  1.1094 -1.4669 -0.2966
  904MPD2    H113298   3.802   0.701  14.164 -1.3290  0.8348  1.7171
  904MPD2    H213299   3.499   0.970  14.034  0.8015  1.0653 -2.4213
  904MPD2    H313300   3.557   0.784  14.149  0.1423  0.5991  0.2125
  904MPD2     N13301   3.998   0.838  14.104 -0.8338  0.1559  0.4084
  904MPD2    H513302   4.015   0.749  14.150 -2.8891 -1.1503 -1.3366
  904MPD2    N113303   3.673   1.169  13.952 -0.0186 -1.1282  0.2668
  904MPD2    H713304   3.750   1.235  13.949 -0.1539 -0.9469  0.6808
  905MPD2     C13305   3.672   1.066  13.195 -0.9639 -0.9354 -0.1156
  905MPD2    C113306   3.739   1.103  13.316 -0.2081  0.2307  0.8918
  905MPD2    C213307   3.864   1.039  13.344  0.4144 -0.0700  0.0473
  905MPD2    C313308   3.920   0.946  13.257  0.0383  0.2877  0.4678
  905MPD2    C413309   3.851   0.903  13.142 -0.2790 -0.0677  0.5584
  905MPD2    C513310   3.735   0.969  13.118 -0.1623  0.5160  0.1722
  905MPD2     H13311   3.908   1.066  13.439  1.4892 -0.6217 -0.2859
  905MPD2    H113312   3.891   0.832  13.071 -1.3540  0.5942 -0.6861
  905MPD2    H213313   3.582   1.117  13.162 -0.6475  0.9463  1.9182
  905MPD2    H313314   3.683   0.941  13.027 -0.8976 -0.4966  0.8979
  905MPD2     N13315   4.037   0.883  13.293 -0.2765 -0.1462 -0.2164
  905MPD2    H513316   4.074   0.801  13.244 -1.7845 -0.2961 -1.0931
  905MPD2    N113317   3.680   1.200  13.404  0.0488 -0.8304  0.4803
  905MPD2    H713318   3.580   1.206  13.390  0.0601  0.2765  0.9007
  906MPD2     C13319   1.392   1.573  11.255  0.1631 -0.0073 -0.1525
  906MPD2    C113320   1.347   1.494  11.152  1.2670  0.4266 -0.1229
  906MPD2    C213321   1.289   1.373  11.193  0.3269 -0.0683 -0.1837
  906MPD2    C313322   1.280   1.329  11.323 -0.0237  0.7812 -0.3308
  906MPD2    C413323   1.317   1.415  11.429  0.1521 -0.1087  0.7442
  906MPD2    C513324   1.366   1.537  11.387  0.1383 -0.2806  0.1381
  906MPD2     H13325   1.276   1.301  11.113  0.6577 -1.2092  0.8020
  906MPD2    H113326   1.303   1.387  11.533 -2.2148 -0.2327  0.3828
  906MPD2    H213327   1.448   1.664  11.238 -1.0259  0.6066 -0.7770
  906MPD2    H313328   1.408   1.593  11.470 -0.1342 -1.4671  1.0854
  906MPD2     N13329   1.236   1.205  11.358  0.7645  0.2010  0.3271
  906MPD2    H513330   1.250   1.183  11.457 -1.0416 -0.0383  0.5332
  906MPD2    N113331   1.360   1.520  11.016  0.4797 -0.2024 -1.0915
  906MPD2    H713332   1.326   1.440  10.963  1.1902 -0.7817 -0.6852
  907MPD2     C13333   0.245   0.243  15.301 -0.8665  0.0827 -0.5237
  907MPD2    C113334   0.321   0.127  15.275  0.7213  0.5818 -0.1533
  907MPD2    C213335   0.423   0.097  15.370  0.7726 -0.2407 -0.3035
  907MPD2    C313336   0.446   0.174  15.485 -1.0705  0.3164  0.1908
  907MPD2    C413337   0.368   0.283  15.505  0.0451 -0.2531 -0.1836
  907MPD2    C513338   0.275   0.321  15.414 -0.0847 -0.0671 -0.1669
  907MPD2     H13339   0.480   0.008  15.345  0.0936 -1.0242  0.9527
  907MPD2    H113340   0.381   0.355  15.585  1.0472 -0.6275  0.0003
  907MPD2    H213341   0.156   0.269  15.245 -1.2131  1.2042  0.5387
  907MPD2    H313342   0.213   0.407  15.437  0.1750 -0.1804  0.9586
  907MPD2     N13343   0.557   0.138  15.567  0.7416  0.3797  0.5391
  907MPD2    H513344   0.621   0.069  15.530  0.2520  0.1420  0.1416
  907MPD2    N113345   0.287   0.042  15.169 -0.4510 -0.1823  0.2188
  907MPD2    H713346   0.328   4.689  15.169  1.4107  0.6437  0.9009
  908MPD2     C13347   2.369   0.646   9.885 -0.2571 -0.3677 -1.2385
  908MPD2    C113348   2.477   0.609   9.957  0.0787  0.5080  0.1116
  908MPD2    C213349   2.532   0.686  10.059 -0.4710 -0.7769  0.2280
  908MPD2    C313350   2.480   0.815  10.065 -0.5406 -0.2218 -0.0334
  908MPD2    C413351   2.364   0.853  10.000  0.1576 -0.3495  0.5509
  908MPD2    C513352   2.306   0.767   9.912 -0.0877 -0.8769  0.1080
  908MPD2     H13353   2.628   0.662  10.102 -0.3753 -0.3596  0.2458
  908MPD2    H113354   2.305   0.941  10.022 -0.0061 -0.3511  0.1159
  908MPD2    H213355   2.337   0.579   9.807 -1.5388 -0.2742 -0.7982
  908MPD2    H313356   2.219   0.793   9.854  1.5288  1.2520 -1.3265
  908MPD2     N13357   2.540   0.905  10.155  0.2031  0.1818  0.6799
  908MPD2    H513358   2.607   0.859  10.216  0.1843  2.0398  2.0927
  908MPD2    N113359   2.529   0.488   9.918  0.2717  0.0326 -0.2453
  908MPD2    H713360   2.504   0.443   9.830  0.2151 -1.6706  0.6512
  909MPD2     C13361   2.995   3.849  11.991 -0.6334  0.6443  0.3499
  909MPD2    C113362   3.075   3.964  12.008  0.3420  0.3941 -0.2032
  909MPD2    C213363   3.038   4.056  12.104 -0.5558  1.1073  0.3833
  909MPD2    C313364   2.930   4.036  12.188  0.1579  0.1358 -0.2139
  909MPD2    C413365   2.853   3.922  12.176 -1.3212  0.2153  0.2755
  909MPD2    C513366   2.883   3.838  12.074  0.0483  0.8053 -0.3325
  909MPD2     H13367   3.088   4.151  12.116  1.9907 -0.0958 -0.8783
  909MPD2    H113368   2.775   3.894  12.245 -0.5690 -0.1036  1.0066
  909MPD2    H213369   3.011   3.769  11.919 -0.1817  0.9710  0.0856
  909MPD2    H313370   2.820   3.752  12.051  1.0020 -0.0796  0.3488
  909MPD2     N13371   2.908   4.139  12.288 -0.2759 -0.2024  0.2148
  909MPD2    H513372   2.970   4.218  12.270 -1.8451  1.2948  1.3999
  909MPD2    N113373   3.186   3.993  11.922 -0.4610  0.1296  0.5087
  909MPD2    H713374   3.238   4.078  11.939 -1.4325  1.1136 -1.3948
  910MPD2     C13375   4.139   0.666  15.934  0.3977  0.3923  0.9609
  910MPD2    C113376   4.234   0.654  15.831  0.1281 -0.5008  0.3053
  910MPD2    C213377   4.204   0.689  15.698 -0.3229  0.5401  0.0279
  910MPD2    C313378   4.078   0.734  15.672 -0.1235  0.3805  0.1846
  910MPD2    C413379   3.992   0.755  15.778  0.2956  0.0093 -0.7177
  910MPD2    C513380   4.021   0.726  15.906  0.3914  0.5577 -0.0049
  910MPD2     H13381   4.280   0.675  15.623  0.9088  1.1782  1.1404
  910MPD2    H113382   3.891   0.789  15.760  0.4247  0.6259 -0.2446
  910MPD2    H213383   4.162   0.640  16.036 -0.7425  2.8111  1.8137
  910MPD2    H313384   3.955   0.752  15.987  0.4566 -1.6548  0.7402
  910MPD2     N13385   4.040   0.779  15.544  0.3137  0.5118 -0.0865
  910MPD2    H513386   3.950   0.827  15.541  0.4357  0.6126 -2.4500
  910MPD2    N113387   4.363   0.605  15.857 -0.1371 -0.2999 -0.6392
  910MPD2    H713388   4.416   0.589  15.771  3.8749  0.8763  1.5779
  911MPD2     C13389   2.565   0.610  16.654  0.6040  0.4515  0.2366
  911MPD2    C113390   2.603   0.734  16.611 -0.5651  0.2731 -0.2172
  911MPD2    C213391   2.527   0.814  16.536  0.3974 -0.6202 -0.1719
  911MPD2    C313392   2.400   0.767  16.496 -0.4106  0.4681 -0.0807
  911MPD2    C413393   2.366   0.640  16.540  0.2829  0.3941  0.4268
  911MPD2    C513394   2.448   0.558  16.611 -0.1653  0.0990  0.3180
  911MPD2     H13395   2.553   0.919  16.526 -0.6454 -0.4636 -1.3043
  911MPD2    H113396   2.271   0.597  16.511  0.1342  0.4451  0.8330
  911MPD2    H213397   2.624   0.536  16.707  1.4021 -0.7240 -2.3080
  911MPD2    H313398   2.425   0.453  16.620 -3.7003  0.8260 -0.1776
  911MPD2     N13399   2.305   0.838  16.416  0.3426  0.2482  0.0103
  911MPD2    H513400   2.218   0.794  16.389  0.5850 -1.1933  1.6000
  911MPD2    N113401   2.732   0.783  16.650 -0.2639  0.9127 -0.1070
  911MPD2    H713402   2.761   0.873  16.615  1.9137  0.0078 -0.6087
  912MPD2     C13403   2.216   0.432  15.794 -0.5626  0.1278  0.2696
  912MPD2    C113404   2.158   0.490  15.905 -0.5680  0.1201  0.5016
  912MPD2    C213405   2.049   0.431  15.958  0.3245  0.2307  0.2523
  912MPD2    C313406   1.999   0.320  15.905 -0.6101  0.1022  0.0958
  912MPD2    C413407   2.044   0.270  15.784 -0.1516 -0.9081  0.3570
  912MPD2    C513408   2.153   0.327  15.729  0.3464 -0.1756 -0.7510
  912MPD2     H13409   1.996   0.459  16.049  1.1911 -0.5036  0.9883
  912MPD2    H113410   2.007   0.177  15.743 -2.1301 -0.0601  0.2338
  912MPD2    H213411   2.304   0.474  15.747 -0.6625 -0.2315 -0.2416
  912MPD2    H313412   2.203   0.281  15.645 -2.4220  1.1570 -3.0983
  912MPD2     N13413   1.894   0.256  15.978  0.3146 -0.0180 -0.2224
  912MPD2    H513414   1.879   0.294  16.071  0.2889 -0.9978  0.1714
  912MPD2    N113415   2.201   0.620  15.943  0.6288  0.5913 -0.2066
  912MPD2    H713416   2.265   0.670  15.881  1.6520 -1.0505 -0.4657
  913MPD2     C13417   3.054   3.409  10.964  0.1613  0.4982  0.1185
  913MPD2    C113418   3.011   3.303  10.890 -0.1486  0.6709  0.5173
  913MPD2    C213419   3.026   3.310  10.751  0.0611 -0.0908  0.7781
  913MPD2    C313420   3.097   3.418  10.689  0.3532  0.5379  0.3942
  913MPD2    C413421   3.150   3.513  10.767 -0.2599 -0.0629 -0.4584
  913MPD2    C513422   3.127   3.511  10.906  0.1472 -0.0938  0.3087
  913MPD2     H13423   2.997   3.225  10.691  2.3235  0.1699 -0.6781
  913MPD2    H113424   3.201   3.597  10.723 -1.6605  0.8101 -0.4234
  913MPD2    H213425   3.036   3.415  11.071  2.5107 -2.2694  0.6785
  913MPD2    H313426   3.167   3.598  10.957 -1.0248  0.1156  0.8575
  913MPD2     N13427   3.128   3.432  10.553 -0.4062  0.7341  0.1754
  913MPD2    H513428   3.187   3.506  10.517  0.0395 -0.5081 -1.6690
  913MPD2    N113429   2.947   3.195  10.962 -0.5229 -0.3905 -0.1788
  913MPD2    H713430   2.964   3.195  11.063  0.3634  0.5097 -0.3251
  914MPD2     C13431   0.359   3.095  12.530 -0.8358  0.4040 -0.1213
  914MPD2    C113432   0.379   3.124  12.661 -1.0317  0.4137 -0.1469
  914MPD2    C213433   0.399   3.023  12.750  0.1067 -0.0763 -0.8246
  914MPD2    C313434   0.392   2.892  12.707  0.0175 -0.1814  0.1998
  914MPD2    C413435   0.353   2.859  12.579  0.0481 -0.0554  0.2660
  914MPD2    C513436   0.336   2.969  12.493 -0.0470  0.6436  0.6321
  914MPD2     H13437   0.416   3.040  12.856  1.7647 -0.5225 -1.0211
  914MPD2    H113438   0.352   2.759  12.535  2.6644  0.6198 -1.3423
  914MPD2    H213439   0.341   3.168  12.453  1.8299  0.7021 -0.4793
  914MPD2    H313440   0.327   2.935  12.390 -2.0862 -0.7701  1.2609
  914MPD2     N13441   0.418   2.791  12.803  0.1000 -0.1866  0.0733
  914MPD2    H513442   0.438   2.818  12.899  0.0497 -1.6873  0.5144
  914MPD2    N113443   0.390   3.262  12.701 -0.4746 -0.6167 -0.7225
  914MPD2    H713444   0.392   3.335  12.630  0.1348 -0.8474 -0.9406
  915MPD2     C13445   3.382   2.733  15.627  0.2248  0.1836  0.2724
  915MPD2    C113446   3.315   2.833  15.696 -0.7457 -0.2838  0.1938
  915MPD2    C213447   3.321   2.841  15.832 -0.0950  0.5870 -0.1141
  915MPD2    C313448   3.399   2.753  15.904 -0.3001 -0.7509 -0.0332
  915MPD2    C413449   3.469   2.657  15.832 -0.0755  0.1701  0.3649
  915MPD2    C513450   3.461   2.645  15.698  0.4748  0.5044 -0.8930
  915MPD2     H13451   3.267   2.920  15.882 -0.2484  0.7256 -0.4923
  915MPD2    H113452   3.538   2.588  15.878 -0.3564  0.6994  1.5844
  915MPD2    H213453   3.374   2.725  15.519 -0.1681  2.1417  0.1524
  915MPD2    H313454   3.519   2.570  15.644 -2.1422 -0.4189 -2.4154
  915MPD2     N13455   3.404   2.766  16.042 -0.5000 -0.6516  0.1133
  915MPD2    H513456   3.354   2.844  16.082  0.7230  1.0763 -1.7041
  915MPD2    N113457   3.227   2.914  15.619 -0.1135 -0.7311 -0.2089
  915MPD2    H713458   3.204   2.878  15.526  0.6035 -1.8236  0.0265
  916MPD2     C13459   2.146   1.292  15.833  0.2145  0.3285  0.0514
  916MPD2    C113460   2.036   1.217  15.876 -0.1569 -0.3359  0.0194
  916MPD2    C213461   2.006   1.099  15.812  0.5584  0.3903  0.2230
  916MPD2    C313462   2.083   1.056  15.704  0.1608 -0.2847 -0.7277
  916MPD2    C413463   2.186   1.137  15.662  0.4937  0.0659 -0.2731
  916MPD2    C513464   2.212   1.251  15.728 -0.4800  0.6571 -0.1415
  916MPD2     H13465   1.921   1.036  15.836 -0.8919  2.2075 -0.1051
  916MPD2    H113466   2.252   1.120  15.578  0.4577  0.1016 -0.3089
  916MPD2    H213467   2.181   1.380  15.887 -0.6529  0.0819  1.0310
  916MPD2    H313468   2.288   1.316  15.687  1.6476 -1.0585  1.1293
  916MPD2     N13469   2.070   0.923  15.650 -0.0317 -0.4172  0.5400
  916MPD2    H513470   1.990   0.870  15.682 -1.8625  2.5677  0.9209
  916MPD2    N113471   1.957   1.266  15.989 -0.4898  0.2061  0.1866
  916MPD2    H713472   1.962   1.364  16.014  1.3695 -0.0362  0.7439
  917MPD2     C13473   2.165   3.116  12.315  0.0553 -0.2156  0.6882
  917MPD2    C113474   2.076   3.202  12.244 -0.6152 -0.6614  0.1824
  917MPD2    C213475   2.067   3.196  12.109  0.7790  0.9888  0.0139
  917MPD2    C313476   2.158   3.126  12.042 -0.1225 -0.3248  0.1115
  917MPD2    C413477   2.252   3.053  12.107  0.1457  0.2235 -0.4019
  917MPD2    C513478   2.257   3.046  12.246  0.3777  0.4839  0.0381
  917MPD2     H13479   2.003   3.264  12.055 -2.6593 -1.0728  1.4910
  917MPD2    H113480   2.330   3.006  12.049 -1.5953 -1.7575 -1.1280
  917MPD2    H213481   2.170   3.119  12.424 -0.2165  0.9534  0.6774
  917MPD2    H313482   2.339   2.985  12.283  0.2159 -0.1210 -0.5980
  917MPD2     N13483   2.167   3.129  11.907  0.0249 -0.8383 -0.1283
  917MPD2    H513484   2.229   3.066  11.858  0.3964 -1.2626  0.8896
  917MPD2    N113485   1.980   3.272  12.321  0.6563  0.4472  0.1957
  917MPD2    H713486   1.977   3.253  12.421 -2.2052 -0.4194 -0.0506
  918MPD2     C13487   1.771   4.194  12.239 -0.2825  0.3929  0.0289
  918MPD2    C113488   1.842   4.124  12.337 -0.4411 -0.9683  0.7405
  918MPD2    C213489   1.808   3.988  12.351  0.2563  0.5829  0.0072
  918MPD2    C313490   1.704   3.928  12.276  0.4619 -0.2673 -0.2110
  918MPD2    C413491   1.640   4.008  12.185 -0.2228  0.0094 -0.2760
  918MPD2    C513492   1.679   4.136  12.158 -0.0487 -0.7579  0.8579
  918MPD2     H13493   1.861   3.927  12.423  0.7913 -0.3760 -1.1814
  918MPD2    H113494   1.562   3.975  12.117 -1.0492  2.8008 -0.6739
  918MPD2    H213495   1.793   4.300  12.230 -2.1123  0.7532 -0.0683
  918MPD2    H313496   1.627   4.190  12.079  0.2085  0.5830  1.6153
  918MPD2     N13497   1.677   3.793  12.304  0.3778  0.2962 -0.0017
  918MPD2    H513498   1.736   3.749  12.373 -0.8114  0.3236  1.0219
  918MPD2    N113499   1.956   4.175  12.407  0.3636 -0.2078  0.3698
  918MPD2    H713500   2.003   4.122  12.480 -0.0219 -1.1281 -0.0516
  919MPD2     C13501   2.591   2.674  11.739  0.1199 -0.2959 -0.0128
  919MPD2    C113502   2.519   2.569  11.681  0.3729 -0.4837  0.1541
  919MPD2    C213503   2.476   2.574  11.551  0.5000  0.8712  0.5221
  919MPD2    C313504   2.522   2.674  11.466  0.0405  0.3032 -0.2295
  919MPD2    C413505   2.606   2.774  11.522  0.3823  1.0915 -0.7702
  919MPD2    C513506   2.621   2.779  11.659  0.0631  0.2498 -0.2482
  919MPD2     H13507   2.419   2.488  11.516 -1.9297  1.7063  2.4606
  919MPD2    H113508   2.644   2.859  11.465 -0.4652  1.3880 -0.8918
  919MPD2    H213509   2.644   2.669  11.834 -0.0551  1.3711  0.1582
  919MPD2    H313510   2.676   2.863  11.700  0.5633 -1.1079  1.8691
  919MPD2     N13511   2.499   2.670  11.327  0.6427 -0.1530 -0.4547
  919MPD2    H513512   2.519   2.750  11.267 -0.0778  0.6978  0.4559
  919MPD2    N113513   2.498   2.454  11.755 -0.0347  0.2807  0.0679
  919MPD2    H713514   2.459   2.374  11.707 -1.1178  1.3137 -0.7722
  920MPD2     C13515   2.275   3.240  10.537  0.3239  0.5641 -0.1325
  920MPD2    C113516   2.173   3.141  10.533 -0.0004 -0.6626  0.2885
  920MPD2    C213517   2.178   3.041  10.627 -0.2994 -0.2992 -0.4834
  920MPD2    C313518   2.289   3.026  10.713  0.0624 -0.7183 -0.3817
  920MPD2    C413519   2.392   3.122  10.706  0.4017  0.2647  0.1474
  920MPD2    C513520   2.379   3.229  10.633 -0.0431 -0.0864 -0.0033
  920MPD2     H13521   2.091   2.977  10.632 -0.5058  0.1033  0.9956
  920MPD2    H113522   2.481   3.101  10.765 -0.2668  0.6333  1.2735
  920MPD2    H213523   2.258   3.336  10.490  0.7323 -0.5132 -2.4863
  920MPD2    H313524   2.455   3.307  10.636  1.6683 -1.6906 -1.8508
  920MPD2     N13525   2.287   2.920  10.799  0.4351  0.4534 -0.4104
  920MPD2    H513526   2.209   2.856  10.792  2.2318 -1.8324  0.1862
  920MPD2    N113527   2.056   3.153  10.459  0.5685 -0.3717  1.3901
  920MPD2    H713528   1.990   3.076  10.464 -0.4728  0.2093 -3.0586
  921MPD2     C13529   3.426   1.360  16.409 -0.1860  0.1155 -0.0180
  921MPD2    C113530   3.479   1.302  16.515  0.5000 -0.3137 -0.5602
  921MPD2    C213531   3.404   1.237  16.613  0.0934  0.0653 -0.4699
  921MPD2    C313532   3.268   1.243  16.595  0.9852 -0.0819  0.6981
  921MPD2    C413533   3.207   1.305  16.490  0.4170 -0.3880  0.1525
  921MPD2    C513534   3.287   1.371  16.401  0.1027  0.4084  0.7321
  921MPD2     H13535   3.444   1.189  16.702  1.2423  1.3960 -0.2727
  921MPD2    H113536   3.100   1.308  16.470  0.6926 -1.0433 -1.4223
  921MPD2    H213537   3.485   1.413  16.336  2.5833 -0.5686  1.7239
  921MPD2    H313538   3.247   1.426  16.317 -1.2503  1.1098  1.8370
  921MPD2     N13539   3.200   1.156  16.683  0.0658  0.1174  0.0377
  921MPD2    H513540   3.252   1.117  16.761 -2.7490 -2.8004  0.4579
  921MPD2    N113541   3.619   1.298  16.518  0.2354  0.3144  0.1896
  921MPD2    H713542   3.661   1.335  16.433  0.2882 -0.9250 -0.3164
  922MPD2     C13543   4.435   3.386  16.984 -0.4339  0.3830 -0.0275
  922MPD2    C113544   4.417   3.488  17.072  0.5557 -0.8801 -0.2070
  922MPD2    C213545   4.332   3.469  17.180 -0.5576  0.3843 -0.1678
  922MPD2    C313546   4.261   3.350  17.194 -0.4821  0.4346  0.5043
  922MPD2    C413547   4.287   3.240  17.113  0.7822 -0.0740 -0.8021
  922MPD2    C513548   4.363   3.266  17.002  0.8269 -0.4907  0.1174
  922MPD2     H13549   4.315   3.554  17.246 -0.2517  1.0606 -0.9691
  922MPD2    H113550   4.229   3.150  17.123  0.3164  0.9133  5.1154
  922MPD2    H213551   4.498   3.395  16.896  1.7997 -1.0560  1.4113
  922MPD2    H313552   4.360   3.186  16.928 -2.5626 -0.8261  0.6020
  922MPD2     N13553   4.178   3.335  17.310  0.0652 -0.2500  0.1755
  922MPD2    H513554   4.157   3.418  17.364 -0.4448 -1.4974  1.8696
  922MPD2    N113555   4.490   3.607  17.065 -0.2580 -0.3407  0.3834
  922MPD2    H713556   4.473   3.681  17.132  1.4789  0.0492  0.3738
  923MPD2     C13557   0.556   1.375   8.842 -0.1951 -0.4004  0.1949
  923MPD2    C113558   0.523   1.446   8.956  0.7240 -0.6816 -0.8284
  923MPD2    C213559   0.604   1.440   9.068 -0.6870  0.3492 -0.1267
  923MPD2    C313560   0.727   1.364   9.059 -0.3837  0.1184 -0.0563
  923MPD2    C413561   0.755   1.300   8.944 -0.2907  0.4935 -0.6243
  923MPD2    C513562   0.668   1.301   8.836 -0.6297  0.3395 -0.2759
  923MPD2     H13563   0.570   1.482   9.162 -1.6611  1.2041 -0.8631
  923MPD2    H113564   0.850   1.250   8.931 -1.0412 -0.9878 -0.3185
  923MPD2    H213565   0.490   1.383   8.757  1.7419  0.5109 -1.2192
  923MPD2    H313566   0.690   1.258   8.740 -0.6659 -0.8103  0.2355
  923MPD2     N13567   0.812   1.347   9.175  0.0674 -0.0937  0.0671
  923MPD2    H513568   0.903   1.305   9.159  0.1785  0.2543 -0.2244
  923MPD2    N113569   0.398   1.510   8.962 -0.4028  0.1299 -0.3324
  923MPD2    H713570   0.340   1.518   8.879  0.4166 -0.3011 -0.9498
  924MPD2     C13571   0.863   4.387  15.137  0.1477  0.5840  0.6204
  924MPD2    C113572   0.817   4.351  15.260 -0.0458 -0.0666  0.2492
  924MPD2    C213573   0.837   4.427  15.370  1.1010 -0.2817 -0.3272
  924MPD2    C313574   0.905   4.545  15.355  0.2264  0.0848 -0.2781
  924MPD2    C413575   0.940   4.584  15.230  0.0466  0.0736 -0.3585
  924MPD2    C513576   0.920   4.509  15.123 -0.6564  0.5042  0.7687
  924MPD2     H13577   0.807   4.396  15.469  0.6187  0.2059 -0.3177
  924MPD2    H113578   0.984   4.681  15.208  0.3129 -0.1937 -0.9777
  924MPD2    H213579   0.843   4.324  15.051  1.0255  0.8630  0.2152
  924MPD2    H313580   0.967   4.545  15.032 -3.0335 -2.2431 -1.5346
  924MPD2     N13581   0.928   4.629  15.471  0.3548  0.7172 -0.2301
  924MPD2    H513582   0.980   4.714  15.455 -0.1921  1.0344 -0.3168
  924MPD2    N113583   0.753   4.218  15.260  0.2185 -0.3916  0.1073
  924MPD2    H713584   0.776   4.155  15.184 -0.5828 -2.0425  1.2230
  925MPD2     C13585   4.184   2.425  14.884 -1.2033 -0.2962 -0.0691
  925MPD2    C113586   4.166   2.295  14.904 -0.0915 -0.1433 -0.1890
  925MPD2    C213587   4.130   2.247  15.032  0.0531  0.3012 -0.7262
  925MPD2    C313588   4.095   2.336  15.129  0.0613 -0.3867 -0.0187
  925MPD2    C413589   4.123   2.464  15.106  0.4387 -0.1248  0.8759
  925MPD2    C513590   4.176   2.511  14.987  0.0531 -0.7028 -0.0422
  925MPD2     H13591   4.108   2.141  15.036  1.8682 -0.0406  0.4572
  925MPD2    H113592   4.112   2.540  15.183 -0.3595 -0.6801  1.2950
  925MPD2    H213593   4.213   2.464  14.787 -1.1955  0.3785  0.2080
  925MPD2    H313594   4.205   2.614  14.974  0.6440 -0.9717 -0.8446
  925MPD2     N13595   4.037   2.285  15.247 -0.5031 -0.3128  0.2183
  925MPD2    H513596   4.021   2.351  15.322  0.4226 -1.2676  1.2715
  925MPD2    N113597   4.161   2.201  14.800  0.2736 -0.4982 -0.4114
  925MPD2    H713598   4.162   2.105  14.833  2.9727 -0.2059  0.2928
  926MPD2     C13599   2.650   0.287  13.638  0.0505  0.7449 -0.3897
  926MPD2    C113600   2.581   0.403  13.601 -0.0375  0.1795  0.0207
  926MPD2    C213601   2.615   0.473  13.487 -0.0758 -0.2485 -0.1339
  926MPD2    C313602   2.723   0.422  13.415 -0.1791 -0.1101  0.4097
  926MPD2    C413603   2.792   0.306  13.447  0.0429 -0.1847  0.3647
  926MPD2    C513604   2.760   0.244  13.566 -0.4500 -0.7931  0.2454
  926MPD2     H13605   2.580   0.575  13.474 -2.5836 -1.4593 -2.8239
  926MPD2    H113606   2.874   0.267  13.387 -0.7592 -1.7950  0.3122
  926MPD2    H213607   2.615   0.238  13.728  1.8334 -1.1811 -0.7395
  926MPD2    H313608   2.815   0.153  13.585  0.0202  0.0931  3.1457
  926MPD2     N13609   2.776   0.499  13.308 -0.0343 -0.1037  0.4272
  926MPD2    H513610   2.857   0.466  13.257 -0.4567  1.4869 -1.2487
  926MPD2    N113611   2.478   0.461  13.667  0.6118 -0.5132  1.2790
  926MPD2    H713612   2.440   0.537  13.612  2.2470  1.7347  3.2410
  927MPD2     C13613   2.931   1.608  17.534 -0.9272  0.2301  0.0564
  927MPD2    C113614   2.971   1.735  17.573  0.7618 -0.2946  0.3687
  927MPD2    C213615   3.054   1.802  17.483  0.2047 -0.5637 -0.3304
  927MPD2    C313616   3.069   1.761  17.355  0.2802 -0.9060 -0.4007
  927MPD2    C413617   3.026   1.635  17.311  0.1145  0.0664  0.2158
  927MPD2    C513618   2.958   1.561  17.409  0.1027 -0.6034 -0.3074
  927MPD2     H13619   3.101   1.896  17.509 -0.6304 -0.0523 -0.6665
  927MPD2    H113620   3.032   1.592  17.211 -0.1908  0.6917 -0.0688
  927MPD2    H213621   2.866   1.557  17.604 -0.6372  1.6195  1.3376
  927MPD2    H313622   2.917   1.470  17.367 -0.9009 -0.4065  0.2380
  927MPD2     N13623   3.148   1.856  17.276  0.3524  0.1556 -0.1137
  927MPD2    H513624   3.171   1.943  17.323  0.0083  0.3845 -0.3684
  927MPD2    N113625   2.933   1.778  17.704 -0.2109  0.2179 -0.2242
  927MPD2    H713626   2.888   1.713   0.008 -0.9456 -0.1331 -1.1152
  928MPD2     C13627   0.266   0.770   0.828 -0.0878  0.1444 -0.1001
  928MPD2    C113628   0.375   0.831   0.884  0.5141  0.2435  0.7475
  928MPD2    C213629   0.485   0.850   0.805 -0.1887  0.2284 -0.4283
  928MPD2    C313630   0.482   0.815   0.672  0.4643  0.0007  0.5926
  928MPD2    C413631   0.375   0.762   0.610  0.2381 -0.3126  0.5799
  928MPD2    C513632   0.271   0.736   0.694 -0.0754  0.5799 -0.6036
  928MPD2     H13633   0.571   0.904   0.842 -1.2253  0.8215  1.0730
  928MPD2    H113634   0.366   0.747   0.503 -0.1421  0.5503  0.4911
  928MPD2    H213635   0.173   0.751   0.879 -1.5748  0.8663 -2.5667
  928MPD2    H313636   0.182   0.703   0.643  0.9479 -1.4115 -1.1099
  928MPD2     N13637   0.594   0.829   0.583  0.1946 -0.2373  0.2836
  928MPD2    H513638   0.571   0.825   0.484 -0.2021  0.3133  0.3529
  928MPD2    N113639   0.366   0.879   1.020  0.2637 -0.4546  0.2025
  928MPD2    H713640   0.453   0.910   1.063  0.2370 -1.8108  1.2241
  929MPD2     C13641   0.902   1.493  10.417  0.2489  0.0925  0.2064
  929MPD2    C113642   0.787   1.418  10.416 -0.1905 -0.0970  0.3459
  929MPD2    C213643   0.690   1.440  10.313 -0.1436  0.0447 -0.4799
  929MPD2    C313644   0.726   1.537  10.225  0.9324 -0.3155  0.6404
  929MPD2    C413645   0.846   1.604  10.228 -0.1805  0.5764  0.2830
  929MPD2    C513646   0.940   1.583  10.322 -0.2193  0.1068  0.4887
  929MPD2     H13647   0.592   1.394  10.323 -0.2157  0.5432  1.2036
  929MPD2    H113648   0.878   1.672  10.150  4.4730 -1.0598  0.7434
  929MPD2    H213649   0.979   1.477  10.493 -0.1469 -2.8136  0.0193
  929MPD2    H313650   1.032   1.641  10.328  1.0389 -1.8550  0.1686
  929MPD2     N13651   0.639   1.581  10.126 -0.3136 -0.1920  0.5594
  929MPD2    H513652   0.664   1.664  10.074 -1.0552 -0.4445 -0.1944
  929MPD2    N113653   0.773   1.329  10.525  0.1648  0.5722 -0.0259
  929MPD2    H713654   0.853   1.327  10.587 -1.3822 -1.0929  1.8948
  930MPD2     C13655   1.963   3.079  14.091 -0.2532  0.2054 -0.6266
  930MPD2    C113656   2.102   3.096  14.072  0.4891  1.1192  0.5387
  930MPD2    C213657   2.148   3.053  13.955  0.1678  0.4183 -0.0455
  930MPD2    C313658   2.071   2.991  13.860 -0.4458  0.0673  0.1820
  930MPD2    C413659   1.936   2.969  13.881  0.3787 -0.1134  0.1606
  930MPD2    C513660   1.884   3.021  13.996 -0.7239  0.4189 -0.0507
  930MPD2     H13661   2.251   3.075  13.926  0.2655 -0.0810 -0.0740
  930MPD2    H113662   1.872   2.924  13.806 -1.1924 -1.5435  2.3300
  930MPD2    H213663   1.914   3.103  14.185 -1.5396 -0.2522 -1.1697
  930MPD2    H313664   1.778   3.006  14.012 -0.6199 -0.0760  0.1902
  930MPD2     N13665   2.115   2.962  13.729 -0.2898 -0.7823 -0.5293
  930MPD2    H513666   2.051   2.914  13.667  0.0979 -2.1713  0.1627
  930MPD2    N113667   2.178   3.186  14.161  0.0479 -0.1794 -0.0032
  930MPD2    H713668   2.125   3.253  14.216  0.3882  0.0059  0.0958
  931MPD2     C13669   3.392   1.930   0.592  0.4042 -0.3963 -0.1385
  931MPD2    C113670   3.266   1.978   0.593  0.7677  0.0749 -0.5960
  931MPD2    C213671   3.210   2.005   0.717 -0.3078  0.3835  0.1813
  931MPD2    C313672   3.273   1.971   0.832  0.0538 -0.7391  0.6203
  931MPD2    C413673   3.400   1.916   0.824  0.0604 -0.5519  0.3369
  931MPD2    C513674   3.458   1.897   0.705  0.7037 -0.0654 -0.1049
  931MPD2     H13675   3.124   2.072   0.715 -1.2896 -0.8629  0.6035
  931MPD2    H113676   3.448   1.875   0.912 -0.9874 -1.2069  0.6072
  931MPD2    H213677   3.441   1.903   0.499  0.7253 -0.1819 -0.0313
  931MPD2    H313678   3.553   1.847   0.690  0.6396 -0.5233  1.0009
  931MPD2     N13679   3.213   1.982   0.961 -0.3571  0.0096 -0.2144
  931MPD2    H513680   3.275   1.971   1.040 -2.8570  0.0464  1.7396
  931MPD2    N113681   3.204   1.984   0.468 -0.3385 -0.2129  0.4272
  931MPD2    H713682   3.252   1.949   0.385 -1.0580  0.4962 -0.2911
  932MPD2     C13683   3.984   2.135  11.393 -0.1550  0.3759  0.2532
  932MPD2    C113684   4.086   2.204  11.463  0.0547 -0.7208 -1.0876
  932MPD2    C213685   4.165   2.124  11.548  0.4389  0.0529 -0.4776
  932MPD2    C313686   4.140   1.994  11.567 -0.1996 -0.5289  0.2536
  932MPD2    C413687   4.040   1.931  11.506  0.4992 -0.4717 -0.4478
  932MPD2    C513688   3.962   1.999  11.418 -0.0730 -0.3170 -0.0379
  932MPD2     H13689   4.255   2.167  11.591 -1.0042  0.8809  1.6662
  932MPD2    H113690   4.009   1.830  11.529 -1.0845 -0.4902 -2.6555
  932MPD2    H213691   3.929   2.183  11.313 -0.0848 -0.6121 -0.3901
  932MPD2    H313692   3.867   1.960  11.382 -1.1647 -1.5910  4.2183
  932MPD2     N13693   4.221   1.922  11.656 -0.2056 -0.6370 -0.3246
  932MPD2    H513694   4.291   1.975  11.707 -1.2048 -0.8909  1.2955
  932MPD2    N113695   4.114   2.343  11.447 -0.0953 -0.1118 -0.0218
  932MPD2    H713696   4.209   2.376  11.459 -0.2066 -0.2304  1.1102
  933MPD2     C13697   4.603   1.371   1.374  0.0298 -0.8142  0.2648
  933MPD2    C113698   4.731   1.342   1.422 -0.4780  0.4376  0.0566
  933MPD2    C213699   0.051   1.446   1.498 -0.9887 -0.8640  0.8686
  933MPD2    C313700   4.735   1.572   1.508  0.6625  0.0946 -0.7794
  933MPD2    C413701   4.614   1.599   1.446 -0.6440  0.0961 -0.2544
  933MPD2    C513702   4.545   1.490   1.397 -0.6681  0.7095 -0.4581
  933MPD2     H13703   0.137   1.431   1.562  0.9718  1.3225 -1.2635
  933MPD2    H113704   4.581   1.701   1.428 -0.1582  0.7440  2.5455
  933MPD2    H213705   4.549   1.303   1.310  0.7153  0.3651 -1.6015
  933MPD2    H313706   4.456   1.502   1.336 -0.8133 -2.3306 -0.8231
  933MPD2     N13707   0.068   1.676   1.568 -0.3203  0.2231  0.0807
  933MPD2    H513708   0.159   1.646   1.600 -0.8501 -1.0382  0.4070
  933MPD2    N113709   0.049   1.214   1.396  0.2247 -0.3544 -0.6020
  933MPD2    H713710   4.736   1.159   1.329  0.1802 -0.2750 -0.6325
  934MPD2     C13711   1.989   2.876   2.116  0.6384 -0.3119 -0.1179
  934MPD2    C113712   2.064   2.842   2.009 -0.0001 -0.2283 -0.4788
  934MPD2    C213713   2.001   2.800   1.891  0.1111  0.9418 -0.1936
  934MPD2    C313714   1.862   2.784   1.892  0.3671  0.4442  0.0692
  934MPD2    C413715   1.782   2.817   2.001 -0.3928 -0.1685  0.3429
  934MPD2    C513716   1.851   2.875   2.110  0.5831  0.1587  0.5438
  934MPD2     H13717   2.057   2.777   1.801 -1.2808 -2.9648 -0.0727
  934MPD2    H113718   1.674   2.802   1.998  0.0544 -2.9560 -1.9522
  934MPD2    H213719   2.033   2.928   2.201 -0.1048 -0.4810  0.3695
  934MPD2    H313720   1.804   2.909   2.202 -0.0339 -1.1745  0.7186
  934MPD2     N13721   1.794   2.739   1.775 -0.3687  0.1712 -0.5449
  934MPD2    H513722   1.693   2.742   1.774 -0.4233 -1.4288  0.1367
  934MPD2    N113723   2.204   2.836   2.013  0.2971  0.2206 -0.2157
  934MPD2    H713724   2.250   2.804   1.928 -0.1518 -1.7254  0.2857
  935MPD2     C13725   2.134   2.040   1.143  0.1411  0.2695 -0.0037
  935MPD2    C113726   2.007   2.073   1.097 -0.0175  0.1331 -0.3705
  935MPD2    C213727   1.922   2.165   1.160  0.1822 -0.2405  0.6326
  935MPD2    C313728   1.977   2.247   1.265 -0.3497  0.7087 -0.1639
  935MPD2    C413729   2.104   2.218   1.308 -0.9089 -0.0791 -0.0074
  935MPD2    C513730   2.173   2.108   1.254 -0.2856  0.3545 -0.1385
  935MPD2     H13731   1.819   2.177   1.130  0.4565 -1.3997 -0.7403
  935MPD2    H113732   2.152   2.259   1.396  0.5118 -0.8715 -0.4079
  935MPD2    H213733   2.197   1.961   1.103  0.3078 -1.2842  3.3139
  935MPD2    H313734   2.256   2.065   1.310 -0.5612 -1.0851 -0.8410
  935MPD2     N13735   1.904   2.352   1.327 -0.5408 -0.1682 -0.5757
  935MPD2    H513736   1.948   2.413   1.395 -0.5018  0.7232 -1.3997
  935MPD2    N113737   1.957   2.015   0.979 -0.1339  0.0614  0.1380
  935MPD2    H713738   1.857   2.024   0.963 -0.4185 -1.7492  0.9272
  936MPD2     C13739   4.721   0.809  12.481  0.4004 -0.6368  0.3220
  936MPD2    C113740   0.001   0.811  12.613 -0.0091  0.1934  0.3908
  936MPD2    C213741   0.028   0.930  12.679  0.0665  0.0353  0.1031
  936MPD2    C313742   0.043   1.044  12.600  0.2270  0.1133 -0.7066
  936MPD2    C413743   0.016   1.040  12.467  0.0127  0.2797  0.5065
  936MPD2    C513744   4.715   0.929  12.407 -0.3518  0.0782 -0.0933
  936MPD2     H13745   0.025   0.931  12.787  0.0802 -1.4235  0.1122
  936MPD2    H113746   0.012   1.132  12.410  2.3703 -0.4156 -0.7440
  936MPD2    H213747   4.708   0.717  12.425 -2.7925  0.2660 -0.4465
  936MPD2    H313748   4.701   0.928  12.299  0.0886  3.7454 -0.1820
  936MPD2     N13749   0.067   1.170  12.656  0.7709  0.6008  0.6393
  936MPD2    H513750   0.098   1.246  12.596  0.4657 -0.8719 -1.3607
  936MPD2    N113751   0.004   0.692  12.691 -0.0552 -0.5329 -0.9571
  936MPD2    H713752   0.005   0.707  12.791  0.1358 -1.4780 -0.8214
  937MPD2     C13753   2.529   1.822  11.503 -0.4509  0.3358 -0.5086
  937MPD2    C113754   2.590   1.938  11.531 -0.0084  0.4833 -0.1510
  937MPD2    C213755   2.650   2.009  11.427 -0.0506  0.1205  0.2238
  937MPD2    C313756   2.669   1.943  11.304 -0.0019  0.0129  0.3755
  937MPD2    C413757   2.621   1.817  11.284 -0.4184 -0.4112  0.3485
  937MPD2    C513758   2.541   1.760  11.382 -0.2364 -0.0901 -0.7805
  937MPD2     H13759   2.689   2.108  11.448 -0.4816  0.2739  0.3156
  937MPD2    H113760   2.618   1.778  11.182  0.3090 -2.4584  1.1173
  937MPD2    H213761   2.469   1.769  11.577  0.1736  1.3902  0.7513
  937MPD2    H313762   2.497   1.662  11.364  0.4790 -0.5175 -0.2314
  937MPD2     N13763   2.728   2.018  11.194  0.2834 -0.5421  0.0857
  937MPD2    H513764   2.759   2.112  11.215 -2.7869  0.1488  1.6174
  937MPD2    N113765   2.570   2.015  11.651  0.1666 -0.1524 -0.2464
  937MPD2    H713766   2.598   2.112  11.653  2.0785 -0.6691 -1.9268
  938MPD2     C13767   1.036   2.419   0.615 -0.3909 -0.3567 -0.2153
  938MPD2    C113768   1.091   2.472   0.730 -0.2147  0.2432 -0.4495
  938MPD2    C213769   1.085   2.396   0.846  0.2854 -0.2687  0.0727
  938MPD2    C313770   1.023   2.269   0.846  0.3761 -0.0571  0.8122
  938MPD2    C413771   0.966   2.212   0.735  0.3146  0.0408  0.5383
  938MPD2    C513772   0.977   2.295   0.620 -0.4951 -0.6475 -0.1284
  938MPD2     H13773   1.135   2.422   0.939 -0.6314  1.6340  0.0445
  938MPD2    H113774   0.907   2.122   0.729  0.3020  0.0711  0.2045
  938MPD2    H213775   1.030   2.464   0.517 -0.4934 -1.6115 -0.7869
  938MPD2    H313776   0.944   2.245   0.529  0.2710 -1.0406 -0.1918
  938MPD2     N13777   1.004   2.208   0.972 -0.1274 -0.4752 -0.3413
  938MPD2    H513778   1.034   2.259   1.054 -1.5928 -0.8956  0.4516
  938MPD2    N113779   1.153   2.598   0.727 -0.1097 -0.4023  0.6360
  938MPD2    H713780   1.198   2.623   0.815  2.4189  2.0285 -1.3498
  939MPD2     C13781   1.748   3.716   1.915 -0.8309  0.0857  0.2519
  939MPD2    C113782   1.681   3.792   1.821 -0.0613 -0.1203 -0.0804
  939MPD2    C213783   1.704   3.765   1.684 -0.0688  0.6843  0.1700
  939MPD2    C313784   1.780   3.659   1.638 -0.3992 -0.5687  0.0961
  939MPD2    C413785   1.839   3.577   1.739  0.2636  1.0480 -0.0285
  939MPD2    C513786   1.820   3.607   1.870  0.0015  0.1311 -0.0170
  939MPD2     H13787   1.649   3.821   1.610 -0.7185 -0.7434 -0.4315
  939MPD2    H113788   1.886   3.481   1.723 -1.0309  0.6787 -1.6202
  939MPD2    H213789   1.723   3.720   2.020  2.1500 -1.8327  1.0514
  939MPD2    H313790   1.855   3.533   1.941  1.7252  1.4692  0.5073
  939MPD2     N13791   1.789   3.628   1.497 -0.6107 -0.2378 -0.4064
  939MPD2    H513792   1.742   3.691   1.433  0.7823  0.6048 -0.5920
  939MPD2    N113793   1.578   3.882   1.861  0.4323 -0.1546 -0.4650
  939MPD2    H713794   1.558   3.890   1.961 -0.2964  0.7474 -0.6853
  940MPD2     C13795   0.659   0.347  13.560  0.0798  0.5061 -0.3317
  940MPD2    C113796   0.535   0.377  13.521 -0.3793  0.3730 -0.4436
  940MPD2    C213797   0.507   0.438  13.399 -0.3105  0.3000  0.1835
  940MPD2    C313798   0.602   0.473  13.309 -0.5027 -0.4088 -0.2273
  940MPD2    C413799   0.731   0.453  13.349 -0.2392  0.2410  0.7747
  940MPD2    C513800   0.759   0.399  13.473 -0.5436 -0.4405 -0.0141
  940MPD2     H13801   0.402   0.440  13.373 -0.4205  0.2361  0.6169
  940MPD2    H113802   0.815   0.476  13.284  2.2442 -1.3157  3.4572
  940MPD2    H213803   0.679   0.297  13.653  3.1441 -0.3845 -1.4464
  940MPD2    H313804   0.862   0.374  13.492 -1.7467 -4.1761  1.5962
  940MPD2     N13805   0.570   0.515  13.181  0.0327 -0.7329 -0.1326
  940MPD2    H513806   0.478   0.495  13.142  0.4001  1.0100 -1.8626
  940MPD2    N113807   0.421   0.362  13.605  0.5684  0.0664 -0.5328
  940MPD2    H713808   0.343   0.415  13.569  1.2970  1.1430 -0.5529
  941MPD2     C13809   4.528   4.525  10.485  0.4560  0.0352 -0.4339
  941MPD2    C113810   4.586   4.421  10.412  0.4712 -0.0756  0.1469
  941MPD2    C213811   4.510   4.321  10.370  0.5838  0.6904  0.4133
  941MPD2    C313812   4.375   4.315  10.394 -0.0295 -0.0166 -0.2918
  941MPD2    C413813   4.319   4.398  10.490 -0.4405 -0.5318 -0.0741
  941MPD2    C513814   4.396   4.505  10.525  0.1219  0.2513  0.6121
  941MPD2     H13815   4.550   4.242  10.307 -1.3248 -0.7914  1.0560
  941MPD2    H113816   4.213   4.393  10.510 -0.4986 -1.0122 -0.4981
  941MPD2    H213817   4.593   4.604  10.520  0.6766 -0.8531  1.1590
  941MPD2    H313818   4.351   4.569  10.600 -3.7820 -1.0652 -0.6378
  941MPD2     N13819   4.286   4.226  10.333  0.8787  0.7153  0.9468
  941MPD2    H513820   4.192   4.215  10.369  0.4267 -2.1677 -1.1171
  941MPD2    N113821   4.719   4.429  10.357 -0.1963  0.0498 -0.2889
  941MPD2    H713822   0.013   4.343  10.317 -0.7153 -0.5133  0.4776
  942MPD2     C13823   4.418   1.519   8.916  0.0112  0.0919  0.2922
  942MPD2    C113824   4.454   1.553   9.045 -0.3923 -0.6499 -0.1645
  942MPD2    C213825   4.566   1.493   9.093  0.6520  0.0321 -0.7089
  942MPD2    C313826   4.644   1.404   9.021  0.1396  0.6068  0.2315
  942MPD2    C413827   4.605   1.379   8.891  0.5666 -0.3070  0.1835
  942MPD2    C513828   4.497   1.438   8.839 -0.0270 -0.6044 -0.0799
  942MPD2     H13829   4.597   1.525   9.192 -3.0302 -0.1710  0.5042
  942MPD2    H113830   4.681   1.340   8.824 -0.4632  0.4618 -1.4254
  942MPD2    H213831   4.337   1.567   8.862 -0.7014 -1.5792 -0.1380
  942MPD2    H313832   4.470   1.425   8.735  3.5179  1.3698 -1.2608
  942MPD2     N13833   0.013   1.325   9.071  0.5706 -0.1445 -0.0232
  942MPD2    H513834   0.058   1.259   9.008 -0.6593  1.2836 -2.4020
  942MPD2    N113835   4.381   1.644   9.126  0.3778  0.0986 -0.4322
  942MPD2    H713836   4.417   1.658   9.220 -0.2864 -0.3762 -0.1083
  943MPD2     C13837   3.439   0.129   9.511 -0.9534  0.0373  0.0336
  943MPD2    C113838   3.389   0.055   9.621  0.4161  0.1150 -0.0640
  943MPD2    C213839   3.344   0.124   9.731  0.5575 -0.1619 -0.5742
  943MPD2    C313840   3.333   0.263   9.732  0.5530  0.3749  0.0655
  943MPD2    C413841   3.373   0.330   9.615 -0.2635 -0.5519  0.0457
  943MPD2    C513842   3.432   0.265   9.509  0.0321  0.5544 -0.3579
  943MPD2     H13843   3.312   0.064   9.815  0.2939 -1.1213 -1.3482
  943MPD2    H113844   3.371   0.438   9.607 -1.9182 -0.6303 -0.6422
  943MPD2    H213845   3.475   0.084   9.420  0.0644  0.2243  0.3482
  943MPD2    H313846   3.463   0.327   9.425  1.6678  0.1189 -0.0730
  943MPD2     N13847   3.298   0.341   9.846 -0.3181 -0.4589  0.6975
  943MPD2    H513848   3.282   0.440   9.831 -1.1837 -0.7769 -0.4479
  943MPD2    N113849   3.405   4.657   9.615  0.4074  0.0350  1.4249
  943MPD2    H713850   3.466   4.622   9.541  0.2367 -0.3107  1.4479
  944MPD2     C13851   3.104   3.884  10.943  1.0939  0.2671 -0.0323
  944MPD2    C113852   3.212   3.933  11.008  0.5310 -0.1961 -0.2396
  944MPD2    C213853   3.204   3.965  11.145  0.1087  0.1492 -0.7732
  944MPD2    C313854   3.080   3.936  11.209  0.0022  0.1770 -0.0291
  944MPD2    C413855   2.981   3.860  11.141 -0.6729  0.2966 -0.3029
  944MPD2    C513856   2.995   3.835  11.004  0.2243  0.4635  0.2206
  944MPD2     H13857   3.286   4.022  11.186  0.5832 -2.4069  1.8577
  944MPD2    H113858   2.890   3.816  11.180 -0.8718  1.2283  0.2943
  944MPD2    H213859   3.112   3.848  10.841 -0.0111 -2.0382  0.6801
  944MPD2    H313860   2.916   3.778  10.955 -0.2297  0.0733  1.4185
  944MPD2     N13861   3.066   3.992  11.340 -0.2890  0.5587  0.0461
  944MPD2    H513862   3.147   4.047  11.368  0.0543  0.1050 -0.0409
  944MPD2    N113863   3.324   3.967  10.924 -0.1472 -0.1856 -0.5697
  944MPD2    H713864   3.299   3.971  10.826 -0.7684 -0.8090 -0.4305
    1TMC1    C113865   1.503   4.422  14.522 -0.0635 -0.2456  0.0579
    1TMC1    C213866   1.456   4.408  14.391  0.5768  0.6834 -0.1213
    1TMC1    C313867   1.417   4.287  14.355 -0.3394 -0.1956  0.5814
    1TMC1    C413868   1.514   4.313  14.605 -0.0406 -0.4565 -0.1630
    1TMC1    C513869   1.465   4.197  14.563 -0.1738  0.5571 -0.1515
    1TMC1    C613870   1.425   4.173  14.436 -0.4700 -0.2695 -0.4120
    1TMC1     C13871   1.548   4.557  14.560 -1.0704 -0.6216 -0.3824
    1TMC1     O13872   1.641   4.562  14.644 -0.2911  0.6651 -0.4862
    1TMC1     H13873   1.447   4.488  14.318  0.1022  0.7417 -0.0049
    1TMC1    H113874   1.534   4.317  14.711  0.3129  1.2681 -0.3040
    1TMC1    H213875   1.375   4.082  14.406  0.3028 -0.8460  0.0316
    1TMC1    C713876   1.480   4.081  14.648  0.4567 -0.4041  0.5258
    1TMC1    C813877   1.363   4.277  14.222 -0.0827  0.2232  0.2129
    1TMC1    O113878   1.556   4.070  14.742 -0.3097  0.9170 -0.4733
    1TMC1    O213879   1.304   4.367  14.164  0.0799 -0.3340 -0.3802
    1TMC1    O313880   1.364   4.014  14.645  0.1708  0.3190  0.3741
    1TMC1    H313881   1.299   4.069  14.597 -1.2177 -0.7990  0.9793
    1TMC1    O513882   1.352   4.150  14.191 -0.5897  0.0095 -0.3781
    1TMC1    H513883   1.276   4.126  14.133 -2.9069  1.2418  2.1716
    2MPD2     C13884   1.594   0.325  14.482 -0.0992  0.1963 -0.5309
    2MPD2    C113885   1.477   0.285  14.418 -0.4241  0.3650 -0.8430
    2MPD2    C213886   1.437   0.151  14.427 -0.1251  0.2668 -0.1456
    2MPD2    C313887   1.518   0.053  14.485 -0.3668  0.0631  1.2390
    2MPD2    C413888   1.642   0.096  14.536 -0.4077 -0.3116  0.0994
    2MPD2    C513889   1.675   0.225  14.535 -0.3269 -0.4590  0.7064
    2MPD2     H13890   1.342   0.122  14.385  1.2386 -0.0068 -3.0499
    2MPD2    H113891   1.710   0.021  14.573 -1.5642 -1.0748  0.6638
    2MPD2    H213892   1.617   0.431  14.488  0.4252  0.2231 -2.7380
    2MPD2    H313893   1.773   0.254  14.571 -0.5065  0.5055  0.4128
    2MPD2     N13894   1.485   4.653  14.483 -0.7625  0.1707  0.4457
    2MPD2    H513895   1.401   4.623  14.435  0.0681 -0.6352 -0.5278
    2MPD2    N113896   1.407   0.377  14.340 -0.1087  0.2660  0.3496
    2MPD2    H713897   1.453   0.465  14.318  0.0037  1.0071  3.6610
    3TMC2    C113898   1.243   0.510  14.254  0.0001  0.1772 -0.0487
    3TMC2    C213899   1.125   0.573  14.292  1.0986 -0.3903 -0.6972
    3TMC2    C313900   1.087   0.685  14.226  0.2543 -0.7353 -0.4644
    3TMC2    C413901   1.320   0.563  14.152  0.2509 -0.1522  0.0017
    3TMC2    C513902   1.276   0.679  14.085 -0.3641 -0.1424 -0.0253
    3TMC2    C613903   1.164   0.739  14.127  0.0326 -0.3827 -0.4175
    3TMC2     C13904   1.277   0.378  14.313  0.4414  0.0133  0.1241
    3TMC2     O13905   1.186   0.313  14.361 -0.2231 -0.4873 -0.2703
    3TMC2     H13906   1.072   0.545  14.382  0.6305  2.9107  0.0436
    3TMC2    H113907   1.397   0.496  14.114  0.6427 -0.2244  0.9262
    3TMC2    H213908   1.149   0.843  14.103 -1.0255 -0.4039  0.1427
    3TMC2    C713909   1.329   0.719  13.959  0.1199 -0.0766  0.2750
    3TMC2    C813910   1.013   0.776  14.312  0.1061 -0.2217 -0.2484
    3TMC2    O113911   1.436   0.668  13.927 -0.1496  0.1494 -0.4102
    3TMC2    O213912   1.066   0.882  14.354 -0.0768  0.0944  0.3301
    3TMC2    O513913   0.902   0.720  14.376  0.5293  0.3965 -0.0090
    3TMC2    H513914   0.866   0.649  14.319 -0.9641 -0.4553  2.0387
    4TMC2    C113915   0.658   1.158  13.502 -0.2815 -0.2860  0.6742
    4TMC2    C213916   0.660   1.166  13.364 -0.4853 -0.0019  0.4188
    4TMC2    C313917   0.784   1.184  13.310 -0.6341  0.7642  0.0217
    4TMC2    C413918   0.765   1.161  13.581  0.1904 -0.4434 -0.1305
    4TMC2    C513919   0.888   1.185  13.523 -0.0576 -0.6036 -0.0432
    4TMC2    C613920   0.901   1.195  13.386 -0.2232  0.3711  0.3460
    4TMC2     C13921   0.529   1.137  13.569  0.6231  0.0091 -0.3693
    4TMC2     O13922   0.530   1.095  13.682 -0.2209 -0.5486  0.0462
    4TMC2     H13923   0.574   1.135  13.305 -0.4028 -0.1193  0.3594
    4TMC2    H113924   0.744   1.151  13.687 -1.5860 -0.6788 -0.5150
    4TMC2    H213925   0.997   1.213  13.340 -0.7616 -0.0348 -0.9436
    4TMC2    C713926   1.003   1.139  13.600 -0.0125  0.9286  0.2913
    4TMC2    C813927   0.805   1.179  13.172  0.2654  0.0791 -0.3077
    4TMC2    O113928   0.968   1.118  13.720  0.4701  0.0910  0.1286
    4TMC2    O213929   0.834   1.284  13.105 -0.3049  0.5473 -0.2163
    4TMC2    O513930   0.729   1.082  13.131  0.5831  0.4419 -0.3483
    4TMC2    H513931   0.741   1.012  13.197  2.5911  1.5804  0.4802
    5MPD2     C13932   0.032   1.156  13.610 -0.5315 -0.2911  0.7359
    5MPD2    C113933   0.072   1.235  13.503  0.2689 -0.5304  0.2565
    5MPD2    C213934   0.198   1.242  13.462  0.1932 -0.2609  0.0530
    5MPD2    C313935   0.285   1.155  13.531 -0.0839  0.1808 -0.5946
    5MPD2    C413936   0.245   1.063  13.619 -0.4024  0.1391  0.1554
    5MPD2    C513937   0.118   1.065  13.665  0.3121  0.2375  0.4415
    5MPD2     H13938   0.223   1.308  13.380 -2.1669 -0.6358 -0.9794
    5MPD2    H113939   0.313   0.982  13.644 -0.3377 -0.3165 -1.4451
    5MPD2    H213940   4.668   1.169  13.637 -0.2171  1.8555  0.9087
    5MPD2    H313941   0.085   0.994  13.739  0.0281 -2.0401 -1.8748
    5MPD2     N13942   0.422   1.169  13.491 -0.1271  0.0461 -0.2536
    5MPD2    H513943   0.438   1.238  13.418 -0.8890 -0.5889 -1.0307
    5MPD2    N113944   4.704   1.313  13.441  0.0553  0.5440  0.0951
    5MPD2    H713945   4.614   1.326  13.486  0.0355 -0.4657  0.3413
    6MPD1     C13946   4.726   3.160  13.742 -0.0422  0.2471  0.2363
    6MPD1    C113947   4.662   3.091  13.843 -0.8242  0.2843 -0.1906
    6MPD1    C213948   4.625   2.959  13.815  0.2924  0.2643 -0.6713
    6MPD1    C313949   4.652   2.895  13.695 -0.2909 -0.4134  0.7702
    6MPD1    C413950   4.718   2.965  13.602 -0.1582  0.1720 -0.2135
    6MPD1    C513951   0.021   3.092  13.627 -0.1207 -0.5553  0.2468
    6MPD1     H13952   4.568   2.906  13.890 -1.0834  0.1831 -1.7957
    6MPD1    H113953   4.738   2.906  13.514 -1.4432  0.2788 -0.5740
    6MPD1    H213954   0.007   3.265  13.759  0.8676  0.1737 -0.4799
    6MPD1    H313955   0.061   3.128  13.532  0.1822  1.6680  1.2099
    6MPD1     N13956   4.614   2.767  13.662  0.4222 -0.3968 -0.2408
    6MPD1    H513957   4.634   2.745  13.566 -2.0332  2.5667 -1.4498
    6MPD1    N113958   4.617   3.151  13.960  0.1166 -0.5826  0.4487
    6MPD1    H613959   4.695   3.211  13.986 -1.7171  1.3538  1.4701
    6MPD1    H713960   4.608   3.083  14.035  1.2344 -0.2864  0.8521
    7MPD2     C13961   4.549   1.912  13.916  0.5948  0.4711  0.1485
    7MPD2    C113962   4.526   1.965  13.795  0.3668 -0.1746 -0.2336
    7MPD2    C213963   4.482   1.881  13.700  0.2639 -0.1463 -0.2633
    7MPD2    C313964   4.449   1.746  13.720  0.0325 -0.6092 -0.4666
    7MPD2    C413965   4.469   1.692  13.846  0.4272 -1.5028  0.3357
    7MPD2    C513966   4.507   1.779  13.947 -0.5360  0.2346 -0.0842
    7MPD2     H13967   4.474   1.927  13.603 -3.1102 -1.5285 -0.6448
    7MPD2    H113968   4.448   1.586  13.853 -4.8495 -0.5301 -0.7785
    7MPD2    H213969   4.579   1.977  13.998 -0.1751 -0.2803  1.0298
    7MPD2    H313970   4.518   1.739  14.047 -2.0573 -0.6492 -0.2705
    7MPD2     N13971   4.422   1.654  13.613  0.1870  0.9108 -1.4951
    7MPD2    H513972   4.409   1.555  13.630  0.5148  0.9018 -1.2998
    7MPD2    N113973   4.551   2.100  13.753 -0.3920 -0.6119  0.4529
    7MPD2    H713974   4.515   2.116  13.659 -0.2323 -0.7532  0.3672
    8TMC3    C113975   4.388   1.570  13.388 -0.0028 -0.8920 -0.5138
    8TMC3    C213976   4.486   1.478  13.410 -0.0909  0.6391  0.2145
    8TMC3    C313977   4.581   1.459  13.309 -0.6054  0.6122 -0.3830
    8TMC3    C413978   4.371   1.622  13.264  0.0522  0.3809 -0.1257
    8TMC3    C513979   4.473   1.613  13.178 -0.0564  0.2425 -0.0853
    8TMC3    C613980   4.582   1.531  13.188  0.4528  0.0319  0.0231
    8TMC3     C13981   4.399   1.683  13.480 -0.0653  0.1172  0.2528
    8TMC3     O13982   4.411   1.788  13.422 -1.0107  0.1785  0.1055
    8TMC3     H13983   4.502   1.433  13.507  0.4133  1.0742  0.3340
    8TMC3    H113984   4.290   1.693  13.250  0.6331  1.3976  1.6492
    8TMC3    H213985   4.667   1.526  13.121  0.6945  2.5539  0.1680
    8TMC3    C713986   4.493   1.724  13.087 -0.2706  0.4858  0.6723
    8TMC3    C813987   4.703   1.385  13.332 -0.0763 -0.0839 -0.7911
    8TMC3    O113988   4.577   1.714  12.996 -0.0758  0.0095  0.0415
    8TMC3    O213989   0.059   1.402  13.263 -0.5286  0.6721 -0.3124
    9TMC3    C113990   4.582   2.535  13.694  0.3755  0.0930  0.6953
    9TMC3    C213991   4.573   2.517  13.558 -1.1424 -0.1113 -0.6449
    9TMC3    C313992   4.601   2.397  13.515  0.1233 -0.0246  0.3316
    9TMC3    C413993   4.614   2.434  13.787 -0.0805 -0.4116 -0.3963
    9TMC3    C513994   4.639   2.313  13.734  0.0260 -0.0463  0.0280
    9TMC3    C613995   4.634   2.292  13.597  0.0238 -0.1075 -1.1141
    9TMC3     C13996   4.566   2.671  13.744 -0.0971  0.3926 -0.1440
    9TMC3     O13997   4.543   2.676  13.867 -0.0200  0.8254 -0.9799
    9TMC3     H13998   4.542   2.589  13.483 -1.1475 -1.0634 -1.5596
    9TMC3    H113999   4.615   2.458  13.892 -0.6327  2.7103 -1.1099
    9TMC3    H214000   4.645   2.193  13.553 -0.9966 -1.1062  0.8726
    9TMC3    C714001   4.615   2.198  13.818  0.3290  0.1606 -0.3136
    9TMC3    C814002   4.606   2.372  13.379  0.0339  0.0598 -0.0728
    9TMC3    O114003   4.640   2.204  13.939 -0.6916 -0.2059 -0.5617
    9TMC3    O214004   4.651   2.461  13.302 -0.8129  0.0454  0.6493
   10MPD2     C14005   4.570   2.010  13.008 -0.0801 -0.7025  0.2737
   10MPD2    C114006   4.513   1.967  13.128  0.5092  0.3717  0.6778
   10MPD2    C214007   4.509   2.054  13.234  0.5879 -0.4604  0.0805
   10MPD2    C314008   4.569   2.175  13.230 -0.8925  0.6246 -0.4905
   10MPD2    C414009   4.626   2.216  13.105 -0.5607  0.7847  0.0847
   10MPD2    C514010   4.619   2.136  12.998  0.1759 -0.3512  1.2172
   10MPD2     H14011   4.468   2.010  13.324  1.8112 -2.9158 -0.5537
   10MPD2    H114012   4.659   2.318  13.086  1.1775 -0.4212 -3.3198
   10MPD2    H214013   4.577   1.947  12.920 -0.8575 -0.9053  0.3533
   10MPD2    H314014   4.660   2.170  12.903 -1.6182 -0.9773  0.2303
   10MPD2     N14015   4.551   2.248  13.344  0.7768 -0.3049 -0.4163
   10MPD2    H514016   4.490   2.212  13.416  1.3497  0.3892  0.4119
   10MPD2    N114017   4.456   1.839  13.148  0.1425 -0.6317 -0.0731
   10MPD2    H714018   4.419   1.828  13.242  2.5383 -0.3545  0.8876
   11MPD2     C14019   1.406   0.856  13.712  0.0110 -0.0301  0.2885
   11MPD2    C114020   1.283   0.866  13.769 -0.2294 -0.2666  0.3691
   11MPD2    C214021   1.190   0.949  13.719  0.0243 -0.1187 -0.1861
   11MPD2    C314022   1.209   1.015  13.594  0.9089 -0.1834  0.8479
   11MPD2    C414023   1.329   0.999  13.534  0.4802 -0.1473  0.0442
   11MPD2    C514024   1.422   0.925  13.591 -0.2226 -0.3329  0.2374
   11MPD2     H14025   1.099   0.956  13.777  0.9975 -1.9111  1.5386
   11MPD2    H114026   1.350   1.041  13.437 -0.2298 -0.4262 -0.2301
   11MPD2    H214027   1.484   0.798  13.761 -1.0486 -1.9315 -0.2832
   11MPD2    H314028   1.518   0.912  13.542  0.4048  2.0402  0.8621
   11MPD2     N14029   1.115   1.101  13.537  0.2369 -0.1929  0.1283
   11MPD2    H514030   1.138   1.128  13.442  3.4231 -0.4642  0.8235
   11MPD2    N114031   1.248   0.801  13.888 -0.3003  0.0609 -0.3961
   11MPD2    H714032   1.154   0.817  13.923 -0.0962 -0.4968  0.4310
    1MPD1     C14033   3.399   1.769  16.521  0.0508 -0.5194 -0.0394
    1MPD1    C114034   3.474   1.857  16.591  0.2973  0.2407 -0.2829
    1MPD1    C214035   3.512   1.816  16.718 -0.1640  0.0050  0.6138
    1MPD1    C314036   3.461   1.701  16.774 -0.7149 -0.1712 -0.5832
    1MPD1    C414037   3.354   1.635  16.713 -0.4135  0.4178  0.1159
    1MPD1    C514038   3.332   1.670  16.584 -0.1646  0.1062 -0.2014
    1MPD1     H14039   3.575   1.882  16.776  0.6359 -2.9880  3.1561
    1MPD1    H114040   3.307   1.547  16.755 -2.1269  0.4359 -1.7690
    1MPD1    H214041   3.374   1.783  16.417  0.5375  0.0014 -0.0871
    1MPD1    H314042   3.266   1.611  16.520 -0.4143  0.9725 -0.7374
    1MPD1     N14043   3.486   1.655  16.903  0.1219 -0.5311 -0.1367
    1MPD1    H514044   3.435   1.573  16.931 -0.3226 -0.1317  0.2319
    1MPD1    N114045   3.537   1.968  16.526 -0.6186 -0.5405  0.1194
    1MPD1    H614046   3.490   1.997  16.441 -2.4509  0.3178  1.4121
    1MPD1    H714047   3.520   2.043  16.593  3.4946  0.6136 -0.1715
    2MPD1     C14048   4.217   1.580  17.737 -0.8433 -0.3490 -0.3204
    2MPD1    C114049   4.126   1.484  17.739  0.4181 -0.1051 -1.0919
    2MPD1    C214050   4.036   1.478  17.637  0.4652 -0.4102  0.1057
    2MPD1    C314051   4.028   1.571  17.536 -0.3979  0.3079  1.5138
    2MPD1    C414052   4.114   1.679  17.543 -0.3495  0.4463 -0.5490
    2MPD1    C514053   4.205   1.681  17.646 -0.3458  0.3686 -0.1112
    2MPD1     H14054   3.959   1.403  17.651  0.1041  0.0217  0.4395
    2MPD1    H114055   4.116   1.761  17.473 -0.6549  1.9687  1.2301
    2MPD1    H214056   4.304   1.586   0.044  0.9931 -1.6600 -2.6325
    2MPD1    H314057   4.270   1.766  17.663 -0.9028  0.9248 -0.7984
    2MPD1     N14058   3.932   1.548  17.436  0.6744  0.3202 -0.3132
    2MPD1    H514059   3.874   1.465  17.441  1.1498  0.0457  0.4713
    2MPD1    N114060   4.140   1.371   0.064  0.0392 -0.3514 -0.0669
    2MPD1    H614061   4.173   1.399   0.156  0.7780  0.7487 -0.6543
    2MPD1    H714062   4.047   1.331   0.071  0.8599 -2.1412  0.6040
    3TMC3    C114063   3.798   1.581  17.250  0.2604  0.0976 -0.1826
    3TMC3    C214064   3.795   1.448  17.224 -0.4631  0.1372 -0.6844
    3TMC3    C314065   3.689   1.394  17.149 -0.6215 -0.0917 -0.7484
    3TMC3    C414066   3.714   1.674  17.192  0.4913 -0.7627  0.1726
    3TMC3    C514067   3.614   1.623  17.110 -0.4615  0.4847  0.4198
    3TMC3    C614068   3.600   1.484  17.093  0.4113 -0.2701  0.3904
    3TMC3     C14069   3.901   1.632  17.330 -0.2108 -0.5572  0.0192
    3TMC3     O14070   3.928   1.752  17.318 -0.6120 -0.1965 -0.1036
    3TMC3     H14071   3.873   1.383  17.262 -1.7216 -1.0982 -0.2101
    3TMC3    H114072   3.728   1.781  17.200  0.1270 -0.6175 -1.1432
    3TMC3    H214073   3.525   1.445  17.025  2.5284  1.4487 -2.9274
    3TMC3    C714074   3.574   1.716  17.004 -0.5266 -0.0490  0.0576
    3TMC3    C814075   3.684   1.257  17.107 -0.0645  0.0165 -0.3376
    3TMC3    O114076   3.626   1.826  17.002  0.3064  0.0468 -0.2256
    3TMC3    O214077   3.583   1.213  17.053  0.0032  0.2666 -0.2445
    4MPD1     C14078   3.892   0.784  17.077  0.4130 -0.0783  0.2216
    4MPD1    C114079   3.996   0.874  17.083 -0.3018 -0.3947 -0.8233
    4MPD1    C214080   3.963   1.007  17.101 -0.2861 -0.3913  0.2265
    4MPD1    C314081   3.828   1.048  17.113  0.3712  0.4215  0.7864
    4MPD1    C414082   3.731   0.954  17.100  0.7245 -0.4214 -0.1800
    4MPD1    C514083   3.766   0.826  17.085 -0.4970 -0.1822  0.0060
    4MPD1     H14084   4.043   1.079  17.093  0.0922 -0.7614  0.6630
    4MPD1    H114085   3.623   0.967  17.105  0.5524 -1.9865  0.5575
    4MPD1    H214086   3.907   0.678  17.056 -0.6439 -0.3197  0.7154
    4MPD1    H314087   3.689   0.751  17.077  0.2915 -0.9783 -0.1047
    4MPD1     N14088   3.806   1.188  17.126  0.3453 -0.7711 -0.0819
    4MPD1    H514089   3.882   1.248  17.157 -0.4961  1.3821 -2.1352
    4MPD1    N114090   4.128   0.827  17.078  0.0198 -0.3289 -1.1255
    4MPD1    H614091   4.191   0.897  17.041  3.1522 -0.7118  3.5469
    4MPD1    H714092   4.146   0.741  17.027  1.4689 -0.7082  0.0478
    1TCq1    O114093   4.412   1.807  11.006  0.0450 -0.0262  0.2727
    1TCq1    C114094   4.540   1.851  10.989 -0.6046  0.3770  0.8422
    1TCq1    O214095   4.593   1.857  10.880 -0.0931  0.1230 -0.7529
    1TCq1    C214096   4.599   1.836  11.111 -0.4510 -0.3188 -0.7530
    1TCq1    C314097   4.546   1.746  11.204  0.3880 -0.1033 -0.0839
    1TCq1    C414098   4.603   1.738  11.325  0.9066 -0.6111 -0.2615
    1TCq1    C514099   4.729   1.800  11.345 -0.2688 -0.1927 -0.1971
    1TCq1    C614100   0.041   1.889  11.255  0.6086 -0.1891  0.2523
    1TCq1    C714101   4.714   1.904  11.136  0.1093  0.1801 -0.3139
    1TCq1    C814102   0.150   1.971  11.293  0.1637  0.3101 -0.3687
    1TCq1    O414103   0.183   1.971  11.409 -0.1626  0.2911 -0.1749
    1TCq1    C914104   4.573   1.621  11.408 -0.2253  0.1533 -0.2533
    1TCq1    O514105   4.480   1.543  11.364  0.0453 -0.0779 -0.0045
    1TCq1    O614106   4.627   1.608  11.520 -0.7344  0.7074 -0.1391
    1TCq1    H114107   4.400   1.807  11.103 -0.4512 -0.4784  0.2059
    1TCq1    H214108   4.482   1.665  11.169 -0.3839  0.4878 -0.0342
    1TCq1    H314109   0.039   1.772  11.437  0.8519  0.6850 -0.5416
    1TCq1    H414110   0.014   1.969  11.059 -0.6818 -0.1456 -1.0073
    2MPD1     C14111   0.567   2.267  11.189 -0.8677  0.0304 -0.3148
    2MPD1    C114112   0.512   2.219  11.070  0.4121  0.1188 -1.3673
    2MPD1    C214113   0.396   2.138  11.073 -0.2775 -0.3060  0.7365
    2MPD1    C314114   0.338   2.106  11.190 -0.2998 -0.0350 -0.0119
    2MPD1    C414115   0.400   2.147  11.305 -0.5432 -0.6706 -0.0934
    2MPD1    C514116   0.516   2.222  11.306  0.3984 -0.3208  0.3102
    2MPD1     H14117   0.359   2.097  10.980 -1.4356  0.5132  0.8324
    2MPD1    H114118   0.371   2.121  11.407  1.2376 -1.0545  0.3186
    2MPD1    H214119   0.657   2.328  11.187 -1.5105  1.0266  0.8716
    2MPD1    H314120   0.551   2.255  11.403  0.9918  0.5195 -0.1923
    2MPD1     N14121   0.224   2.024  11.187  0.6985  0.7233  0.3823
    2MPD1    H514122   0.200   2.001  11.091  0.8054  3.4358 -0.3034
    2MPD1    N114123   0.585   2.232  10.953  0.7177  0.4178  0.2943
    2MPD1    H614124   0.644   2.316  10.951  1.7766 -0.3357 -0.4082
    2MPD1    H714125   0.528   2.238  10.869  2.6870  0.5636 -1.0528
    1TMC1    C114126   3.735   1.580   9.809  0.1929 -0.2423 -0.2805
    1TMC1    C214127   3.599   1.567   9.799  0.2663 -0.5480 -0.1037
    1TMC1    C314128   3.525   1.546   9.917 -0.2936 -0.8100  0.0784
    1TMC1    C414129   3.800   1.593   9.930 -0.2481 -0.0547 -0.4879
    1TMC1    C514130   3.723   1.573  10.044 -0.2113 -0.3510  0.2928
    1TMC1    C614131   3.586   1.541  10.039 -0.3604 -0.2692  0.5210
    1TMC1     C14132   3.809   1.576   9.685 -0.0663 -0.0097  0.6648
    1TMC1     O14133   3.744   1.583   9.581 -0.5747  0.3299 -0.5685
    1TMC1     H14134   3.554   1.559   9.701 -0.2247 -2.3579  0.2690
    1TMC1    H114135   3.898   1.639   9.938  0.2513 -0.9189 -1.5395
    1TMC1    H214136   3.543   1.525  10.137 -1.8704 -0.5875 -0.1988
    1TMC1    C714137   3.783   1.613  10.173 -0.3695  0.5955 -0.3726
    1TMC1    C814138   3.400   1.474   9.900 -0.3950 -0.6471 -0.1059
    1TMC1    O114139   3.717   1.642  10.274  0.0768  0.0545 -0.4596
    1TMC1    O214140   3.360   1.418   9.801 -0.2160 -0.3021  0.2766
    1TMC1    O314141   3.905   1.562  10.168  0.7515 -0.4035  0.2794
    1TMC1    H314142   3.936   1.518  10.086 -0.0777  0.2105 -0.3702
    1TMC1    O514143   3.317   1.499  10.007  0.6345 -0.0810 -0.3691
    1TMC1    H514144   3.347   1.567  10.071  0.7097  0.7418 -1.2816
    2MPD1     C14145   4.209   1.471   9.390  0.3137  0.4799 -0.1303
    2MPD1    C114146   4.248   1.439   9.517  0.5488 -0.4087  0.3874
    2MPD1    C214147   4.157   1.468   9.623 -0.7604  0.7503  0.1554
    2MPD1    C314148   4.032   1.517   9.589  0.5334  0.8732 -0.4013
    2MPD1    C414149   3.989   1.532   9.456 -0.0536  0.1440 -0.3746
    2MPD1    C514150   4.083   1.516   9.362  0.9505 -0.5335 -0.2927
    2MPD1     H14151   4.185   1.462   9.727 -2.7010  4.6224  0.8923
    2MPD1    H114152   3.904   1.590   9.420 -0.7508 -0.0575  0.9493
    2MPD1    H214153   4.279   1.469   9.307 -0.4480 -1.4935 -0.7114
    2MPD1    H314154   4.061   1.558   9.265 -1.3992  0.0124  0.4683
    2MPD1     N14155   3.944   1.547   9.699 -0.0762 -0.4884  0.8901
    2MPD1    H514156   3.975   1.541   9.795 -0.6883 -1.1871  1.0523
    2MPD1    N114157   4.385   1.421   9.541  0.1111 -0.5391 -0.2284
    2MPD1    H614158   4.410   1.392   9.636  0.3985 -1.5142 -0.6050
    2MPD1    H714159   4.425   1.367   9.465 -1.1710 -1.6445 -0.1249
    1MPD1     C14160   1.568   1.439  12.582 -0.3359  0.6127 -0.3831
    1MPD1    C114161   1.463   1.507  12.531 -0.4697 -0.0581 -0.6101
    1MPD1    C214162   1.489   1.585  12.422 -0.7039  0.2971 -0.2584
    1MPD1    C314163   1.615   1.589  12.368 -0.4479 -0.1937  0.6866
    1MPD1    C414164   1.721   1.520  12.425 -0.1330  0.0265  0.3463
    1MPD1    C514165   1.698   1.455  12.545  0.4823  0.3066  0.1048
    1MPD1     H14166   1.409   1.645  12.378 -0.6090 -0.6042 -1.6513
    1MPD1    H114167   1.821   1.536  12.386  0.5151 -1.1894  1.4803
    1MPD1    H214168   1.562   1.392  12.680  1.8258  0.0084 -0.5477
    1MPD1    H314169   1.781   1.413  12.601  0.7890 -0.9834 -1.3100
    1MPD1     N14170   1.631   1.683  12.258  0.1155 -0.1972  0.0690
    1MPD1    H514171   1.555   1.747  12.235 -0.1101 -0.1581  0.9109
    1MPD1    N114172   1.349   1.518  12.610 -0.2174  0.3098 -0.2162
    1MPD1    H614173   1.274   1.519  12.541  2.4029 -1.1449 -3.0739
    1MPD1    H714174   1.344   1.438  12.672  1.0878  1.0231  0.8220
    2MPD1     C14175   0.610   1.989  11.853  0.0605  0.1717 -0.0325
    2MPD1    C114176   0.740   1.990  11.901  0.3372  0.5333  0.1487
    2MPD1    C214177   0.839   1.959  11.805 -0.2595 -0.0839 -0.3345
    2MPD1    C314178   0.816   1.946  11.668  0.4516 -0.0462 -0.2979
    2MPD1    C414179   0.687   1.964  11.625  0.1470  0.3376  0.4301
    2MPD1    C514180   0.590   1.983  11.716 -0.4229 -0.3153  0.5292
    2MPD1     H14181   0.935   1.940  11.851 -0.0561  0.4353 -0.5405
    2MPD1    H114182   0.656   1.938  11.524  0.9528  0.3111  0.1849
    2MPD1    H214183   0.525   2.026  11.909  0.5002 -1.4805  1.7273
    2MPD1    H314184   0.487   1.988  11.683 -0.3928  0.5084  0.5721
    2MPD1     N14185   0.920   1.923  11.568  0.6245 -0.1300 -0.0309
    2MPD1    H514186   0.882   1.910  11.475  2.8241  0.7203 -1.0669
    2MPD1    N114187   0.765   1.995  12.043 -0.0095 -0.3639 -0.4941
    2MPD1    H614188   0.698   2.058  12.085 -1.4076 -1.8640 -0.4712
    2MPD1    H714189   0.856   2.035  12.067 -0.6717  0.3119  0.9006
    3MPD1     C14190   1.040   1.773  10.610 -0.1366 -0.2639  0.1812
    3MPD1    C114191   1.133   1.863  10.644  0.3173 -0.2695  0.3533
    3MPD1    C214192   1.162   1.884  10.774  0.1818  0.3169  0.0395
    3MPD1    C314193   1.094   1.824  10.878  0.7964 -0.6345 -0.4193
    3MPD1    C414194   0.985   1.746  10.846 -0.6762  0.1693  0.0861
    3MPD1    C514195   0.971   1.707  10.710 -0.4228  0.4755 -0.0118
    3MPD1     H14196   1.249   1.943  10.800  0.7919 -0.5546 -0.0459
    3MPD1    H114197   0.913   1.717  10.922  1.2342  2.2279  2.6818
    3MPD1    H214198   1.031   1.751  10.505 -0.9505  0.0281  0.1892
    3MPD1    H314199   0.890   1.638  10.689 -0.2793  1.2792 -3.1274
    3MPD1     N14200   1.137   1.849  11.009 -0.3006  1.0232 -0.6983
    3MPD1    H514201   1.219   1.908  11.017 -0.3432  0.8521  1.0348
    3MPD1    N114202   1.211   1.926  10.553 -0.4462  0.2155  0.1210
    3MPD1    H614203   1.181   1.923  10.455 -2.9874 -0.4191  0.9273
    3MPD1    H714204   1.310   1.913  10.571 -0.4938 -2.0683 -1.2473
    4MPD2     C14205   1.417   2.223  11.716  0.3302  0.1476 -0.0105
    4MPD2    C114206   1.522   2.253  11.802 -0.0760 -0.0381  0.1561
    4MPD2    C214207   1.604   2.352  11.755 -0.0499  0.4246  0.1564
    4MPD2    C314208   1.587   2.426  11.639  0.2113 -0.4520 -0.7160
    4MPD2    C414209   1.480   2.384  11.559  0.3490  0.3506 -1.0531
    4MPD2    C514210   1.391   2.287  11.601 -0.2422 -0.4159  0.3390
    4MPD2     H14211   1.678   2.383  11.828 -0.4203  0.9809  0.2915
    4MPD2    H114212   1.463   2.440  11.468  0.8125  2.3622  0.0960
    4MPD2    H214213   1.347   2.149  11.754 -0.6913 -0.3515 -2.8657
    4MPD2    H314214   1.301   2.268  11.544  1.4164 -0.9317 -2.0777
    4MPD2     N14215   1.687   2.513  11.584  0.4295 -0.0579  0.3033
    4MPD2    H514216   1.674   2.549  11.489  0.6690  0.9191  0.6469
    4MPD2    N114217   1.556   2.180  11.920  0.1414  0.9362 -0.4352
    4MPD2    H714218   1.625   2.219  11.983 -1.9181  0.9102  1.8174
    5TMC3    C114219   1.617   1.986  12.043  0.1973  0.6516 -0.0816
    5TMC3    C214220   1.609   1.852  12.064  0.5090 -0.1247 -0.3213
    5TMC3    C314221   1.726   1.781  12.071  0.3972 -0.0355 -0.3057
    5TMC3    C414222   1.741   2.049  12.037  0.4149 -0.6565 -0.3595
    5TMC3    C514223   1.854   1.974  12.037  0.0912 -0.4721  0.4342
    5TMC3    C614224   1.844   1.842  12.057 -0.6090 -0.2927 -0.2959
    5TMC3     C14225   1.520   2.046  11.946 -0.5377  0.5039  0.5101
    5TMC3     O14226   1.458   1.970  11.871 -0.4772  0.3122  0.2527
    5TMC3     H14227   1.509   1.810  12.060  0.2908  0.4426 -0.8248
    5TMC3    H114228   1.752   2.157  12.041  0.2487 -0.6694  0.3484
    5TMC3    H214229   1.927   1.771  12.055  1.1585  1.7895 -1.3394
    5TMC3    C714230   1.967   2.043  11.984  0.2129 -0.3868  0.1664
    5TMC3    C814231   1.735   1.678  12.173 -0.2652 -0.1454 -0.4770
    5TMC3    O114232   1.958   2.165  11.978  0.0832  0.3061  0.0942
    5TMC3    O214233   1.835   1.605  12.176 -0.2485  0.0882 -0.2811
    6TMC3    C114234   1.130   1.911  11.474 -0.2320  0.5851 -0.5484
    6TMC3    C214235   1.072   1.856  11.361 -0.5509  0.3099 -0.2341
    6TMC3    C314236   1.143   1.860  11.242  0.0747  0.1548  0.3159
    6TMC3    C414237   1.265   1.934  11.482 -0.0175 -0.2512 -0.3734
    6TMC3    C514238   1.335   1.935  11.358  0.3400 -0.2793  0.9840
    6TMC3    C614239   1.274   1.902  11.238 -0.1034  0.5850  0.7154
    6TMC3     C14240   1.053   1.920  11.591  0.0460 -0.6800  0.4013
    6TMC3     O14241   1.109   1.904  11.695  0.7815 -0.5040 -0.5074
    6TMC3     H14242   0.970   1.820  11.361 -0.2311 -0.6080  0.6359
    6TMC3    H114243   1.319   1.960  11.573 -0.9522  0.3807  0.0063
    6TMC3    H214244   1.336   1.872  11.154 -0.8406  1.1672 -0.0301
    6TMC3    C714245   1.465   2.010  11.350 -0.1632  0.8085  0.1801
    6TMC3    C814246   1.078   1.804  11.124  0.1796  0.4290 -0.4778
    6TMC3    O114247   1.519   2.038  11.458 -0.3363 -0.1866 -0.6413
    6TMC3    O214248   0.978   1.737  11.145  0.7684  0.7658  0.3667
    7MPD2     C14249   2.250   2.062  11.570  0.1563  0.0888  0.4332
    7MPD2    C114250   2.220   2.161  11.661  0.0737  0.3573  0.4933
    7MPD2    C214251   2.151   2.129  11.774  0.4474 -0.0420 -0.1786
    7MPD2    C314252   2.121   1.996  11.801 -0.2642 -0.4353  0.0016
    7MPD2    C414253   2.158   1.908  11.714  0.6589  0.0099 -0.0886
    7MPD2    C514254   2.212   1.937  11.595 -0.0231 -0.0837  0.1766
    7MPD2     H14255   2.124   2.208  11.843 -0.7155  0.0670 -0.7591
    7MPD2    H114256   2.129   1.804  11.723 -1.4018  0.6101  0.2127
    7MPD2    H214257   2.301   2.086  11.477 -0.4786  0.6059  0.2255
    7MPD2    H314258   2.236   1.861  11.522  1.2766  0.1456  0.3662
    7MPD2     N14259   2.046   1.952  11.914  0.0492 -0.1519  0.1490
    7MPD2    H514260   2.034   1.851  11.919  1.1804 -0.2149  1.3524
    7MPD2    N114261   2.229   2.292  11.608 -0.2387  0.0462  0.5353
    7MPD2    H714262   2.235   2.288  11.507  1.2004  2.6470  0.5384
    8TMC3    C114263   2.134   2.503  11.580 -0.0223  0.0214 -0.9036
    8TMC3    C214264   2.134   2.485  11.444  0.5314 -0.6471 -0.5167
    8TMC3    C314265   2.022   2.500  11.373  0.3399  0.2011  0.0210
    8TMC3    C414266   2.028   2.566  11.635  0.3650 -0.3995  0.2229
    8TMC3    C514267   1.906   2.587  11.570 -0.0609 -0.0742  0.2807
    8TMC3    C614268   1.904   2.543  11.438  0.5323  0.4456  0.3224
    8TMC3     C14269   2.176   2.400  11.675  0.2129  0.1485  0.1710
    8TMC3     O14270   2.157   2.421  11.795 -0.5132 -0.2987  0.0713
    8TMC3     H14271   2.213   2.432  11.393  1.9146  0.0324  0.9344
    8TMC3    H114272   2.035   2.592  11.740 -0.4610 -2.5502  0.8183
    8TMC3    H214273   1.825   2.568  11.369  1.3240 -0.7709 -1.0324
    8TMC3    C714274   1.800   2.551  11.649 -0.5652 -0.0357 -0.5341
    8TMC3    C814275   1.990   2.409  11.268 -0.1352  0.3313 -0.6788
    8TMC3    O114276   1.822   2.544  11.766 -0.0463  0.1595 -0.0827
    8TMC3    O214277   2.069   2.401  11.176  0.5034  0.2512 -0.2146
    9MPD2     C14278   1.820   2.259  11.079  0.9665  0.3768  0.9794
    9MPD2    C114279   1.798   2.262  11.214  0.5588  0.7511 -0.3991
    9MPD2    C214280   1.700   2.178  11.268 -0.0991 -0.1429 -0.2473
    9MPD2    C314281   1.616   2.112  11.180 -0.1525  0.2185  0.0359
    9MPD2    C414282   1.643   2.108  11.046 -0.0755  0.3882 -0.0863
    9MPD2    C514283   1.750   2.170  11.001 -0.5407  0.3294  0.0285
    9MPD2     H14284   1.676   2.183  11.373 -1.1838 -0.0045 -0.4999
    9MPD2    H114285   1.567   2.077  10.974  1.3849 -0.5758 -1.2066
    9MPD2    H214286   1.886   2.333  11.035  0.8289  0.5800  1.1230
    9MPD2    H314287   1.750   2.197  10.896  0.0465 -1.1847 -0.3706
    9MPD2     N14288   1.496   2.049  11.221 -0.2023  0.3498 -0.1400
    9MPD2    H514289   1.426   2.021  11.153 -0.6986  1.6226 -0.1446
    9MPD2    N114290   1.876   2.339  11.302  0.2269  0.0074 -0.8324
    9MPD2    H714291   1.841   2.329  11.396 -0.6619  0.6981 -1.0959
    1MPD1     C14292   1.382   0.378  15.480 -0.7680 -0.6111  0.5677
    1MPD1    C114293   1.248   0.398  15.469 -0.4740 -0.2869 -0.3531
    1MPD1    C214294   1.194   0.437  15.343  0.1845 -0.3631  0.5814
    1MPD1    C314295   1.286   0.448  15.239 -0.0140  0.3635  0.8460
    1MPD1    C414296   1.421   0.417  15.247  0.3146  1.0238 -0.0363
    1MPD1    C514297   1.461   0.383  15.371  0.9241 -0.1927  0.3284
    1MPD1     H14298   1.087   0.458  15.340  0.3495  0.1509 -1.5618
    1MPD1    H114299   1.470   0.409  15.151  0.1297 -0.7500  0.0158
    1MPD1    H214300   1.431   0.344  15.571 -1.3876 -0.8264  0.8178
    1MPD1    H314301   1.564   0.349  15.382  0.6920 -0.9859  0.0855
    1MPD1     N14302   1.248   0.496  15.109 -0.6029 -0.4646 -0.5987
    1MPD1    H514303   1.319   0.517  15.040  1.9382 -1.0597  1.8397
    1MPD1    N114304   1.155   0.357  15.568 -0.0670 -0.2450 -0.2106
    1MPD1    H614305   1.063   0.401  15.561 -0.1953 -0.5566 -0.5136
    1MPD1    H714306   1.184   0.371  15.665 -0.7204 -2.2508  0.2879
    2TMC2    C114307   1.198   0.621  14.730  0.3374 -0.1298  0.0203
    2TMC2    C214308   1.077   0.681  14.683 -0.6812  0.1164 -1.3484
    2TMC2    C314309   0.971   0.674  14.768  0.2400 -0.0751 -0.4080
    2TMC2    C414310   1.213   0.560  14.852 -0.0312  0.4795  0.7449
    2TMC2    C514311   1.106   0.564  14.934  0.1711 -1.0653 -0.0085
    2TMC2    C614312   0.985   0.621  14.896  0.1379  0.6350  0.2031
    2TMC2     C14313   1.306   0.637  14.638 -0.2118 -0.7817  0.1623
    2TMC2     O14314   1.288   0.686  14.525 -0.8210 -0.0294  0.2118
    2TMC2     H14315   1.079   0.717  14.581 -0.1942 -1.0702 -1.7661
    2TMC2    H114316   1.305   0.511  14.882  0.4698  0.7378 -0.3672
    2TMC2    H214317   0.895   0.618  14.957  0.2122  1.6219  0.3642
    2TMC2    C714318   1.115   0.527  15.070  0.3604  0.9723  0.1703
    2TMC2    C814319   0.863   0.768  14.762  0.4740  0.1428 -0.0004
    2TMC2    O114320   1.009   0.497  15.120 -0.0565 -0.2852  0.2016
    2TMC2    O214321   0.814   0.821  14.861  0.1125 -0.2225 -0.4867
    2TMC2    O514322   0.866   0.821  14.635  0.1906  0.3283  0.0600
    2TMC2    H514323   0.901   0.757  14.569 -0.1294 -1.2768  1.4419
    3MPD1     C14324   1.823   0.713  14.586  0.0209  0.1971 -0.1283
    3MPD1    C114325   1.800   0.617  14.687 -0.0250  0.2615  0.3436
    3MPD1    C214326   1.670   0.593  14.723 -0.1108 -0.1848 -1.0369
    3MPD1    C314327   1.561   0.637  14.649 -0.1012 -0.4840  0.0763
    3MPD1    C414328   1.583   0.721  14.542 -0.1088 -0.0001 -0.2210
    3MPD1    C514329   1.713   0.771  14.523 -0.0776 -0.5514 -0.4495
    3MPD1     H14330   1.647   0.530  14.808 -1.3529 -0.8919 -1.9035
    3MPD1    H114331   1.519   0.783  14.480 -0.1402  0.2790  0.0864
    3MPD1    H214332   1.921   0.751  14.561 -0.2569 -0.1639 -1.7902
    3MPD1    H314333   1.736   0.843  14.446 -2.0290 -0.6214 -1.1013
    3MPD1     N14334   1.431   0.597  14.688  0.0898 -0.6666 -0.1307
    3MPD1    H514335   1.435   0.538  14.770 -1.4869 -2.0768 -1.0546
    3MPD1    N114336   1.902   0.594  14.772 -0.5455 -0.2378 -0.2733
    3MPD1    H614337   1.880   0.509  14.824  0.3841 -0.0626  0.4058
    3MPD1    H714338   1.910   0.666  14.843 -0.2270  0.0763 -0.6283
    1TMC1    C114339   4.687   4.551  13.204  0.4580 -0.7219 -0.5465
    1TMC1    C214340   4.586   4.576  13.113 -0.5606 -0.0085 -0.5224
    1TMC1    C314341   4.484   4.486  13.097 -0.5824  0.6480  0.5686
    1TMC1    C414342   4.677   4.441  13.282  0.4184 -0.5064  0.4164
    1TMC1    C514343   4.567   4.367  13.282  0.9205 -0.4098 -0.1772
    1TMC1    C614344   4.468   4.382  13.188 -0.7054 -0.5885  0.3668
    1TMC1     C14345   0.068   4.639  13.196  0.0431 -0.4452  0.1588
    1TMC1     O14346   0.080   4.705  13.092 -0.3166  0.0034 -0.1280
    1TMC1     H14347   4.603   4.654  13.039  2.1449 -2.2127 -2.2525
    1TMC1    H114348   0.016   4.419  13.353  0.5803 -0.8368  0.1367
    1TMC1    H214349   4.375   4.326  13.182  0.3733 -2.2648 -0.8071
    1TMC1    C714350   4.568   4.255  13.376 -0.0877  0.0692  0.6269
    1TMC1    C814351   4.371   4.534  13.023  0.2314  0.1347 -0.0730
    1TMC1    O114352   4.666   4.196  13.424 -0.1154  0.2879 -0.2814
    1TMC1    O214353   4.382   4.610  12.929 -0.1469 -0.0321 -0.6212
    1TMC1    O314354   4.438   4.234  13.400 -0.4549 -0.1065  0.0836
    1TMC1    H314355   4.373   4.306  13.383 -0.8067 -1.0990 -2.7362
    1TMC1    O514356   4.286   4.554  13.127 -0.3989  0.1069  0.4340
    1TMC1    H514357   4.295   4.504  13.211 -0.2209  0.6600  0.7472
    2MPD2     C14358   0.298   0.091  13.231  0.1551 -0.5708 -0.2064
    2MPD2    C114359   0.275   4.724  13.315 -0.9291 -0.2140 -0.4383
    2MPD2    C214360   0.372   4.690  13.414  0.1726 -0.2948 -0.1745
    2MPD2    C314361   0.502   0.005  13.410  0.1079  0.7295 -0.2205
    2MPD2    C414362   0.524   0.095  13.311 -0.7851  0.1674  0.7336
    2MPD2    C514363   0.424   0.144  13.231 -0.2951  0.0383  0.1361
    2MPD2     H14364   0.342   4.614  13.485 -1.0147  0.8210  0.5270
    2MPD2    H114365   0.620   0.147  13.311  0.0724 -1.4132  2.3582
    2MPD2    H214366   0.225   0.139  13.166  0.0399 -0.1264  0.2495
    2MPD2    H314367   0.438   0.231  13.168 -1.8928  0.4420  0.3458
    2MPD2     N14368   0.591   4.703  13.507 -0.0784  0.5233  0.0560
    2MPD2    H514369   0.548   4.671  13.593 -1.2663  4.0499  0.7957
    2MPD2    N114370   0.159   4.644  13.303 -0.2150  0.0217  0.8071
    2MPD2    H714371   0.164   4.569  13.371  0.5204  0.5844  1.3780
    3TCq1    O114372   1.154   4.655  13.679 -0.4213 -0.1486  0.5064
    3TCq1    C114373   1.122   0.013  13.763 -0.1213 -0.1759  1.0840
    3TCq1    O214374   1.175   0.121  13.780  0.1293  0.0300 -0.0287
    3TCq1    C214375   0.974   4.727  13.768  0.0343 -0.8749 -0.3595
    3TCq1    C314376   0.932   4.614  13.840  0.3706 -0.0277  0.1208
    3TCq1    C414377   0.808   4.560  13.821 -0.3022 -0.9694  0.5215
    3TCq1    C514378   0.734   4.608  13.713 -0.3680  0.0365 -0.0715
    3TCq1    C614379   0.784   4.709  13.636  0.0722 -0.0720  0.5698
    3TCq1    C714380   0.899   0.038  13.664  0.1937 -0.1948  0.1286
    3TCq1    C814381   0.720   0.004  13.513  0.6049  1.1113  0.0573
    3TCq1    O414382   0.796   0.034  13.426 -0.9702 -0.0727  0.3210
    3TCq1    C914383   0.758   4.437  13.883  0.1164 -0.7430  0.5132
    3TCq1    O514384   0.660   4.374  13.826  0.0921  0.0611 -0.1132
    3TCq1    O614385   0.850   4.381  13.944 -1.1669 -0.4770  0.2872
    3TCq1    H114386   1.092   4.579  13.674 -0.1649 -0.2475 -1.2142
    3TCq1    H214387   0.993   4.564  13.914  0.5981  2.0323  1.3269
    3TCq1    H314388   0.645   4.551  13.692 -1.7987  2.0760  0.4749
    3TCq1    H414389   0.936   0.118  13.601  0.2104  0.2191  0.6648
    1MPD2     C14390   3.817   0.814  15.035 -0.5987  0.4432 -0.1314
    1MPD2    C114391   3.933   0.735  15.016 -0.4465 -0.2278  0.2225
    1MPD2    C214392   3.999   0.754  14.895  0.3323  0.2771 -0.2149
    1MPD2    C314393   3.961   0.860  14.806 -0.3136 -0.1106  0.6740
    1MPD2    C414394   3.858   0.946  14.840 -0.0366  0.2000  0.1591
    1MPD2    C514395   3.790   0.919  14.956  0.3448 -0.7269  0.2485
    1MPD2     H14396   4.080   0.686  14.872 -0.3282 -0.0295 -1.6156
    1MPD2    H114397   3.829   1.025  14.772  1.9611  0.2115 -0.6749
    1MPD2    H214398   3.762   0.807  15.129  2.0212 -0.5923  1.3202
    1MPD2    H314399   3.709   0.983  14.987  1.7864 -0.3523  3.2210
    1MPD2     N14400   4.010   0.871  14.673  0.3057  0.3356  0.5272
    1MPD2    H514401   3.974   0.940  14.608 -0.0058  0.1737  0.5293
    1MPD2    N114402   3.971   0.646  15.121 -0.1744 -0.2934 -0.4751
    1MPD2    H714403   3.899   0.622  15.188  0.3872 -1.0475 -0.1456
    2TMC3    C114404   4.116   0.491  15.229  0.1489  0.3057  0.6304
    2TMC3    C214405   4.240   0.437  15.221 -0.4925 -0.3579  0.1240
    2TMC3    C314406   4.249   0.304  15.204 -0.3774  0.6148 -0.3809
    2TMC3    C414407   4.009   0.410  15.245 -0.1170 -0.6002 -0.3470
    2TMC3    C514408   4.020   0.270  15.238 -0.1896  0.3081  0.2664
    2TMC3    C614409   4.140   0.217  15.211  0.2527  0.0833 -0.4196
    2TMC3     C14410   4.098   0.603  15.137  0.4660  0.8969  0.6284
    2TMC3     O14411   4.192   0.623  15.063 -0.1842  0.2696 -0.7617
    2TMC3     H14412   4.317   0.507  15.190 -0.1584  0.6078  3.1606
    2TMC3    H114413   3.910   0.451  15.263 -1.0067 -1.1594 -3.9438
    2TMC3    H214414   4.141   0.111  15.187  0.6843  0.4676 -2.0979
    2TMC3    C714415   3.910   0.187  15.212  0.2174  0.3696  0.2824
    2TMC3    C814416   4.337   0.276  15.094  0.0188  0.7326  0.0953
    2TMC3    O114417   3.907   0.067  15.232 -0.1679 -0.1353  0.6583
    2TMC3    O214418   4.419   0.183  15.115  0.3930  0.3556  0.5511
    3TCq1    O114419   2.952   0.411  14.486  0.6022  0.9205  0.4693
    3TCq1    C114420   3.017   0.526  14.491 -1.3550  0.5944  0.8124
    3TCq1    O214421   2.979   0.626  14.432 -0.1876  0.2860 -0.2860
    3TCq1    C214422   3.151   0.519  14.548  0.3433  0.5237  0.2965
    3TCq1    C314423   3.252   0.585  14.487 -0.3990 -0.8535 -0.5155
    3TCq1    C414424   3.379   0.536  14.516  0.6431 -0.2520 -0.9337
    3TCq1    C514425   3.406   0.442  14.616 -0.2954  0.1148 -0.7346
    3TCq1    C614426   3.298   0.390  14.686  0.4084 -0.5718  0.4386
    3TCq1    C714427   3.176   0.429  14.648 -0.0652 -0.8167  0.3052
    3TCq1    C814428   3.321   0.319  14.809  0.5579  0.1580  0.3733
    3TCq1    O414429   3.229   0.247  14.848 -0.0381  0.1402  0.0143
    3TCq1    C914430   3.487   0.575  14.426  0.6246  0.2650 -0.1197
    3TCq1    O514431   3.457   0.652  14.330  0.3049  0.2075 -0.2642
    3TCq1    O614432   3.605   0.546  14.469 -0.0445  0.4355 -0.1198
    3TCq1    H114433   2.988   0.341  14.544 -0.8038 -0.8859 -0.8346
    3TCq1    H214434   3.235   0.629  14.389 -0.6094  0.7174  0.2229
    3TCq1    H314435   3.503   0.394  14.613 -0.3195  0.0391 -0.2423
    3TCq1    H414436   3.096   0.386  14.707 -0.5177  1.1042  1.0711
    4MPD2     C14437   3.442   0.154  15.018 -0.3234 -0.2251 -0.7920
    4MPD2    C114438   3.504   0.270  14.970 -0.3930 -0.2687  0.1396
    4MPD2    C214439   3.624   0.304  15.016  0.1407  0.4951  0.0196
    4MPD2    C314440   3.684   0.228  15.114  0.0149  0.1423 -0.1799
    4MPD2    C414441   3.610   0.126  15.173 -0.7663 -0.0768 -0.5261
    4MPD2    C514442   3.495   0.082  15.118 -0.2922  0.2877  1.4824
    4MPD2     H14443   3.669   0.394  14.975  0.7850 -1.5174 -3.6908
    4MPD2    H114444   3.648   0.065  15.255  1.0008  0.7470 -0.7426
    4MPD2    H214445   3.349   0.109  14.986 -0.6276 -0.1162 -0.0719
    4MPD2    H314446   3.447   4.734  15.158  1.5778 -1.0159  0.8398
    4MPD2     N14447   3.815   0.266  15.151  0.2876  0.3800 -0.7726
    4MPD2    H514448   3.853   0.354  15.119 -0.0556  1.3995  1.6819
    4MPD2    N114449   3.445   0.349  14.864  0.7436  0.1418  1.0567
    4MPD2    H714450   3.496   0.420  14.813 -0.2238  0.7991  1.0050
    5TMC2    C114451   4.368   0.744  14.419  0.3015  0.0360 -0.6441
    5TMC2    C214452   4.410   0.873  14.387 -0.4657 -0.5492  0.1627
    5TMC2    C314453   4.322   0.974  14.422 -0.0765 -0.8031  0.2607
    5TMC2    C414454   4.240   0.728  14.454  0.1380 -0.1247  0.0604
    5TMC2    C514455   4.153   0.827  14.488 -0.7484 -0.5955  0.7063
    5TMC2    C614456   4.199   0.955  14.478  0.8034  0.4201 -0.3772
    5TMC2     C14457   4.464   0.651  14.481  0.0961  0.8863  0.2455
    5TMC2     O14458   4.587   0.660  14.463 -0.0109  0.2623  0.1209
    5TMC2     H14459   4.511   0.892  14.354 -0.0428 -2.6616  0.2308
    5TMC2    H114460   4.197   0.630  14.435 -1.9496  0.7478  0.2355
    5TMC2    H214461   4.159   1.036  14.538 -2.9225 -1.1504 -0.7310
    5TMC2    C714462   4.095   0.784  14.618 -0.2461 -0.2448  0.0832
    5TMC2    C814463   4.351   1.101  14.359 -0.6665 -0.8995  0.2138
    5TMC2    O114464   4.133   0.674  14.657  0.2946 -0.1224 -0.6321
    5TMC2    O214465   4.469   1.120  14.334 -0.4032  0.4696  0.2566
    5TMC2    O514466   4.243   1.125  14.279  0.3904  0.1518 -0.4599
    5TMC2    H514467   4.152   1.099  14.305 -0.0421  0.2721 -1.8885
    6MPD2     C14468   4.547   0.339  14.877 -0.0734 -0.4068  0.2592
    6MPD2    C114469   4.420   0.390  14.886  0.2729 -0.1386 -0.0841
    6MPD2    C214470   4.374   0.470  14.784 -0.5302  0.5424 -0.0418
    6MPD2    C314471   4.454   0.501  14.678  0.0946 -0.8173  0.1451
    6MPD2    C414472   4.581   0.456  14.676  0.4674  0.8256 -0.2956
    6MPD2    C514473   4.629   0.369  14.771 -0.3348 -0.4465 -0.6279
    6MPD2     H14474   4.271   0.503  14.787 -0.3986  1.2416 -3.3990
    6MPD2    H114475   4.648   0.477  14.593 -0.8446  0.4634 -1.4285
    6MPD2    H214476   4.583   0.282  14.962 -2.5034 -2.4176 -0.0425
    6MPD2    H314477   4.728   0.326  14.767 -1.2978 -2.6171 -0.9191
    6MPD2     N14478   4.404   0.585  14.583 -0.4993 -0.3348  0.0940
    6MPD2    H514479   4.305   0.605  14.596 -0.3631  0.5305 -0.1991
    6MPD2    N114480   4.333   0.368  14.996 -0.4101  0.5914 -0.2026
    6MPD2    H714481   4.253   0.431  14.993 -2.2077 -1.7389 -1.7505
  945NH3     N114482   2.065   2.766   9.486  0.0214 -0.3380  0.0081
  945NH3     H214483   1.975   2.799   9.453  0.9597  1.8587 -0.4040
  945NH3     H314484   2.130   2.844   9.479  1.3582 -1.4709 -0.1608
  945NH3     H414485   2.049   2.781   9.585 -0.0107 -4.1763  0.5947
  946SOD     NA14486   3.236   1.056  13.783 -0.4547  0.2947 -0.3810
  947SOD     NA14487   0.378   3.378  11.623 -0.2445  0.0462  0.1651
  948SOD     NA14488   2.939   4.589   7.679  0.1100  0.3542  0.1395
  949SOD     NA14489   1.264   0.332   9.176  0.0326 -0.0309  0.1973
  950SOD     NA14490   4.378   1.419  11.228  0.1479  0.0631 -0.3438
  951SOD     NA14491   0.692   2.562  16.820  0.2102  0.1458  0.0278
  952SOD     NA14492   4.366   1.971  16.358 -0.6907 -0.1564  0.1391
  953SOD     NA14493   3.923   4.635  15.378  0.1052 -0.0156 -0.1191
  954SOL     OW14494   1.413   1.548   8.246 -0.0420 -0.4475 -0.6696
  954SOL    HW114495   1.389   1.534   8.154  1.6088  1.4914 -1.3916
  954SOL    HW214496   1.507   1.551   8.229  0.0495 -1.5555 -0.3912
  955SOL     OW14497   2.240   0.825   9.515 -0.4107  0.2317  0.6624
  955SOL    HW114498   2.322   0.803   9.471  0.1946  1.5870  1.1134
  955SOL    HW214499   2.197   0.740   9.526 -0.4373 -0.0111 -1.4674
  956SOL     OW14500   2.871   2.513   3.097 -0.1151 -0.2444  0.0601
  956SOL    HW114501   2.806   2.466   3.045  0.1974  2.3327 -2.6562
  956SOL    HW214502   2.861   2.601   3.061  1.2151 -0.2709 -0.3644
  957SOL     OW14503   0.772   3.402   4.578 -0.3349  0.2900  0.0307
  957SOL    HW114504   0.758   3.334   4.644  3.5716  0.5217  1.0998
  957SOL    HW214505   0.682   3.405   4.545  0.0045 -1.8845 -1.1191
  958SOL     OW14506   2.597   3.171  10.998  0.1368 -0.0675  0.1299
  958SOL    HW114507   2.608   3.232  10.925  1.0190 -2.3119 -1.6070
  958SOL    HW214508   2.557   3.096  10.954  0.3988 -1.2905  2.0010
  959SOL     OW14509   0.014   1.256   5.542 -0.7206  0.2954  0.4758
  959SOL    HW114510   0.056   1.333   5.581 -0.8338  0.3509  0.4899
  959SOL    HW214511   0.095   1.205   5.540 -1.9480 -1.7130  1.6075
  960SOL     OW14512   0.103   4.102   2.194 -0.1128 -0.2610  0.1622
  960SOL    HW114513   0.176   4.089   2.255 -1.8931 -2.8881  1.7452
  960SOL    HW214514   0.044   4.154   2.247 -1.5987 -0.5830 -1.1756
  961SOL     OW14515   0.408   0.653  13.817 -0.3328  0.0327  0.2448
  961SOL    HW114516   0.441   0.708  13.888 -0.3010  0.1115  0.1692
  961SOL    HW214517   0.481   0.591  13.812  0.1297  0.6322 -0.4517
  962SOL     OW14518   4.362   3.711   5.748  0.1901  0.7300  0.0997
  962SOL    HW114519   4.281   3.716   5.698 -1.2222 -3.6302  1.9671
  962SOL    HW214520   4.381   3.796   5.787  2.3694  1.0136 -1.5370
  963SOL     OW14521   1.511   3.066  13.781  0.0324 -0.0180 -0.1203
  963SOL    HW114522   1.568   3.130  13.825 -2.1685  1.0808  1.1504
  963SOL    HW214523   1.462   3.043  13.860 -1.9879 -1.9059 -1.9307
  964SOL     OW14524   2.114   3.597  10.591 -0.3943 -0.2539  0.0880
  964SOL    HW114525   2.131   3.689  10.572  1.4421 -0.7163 -0.5066
  964SOL    HW214526   2.065   3.572  10.513  1.3007 -1.9878 -0.4133
  965SOL     OW14527   3.463   0.824   9.263 -0.8657 -0.1887 -0.4433
  965SOL    HW114528   3.434   0.750   9.210 -1.2206 -0.5165  0.2159
  965SOL    HW214529   3.401   0.816   9.335 -1.5816  1.3764 -0.8906
  966SOL     OW14530   3.620   3.685  11.942  0.4279  0.3238 -0.6053
  966SOL    HW114531   3.688   3.711  12.005  0.8068 -3.7818  0.6617
  966SOL    HW214532   3.535   3.715  11.972  1.6373  1.1600  2.0027
  967SOL     OW14533   1.805   2.821  17.573 -0.2818  0.0239 -0.5103
  967SOL    HW114534   1.822   2.915  17.573  0.3610 -0.1199  2.8141
  967SOL    HW214535   1.712   2.809  17.591  0.5698 -1.0707  3.1172
  968SOL     OW14536   1.736   0.451   2.548  0.2736 -0.0646  0.5295
  968SOL    HW114537   1.765   0.420   2.634  2.8018 -0.5029 -0.4891
  968SOL    HW214538   1.811   0.494   2.508 -0.0542 -1.4403 -1.5490
  969SOL     OW14539   1.363   3.643   4.915  0.1815  0.1554 -0.0636
  969SOL    HW114540   1.311   3.715   4.881  0.8792 -1.0604 -3.7028
  969SOL    HW214541   1.295   3.601   4.968 -0.7679  2.5244  0.5796
  970SOL     OW14542   3.146   0.445   1.776 -0.0930 -0.3796  0.3565
  970SOL    HW114543   3.095   0.518   1.812 -0.7774  0.1065 -1.5762
  970SOL    HW214544   3.206   0.489   1.716 -0.1114 -1.4980 -0.4860
  971SOL     OW14545   0.976   2.365   7.385  0.0072  0.1534 -0.2635
  971SOL    HW114546   0.902   2.424   7.400  1.4258  1.6660  0.7638
  971SOL    HW214547   0.936   2.280   7.367  0.5405 -0.3349  0.8360
  972SOL     OW14548   4.494   3.873   7.221 -0.1824  0.1495 -0.3055
  972SOL    HW114549   4.405   3.882   7.186 -0.9314 -4.1149  0.5554
  972SOL    HW214550   4.543   3.941   7.175 -1.8234  0.1631 -2.0425
  973SOL     OW14551   4.574   2.370   1.385  0.1232  0.0017 -0.1059
  973SOL    HW114552   4.634   2.409   1.449 -0.9289  1.9271 -0.2977
  973SOL    HW214553   4.522   2.326   1.452  0.8440  1.2965  1.3061
  974SOL     OW14554   0.974   4.437  10.292 -0.0406  0.1583 -0.0263
  974SOL    HW114555   0.922   4.432  10.372 -1.5422  1.3756 -0.9308
  974SOL    HW214556   0.923   4.493  10.233 -3.9350 -2.0450  1.2770
  975SOL     OW14557   3.461   3.834   5.011  0.0503  0.4469  0.1154
  975SOL    HW114558   3.505   3.794   4.937  3.2126  0.0894  2.1917
  975SOL    HW214559   3.534   3.820   5.071 -0.0012  1.0534  0.3168
  976SOL     OW14560   0.531   1.825   1.978 -0.7048  0.6127 -0.5810
  976SOL    HW114561   0.570   1.741   1.951  0.5910  1.1061 -0.2172
  976SOL    HW214562   0.445   1.786   1.997 -0.6067  0.4654 -0.4400
  977SOL     OW14563   3.962   3.271   4.725  0.1547  0.1572 -0.1095
  977SOL    HW114564   3.955   3.265   4.821 -0.7695 -0.0656 -0.1980
  977SOL    HW214565   4.025   3.343   4.720  1.3741 -0.7418  2.3481
  978SOL     OW14566   3.264   1.465   2.050 -0.1253  0.4658 -0.4445
  978SOL    HW114567   3.257   1.552   2.012  0.4366  0.5554 -0.3455
  978SOL    HW214568   3.340   1.428   2.004 -0.5353  0.4626 -1.1212
  979SOL     OW14569   2.376   0.400   6.305  0.2577 -0.3880 -0.1275
  979SOL    HW114570   2.462   0.428   6.336 -0.8878  2.1070  0.7592
  979SOL    HW214571   2.360   0.454   6.228  0.5195 -0.0201  0.0816
  980SOL     OW14572   3.090   0.469   6.624 -0.4944 -0.0423 -0.0519
  980SOL    HW114573   3.169   0.507   6.661 -0.2840 -0.8002  0.2755
  980SOL    HW214574   3.123   0.381   6.606 -0.4283 -0.4770  2.1954
  981SOL     OW14575   2.133   3.511   2.610 -0.3718 -0.2044  0.4753
  981SOL    HW114576   2.217   3.546   2.639  0.7504 -2.3171 -0.2849
  981SOL    HW214577   2.152   3.522   2.517 -1.6043 -1.8348  0.0366
  982SOL     OW14578   0.375   3.989  10.283  0.6897 -0.1088 -0.1277
  982SOL    HW114579   0.375   4.022  10.373 -0.5855  0.3940 -0.3178
  982SOL    HW214580   0.296   3.936  10.271  0.4610  0.2710 -0.2968
  983SOL     OW14581   1.499   3.778   8.195 -0.0125 -0.5678 -0.3238
  983SOL    HW114582   1.444   3.776   8.273 -0.9637  1.0664 -0.9415
  983SOL    HW214583   1.586   3.762   8.233 -0.7177 -0.0861  1.5118
  984SOL     OW14584   3.000   1.156   1.281  0.0982 -0.1848 -0.1057
  984SOL    HW114585   2.936   1.134   1.350 -1.2365 -1.3137 -1.7006
  984SOL    HW214586   3.077   1.180   1.332 -0.0671 -0.1820  0.1458
  985SOL     OW14587   4.095   3.153   4.257 -0.0576  0.3564 -0.9591
  985SOL    HW114588   4.123   3.234   4.214  1.1134  0.9546  0.9173
  985SOL    HW214589   4.014   3.133   4.210 -1.0864 -2.1708  1.9352
  986SOL     OW14590   3.727   0.487  16.879 -0.1789 -0.1987 -0.0577
  986SOL    HW114591   3.816   0.516  16.859 -0.9941  0.8023 -2.2555
  986SOL    HW214592   3.744   0.481  16.973 -1.7273 -2.0772  0.0909
  987SOL     OW14593   1.709   2.367   5.174  0.1921 -0.4016  0.1651
  987SOL    HW114594   1.760   2.287   5.182  1.0117 -0.1370 -2.3756
  987SOL    HW214595   1.687   2.381   5.082  0.7445  0.2073  0.1212
  988SOL     OW14596   0.280   2.240   7.811 -0.2588 -0.1243  0.1793
  988SOL    HW114597   0.229   2.160   7.826  0.5537 -0.9807 -1.5963
  988SOL    HW214598   0.317   2.221   7.725 -0.9358 -0.8526  0.0486
  989SOL     OW14599   2.481   0.462   0.590  0.8432  0.0788  0.1635
  989SOL    HW114600   2.496   0.501   0.677 -2.0718  2.6369 -0.4658
  989SOL    HW214601   2.396   0.417   0.593  0.7192  0.3824  1.6436
  990SOL     OW14602   0.606   3.315   7.477  0.5764  0.0639 -0.2110
  990SOL    HW114603   0.647   3.386   7.526  0.8671 -0.9925  1.0926
  990SOL    HW214604   0.515   3.343   7.476  0.8042  0.6774 -2.5047
  991SOL     OW14605   3.391   3.808   7.773 -0.0964  0.1156 -0.1919
  991SOL    HW114606   3.327   3.848   7.831  1.4766  2.8537 -0.3495
  991SOL    HW214607   3.418   3.884   7.721  2.4318 -0.5492  0.1512
  992SOL     OW14608   2.925   2.042  12.754 -0.2123 -0.2755  0.4120
  992SOL    HW114609   2.883   2.078  12.677  0.4088  0.3888  0.3844
  992SOL    HW214610   2.867   1.966  12.757 -0.0955 -0.5417 -4.2232
  993SOL     OW14611   0.220   2.844   5.061  0.1160 -0.3208 -0.0049
  993SOL    HW114612   0.183   2.785   4.995  2.5533 -0.7360 -1.0302
  993SOL    HW214613   0.153   2.909   5.079 -0.4983 -0.2185 -2.6184
  994SOL     OW14614   2.239   0.450  16.269 -0.5585 -0.2471 -0.0868
  994SOL    HW114615   2.183   0.499  16.209  0.7618  0.9742 -0.2910
  994SOL    HW214616   2.322   0.489  16.243 -0.2050 -0.0177  1.4006
  995SOL     OW14617   4.510   1.978   3.057 -0.2774 -1.2289 -0.2428
  995SOL    HW114618   4.512   2.064   3.099  1.4287 -1.1072 -0.5585
  995SOL    HW214619   4.507   1.998   2.963  0.0222 -0.9303 -0.1874
  996SOL     OW14620   0.235   2.225  14.620 -0.4539 -0.4679 -0.2926
  996SOL    HW114621   0.319   2.233  14.664 -0.1336 -0.7680 -0.8423
  996SOL    HW214622   0.263   2.183  14.538  0.7994 -0.5714  0.2005
  997SOL     OW14623   0.418   3.412   5.374  0.3661 -0.0169  0.1098
  997SOL    HW114624   0.329   3.381   5.390 -0.6084  4.4034  3.1475
  997SOL    HW214625   0.405   3.501   5.407 -1.1920  0.2446 -1.2002
  998SOL     OW14626   3.619   0.438   0.230 -0.2644 -0.4527 -0.2765
  998SOL    HW114627   3.713   0.433   0.248 -0.1610  0.4608 -0.5618
  998SOL    HW214628   3.593   0.346   0.238 -1.2569  0.0052  1.8009
  999SOL     OW14629   3.079   0.590   9.153 -0.0661 -0.2160 -0.4017
  999SOL    HW114630   3.030   0.664   9.190  3.5863  2.3996 -0.7635
  999SOL    HW214631   3.084   0.536   9.232 -0.1247  1.4519  0.7499
 1000SOL     OW14632   0.282   2.512   1.287 -0.3600  0.1695 -0.0399
 1000SOL    HW114633   0.213   2.453   1.254 -0.9588  0.6919  0.2781
 1000SOL    HW214634   0.353   2.478   1.232 -0.5976  0.2976 -0.4316
 1001SOL     OW14635   2.318   4.111   7.183 -0.7127 -1.0573 -0.5040
 1001SOL    HW114636   2.288   4.059   7.258  0.6783  0.1911  0.9088
 1001SOL    HW214637   2.238   4.161   7.167 -0.7233 -1.9530 -3.2472
 1002SOL     OW14638   0.449   4.555   7.807  0.6523  0.4361 -0.6616
 1002SOL    HW114639   0.394   4.612   7.859 -0.3022  1.3833 -2.7117
 1002SOL    HW214640   0.525   4.608   7.783  2.0228 -0.9398  0.6358
 1003SOL     OW14641   2.361   4.516   8.808 -0.2738  0.6708 -0.4091
 1003SOL    HW114642   2.270   4.532   8.834 -0.5916 -0.8128 -0.6060
 1003SOL    HW214643   2.345   4.433   8.764 -1.5394 -0.1891  1.6385
 1004SOL     OW14644   4.011   1.437   6.530  0.0737  0.1523  0.0195
 1004SOL    HW114645   4.027   1.517   6.581  1.9371 -2.0855  2.9389
 1004SOL    HW214646   4.013   1.474   6.442  1.9449 -1.0253 -0.4292
 1005SOL     OW14647   4.521   0.438   4.731  0.6458  0.2121 -0.0961
 1005SOL    HW114648   4.442   0.467   4.688  2.3763  1.3804 -2.4805
 1005SOL    HW214649   4.491   0.376   4.798  3.3000 -1.5221 -0.4722
 1006SOL     OW14650   1.086   0.256   6.070  0.3051 -0.0377 -0.5188
 1006SOL    HW114651   1.157   0.197   6.096  1.0563  0.2545 -1.8617
 1006SOL    HW214652   1.016   0.193   6.086  0.0844  1.2654  3.4964
 1007SOL     OW14653   4.388   4.071  11.286 -0.9961  0.1071  0.4282
 1007SOL    HW114654   4.457   4.133  11.262  0.7423 -1.2424  2.0008
 1007SOL    HW214655   4.321   4.108  11.228 -1.0266 -0.8391 -0.1425
 1008SOL     OW14656   3.963   1.073   5.501 -0.3510  0.1665 -0.4039
 1008SOL    HW114657   4.044   1.026   5.522 -2.0290 -2.6018 -0.2026
 1008SOL    HW214658   3.910   0.995   5.486 -0.8332  0.4869 -0.3764
 1009SOL     OW14659   2.919   0.294   7.582 -0.6127  0.1846  0.1625
 1009SOL    HW114660   2.975   0.351   7.530 -0.3353 -0.4825 -0.2649
 1009SOL    HW214661   2.869   0.351   7.641 -1.5019 -0.1549 -0.2642
 1010SOL     OW14662   4.420   1.464   2.520 -0.5220 -0.9436  0.0363
 1010SOL    HW114663   4.370   1.383   2.523 -2.6945  0.3879  0.0300
 1010SOL    HW214664   4.483   1.434   2.455  1.1385  0.2461  1.1001
 1011SOL     OW14665   2.232   3.345   7.675 -0.5643 -0.0996  0.2374
 1011SOL    HW114666   2.180   3.397   7.736 -0.3908  0.9726 -0.5202
 1011SOL    HW214667   2.179   3.273   7.641 -0.3076 -0.8680  1.5105
 1012SOL     OW14668   4.081   4.591   8.977  0.5877  0.1270  0.3365
 1012SOL    HW114669   3.987   4.594   8.995  0.2590 -2.3319 -0.9293
 1012SOL    HW214670   4.082   4.644   8.897 -0.6853 -1.3270 -0.6323
 1013SOL     OW14671   1.914   4.368   3.992  0.2564 -0.5837  0.5925
 1013SOL    HW114672   1.973   4.310   4.040 -1.8167 -2.6803  0.6251
 1013SOL    HW214673   1.827   4.333   4.009  0.3544  0.0145  2.2944
 1014SOL     OW14674   0.741   4.636  12.210 -0.5311  0.2096  0.0532
 1014SOL    HW114675   0.811   4.701  12.213  2.3296 -2.9452  1.2901
 1014SOL    HW214676   0.702   4.640  12.298 -0.4975 -1.4099  0.1407
 1015SOL     OW14677   3.598   1.869   8.246 -0.6615  0.5163 -0.5751
 1015SOL    HW114678   3.524   1.808   8.239  0.2581 -0.7502  0.7362
 1015SOL    HW214679   3.657   1.837   8.177  0.2913  2.0287 -0.4710
 1016SOL     OW14680   2.877   4.538   5.941  0.0420 -0.2187  0.2139
 1016SOL    HW114681   2.927   4.460   5.918  0.9544  1.0715 -2.1218
 1016SOL    HW214682   2.878   4.576   5.853  1.3091 -0.1015  0.2843
 1017SOL     OW14683   3.673   0.377   1.077 -0.9275 -0.4224  0.0116
 1017SOL    HW114684   3.691   0.413   0.990  1.4623 -3.2503 -0.6805
 1017SOL    HW214685   3.705   0.288   1.063  1.5744  0.3884  0.5387
 1018SOL     OW14686   0.242   2.045   5.010  0.1622  0.1102  0.0575
 1018SOL    HW114687   0.299   2.107   5.056  1.4809 -0.7554 -0.4116
 1018SOL    HW214688   0.255   1.971   5.070 -0.8981  1.2339  1.6805
 1019SOL     OW14689   0.028   1.819  17.587 -0.1485 -0.0457 -0.6479
 1019SOL    HW114690   0.058   1.751  17.648  0.8236 -0.4283 -1.5587
 1019SOL    HW214691   4.683   1.784  17.560 -0.2182 -1.3237  1.2400
 1020SOL     OW14692   1.970   4.332   0.450  0.1188 -0.6176 -0.2914
 1020SOL    HW114693   1.930   4.391   0.514  1.8960  1.4504 -1.0794
 1020SOL    HW214694   1.901   4.308   0.388 -0.1400 -0.2006 -0.1663
 1021SOL     OW14695   4.407   2.969   6.342  0.1676  0.1561  0.0151
 1021SOL    HW114696   4.455   3.040   6.386  1.4046 -2.4240  2.8596
 1021SOL    HW214697   4.399   3.010   6.256  1.2874 -0.2838 -0.2974
 1022SOL     OW14698   3.956   2.518   5.910  0.4252  0.2734 -0.5859
 1022SOL    HW114699   4.003   2.452   5.961 -1.0991  0.0325  0.5069
 1022SOL    HW214700   3.874   2.524   5.959  1.0018 -1.8422  0.6038
 1023SOL     OW14701   1.391   4.500   9.000 -0.3109  0.1031 -0.5668
 1023SOL    HW114702   1.428   4.422   8.960 -0.8512 -0.9258  0.9303
 1023SOL    HW214703   1.327   4.466   9.062 -3.2509 -0.8626 -4.1121
 1024SOL     OW14704   0.831   0.264   2.623  0.2951  0.0702 -0.1596
 1024SOL    HW114705   0.787   0.242   2.541 -0.5193  0.4304  0.1734
 1024SOL    HW214706   0.755   0.296   2.672  0.4254  1.7612 -1.0730
 1025SOL     OW14707   3.401   2.576   8.914  0.1412  0.4878  0.6294
 1025SOL    HW114708   3.325   2.535   8.956  1.3267 -2.7313 -0.4096
 1025SOL    HW214709   3.465   2.510   8.942 -0.9492  0.1582  2.3884
 1026SOL     OW14710   1.408   1.435   5.474  0.3952 -0.1167 -0.0399
 1026SOL    HW114711   1.361   1.383   5.410 -1.6011 -0.1194  1.4292
 1026SOL    HW214712   1.483   1.377   5.490 -2.5241 -3.5706  0.8701
 1027SOL     OW14713   1.428   3.638   4.227  0.5281 -0.2193 -0.2817
 1027SOL    HW114714   1.401   3.660   4.316  0.3396  0.3725 -0.4808
 1027SOL    HW214715   1.519   3.666   4.234  0.3568 -0.0018  1.1403
 1028SOL     OW14716   2.072   4.068   6.415  0.2095 -0.1760 -0.3170
 1028SOL    HW114717   2.096   4.097   6.503 -0.6712  1.7220 -0.6955
 1028SOL    HW214718   2.144   4.106   6.365 -0.6522  0.3524 -1.1516
 1029SOL     OW14719   0.163   2.362   1.072  0.6307  0.0975  0.3024
 1029SOL    HW114720   0.071   2.358   1.098 -0.6476 -0.8756 -4.3449
 1029SOL    HW214721   0.165   2.439   1.016  0.4569  1.2995  1.9771
 1030SOL     OW14722   2.310   0.147   5.422  0.0497  0.0505  0.5648
 1030SOL    HW114723   2.390   0.120   5.377  0.5451  0.6835  1.0600
 1030SOL    HW214724   2.244   0.156   5.353 -0.1954 -0.9554  0.6711
 1031SOL     OW14725   4.248   3.364   0.104 -0.3253  0.6331  0.0517
 1031SOL    HW114726   4.183   3.392   0.169 -0.9857 -0.2083 -0.2426
 1031SOL    HW214727   4.325   3.417   0.119  0.0910 -0.3446  1.3885
 1032SOL     OW14728   3.274   1.771   5.200 -0.4854  0.6931 -0.1833
 1032SOL    HW114729   3.347   1.711   5.215 -2.1054 -0.6348  2.5006
 1032SOL    HW214730   3.199   1.718   5.228 -0.0516 -0.5143 -1.3361
 1033SOL     OW14731   1.949   1.772   9.452  0.0442 -0.2462 -0.3507
 1033SOL    HW114732   1.902   1.701   9.497  1.4330 -2.2520 -2.0637
 1033SOL    HW214733   1.987   1.817   9.528  0.2365 -2.7055  1.0291
 1034SOL     OW14734   0.261   0.777   3.098 -0.0579  0.1750  0.1104
 1034SOL    HW114735   0.233   0.776   3.006 -0.6193  2.0550  0.2605
 1034SOL    HW214736   0.328   0.846   3.101  1.6595 -1.4674 -0.6876
 1035SOL     OW14737   3.177   0.411   7.227 -0.0641  0.0029 -0.3149
 1035SOL    HW114738   3.205   0.375   7.311  0.9057  0.9961 -0.2116
 1035SOL    HW214739   3.093   0.375   7.199  0.7061 -1.0489 -1.3058
 1036SOL     OW14740   4.634   4.120  15.204  0.6481  0.1091  0.2322
 1036SOL    HW114741   4.692   4.044  15.201  0.6207  0.1481 -1.1393
 1036SOL    HW214742   4.596   4.117  15.116 -0.2903 -1.6977  0.7044
 1037SOL     OW14743   0.340   3.471   8.726 -0.6863 -0.1493  0.1720
 1037SOL    HW114744   0.270   3.489   8.790 -1.9624  2.6880 -2.0083
 1037SOL    HW214745   0.291   3.415   8.666  0.4540 -1.2551  0.2805
 1038SOL     OW14746   2.175   4.687   3.313  0.2592  0.0155  0.3571
 1038SOL    HW114747   2.183   0.012   3.383 -1.6775  0.9358 -0.2958
 1038SOL    HW214748   2.251   4.711   3.260  0.6014 -1.1018  0.3411
 1039SOL     OW14749   0.619   3.075   8.822  0.0403  0.7196  0.7183
 1039SOL    HW114750   0.708   3.112   8.825 -0.3364  1.7597 -0.8938
 1039SOL    HW214751   0.627   2.991   8.777  0.1901  1.2416 -0.2409
 1040SOL     OW14752   2.623   0.781  15.005 -0.5295 -0.3239  0.2570
 1040SOL    HW114753   2.645   0.748  14.918  1.2073  1.6413 -0.0566
 1040SOL    HW214754   2.686   0.852  15.017  0.9299 -1.4984 -0.4732
 1041SOL     OW14755   1.298   2.281  17.487 -0.0319  0.3529  0.4743
 1041SOL    HW114756   1.384   2.238  17.484 -0.4366 -0.5260  1.5013
 1041SOL    HW214757   1.247   2.217  17.436 -0.5951  0.7135  0.5877
 1042SOL     OW14758   3.411   2.703   8.393  0.0113  0.1763  0.8926
 1042SOL    HW114759   3.319   2.715   8.417  0.0222  2.6886 -0.3187
 1042SOL    HW214760   3.456   2.728   8.474 -1.1544 -1.0915  1.9515
 1043SOL     OW14761   3.250   2.142   7.172  0.0454  0.3029  0.2982
 1043SOL    HW114762   3.280   2.169   7.085  0.4926 -1.8556 -0.2164
 1043SOL    HW214763   3.236   2.049   7.153  0.0593  0.1221  1.1828
 1044SOL     OW14764   3.609   3.740   5.224 -0.3382  0.4255 -0.0625
 1044SOL    HW114765   3.632   3.809   5.286 -0.6363  0.7435 -0.3058
 1044SOL    HW214766   3.649   3.669   5.273 -0.2906  0.7015  0.2978
 1045SOL     OW14767   2.511   4.548  14.176  0.8666  0.0717  0.1367
 1045SOL    HW114768   2.517   4.462  14.135 -0.1996 -0.2513  0.6683
 1045SOL    HW214769   2.431   4.536  14.226  3.1971  0.1446  3.8858
 1046SOL     OW14770   0.901   4.508   3.136  0.3642  0.4911  0.3276
 1046SOL    HW114771   0.966   4.502   3.066  1.3837 -1.2661  1.4234
 1046SOL    HW214772   0.857   4.582   3.094 -0.5469  0.3914  1.1120
 1047SOL     OW14773   2.067   3.759   9.931 -0.1335 -0.5458  0.2794
 1047SOL    HW114774   2.040   3.813  10.006  1.8009  1.4098 -0.4249
 1047SOL    HW214775   2.026   3.677   9.958  0.4130 -0.0572  2.6047
 1048SOL     OW14776   3.904   4.242   9.474 -0.2922  0.3390  0.4161
 1048SOL    HW114777   3.880   4.154   9.503  0.0620  0.3192  0.6503
 1048SOL    HW214778   3.920   4.282   9.559  0.7793  0.7790  0.0027
 1049SOL     OW14779   0.316   2.642   6.142  0.2557  0.2243 -0.4118
 1049SOL    HW114780   0.243   2.628   6.202  0.6462  0.6939  0.1616
 1049SOL    HW214781   0.302   2.733   6.116 -2.9746  0.2367  1.3063
 1050SOL     OW14782   3.157   3.911  12.348  0.3978 -0.5084 -0.0484
 1050SOL    HW114783   3.096   3.927  12.276 -0.5106  0.6219  0.9462
 1050SOL    HW214784   3.131   3.821  12.367  1.8992 -0.9859 -0.2630
 1051SOL     OW14785   0.396   3.842   4.878  0.3244 -0.0725 -0.3954
 1051SOL    HW114786   0.385   3.747   4.886  2.7966 -0.5206 -2.3153
 1051SOL    HW214787   0.383   3.871   4.968  1.2078  0.3041 -0.3866
 1052SOL     OW14788   0.026   4.720   8.600  0.0920  0.0586  0.1046
 1052SOL    HW114789   0.026   4.645   8.660 -2.1374  0.0684  0.1324
 1052SOL    HW214790   4.739   0.045   8.664 -0.5961  0.5739 -0.7139
 1053SOL     OW14791   3.883   4.348   9.713  0.3756  0.3035  0.4225
 1053SOL    HW114792   3.938   4.360   9.790  1.0314 -1.1576  0.1712
 1053SOL    HW214793   3.871   4.434   9.672 -2.2348  0.4328  1.4477
 1054SOL     OW14794   1.265   3.025   7.540 -0.0258 -0.1137 -0.2466
 1054SOL    HW114795   1.207   2.982   7.477  0.8750 -1.6539 -0.0473
 1054SOL    HW214796   1.264   2.969   7.618  0.5331  1.2867  0.7547
 1055SOL     OW14797   3.462   0.576   4.656  0.1388 -0.5706 -0.4169
 1055SOL    HW114798   3.495   0.492   4.690 -2.9292 -0.6648  2.3321
 1055SOL    HW214799   3.410   0.605   4.731  2.0426  0.7536  0.3964
 1056SOL     OW14800   0.511   0.909   4.625  0.1476  0.2332  0.0032
 1056SOL    HW114801   0.524   0.841   4.691 -0.4706  0.9753  0.8933
 1056SOL    HW214802   0.416   0.897   4.626  0.2519 -0.6216 -0.9023
 1057SOL     OW14803   2.573   2.161   7.799 -0.6256 -0.1105  0.1486
 1057SOL    HW114804   2.594   2.081   7.751  1.3959  0.9912 -0.7922
 1057SOL    HW214805   2.499   2.122   7.845 -1.6363  0.7382 -0.7618
 1058SOL     OW14806   4.596   1.570  16.723  0.2065 -0.9506  0.4074
 1058SOL    HW114807   4.581   1.660  16.751 -0.8562 -1.6475  2.0940
 1058SOL    HW214808   4.691   1.577  16.727 -0.0878  1.9325  2.7910
 1059SOL     OW14809   1.806   3.131   0.170  0.3940 -0.5809  0.2054
 1059SOL    HW114810   1.821   3.206   0.228  1.2124  0.2636 -1.0871
 1059SOL    HW214811   1.884   3.080   0.193  0.3346  0.0103  1.7411
 1060SOL     OW14812   3.158   2.762   9.562  0.4126 -0.5498  0.5628
 1060SOL    HW114813   3.234   2.767   9.620  0.6877 -3.2157  0.4376
 1060SOL    HW214814   3.178   2.838   9.508  1.1920 -0.4584  0.9839
 1061SOL     OW14815   0.925   3.080   6.572  0.1020 -0.8917 -0.0603
 1061SOL    HW114816   0.987   3.149   6.547  1.0898 -1.3376  1.1520
 1061SOL    HW214817   0.965   3.000   6.538  0.6287 -1.1446  1.1426
 1062SOL     OW14818   2.138   1.608   9.883 -0.2044  0.0201 -0.6558
 1062SOL    HW114819   2.190   1.686   9.868 -0.1553 -0.1970 -1.6187
 1062SOL    HW214820   2.198   1.537   9.905  0.3901  1.1205  1.2365
 1063SOL     OW14821   1.921   4.493   8.511 -0.0306 -0.3244 -0.5268
 1063SOL    HW114822   2.015   4.482   8.519  0.0798 -0.3915 -2.0378
 1063SOL    HW214823   1.899   4.562   8.574  0.6493 -0.9750  0.4319
 1064SOL     OW14824   3.287   0.019  10.815 -0.2523  0.6634  0.2964
 1064SOL    HW114825   3.335   0.079  10.759 -0.0761 -1.2533 -1.5724
 1064SOL    HW214826   3.217   0.077  10.847 -0.0864  0.0129  1.8394
 1065SOL     OW14827   2.148   2.439   6.794 -0.4069  0.2482  0.0194
 1065SOL    HW114828   2.052   2.437   6.793 -0.3799 -0.7897 -0.4569
 1065SOL    HW214829   2.165   2.353   6.756 -2.9897  0.1206 -0.8963
 1066SOL     OW14830   0.090   1.568  10.039 -0.2477  0.0668  0.0644
 1066SOL    HW114831   0.095   1.662  10.024  2.1165 -0.2282 -1.1423
 1066SOL    HW214832   0.072   1.573  10.133  0.2343  0.5258  0.1342
 1067SOL     OW14833   1.679   2.667  11.969 -0.2485 -0.4761  0.1517
 1067SOL    HW114834   1.712   2.610  11.900  1.0102  0.5156 -0.0613
 1067SOL    HW214835   1.755   2.690  12.021  0.3559  0.6482 -1.2517
 1068SOL     OW14836   1.127   2.794   8.256 -0.5645  0.6611 -0.0756
 1068SOL    HW114837   1.111   2.736   8.182 -1.8737 -0.4668  1.0932
 1068SOL    HW214838   1.139   2.878   8.211  0.0157  0.2187 -0.7508
 1069SOL     OW14839   4.008   1.743   1.044  0.0266 -0.0308  0.6100
 1069SOL    HW114840   3.983   1.712   1.132 -2.7091 -0.4001 -0.2886
 1069SOL    HW214841   4.093   1.781   1.064 -2.1015  4.7731  0.4593
 1070SOL     OW14842   4.486   2.481   8.742 -0.2799 -0.2590 -0.1708
 1070SOL    HW114843   4.490   2.386   8.754 -0.2022 -0.0874  1.1655
 1070SOL    HW214844   4.475   2.477   8.647 -1.4332  0.5883 -0.0726
 1071SOL     OW14845   0.927   3.399  15.651  0.6520  0.0767  0.1759
 1071SOL    HW114846   0.949   3.482  15.695 -3.6458  2.5141 -2.2760
 1071SOL    HW214847   0.979   3.332  15.695 -0.2726 -0.7357  0.0106
 1072SOL     OW14848   0.004   3.794   3.071 -0.0671 -0.7904 -0.2798
 1072SOL    HW114849   0.024   3.785   3.164 -1.2008  0.3523  0.0790
 1072SOL    HW214850   4.734   3.888   3.058  0.6028 -0.7526 -0.5267
 1073SOL     OW14851   2.336   3.838   1.439  0.2240 -0.1910 -0.2144
 1073SOL    HW114852   2.271   3.807   1.502 -0.4090  3.1076  0.7323
 1073SOL    HW214853   2.395   3.762   1.432  1.0063  0.4391 -0.5289
 1074SOL     OW14854   1.645   1.145  13.667 -0.4799 -0.0577 -0.3492
 1074SOL    HW114855   1.691   1.125  13.749 -1.0351 -1.0865 -0.2803
 1074SOL    HW214856   1.716   1.152  13.604  0.6690  1.9219  1.1647
 1075SOL     OW14857   2.780   1.575   3.943  0.2424  0.1769  0.5665
 1075SOL    HW114858   2.697   1.560   3.897  0.5771 -0.2482  0.1038
 1075SOL    HW214859   2.811   1.487   3.924  0.8188  0.1397  1.6492
 1076SOL     OW14860   4.528   1.082   1.570 -0.1776 -0.4016 -0.4651
 1076SOL    HW114861   4.477   1.101   1.492  0.0259  3.1319  0.2678
 1076SOL    HW214862   4.601   1.028   1.538 -0.0762 -0.0113 -0.8909
 1077SOL     OW14863   4.472   4.055   8.472 -0.1467 -0.1546  0.3930
 1077SOL    HW114864   4.523   4.055   8.553 -0.3163 -0.3874  0.5011
 1077SOL    HW214865   4.405   4.123   8.483  1.1168  1.5437 -2.3777
 1078SOL     OW14866   3.030   2.601   2.662  0.1162  0.0596  0.3903
 1078SOL    HW114867   3.109   2.639   2.622 -0.7441  0.1763 -1.2022
 1078SOL    HW214868   3.055   2.577   2.751 -0.4757  0.7551  0.7315
 1079SOL     OW14869   2.262   1.810   7.193 -0.0515  0.2348  0.3424
 1079SOL    HW114870   2.304   1.841   7.113  0.4454 -0.8236  0.1923
 1079SOL    HW214871   2.230   1.723   7.167  0.0613  0.9137 -2.1296
 1080SOL     OW14872   1.021   4.706  16.189 -0.5094  0.3685 -0.0170
 1080SOL    HW114873   1.101   0.013  16.166 -0.2588 -0.1697 -0.2257
 1080SOL    HW214874   0.955   0.018  16.235  1.6271  1.0538  2.2739
 1081SOL     OW14875   0.402   4.070   0.866 -0.0442  0.0410  0.2648
 1081SOL    HW114876   0.416   4.067   0.961  1.0793 -0.0555  0.0949
 1081SOL    HW214877   0.360   4.153   0.847 -1.5826 -0.7597  0.1727
 1082SOL     OW14878   2.030   4.393   2.788 -0.2174  0.3821  0.4876
 1082SOL    HW114879   1.940   4.367   2.768 -1.2840  3.0669  1.8007
 1082SOL    HW214880   2.053   4.313   2.835  0.9500  0.0097 -0.7176
 1083SOL     OW14881   2.081   1.493   1.509  0.4964 -0.2765 -0.3592
 1083SOL    HW114882   2.028   1.441   1.449  0.0090  1.6804 -1.6169
 1083SOL    HW214883   2.101   1.580   1.474 -1.3036  0.4460  0.3727
 1084SOL     OW14884   4.186   1.957   2.337  0.1215  0.5718  1.0772
 1084SOL    HW114885   4.199   1.935   2.429  1.0798 -2.2643  0.2530
 1084SOL    HW214886   4.170   1.868   2.307 -0.8774  1.0059  0.3127
 1085SOL     OW14887   0.250   2.170  17.055 -0.0910  0.2520  0.0719
 1085SOL    HW114888   0.310   2.111  17.101 -1.6828  0.5735  2.5721
 1085SOL    HW214889   0.198   2.195  17.132 -1.4740  1.4865 -1.2813
 1086SOL     OW14890   3.498   0.336  14.126  0.2510 -0.2315 -0.4379
 1086SOL    HW114891   3.564   0.267  14.133  0.2464 -0.3099 -1.1908
 1086SOL    HW214892   3.438   0.334  14.201  0.9570 -1.7171  0.0875
 1087SOL     OW14893   4.101   1.148  11.306 -1.2104  0.6936  0.0258
 1087SOL    HW114894   4.006   1.144  11.316 -1.0799 -1.6295  0.4614
 1087SOL    HW214895   4.121   1.079  11.370  4.2373  1.2449 -1.0198
 1088SOL     OW14896   3.303   1.759   5.795 -0.5288 -0.3028  0.2107
 1088SOL    HW114897   3.367   1.721   5.855 -0.2339 -0.5613 -0.2676
 1088SOL    HW214898   3.341   1.738   5.710  3.2336  0.5172  1.7026
 1089SOL     OW14899   0.311   2.918   2.668  0.2123  0.9212  0.3416
 1089SOL    HW114900   0.316   2.863   2.747  0.4388 -0.1477 -0.4180
 1089SOL    HW214901   0.218   2.919   2.645  0.0974 -0.1505  0.7770
 1090SOL     OW14902   3.329   3.649  10.500 -0.2192  0.4359 -0.1541
 1090SOL    HW114903   3.365   3.617  10.582 -0.2290  0.3306 -0.1910
 1090SOL    HW214904   3.395   3.718  10.496  0.5263 -0.2765  0.0938
 1091SOL     OW14905   4.142   2.683  15.992 -0.5106  0.0965  0.1701
 1091SOL    HW114906   4.139   2.656  16.083 -1.4829  1.2619  0.4699
 1091SOL    HW214907   4.143   2.775  16.017  4.9149 -0.1103  0.8279
 1092SOL     OW14908   1.366   2.604   4.948  1.0144 -0.3513 -0.0722
 1092SOL    HW114909   1.328   2.519   4.972 -0.8917  0.4540 -0.2023
 1092SOL    HW214910   1.417   2.625   5.026  0.7369  0.9860 -0.2600
 1093SOL     OW14911   2.934   1.781   4.135  0.0314 -0.0121  0.4248
 1093SOL    HW114912   3.010   1.735   4.098  2.1698  0.8199  3.8053
 1093SOL    HW214913   2.868   1.726   4.093 -0.7909  0.8094  0.6553
 1094SOL     OW14914   1.804   3.795   4.757 -0.5860 -0.0957 -0.2158
 1094SOL    HW114915   1.833   3.883   4.782  3.3341 -1.3887 -0.1728
 1094SOL    HW214916   1.724   3.808   4.707  0.1142 -1.0180 -1.5756
 1095SOL     OW14917   2.332   1.554   4.856 -0.4396  0.6818 -0.2646
 1095SOL    HW114918   2.418   1.531   4.822  0.6035  0.3441  2.6419
 1095SOL    HW214919   2.296   1.606   4.784  3.2301  1.0529 -1.8398
 1096SOL     OW14920   4.185   2.547   7.291  0.0365  0.1682  0.5642
 1096SOL    HW114921   4.175   2.611   7.361 -0.3972 -1.3853  1.9068
 1096SOL    HW214922   4.097   2.546   7.252  0.4428 -1.7939 -0.2815
 1097SOL     OW14923   4.610   3.320   2.947 -0.1979 -0.1414 -0.3552
 1097SOL    HW114924   4.567   3.361   2.872  0.6950  0.5765 -0.4813
 1097SOL    HW214925   4.670   3.392   2.966  1.1297 -1.1197 -0.8688
 1098SOL     OW14926   1.943   1.472   6.924 -0.2599 -0.4349  0.4700
 1098SOL    HW114927   1.895   1.479   6.842 -0.6272  0.8417  0.7880
 1098SOL    HW214928   1.959   1.378   6.924  0.9715 -0.2091 -1.2999
 1099SOL     OW14929   4.585   2.220   8.136 -0.0904  0.7671 -0.2224
 1099SOL    HW114930   4.492   2.206   8.153  0.5948 -2.4665  0.8501
 1099SOL    HW214931   4.599   2.141   8.083 -2.3691  0.5040 -0.4465
 1100SOL     OW14932   4.718   3.642   1.755 -0.3068 -0.3731 -0.2840
 1100SOL    HW114933   0.031   3.721   1.766 -2.5786  0.8624  1.7065
 1100SOL    HW214934   4.630   3.678   1.763 -0.3129 -0.0844 -1.5438
 1101SOL     OW14935   1.381   3.074   0.167  0.4571 -0.2849 -0.1557
 1101SOL    HW114936   1.335   3.013   0.225 -1.8606  2.0488  0.4471
 1101SOL    HW214937   1.361   3.041   0.079  0.0569  0.8218 -0.4825
 1102SOL     OW14938   2.532   3.294   6.537  0.1767 -0.0960  0.3817
 1102SOL    HW114939   2.575   3.287   6.452 -2.6844 -1.0844 -1.0126
 1102SOL    HW214940   2.606   3.266   6.590 -0.3796 -1.5457  0.4057
 1103SOL     OW14941   0.405   1.307   5.267 -0.3350 -0.2042 -0.1174
 1103SOL    HW114942   0.407   1.397   5.301  0.7893 -0.3376  0.1930
 1103SOL    HW214943   0.390   1.328   5.175  0.3803  1.5985  0.1604
 1104SOL     OW14944   3.981   1.889   8.828  0.3707 -0.1572 -0.0441
 1104SOL    HW114945   3.961   1.797   8.850 -1.1029 -0.0024 -0.7801
 1104SOL    HW214946   4.029   1.875   8.747 -2.1272 -0.1271 -1.5291
 1105SOL     OW14947   0.230   1.775   8.504 -0.2247 -0.3295  0.6286
 1105SOL    HW114948   0.244   1.866   8.531  2.8794 -0.8158  0.7288
 1105SOL    HW214949   0.184   1.782   8.421  1.1881 -0.7904 -0.1885
 1106SOL     OW14950   1.246   2.572   6.190 -0.4484  0.3569  0.0319
 1106SOL    HW114951   1.153   2.568   6.215 -0.5102  2.1733  0.0736
 1106SOL    HW214952   1.290   2.577   6.274  0.7719  0.1647 -0.6043
 1107SOL     OW14953   2.465   3.431   4.365 -0.0452  0.1819  0.4678
 1107SOL    HW114954   2.540   3.489   4.357  0.4042 -0.7752 -2.2393
 1107SOL    HW214955   2.451   3.419   4.271 -0.3851 -0.2789  0.5720
 1108SOL     OW14956   4.304   1.230   9.033  0.2887 -0.3952 -0.0478
 1108SOL    HW114957   4.366   1.303   9.036  2.2659 -2.1034  0.7932
 1108SOL    HW214958   4.311   1.184   8.949  0.3687  0.6590 -0.6178
 1109SOL     OW14959   3.767   2.897   0.885 -0.4732  0.0936  0.7776
 1109SOL    HW114960   3.704   2.838   0.926 -0.0052 -2.1406 -1.7294
 1109SOL    HW214961   3.717   2.934   0.812  0.1398 -1.3558 -0.3605
 1110SOL     OW14962   3.594   1.877  12.248 -0.3254  0.1721  0.8340
 1110SOL    HW114963   3.689   1.871  12.244 -0.6389 -2.9717 -1.2429
 1110SOL    HW214964   3.575   1.908  12.337 -0.3149  1.2108  0.4782
 1111SOL     OW14965   4.121   3.979   8.471 -0.5111  0.0874  0.0258
 1111SOL    HW114966   4.147   3.887   8.464  1.4182  0.7263 -1.3303
 1111SOL    HW214967   4.170   4.011   8.547 -0.3730  1.1371 -0.5078
 1112SOL     OW14968   4.442   0.208   0.215  0.2736 -0.4401 -0.8802
 1112SOL    HW114969   4.444   0.120   0.252 -0.9382 -0.3318 -0.5743
 1112SOL    HW214970   4.456   0.178   0.125  2.4566 -0.9920 -0.3633
 1113SOL     OW14971   1.865   3.811   5.202  0.8771  0.4040 -0.1939
 1113SOL    HW114972   1.780   3.842   5.169  0.6658 -0.7521 -0.7522
 1113SOL    HW214973   1.829   3.761   5.276  1.5132 -1.3298 -1.0516
 1114SOL     OW14974   1.601   2.845   9.933 -0.5781  0.3793 -0.1601
 1114SOL    HW114975   1.509   2.820   9.924 -0.5405  0.4805 -0.8148
 1114SOL    HW214976   1.636   2.787   9.865  1.1924  1.3813 -0.1258
 1115SOL     OW14977   3.329   0.292   3.084  0.1183 -0.7636 -0.4336
 1115SOL    HW114978   3.380   0.313   3.005  2.5664  1.7599  1.8083
 1115SOL    HW214979   3.267   0.224   3.058 -1.6926  1.1880 -1.1710
 1116SOL     OW14980   4.618   3.406   8.996 -0.1408 -0.4111  0.5963
 1116SOL    HW114981   4.544   3.452   8.957  0.1586 -0.1059  0.3963
 1116SOL    HW214982   4.565   3.326   8.999  0.7972 -1.0767 -0.7629
 1117SOL     OW14983   0.340   0.500   8.881 -0.2058 -0.2369 -0.3946
 1117SOL    HW114984   0.393   0.422   8.865 -1.9054 -1.6502  0.7944
 1117SOL    HW214985   0.254   0.480   8.845 -0.0302 -0.6290 -0.6036
 1118SOL     OW14986   1.346   2.377   8.480  0.0399  0.3349  0.0604
 1118SOL    HW114987   1.425   2.337   8.442 -0.6438 -1.3111  0.3857
 1118SOL    HW214988   1.318   2.307   8.539  1.7928 -0.2313  0.2195
 1119SOL     OW14989   3.654   0.831   9.468 -0.3470  0.3259  0.0662
 1119SOL    HW114990   3.642   0.925   9.479  1.6738  0.2295  3.3000
 1119SOL    HW214991   3.595   0.818   9.394  0.4780 -0.6204 -0.4303
 1120SOL     OW14992   0.500   3.341   0.970  0.2200 -0.3919  0.1397
 1120SOL    HW114993   0.451   3.327   1.051  0.4743 -2.1899 -0.0078
 1120SOL    HW214994   0.576   3.394   0.992  0.1202 -1.1571  2.3776
 1121SOL     OW14995   0.590   0.658   2.128  0.0492 -1.0716  0.2542
 1121SOL    HW114996   0.611   0.566   2.109  0.1580 -0.9493 -0.2304
 1121SOL    HW214997   0.644   0.683   2.203  0.8870 -0.4217 -0.5603
 1122SOL     OW14998   0.392   0.641   7.381 -0.0336 -0.3081  0.0503
 1122SOL    HW114999   0.404   0.570   7.443  0.5927  0.7032  1.0997
 1122SOL    HW215000   0.484   0.670   7.379 -0.5718  1.5571  2.8356
 1123SOL     OW15001   2.462   1.491  11.134 -0.0843 -0.3541 -0.2885
 1123SOL    HW115002   2.455   1.450  11.220 -2.4474  0.3590 -0.1470
 1123SOL    HW215003   2.403   1.566  11.139  0.4415  0.0036  0.7652
 1124SOL     OW15004   0.514   1.345   8.451  0.0210 -0.2276 -0.2793
 1124SOL    HW115005   0.525   1.435   8.482  0.8350  0.1245 -1.5902
 1124SOL    HW215006   0.420   1.331   8.456  0.5297 -3.8430 -0.9265
 1125SOL     OW15007   2.298   0.725   3.273 -0.3518  0.0227  0.1364
 1125SOL    HW115008   2.375   0.695   3.320  0.7595  1.1325 -1.0056
 1125SOL    HW215009   2.252   0.770   3.344 -1.4231  0.7977 -1.0531
 1126SOL     OW15010   2.617   4.458   6.023  0.3351 -0.1211  0.2740
 1126SOL    HW115011   2.609   4.505   5.940 -0.8184  0.9756  1.0032
 1126SOL    HW215012   2.712   4.464   6.032  0.7570 -2.0369 -2.8517
 1127SOL     OW15013   1.094   2.139   6.334 -0.5821  0.0594 -0.7398
 1127SOL    HW115014   1.187   2.156   6.348 -0.5829 -0.4530 -0.1222
 1127SOL    HW215015   1.055   2.101   6.413  2.0601 -0.3466  0.3555
 1128SOL     OW15016   1.534   0.855  10.798 -0.1567  0.1621  0.4584
 1128SOL    HW115017   1.464   0.847  10.863 -0.0573 -2.7432  0.1873
 1128SOL    HW215018   1.587   0.927  10.833  0.9738  0.2373 -1.3805
 1129SOL     OW15019   2.402   1.489   5.463  0.1703 -0.2625  0.4053
 1129SOL    HW115020   2.352   1.464   5.541 -1.9489 -2.6577 -1.7412
 1129SOL    HW215021   2.474   1.427   5.473  1.7780  1.6460  0.9416
 1130SOL     OW15022   2.143   0.831   6.691  0.8228 -0.1588 -0.0297
 1130SOL    HW115023   2.100   0.745   6.687  1.0853 -0.2868 -0.1401
 1130SOL    HW215024   2.227   0.799   6.658  1.2695 -0.0096  0.9766
 1131SOL     OW15025   2.512   1.388   9.663  0.4232 -0.3544 -0.5541
 1131SOL    HW115026   2.490   1.384   9.756  2.1526  1.7177 -0.0630
 1131SOL    HW215027   2.587   1.446   9.670  0.9306 -1.0876  0.0642
 1132SOL     OW15028   0.121   1.005   6.468  0.3678  0.0242  0.4760
 1132SOL    HW115029   0.042   1.055   6.489 -0.8566 -2.0809  0.8346
 1132SOL    HW215030   0.076   0.936   6.421 -0.3600  1.6004 -1.1400
 1133SOL     OW15031   1.793   3.732   8.092  0.0701  0.4644 -0.3033
 1133SOL    HW115032   1.758   3.809   8.047  1.5037  0.1353 -1.9647
 1133SOL    HW215033   1.878   3.718   8.052 -0.4272 -0.6467 -0.9739
 1134SOL     OW15034   0.817   2.567   4.853  0.0067  0.2574  0.0418
 1134SOL    HW115035   0.802   2.530   4.766  0.3192  2.6058 -1.0077
 1134SOL    HW215036   0.878   2.501   4.886 -1.0905 -1.5725 -1.6091
 1135SOL     OW15037   0.367   1.339   1.735  0.2456 -0.2812 -0.6114
 1135SOL    HW115038   0.414   1.262   1.769  1.2251  0.9404  0.7630
 1135SOL    HW215039   0.315   1.286   1.674  0.9054  0.7413 -2.0763
 1136SOL     OW15040   4.554   4.524   4.233  0.6548 -0.0087 -0.2320
 1136SOL    HW115041   4.489   4.594   4.226 -0.2276 -0.7117  1.0099
 1136SOL    HW215042   4.509   4.449   4.271 -0.3856 -1.0037 -3.3514
 1137SOL     OW15043   2.275   2.394   4.975 -0.1616  0.3899 -0.1303
 1137SOL    HW115044   2.294   2.465   4.914  0.9311  0.0634 -0.1691
 1137SOL    HW215045   2.319   2.413   5.058  1.1584  1.0427 -0.9754
 1138SOL     OW15046   0.683   0.546  10.988 -0.1535  0.1130  0.5221
 1138SOL    HW115047   0.778   0.553  10.973 -0.0014 -1.8963  0.4699
 1138SOL    HW215048   0.648   0.618  10.935  2.9089  1.9585  0.9751
 1139SOL     OW15049   4.675   1.354  16.357 -0.1399  0.7967 -0.6438
 1139SOL    HW115050   4.722   1.275  16.331 -0.3522  0.4204  0.1212
 1139SOL    HW215051   4.735   1.417  16.318 -1.3604  2.2187 -0.2325
 1140SOL     OW15052   1.588   0.144   5.978 -0.3834 -0.5915 -0.2476
 1140SOL    HW115053   1.504   0.176   5.946 -1.0517 -0.5020  1.6112
 1140SOL    HW215054   1.576   0.050   5.967  1.5418 -1.0330  1.3722
 1141SOL     OW15055   2.927   3.016  10.458  0.5659  0.2860 -0.4153
 1141SOL    HW115056   2.971   3.095  10.492 -0.2323  0.5647 -0.0355
 1141SOL    HW215057   2.974   2.935  10.475  3.5274  2.3036  1.1168
 1142SOL     OW15058   0.543   2.959   4.734  0.2352  0.1031  0.2188
 1142SOL    HW115059   0.472   2.988   4.792  0.3700  1.3401 -0.2274
 1142SOL    HW215060   0.594   2.897   4.787 -1.8100 -1.3361  0.4802
 1143SOL     OW15061   4.683   1.719   0.479 -0.2854  0.8100  0.0122
 1143SOL    HW115062   4.674   1.654   0.410 -2.3420  0.8902  0.2030
 1143SOL    HW215063   4.593   1.735   0.509  0.0401  1.8792  0.4424
 1144SOL     OW15064   2.969   3.122   7.913 -0.4083 -0.6563  0.1349
 1144SOL    HW115065   3.007   3.103   7.827 -2.1729  1.7425 -1.1612
 1144SOL    HW215066   2.939   3.032   7.928  0.5063 -0.9073  0.4232
 1145SOL     OW15067   1.354   4.565   0.664  0.2258  0.0676  0.1357
 1145SOL    HW115068   1.347   4.600   0.576 -2.2056  0.6416  0.5449
 1145SOL    HW215069   1.297   4.627   0.711 -1.0856 -1.3119  0.3957
 1146SOL     OW15070   2.852   1.426   8.793 -0.2206  0.4533 -0.1007
 1146SOL    HW115071   2.792   1.500   8.793  2.5198  2.6777 -0.7458
 1146SOL    HW215072   2.889   1.435   8.706  0.9546  1.4574  0.4968
 1147SOL     OW15073   0.285   1.699  10.460 -0.0188 -0.1529 -0.1334
 1147SOL    HW115074   0.217   1.637  10.484 -0.8203  0.7448 -0.0985
 1147SOL    HW215075   0.302   1.748  10.541 -2.2718 -0.6925  0.6626
 1148SOL     OW15076   4.446   1.518   4.637 -0.1210  0.3796  0.1241
 1148SOL    HW115077   4.424   1.608   4.614  0.6668  0.5000 -0.1776
 1148SOL    HW215078   4.541   1.515   4.651 -0.2677 -0.0588  1.0451
 1149SOL     OW15079   1.132   4.005   3.214 -0.2324  0.9372  0.4694
 1149SOL    HW115080   1.194   3.934   3.230 -0.6180  0.4591 -0.1863
 1149SOL    HW215081   1.077   4.005   3.293  0.5723  0.5408  1.0387
 1150SOL     OW15082   2.618   1.428  11.634 -0.5969 -0.0181 -0.2088
 1150SOL    HW115083   2.650   1.358  11.692  1.3846  0.8906 -0.1778
 1150SOL    HW215084   2.543   1.463  11.681 -0.7513 -1.9853  1.0555
 1151SOL     OW15085   1.344   0.950   2.241  0.2557 -0.1491  0.2727
 1151SOL    HW115086   1.324   1.035   2.281  0.6628 -0.6955  1.6316
 1151SOL    HW215087   1.317   0.886   2.307  0.5758 -1.0074 -0.4291
 1152SOL     OW15088   2.435   0.906   1.577  0.2153 -0.1937  0.8269
 1152SOL    HW115089   2.487   0.975   1.619  0.6817  0.3746 -0.6855
 1152SOL    HW215090   2.506   0.845   1.554  3.0844  2.8105  1.6780
 1153SOL     OW15091   0.889   2.840  14.464  0.4174 -0.3718 -0.2180
 1153SOL    HW115092   0.963   2.788  14.496 -0.3010  0.3475  2.6112
 1153SOL    HW215093   0.915   2.856  14.373 -1.1787  0.6572 -0.4932
 1154SOL     OW15094   2.541   0.524   2.768  0.4218  0.3470 -0.4901
 1154SOL    HW115095   2.517   0.615   2.786  0.7493  0.5949 -1.3229
 1154SOL    HW215096   2.576   0.532   2.680 -1.8890 -0.7272 -1.5260
 1155SOL     OW15097   3.879   0.136   9.066  0.0315  0.4799  0.0132
 1155SOL    HW115098   3.958   0.119   9.117 -1.9890 -0.9663  2.6496
 1155SOL    HW215099   3.913   0.207   9.011  0.2097  1.7331  1.7318
 1156SOL     OW15100   0.054   4.077  13.189  0.0093 -0.0611 -0.2167
 1156SOL    HW115101   0.055   4.094  13.283  0.9261  0.5804 -0.3403
 1156SOL    HW215102   0.148   4.075  13.171  0.0010  0.9386 -0.3956
 1157SOL     OW15103   2.031   1.886   4.165 -0.0534  0.1854  0.0739
 1157SOL    HW115104   2.037   1.827   4.240  2.2310  0.0416 -0.2015
 1157SOL    HW215105   1.985   1.957   4.210  1.5736  2.0291 -1.1537
 1158SOL     OW15106   1.416   3.918  13.216  0.1312  0.3540  0.0279
 1158SOL    HW115107   1.460   3.841  13.181  0.5906  0.7727 -0.3161
 1158SOL    HW215108   1.489   3.977  13.235  0.2589 -0.1220  0.9836
 1159SOL     OW15109   4.300   0.480  12.837 -0.4411 -0.1084  0.3330
 1159SOL    HW115110   4.278   0.388  12.850  0.8464 -0.5132 -0.2842
 1159SOL    HW215111   4.279   0.498  12.745  2.7832  0.8523 -0.2268
 1160SOL     OW15112   1.056   0.668   9.187  0.2832 -0.1070  0.2217
 1160SOL    HW115113   1.144   0.703   9.202 -1.2601  3.0713  1.9264
 1160SOL    HW215114   1.074   0.574   9.188 -1.5618 -0.4717 -1.5354
 1161SOL     OW15115   3.035   3.765   9.864  0.0765  0.4949  0.2176
 1161SOL    HW115116   3.120   3.753   9.906 -0.7565 -1.3862  1.3878
 1161SOL    HW215117   3.017   3.859   9.872 -0.9268  0.1975  1.3853
 1162SOL     OW15118   0.765   4.690   0.899  0.2348 -0.0134  0.3860
 1162SOL    HW115119   0.731   4.621   0.841 -1.2282  1.0163  0.0077
 1162SOL    HW215120   0.687   0.001   0.918 -1.0704 -2.1708  0.8374
 1163SOL     OW15121   4.140   2.953   8.605  0.3312  0.2094 -0.2151
 1163SOL    HW115122   4.129   2.860   8.584 -0.3908  0.6001 -1.5954
 1163SOL    HW215123   4.134   2.945   8.700  1.2472  1.8827 -0.0179
 1164SOL     OW15124   4.137   3.318   2.180  0.5242 -0.2781 -0.1294
 1164SOL    HW115125   4.072   3.382   2.151  0.9940 -0.3683 -1.3638
 1164SOL    HW215126   4.185   3.362   2.251 -1.0453 -0.5590  1.1238
 1165SOL     OW15127   3.655   3.234   7.366  0.0363  0.2303  0.0185
 1165SOL    HW115128   3.581   3.178   7.387 -1.5631  1.7471 -1.5742
 1165SOL    HW215129   3.643   3.302   7.433 -1.5312 -1.1851  1.1749
 1166SOL     OW15130   0.858   2.190   5.912  0.2743 -0.1139 -0.4832
 1166SOL    HW115131   0.847   2.210   6.005 -0.5579  0.1270 -0.6332
 1166SOL    HW215132   0.799   2.261   5.885 -1.5919 -0.9136  1.5118
 1167SOL     OW15133   4.232   3.022   7.395 -0.2079  0.1359  0.2823
 1167SOL    HW115134   4.260   2.931   7.385 -0.6410 -0.0289  0.5510
 1167SOL    HW215135   4.304   3.065   7.349 -0.4038 -1.1127 -1.1842
 1168SOL     OW15136   3.050   3.117  14.800 -0.4629 -0.4666  0.1505
 1168SOL    HW115137   3.086   3.121  14.889  0.6459  2.7731 -0.4436
 1168SOL    HW215138   3.124   3.140  14.743  0.5860 -0.0070  1.6812
 1169SOL     OW15139   3.383   2.461   4.850 -0.0623  0.5004  0.2979
 1169SOL    HW115140   3.303   2.412   4.870 -0.6407  1.3379  0.0084
 1169SOL    HW215141   3.443   2.395   4.886  0.9001  0.9717 -0.4263
 1170SOL     OW15142   2.089   0.134   0.457 -0.1517  0.1331  0.3774
 1170SOL    HW115143   2.099   0.067   0.524  2.2432 -0.0005 -0.0979
 1170SOL    HW215144   2.028   0.190   0.505  1.7532  2.2756  0.2594
 1171SOL     OW15145   3.208   3.006   9.426 -0.4243 -0.5525 -0.1306
 1171SOL    HW115146   3.248   3.058   9.496 -1.5976 -2.9056  2.3032
 1171SOL    HW215147   3.288   2.982   9.380 -0.8899  0.9089 -1.7364
 1172SOL     OW15148   4.466   4.217   3.820  0.6826 -0.5658  0.3780
 1172SOL    HW115149   4.456   4.180   3.732 -0.8780  1.0569 -0.1274
 1172SOL    HW215150   4.497   4.305   3.800  0.5848 -0.2064  1.8532
 1173SOL     OW15151   2.819   0.552   4.357 -0.6761  0.0998  0.0521
 1173SOL    HW115152   2.761   0.565   4.282  2.6404 -1.2273 -2.7325
 1173SOL    HW215153   2.774   0.615   4.413 -1.1992 -0.6612  0.4843
 1174SOL     OW15154   0.105   0.518   4.235  0.2216 -0.6769  0.0854
 1174SOL    HW115155   0.067   0.491   4.318 -0.5969  0.6500  0.1534
 1174SOL    HW215156   0.199   0.524   4.254 -0.5224  0.5065  3.2957
 1175SOL     OW15157   0.463   0.700  15.538 -0.0403  0.0111  0.5751
 1175SOL    HW115158   0.444   0.734  15.450  1.9983  1.0418  0.5131
 1175SOL    HW215159   0.447   0.774  15.597  2.1941  1.2620 -0.3563
 1176SOL     OW15160   2.243   1.717   7.469  0.4046  0.1752  0.3738
 1176SOL    HW115161   2.331   1.706   7.505  0.6826  0.0753 -0.3315
 1176SOL    HW215162   2.262   1.733   7.376  0.0536  0.1922  0.3021
 1177SOL     OW15163   1.521   3.554   9.410  0.4382 -0.2188 -0.5867
 1177SOL    HW115164   1.489   3.589   9.328  0.1606  0.7662 -0.0549
 1177SOL    HW215165   1.448   3.565   9.471  1.6341 -1.5973  1.1023
 1178SOL     OW15166   3.250   3.726   4.547 -0.6728  0.0162 -0.0356
 1178SOL    HW115167   3.281   3.804   4.500  1.5712 -0.4095  0.7492
 1178SOL    HW215168   3.291   3.667   4.483 -0.5878 -0.7370  0.7190
 1179SOL     OW15169   0.946   0.197  14.322  0.1694  0.0882 -0.6510
 1179SOL    HW115170   1.037   0.224  14.315  0.4035 -0.4043  0.4401
 1179SOL    HW215171   0.937   0.154  14.237 -0.1377 -0.5475 -0.3010
 1180SOL     OW15172   4.237   2.870   9.236 -0.0877  0.2537 -0.1374
 1180SOL    HW115173   4.290   2.851   9.314  1.2639 -2.7426 -1.7790
 1180SOL    HW215174   4.162   2.811   9.247  2.8021 -3.1764  1.3812
 1181SOL     OW15175   4.267   3.632   0.417  0.3381  0.0182  0.6840
 1181SOL    HW115176   4.279   3.678   0.500 -0.2623 -0.7960  1.2191
 1181SOL    HW215177   4.172   3.618   0.415  0.5279 -1.1496 -0.1732
 1182SOL     OW15178   1.698   0.591  13.823 -0.4411  0.1105  0.1939
 1182SOL    HW115179   1.646   0.649  13.879  0.0235 -0.1621  0.9192
 1182SOL    HW215180   1.778   0.598  13.875  0.7051  0.2311 -1.5782
 1183SOL     OW15181   1.933   3.000  15.125 -0.4289  0.0521  0.3164
 1183SOL    HW115182   1.938   3.027  15.217  1.8780  2.4607 -0.4926
 1183SOL    HW215183   1.998   2.929  15.131  0.1250  0.6333  1.1689
 1184SOL     OW15184   1.743   1.969   4.023 -0.3233 -0.3224  0.0642
 1184SOL    HW115185   1.775   1.880   4.037 -0.4617 -0.2906  0.6133
 1184SOL    HW215186   1.648   1.959   4.027 -0.2251 -0.8639  1.1577
 1185SOL     OW15187   1.936   2.290   2.405  0.1619  0.7795  0.3917
 1185SOL    HW115188   1.896   2.371   2.374 -0.1196 -0.0628 -1.4193
 1185SOL    HW215189   2.021   2.309   2.365  1.0898  0.0667  2.0178
 1186SOL     OW15190   2.737   1.826   6.460  0.5360  0.3773 -0.5260
 1186SOL    HW115191   2.732   1.742   6.505 -1.1989 -0.8718 -2.9982
 1186SOL    HW215192   2.704   1.812   6.371 -1.7131  2.4683 -0.0239
 1187SOL     OW15193   1.639   4.717  14.860 -0.6268  0.1503  0.2024
 1187SOL    HW115194   1.544   4.714  14.856 -0.6846  2.9681 -0.9683
 1187SOL    HW215195   1.653   4.686  14.770 -0.9832 -0.3101  0.3090
 1188SOL     OW15196   1.105   3.172   1.835  0.1288  0.1912 -0.8935
 1188SOL    HW115197   1.104   3.132   1.922  0.1017  1.5366 -0.2747
 1188SOL    HW215198   1.098   3.265   1.859  1.2572  0.2191 -0.6687
 1189SOL     OW15199   4.583   1.413   2.934 -0.0451 -0.1872 -0.0070
 1189SOL    HW115200   4.493   1.431   2.959 -0.5129  0.9552 -2.4754
 1189SOL    HW215201   4.573   1.330   2.887 -2.1331 -0.2757  0.5954
 1190SOL     OW15202   2.689   2.931   5.738 -0.5740  0.2640 -0.0795
 1190SOL    HW115203   2.599   2.961   5.753 -1.0306 -0.1235 -1.9736
 1190SOL    HW215204   2.700   2.996   5.669 -1.2133  1.1478  0.6393
 1191SOL     OW15205   4.235   3.304   6.358 -0.0025 -0.0826 -0.2561
 1191SOL    HW115206   4.193   3.220   6.375  1.2326 -1.0944 -2.1585
 1191SOL    HW215207   4.312   3.290   6.303 -0.4813 -2.2449 -0.3660
 1192SOL     OW15208   3.999   2.912   7.834  0.4723 -0.0900  0.2531
 1192SOL    HW115209   4.037   2.982   7.781  1.7282 -0.5455  0.5469
 1192SOL    HW215210   3.998   2.953   7.921  1.3517  0.3090  0.0725
 1193SOL     OW15211   4.066   4.609  12.258  0.3806 -0.3782 -0.1497
 1193SOL    HW115212   3.982   4.564  12.251 -0.6431  1.5992 -0.7435
 1193SOL    HW215213   4.061   4.639  12.349  0.2747  1.6060 -0.8067
 1194SOL     OW15214   2.576   2.273   6.884 -0.0501  0.1504 -0.1456
 1194SOL    HW115215   2.537   2.258   6.970 -0.8134  2.8777 -0.0211
 1194SOL    HW215216   2.635   2.347   6.898 -0.1673 -0.2221  2.1944
 1195SOL     OW15217   1.373   1.453   2.244 -0.0046  0.3942  0.0205
 1195SOL    HW115218   1.373   1.455   2.148 -0.8686  0.5629  0.0273
 1195SOL    HW215219   1.338   1.540   2.264  3.0311  1.2987  1.3668
 1196SOL     OW15220   2.489   1.232  12.768  0.4744  0.0442  0.5714
 1196SOL    HW115221   2.493   1.137  12.757 -0.6148  0.5051 -3.6251
 1196SOL    HW215222   2.494   1.251  12.862  0.0306  1.5052  0.3040
 1197SOL     OW15223   3.882   3.622   0.534  0.4907  0.3640 -0.4232
 1197SOL    HW115224   3.971   3.631   0.569 -0.2062  1.4527  1.1197
 1197SOL    HW215225   3.825   3.685   0.579 -1.8862 -0.4028 -2.3486
 1198SOL     OW15226   4.500   4.479   5.268  0.3274  0.1905  0.7239
 1198SOL    HW115227   4.501   4.553   5.208  1.3719 -0.9001 -0.5926
 1198SOL    HW215228   4.492   4.517   5.356 -0.2461 -0.4529  0.9538
 1199SOL     OW15229   1.221   3.377   9.867  0.0200 -0.1056 -0.1565
 1199SOL    HW115230   1.297   3.435   9.866 -0.0468 -0.0173 -0.1848
 1199SOL    HW215231   1.205   3.368   9.773 -1.0708  2.0140 -0.1887
 1200SOL     OW15232   0.504   1.538   2.636 -0.2560  0.3022 -0.1629
 1200SOL    HW115233   0.548   1.611   2.680 -3.0065  0.8972  1.5783
 1200SOL    HW215234   0.548   1.460   2.669 -1.9757  0.0063  1.4156
 1201SOL     OW15235   0.840   3.010   0.430  0.0267  0.2335  0.3606
 1201SOL    HW115236   0.794   3.090   0.406  2.1616  0.8647 -1.6029
 1201SOL    HW215237   0.822   3.006   0.524 -0.5274 -0.5670  0.2219
 1202SOL     OW15238   4.045   2.336   1.646 -0.3189  0.0542  0.0641
 1202SOL    HW115239   4.088   2.252   1.632  1.7852  1.2419 -0.7167
 1202SOL    HW215240   4.108   2.398   1.609 -0.8911  0.6648  0.1190
 1203SOL     OW15241   3.269   4.498   6.076  0.1896 -0.6671 -0.1786
 1203SOL    HW115242   3.269   4.548   5.994  0.9307 -0.1812  0.1191
 1203SOL    HW215243   3.180   4.508   6.110 -0.3550 -1.7498 -1.2968
 1204SOL     OW15244   2.501   4.192   3.099 -0.0696  0.4202 -0.1351
 1204SOL    HW115245   2.437   4.175   3.168 -0.0550  0.9903  0.0244
 1204SOL    HW215246   2.445   4.201   3.022  1.2404 -1.1062 -1.2679
 1205SOL     OW15247   4.155   0.765   4.626  0.2157 -0.2018  0.3700
 1205SOL    HW115248   4.202   0.710   4.688  0.4816 -1.6529 -1.1277
 1205SOL    HW215249   4.154   0.714   4.545  1.4638  0.8283 -0.2982
 1206SOL     OW15250   1.682   0.778  13.308  0.0445 -0.2241 -0.1470
 1206SOL    HW115251   1.744   0.851  13.299  0.5866 -0.7281 -0.4291
 1206SOL    HW215252   1.697   0.736  13.392 -1.3451 -2.2426 -0.9249
 1207SOL     OW15253   0.130   3.419   1.370 -0.5520 -0.1192  0.3288
 1207SOL    HW115254   0.095   3.507   1.381  0.6169  0.4988 -0.8996
 1207SOL    HW215255   0.199   3.409   1.435 -0.2513 -1.5800 -0.1975
 1208SOL     OW15256   0.648   4.283   8.859  0.6081 -0.1514 -0.4514
 1208SOL    HW115257   0.585   4.346   8.825  2.6301  1.0985 -1.9325
 1208SOL    HW215258   0.586   4.244   8.921  1.9448 -0.5639  0.6279
 1209SOL     OW15259   0.443   0.960   5.469 -0.0631  0.4559 -0.2114
 1209SOL    HW115260   0.368   1.020   5.475  0.0923  0.8967 -2.5858
 1209SOL    HW215261   0.447   0.936   5.377 -0.8137 -0.2499 -0.0561
 1210SOL     OW15262   3.894   3.809   8.680  0.1548 -0.3861 -0.4024
 1210SOL    HW115263   3.821   3.748   8.689  0.0940 -0.1227  0.9046
 1210SOL    HW215264   3.935   3.788   8.597  0.1631 -0.5373 -0.3605
 1211SOL     OW15265   3.219   2.090   3.239  0.1409  0.0040 -0.8267
 1211SOL    HW115266   3.254   2.025   3.300 -0.4752  0.2419 -0.2223
 1211SOL    HW215267   3.162   2.147   3.290 -0.4677 -1.4518  0.1459
 1212SOL     OW15268   3.060   1.704   7.327 -0.1999  0.5928  0.0039
 1212SOL    HW115269   3.156   1.706   7.323 -0.2183 -1.5901 -1.7429
 1212SOL    HW215270   3.053   1.685   7.420  1.1766  0.0513  0.0145
 1213SOL     OW15271   1.492   4.667  16.677  0.3289  0.0702  0.4123
 1213SOL    HW115272   1.539   4.726  16.619  1.0655 -1.4072 -0.4934
 1213SOL    HW215273   1.549   4.670  16.754 -0.8479  1.5327  1.2350
 1214SOL     OW15274   2.148   0.862   8.951  0.8408 -0.3010  0.6324
 1214SOL    HW115275   2.087   0.789   8.955 -0.4743  0.8189  0.9474
 1214SOL    HW215276   2.099   0.932   8.908 -1.1570 -1.1446  1.5645
 1215SOL     OW15277   3.605   1.973   7.864  0.8741  0.6226 -0.3220
 1215SOL    HW115278   3.530   1.944   7.917 -0.5788  3.1857 -0.9727
 1215SOL    HW215279   3.562   2.043   7.816  1.6159  0.4594 -1.2129
 1216SOL     OW15280   3.052   1.621   5.314 -0.5694  0.6887 -0.1118
 1216SOL    HW115281   3.067   1.589   5.403 -0.6327 -0.0958 -0.3814
 1216SOL    HW215282   2.957   1.629   5.312 -0.3925  2.8966  0.6694
 1217SOL     OW15283   0.187   4.551  11.180  0.1216  0.1866  0.2918
 1217SOL    HW115284   0.232   4.634  11.163  0.9722 -0.0955  1.1518
 1217SOL    HW215285   0.105   4.584  11.215 -1.3994  0.1760 -3.2636
 1218SOL     OW15286   1.087   4.642   4.497  0.1734 -0.2783  0.2340
 1218SOL    HW115287   1.026   4.710   4.525 -1.0020 -1.8946  1.6021
 1218SOL    HW215288   1.065   4.634   4.404  1.8199 -1.3128 -0.0648
 1219SOL     OW15289   3.559   0.344   7.385 -0.0958  0.2175 -0.0012
 1219SOL    HW115290   3.465   0.357   7.372 -0.1190  1.5169  1.4424
 1219SOL    HW215291   3.575   0.267   7.330 -0.8716 -1.1606  1.6976
 1220SOL     OW15292   1.623   4.617   8.357  0.0579  0.0621  0.8285
 1220SOL    HW115293   1.564   4.639   8.285 -2.6968 -1.2647  2.6356
 1220SOL    HW215294   1.645   4.532   8.319  0.7025 -0.3379  2.0804
 1221SOL     OW15295   2.678   2.239   5.503 -0.0979  0.0314 -0.3570
 1221SOL    HW115296   2.651   2.264   5.591  0.3908 -0.9826  0.0768
 1221SOL    HW215297   2.680   2.325   5.460  1.7874 -0.6606 -1.6535
 1222SOL     OW15298   3.578   2.460  12.063 -0.0152 -0.1775  0.3755
 1222SOL    HW115299   3.559   2.549  12.035 -0.0478 -0.0633  0.7570
 1222SOL    HW215300   3.671   2.464  12.039 -0.2561  0.8291 -0.3771
 1223SOL     OW15301   0.274   1.374  16.091  0.3191  0.4319  0.1445
 1223SOL    HW115302   0.227   1.431  16.153  1.9927 -0.3832  2.1481
 1223SOL    HW215303   0.353   1.372  16.145  0.7705 -0.5160 -0.5698
 1224SOL     OW15304   1.936   1.269   2.952 -0.0011 -0.3638 -0.1342
 1224SOL    HW115305   1.975   1.183   2.969  0.6232  0.1102  0.8179
 1224SOL    HW215306   1.999   1.329   2.991 -2.0851 -0.0235  2.7089
 1225SOL     OW15307   2.772   2.712   2.694  0.3587  0.1066  0.1653
 1225SOL    HW115308   2.867   2.702   2.692  0.4871  1.8678 -2.4267
 1225SOL    HW215309   2.762   2.795   2.647 -0.0900 -1.3979 -2.3950
 1226SOL     OW15310   0.309   1.508  16.959 -0.0251 -0.1690 -0.3755
 1226SOL    HW115311   0.283   1.434  17.014  0.3725 -2.2882 -3.0197
 1226SOL    HW215312   0.404   1.495  16.954  0.2571  1.1813  1.7336
 1227SOL     OW15313   4.062   2.890   8.860  0.3920  0.1313 -0.6853
 1227SOL    HW115314   4.121   2.815   8.861 -0.7788 -0.8023 -2.2844
 1227SOL    HW215315   4.031   2.890   8.950  0.9411 -3.0977 -0.5243
 1228SOL     OW15316   0.296   4.213   6.432  0.3165 -0.0514 -0.4987
 1228SOL    HW115317   0.219   4.269   6.422  1.3141  1.3260 -0.4362
 1228SOL    HW215318   0.314   4.218   6.338 -2.1649  0.1135 -0.9652
 1229SOL     OW15319   3.324   0.826  10.244 -0.4880  0.2951  0.4792
 1229SOL    HW115320   3.265   0.893  10.279 -0.1687  0.8234  0.0095
 1229SOL    HW215321   3.337   0.768  10.319 -0.5693 -0.6956 -0.2724
 1230SOL     OW15322   1.816   0.206   6.538  0.1214 -0.2777  0.2600
 1230SOL    HW115323   1.775   0.193   6.453  4.3171 -1.2052 -1.5948
 1230SOL    HW215324   1.891   0.145   6.538  1.9493  1.9857 -0.1600
 1231SOL     OW15325   2.905   3.485   7.136  0.1481  0.5492 -0.2632
 1231SOL    HW115326   2.809   3.489   7.145  0.2109  3.3391 -1.0491
 1231SOL    HW215327   2.916   3.418   7.068  1.1609 -0.2391  0.6717
 1232SOL     OW15328   3.501   0.309   4.738 -0.5172  0.5913 -0.0648
 1232SOL    HW115329   3.533   0.271   4.656 -0.0921  0.4056  0.1870
 1232SOL    HW215330   3.418   0.262   4.746 -0.8387  1.2756  0.6853
 1233SOL     OW15331   2.035   2.291   7.181  0.2296 -0.5293  0.3810
 1233SOL    HW115332   2.035   2.198   7.157  0.4687 -0.4458  0.0683
 1233SOL    HW215333   2.068   2.290   7.271 -0.0809  1.1612  0.4978
 1234SOL     OW15334   3.308   0.994  11.255  0.5652  0.6138  0.1983
 1234SOL    HW115335   3.294   1.087  11.237  0.3833  0.5028 -0.2230
 1234SOL    HW215336   3.319   0.951  11.170  1.6236 -0.4773  0.8819
 1235SOL     OW15337   4.376   3.272   0.839 -0.0000  0.1307 -0.4275
 1235SOL    HW115338   4.466   3.305   0.827  0.4660 -1.1135 -0.3311
 1235SOL    HW215339   4.337   3.344   0.889 -1.5782  0.4670 -2.1220
 1236SOL     OW15340   2.793   1.770   5.254 -0.0421 -0.3224 -0.0837
 1236SOL    HW115341   2.698   1.764   5.242 -0.0353 -1.4330  0.3886
 1236SOL    HW215342   2.823   1.723   5.176 -1.2153  0.5681 -1.0828
 1237SOL     OW15343   4.546   0.741  15.382  0.0945  0.0867 -0.0523
 1237SOL    HW115344   4.489   0.666  15.365  0.0991 -0.0143  0.3824
 1237SOL    HW215345   4.575   0.781  15.300 -0.0336  1.2993  0.4857
 1238SOL     OW15346   2.542   0.273  16.391 -0.2949  0.8183  0.1013
 1238SOL    HW115347   2.608   0.302  16.454  0.5982 -1.0838  0.0155
 1238SOL    HW215348   2.551   0.178  16.393 -2.2283  0.6100 -1.0228
 1239SOL     OW15349   1.880   2.493   6.804 -0.1716 -0.1135  0.3857
 1239SOL    HW115350   1.872   2.484   6.899  0.7169 -1.1717  0.3604
 1239SOL    HW215351   1.801   2.546   6.790  0.8820  1.6674  1.2788
 1240SOL     OW15352   2.466   0.257   2.360 -0.2815  0.0294  0.4261
 1240SOL    HW115353   2.426   0.328   2.309  0.1134  1.1061  1.6122
 1240SOL    HW215354   2.531   0.300   2.415  0.8631  0.3463 -1.1687
 1241SOL     OW15355   1.681   1.161   2.819  0.1876  0.6168  0.4920
 1241SOL    HW115356   1.764   1.205   2.839 -0.6292  2.4538 -0.2138
 1241SOL    HW215357   1.649   1.220   2.752  1.6401  0.7893 -0.0573
 1242SOL     OW15358   3.922   3.636  11.872  0.4788  0.0581 -0.0283
 1242SOL    HW115359   3.890   3.616  11.960  0.0046  2.9780  0.4462
 1242SOL    HW215360   4.009   3.669  11.894 -1.1434  3.3529  1.4067
 1243SOL     OW15361   1.673   3.952   3.617 -0.3979  0.6244 -0.0561
 1243SOL    HW115362   1.588   3.995   3.607 -0.4659  0.1969 -1.3288
 1243SOL    HW215363   1.725   4.014   3.565 -0.9295 -0.0836 -1.4423
 1244SOL     OW15364   4.314   2.197  11.838 -0.1810  0.3014  0.0437
 1244SOL    HW115365   4.392   2.172  11.788 -1.0661 -2.1254 -0.1218
 1244SOL    HW215366   4.335   2.161  11.925  1.4715  1.0594 -0.0416
 1245SOL     OW15367   0.059   3.544  11.141 -0.4697  0.1107  0.2158
 1245SOL    HW115368   0.129   3.594  11.100 -2.8075  2.1807 -1.2805
 1245SOL    HW215369   0.083   3.452  11.151  0.1616  0.4219  1.4717
 1246SOL     OW15370   0.024   3.535   2.967 -0.1418  0.2717 -0.2562
 1246SOL    HW115371   0.116   3.516   2.945  0.2206  1.2964  0.3806
 1246SOL    HW215372   0.019   3.629   2.983 -0.8595  0.1797  0.0320
 1247SOL     OW15373   1.768   2.889   8.517  0.1455  0.3227  0.1376
 1247SOL    HW115374   1.720   2.852   8.592  1.5907 -0.1686  0.8153
 1247SOL    HW215375   1.790   2.807   8.472  2.4236  1.7245 -1.2963
 1248SOL     OW15376   0.954   4.643   0.338  0.1529  0.4406 -0.5225
 1248SOL    HW115377   0.978   4.551   0.327  0.5765  0.4743  0.1544
 1248SOL    HW215378   0.863   4.636   0.367 -0.0439 -1.8214 -1.6731
 1249SOL     OW15379   4.260   1.806   4.869  0.6657  0.0039 -0.1632
 1249SOL    HW115380   4.262   1.886   4.923  2.4817  0.4924 -0.9391
 1249SOL    HW215381   4.351   1.776   4.867  0.8297  0.6386 -2.2091
 1250SOL     OW15382   3.388   1.258  11.134  0.7415 -0.6224 -0.2697
 1250SOL    HW115383   3.409   1.347  11.105  1.1111 -0.5289  0.2961
 1250SOL    HW215384   3.344   1.285  11.214  2.8056  1.7775  0.0573
 1251SOL     OW15385   0.802   3.963   2.854 -0.0835  0.0025  0.0304
 1251SOL    HW115386   0.742   3.969   2.928 -0.7300  0.0522 -0.4956
 1251SOL    HW215387   0.875   4.006   2.898  1.9337  0.0540 -3.3210
 1252SOL     OW15388   1.516   2.357  15.608 -0.3339 -0.3782 -0.3185
 1252SOL    HW115389   1.566   2.288  15.564 -1.3769 -0.0929 -1.9596
 1252SOL    HW215390   1.444   2.305  15.644 -0.9504  1.5269  1.2310
 1253SOL     OW15391   2.259   3.639  17.190 -0.5816 -0.1738  0.5912
 1253SOL    HW115392   2.235   3.672  17.276 -2.5251 -1.0313  0.3722
 1253SOL    HW215393   2.337   3.592  17.221 -0.3703 -0.7938 -0.8681
 1254SOL     OW15394   1.243   2.110  17.740 -0.0028 -0.1813  0.7806
 1254SOL    HW115395   1.245   2.029  17.688 -2.4241  0.9732 -1.1296
 1254SOL    HW215396   1.248   2.174  17.669  0.3414 -2.1766 -0.9907
 1255SOL     OW15397   2.894   2.802   9.639 -0.5258  0.1979 -0.4157
 1255SOL    HW115398   2.872   2.722   9.686  1.1090  0.8089  1.3955
 1255SOL    HW215399   2.988   2.794   9.622 -0.6888 -1.3916 -0.4899
 1256SOL     OW15400   0.074   0.107   5.378 -0.0818 -0.4851  0.1451
 1256SOL    HW115401   0.041   0.018   5.367 -0.0181 -0.4291 -0.5115
 1256SOL    HW215402   0.042   0.157   5.303 -1.3299 -3.5573 -1.3614
 1257SOL     OW15403   1.140   3.276   6.883  0.1189 -0.3626  0.4477
 1257SOL    HW115404   1.140   3.253   6.790 -2.3286  1.7402 -0.0772
 1257SOL    HW215405   1.192   3.356   6.888  1.7526 -1.3113 -1.0520
 1258SOL     OW15406   4.162   4.564   8.168  0.0851  0.4968  0.1795
 1258SOL    HW115407   4.157   4.471   8.190  2.3802  0.3721  0.1079
 1258SOL    HW215408   4.240   4.602   8.207  0.9143 -0.7030 -0.3198
 1259SOL     OW15409   2.390   3.486   7.009 -0.0311 -0.6560 -0.5635
 1259SOL    HW115410   2.407   3.574   6.975 -2.0017 -0.7520 -1.8535
 1259SOL    HW215411   2.296   3.471   6.995  0.1308 -2.2015  0.0645
 1260SOL     OW15412   1.406   2.706   9.423  0.3668  0.1566  0.4648
 1260SOL    HW115413   1.340   2.774   9.438  0.9943  1.0129 -0.6718
 1260SOL    HW215414   1.355   2.661   9.356  0.7793  1.7554 -0.9225
 1261SOL     OW15415   1.544   0.520   8.134  0.1415 -0.2088 -0.0674
 1261SOL    HW115416   1.498   0.512   8.217  1.0624 -1.2392  0.3386
 1261SOL    HW215417   1.597   0.596   8.156 -1.3892  0.4116  1.4033
 1262SOL     OW15418   3.140   1.429   7.728 -0.2828  0.2007 -0.4659
 1262SOL    HW115419   3.234   1.412   7.715 -0.2860 -0.7080  0.7121
 1262SOL    HW215420   3.101   1.342   7.717 -1.5634  0.5273  1.7267
 1263SOL     OW15421   0.709   2.981  16.852 -0.6297 -0.1224 -0.1010
 1263SOL    HW115422   0.699   3.002  16.945 -2.2144  1.3048 -0.5851
 1263SOL    HW215423   0.759   3.059  16.829  0.9074 -0.9008  0.6401
 1264SOL     OW15424   4.612   2.025   6.180  0.7748  0.1514  0.1504
 1264SOL    HW115425   4.594   2.096   6.242 -0.1181 -0.3034  0.4098
 1264SOL    HW215426   4.529   2.005   6.138  0.8955 -2.3046  1.1030
 1265SOL     OW15427   2.782   0.341   3.789  0.3181 -0.3312  0.0048
 1265SOL    HW115428   2.801   0.248   3.775  0.3585 -0.3890  0.4407
 1265SOL    HW215429   2.868   0.370   3.819 -1.3048  1.6771  2.7551
 1266SOL     OW15430   3.915   0.180   1.373 -0.4122  0.6011  0.9371
 1266SOL    HW115431   3.885   0.196   1.463 -1.6213 -0.7223  0.7834
 1266SOL    HW215432   3.984   0.245   1.371 -0.3889  0.5167 -0.5982
 1267SOL     OW15433   0.991   4.342  10.043  0.0853 -0.4668  0.0953
 1267SOL    HW115434   0.992   4.355  10.138 -1.0509  2.6461 -0.3100
 1267SOL    HW215435   0.910   4.291  10.040 -0.4846  0.3842  0.8406
 1268SOL     OW15436   3.873   1.902   8.450 -0.6044  0.1683  0.1235
 1268SOL    HW115437   3.886   1.813   8.484 -1.2791 -0.8106 -2.1712
 1268SOL    HW215438   3.795   1.885   8.397 -1.0975  0.7201  0.6796
 1269SOL     OW15439   4.003   2.365   5.023 -0.1676 -0.3162 -0.0426
 1269SOL    HW115440   3.955   2.294   5.065  1.7598 -1.1291  0.7925
 1269SOL    HW215441   3.946   2.439   5.046  1.3388  0.8018  0.0501
 1270SOL     OW15442   1.970   1.285   4.803 -0.3420 -0.6333 -0.3946
 1270SOL    HW115443   1.920   1.365   4.788  0.1640 -0.2769 -0.1697
 1270SOL    HW215444   2.036   1.310   4.868  0.4903 -0.6291 -1.2377
 1271SOL     OW15445   0.968   2.049   2.214  0.0462  0.5415 -0.0540
 1271SOL    HW115446   0.929   2.037   2.127  1.9505 -3.5183 -0.3204
 1271SOL    HW215447   1.008   2.134   2.195  1.5360 -0.2261 -0.3537
 1272SOL     OW15448   2.594   0.315   1.672 -0.2765 -0.0521  0.2073
 1272SOL    HW115449   2.577   0.230   1.632  1.7302 -0.5381  0.4019
 1272SOL    HW215450   2.577   0.302   1.765 -3.1697 -1.1591 -0.4778
 1273SOL     OW15451   4.226   3.428   9.241 -0.2834  0.1278 -0.2573
 1273SOL    HW115452   4.199   3.435   9.149 -2.2165  0.4712  0.3386
 1273SOL    HW215453   4.296   3.363   9.232 -1.4523 -1.2744  0.8139
 1274SOL     OW15454   4.285   4.176   6.134  0.0476  0.2387 -0.6125
 1274SOL    HW115455   4.288   4.266   6.167 -2.0350 -0.6542  2.0273
 1274SOL    HW215456   4.376   4.147   6.144 -0.0405  0.2154  0.1379
 1275SOL     OW15457   4.649   0.168   1.736 -0.4613 -0.6340  0.7262
 1275SOL    HW115458   4.655   0.262   1.718  0.1019 -1.2124 -2.0439
 1275SOL    HW215459   4.738   0.149   1.767 -0.3413 -1.2028  0.0304
 1276SOL     OW15460   1.049   4.229   6.658  0.0435  0.4940 -0.5775
 1276SOL    HW115461   1.133   4.275   6.661  2.3379 -3.6265 -1.5323
 1276SOL    HW215462   0.985   4.300   6.648  0.2739  0.8402  0.4524
 1277SOL     OW15463   2.599   4.022  15.554 -0.0162 -0.0017 -0.0644
 1277SOL    HW115464   2.688   4.039  15.585  0.1483  0.0784 -0.5819
 1277SOL    HW215465   2.594   3.927  15.556 -0.2062  0.0653  2.8341
 1278SOL     OW15466   0.518   3.241  17.501  0.0505  0.4399  0.1358
 1278SOL    HW115467   0.568   3.194  17.568  0.6567 -1.4127 -1.6168
 1278SOL    HW215468   0.578   3.305  17.463 -0.9587  0.6152 -1.1635
 1279SOL     OW15469   0.947   1.086   5.638  0.3156  0.2109  0.2525
 1279SOL    HW115470   0.925   1.067   5.729  1.0118  0.6701  0.5132
 1279SOL    HW215471   1.002   1.160   5.664  1.7120 -0.5209 -0.6002
 1280SOL     OW15472   2.488   3.481  11.407 -0.7739 -0.0781 -0.6366
 1280SOL    HW115473   2.582   3.493  11.389 -0.7392 -0.1260 -0.4883
 1280SOL    HW215474   2.456   3.505  11.320 -1.2246  0.5056 -0.3052
 1281SOL     OW15475   2.377   3.742   9.002 -0.4202  0.6316 -0.2156
 1281SOL    HW115476   2.468   3.719   9.020 -0.2484  0.2366 -1.5512
 1281SOL    HW215477   2.365   3.708   8.913 -0.4408  2.0840 -0.7512
 1282SOL     OW15478   4.282   4.516   1.615  0.1160 -0.0969 -0.0007
 1282SOL    HW115479   4.353   4.452   1.612 -1.0397 -1.4719  1.9886
 1282SOL    HW215480   4.319   4.592   1.571 -0.8720 -0.6610 -1.7924
 1283SOL     OW15481   2.287   1.916   3.717  0.2497  0.8527 -0.2407
 1283SOL    HW115482   2.229   1.894   3.790  1.4395  2.3800  1.1542
 1283SOL    HW215483   2.251   2.000   3.687  0.2162  0.2883 -1.8144
 1284SOL     OW15484   2.742   0.007   6.762  0.1244  0.3850 -0.8536
 1284SOL    HW115485   2.652   4.724   6.788 -0.0671  0.6096 -1.3152
 1284SOL    HW215486   2.736   0.069   6.690  2.5350 -0.1992 -1.5361
 1285SOL     OW15487   2.984   1.585   9.639  0.2506 -0.6658 -0.6119
 1285SOL    HW115488   3.019   1.564   9.726  0.9561  0.4968 -0.6135
 1285SOL    HW215489   2.895   1.610   9.666  0.9193 -0.8771  1.8573
 1286SOL     OW15490   3.597   4.009   3.144 -0.4007  0.3928  0.1411
 1286SOL    HW115491   3.679   3.960   3.136  1.1897  3.0877 -0.1252
 1286SOL    HW215492   3.573   4.003   3.236  4.0844 -2.0514  1.1650
 1287SOL     OW15493   1.535   2.163   5.799 -0.0220  0.5480  0.2411
 1287SOL    HW115494   1.463   2.195   5.745 -0.4660  1.3238  1.3021
 1287SOL    HW215495   1.494   2.136   5.881  0.2020  2.4126  0.9802
 1288SOL     OW15496   3.700   2.120   2.455 -0.7855 -0.1850  0.5143
 1288SOL    HW115497   3.656   2.105   2.538  0.4327  0.5397  1.2784
 1288SOL    HW215498   3.669   2.044   2.405  0.2600 -0.4056  0.2025
 1289SOL     OW15499   2.264   4.521   2.399 -0.3918  0.1054  0.1527
 1289SOL    HW115500   2.216   4.563   2.328 -4.0248  0.6549  2.9232
 1289SOL    HW215501   2.338   4.576   2.427  0.3107 -0.4920 -0.5149
 1290SOL     OW15502   1.521   0.198  11.179  0.2929 -0.2167 -0.1505
 1290SOL    HW115503   1.614   0.214  11.164  0.7317 -1.8764  0.8344
 1290SOL    HW215504   1.484   0.263  11.118 -1.2858 -0.9666  0.0236
 1291SOL     OW15505   3.364   3.948   9.435 -0.1745 -0.1175  0.0841
 1291SOL    HW115506   3.434   4.000   9.396 -0.9935  1.0890  0.2107
 1291SOL    HW215507   3.415   3.887   9.488 -0.4363  1.2678  1.9264
 1292SOL     OW15508   4.142   1.454   8.677  0.7805  0.5356 -0.7768
 1292SOL    HW115509   4.100   1.375   8.710 -0.1404  1.3154 -0.0533
 1292SOL    HW215510   4.216   1.420   8.627  1.2845  0.9751 -0.3360
 1293SOL     OW15511   2.573   3.354   8.460  0.4282 -0.2895  0.0504
 1293SOL    HW115512   2.519   3.347   8.381  0.9484  1.9198 -0.4937
 1293SOL    HW215513   2.646   3.389   8.409  0.0180  1.7884  0.8967
 1294SOL     OW15514   1.865   0.176   5.975  0.4580  1.2372 -0.2446
 1294SOL    HW115515   1.770   0.181   5.982  0.4689  2.4483 -0.9457
 1294SOL    HW215516   1.869   0.080   5.966  2.3469  1.2635  0.3390
 1295SOL     OW15517   2.235   3.200   4.227 -0.5011  0.4130 -0.6779
 1295SOL    HW115518   2.327   3.172   4.228 -1.0905 -1.5039 -0.1517
 1295SOL    HW215519   2.185   3.120   4.212  0.4589 -0.2433 -0.4033
 1296SOL     OW15520   2.575   4.296   2.091 -0.4844  0.6236 -0.0001
 1296SOL    HW115521   2.646   4.248   2.049 -0.2497 -0.5723  1.7758
 1296SOL    HW215522   2.626   4.320   2.168 -1.2281  0.8229  0.4266
 1297SOL     OW15523   2.659   3.019   7.283  0.4316 -0.4944  0.4244
 1297SOL    HW115524   2.575   3.059   7.305  0.4234 -0.5210  0.4410
 1297SOL    HW215525   2.636   2.932   7.315 -0.7330 -0.7437 -1.1187
 1298SOL     OW15526   0.232   4.734   7.544 -0.2827 -0.2551 -0.1809
 1298SOL    HW115527   0.176   4.665   7.579 -3.3108  1.5457 -1.4598
 1298SOL    HW215528   0.243   4.702   7.455 -0.0690  1.2971 -0.7144
 1299SOL     OW15529   4.015   1.534   4.335  0.5089  0.0498  0.4694
 1299SOL    HW115530   4.078   1.462   4.336 -0.0835 -0.4657  0.6523
 1299SOL    HW215531   3.975   1.510   4.419  1.4152 -0.1799  0.8434
 1300SOL     OW15532   0.181   1.295   8.809 -0.0180 -0.2694 -0.2277
 1300SOL    HW115533   0.139   1.227   8.758 -2.2742  0.6690  0.3891
 1300SOL    HW215534   0.248   1.240   8.850 -0.9424 -2.3029 -1.4583
 1301SOL     OW15535   3.854   4.286   8.884  0.2976 -0.1857 -0.5886
 1301SOL    HW115536   3.816   4.226   8.820 -0.4394 -1.5630  1.1447
 1301SOL    HW215537   3.811   4.256   8.964  1.0375  2.6024  0.8308
 1302SOL     OW15538   2.702   3.831   1.900 -0.3000 -0.0655 -0.7509
 1302SOL    HW115539   2.651   3.818   1.980 -2.2296  3.0213 -1.4940
 1302SOL    HW215540   2.742   3.744   1.895  1.2800  0.5173  1.7801
 1303SOL     OW15541   2.936   3.587   8.131 -0.0127  0.4439 -0.3901
 1303SOL    HW115542   3.022   3.610   8.094  0.2207  1.8963  1.0261
 1303SOL    HW215543   2.917   3.500   8.096  0.3711 -0.2151  1.0384
 1304SOL     OW15544   0.506   4.536  14.446 -0.1492 -0.3722 -0.1821
 1304SOL    HW115545   0.568   4.528  14.373  1.1892  0.9199  0.7885
 1304SOL    HW215546   0.423   4.536  14.400 -0.2967  2.1024  0.0881
 1305SOL     OW15547   4.670   1.012   4.482  0.4207 -0.0538 -0.5530
 1305SOL    HW115548   4.688   1.005   4.575  1.4707 -0.9949 -0.8380
 1305SOL    HW215549   4.661   1.108   4.481  0.8059 -0.0289 -1.9440
 1306SOL     OW15550   1.769   2.642  10.421  0.0039 -0.3187  0.0836
 1306SOL    HW115551   1.753   2.731  10.391 -0.4221 -0.5653 -0.4126
 1306SOL    HW215552   1.826   2.604  10.355  0.7642 -1.4542  1.3892
 1307SOL     OW15553   3.635   4.404   1.740  0.0227  0.2241 -0.4097
 1307SOL    HW115554   3.559   4.434   1.689 -0.0749  1.1633  0.2913
 1307SOL    HW215555   3.684   4.485   1.750  0.7244 -0.3601  0.8958
 1308SOL     OW15556   1.110   1.447  13.642  0.1967 -0.2717  0.0402
 1308SOL    HW115557   1.149   1.455  13.554 -0.7691  1.4244 -0.2435
 1308SOL    HW215558   1.021   1.476  13.624  0.3430 -0.1266 -0.4619
 1309SOL     OW15559   1.566   3.860  12.974 -0.5113  0.8334 -0.3996
 1309SOL    HW115560   1.660   3.850  12.960 -0.3754  1.4614  0.0787
 1309SOL    HW215561   1.533   3.798  12.909  1.1088  1.5034 -1.8411
 1310SOL     OW15562   3.799   1.203   8.734 -0.5218  0.5488 -0.4446
 1310SOL    HW115563   3.741   1.134   8.765 -0.3752 -0.3419 -2.1620
 1310SOL    HW215564   3.738   1.275   8.751 -1.0385  0.1564 -0.6500
 1311SOL     OW15565   3.345   3.492   3.499  0.2737 -0.2039  0.5358
 1311SOL    HW115566   3.310   3.540   3.424  2.8593 -0.7094 -0.9970
 1311SOL    HW215567   3.383   3.559   3.555 -1.1075  0.6408  0.4573
 1312SOL     OW15568   0.909   0.150   7.815  0.1726 -0.7725  0.0667
 1312SOL    HW115569   0.998   0.139   7.780  0.6488  0.7436  0.7966
 1312SOL    HW215570   0.894   0.236   7.775  0.6067 -1.2942 -1.2283
 1313SOL     OW15571   1.181   2.219  12.566  0.0896 -0.1034 -0.1277
 1313SOL    HW115572   1.098   2.191  12.528 -0.8482  1.1079  1.0334
 1313SOL    HW215573   1.147   2.247  12.650  1.5691  0.9482  0.1257
 1314SOL     OW15574   2.368   0.698   5.728  0.3648 -0.3540  0.5195
 1314SOL    HW115575   2.411   0.668   5.648  1.9857  1.5349  0.7073
 1314SOL    HW215576   2.416   0.776   5.755  0.4155 -0.0300 -0.5089
 1315SOL     OW15577   2.089   3.163   7.419  0.3930  0.6787 -0.4307
 1315SOL    HW115578   1.998   3.136   7.430  0.1124  1.0147 -1.8957
 1315SOL    HW215579   2.079   3.232   7.354 -1.6116 -1.2585 -2.2190
 1316SOL     OW15580   2.691   2.514   5.495 -0.0196  0.0309  0.4635
 1316SOL    HW115581   2.736   2.588   5.454  0.9917 -1.6510 -1.4845
 1316SOL    HW215582   2.619   2.561   5.537  1.0442  1.3028  0.8652
 1317SOL     OW15583   2.260   3.084   4.774  0.2717  0.0926  0.5194
 1317SOL    HW115584   2.238   3.128   4.857  0.3426  2.8362 -0.9186
 1317SOL    HW215585   2.345   3.125   4.758  0.8157 -1.4649 -0.5402
 1318SOL     OW15586   1.882   1.416  17.265  0.2993  0.1701 -0.3264
 1318SOL    HW115587   1.925   1.331  17.270 -0.6755 -0.2159  1.3298
 1318SOL    HW215588   1.803   1.403  17.317  1.1432  0.2460  0.9961
 1319SOL     OW15589   0.081   4.405   0.580  0.0575 -0.3258  0.4366
 1319SOL    HW115590   0.103   4.365   0.664 -0.5398 -2.0205 -0.2235
 1319SOL    HW215591   0.166   4.434   0.546 -0.2201  3.8333  3.1734
 1320SOL     OW15592   3.256   1.073  17.226 -0.4722  0.0504 -0.3228
 1320SOL    HW115593   3.286   0.982  17.225  1.1120  0.5732 -0.8115
 1320SOL    HW215594   3.224   1.074  17.316 -2.7680  1.0291 -1.1687
 1321SOL     OW15595   3.774   1.446  12.137  0.3569 -0.2938 -0.3125
 1321SOL    HW115596   3.787   1.521  12.078 -2.9755 -0.6189 -1.4459
 1321SOL    HW215597   3.863   1.420  12.157 -0.4286 -0.9520  2.2649
 1322SOL     OW15598   2.480   3.641   0.501 -0.2682  0.1095 -0.3325
 1322SOL    HW115599   2.385   3.634   0.495 -0.1441 -1.0473 -0.9150
 1322SOL    HW215600   2.495   3.646   0.596  1.6644 -0.4118 -0.6199
 1323SOL     OW15601   4.315   4.372  11.362  0.3352  0.0503  0.6846
 1323SOL    HW115602   4.290   4.459  11.393  1.2181  1.0428 -1.4164
 1323SOL    HW215603   4.231   4.332  11.386  0.8185  0.4993  3.2019
 1324SOL     OW15604   1.962   1.154   7.968 -0.0727 -0.2743 -0.4746
 1324SOL    HW115605   1.881   1.202   7.984 -0.3032 -1.3497  1.6116
 1324SOL    HW215606   2.026   1.220   7.942 -1.4627  1.1978 -0.1329
 1325SOL     OW15607   4.116   2.618   6.812  0.1651 -0.0462 -0.2355
 1325SOL    HW115608   4.100   2.525   6.826 -1.7615  0.2240 -0.7053
 1325SOL    HW215609   4.157   2.654   6.891 -2.5319  0.5204  0.8903
 1326SOL     OW15610   0.239   3.640   0.277 -0.4091 -0.3602  0.4189
 1326SOL    HW115611   0.207   3.557   0.312 -1.8321  0.8956  2.1429
 1326SOL    HW215612   0.282   3.608   0.198  1.1691  1.2338  0.6176
 1327SOL     OW15613   2.529   1.362   7.949 -0.0929  0.0894  0.1282
 1327SOL    HW115614   2.481   1.282   7.973 -0.9069  0.5426  0.0075
 1327SOL    HW215615   2.555   1.401   8.032 -0.0053  0.0512  0.1191
 1328SOL     OW15616   2.470   0.363  12.676  0.3280  0.0175 -0.1264
 1328SOL    HW115617   2.513   0.295  12.624  1.1860  0.0355  0.5494
 1328SOL    HW215618   2.486   0.329  12.765  3.1019  0.3628 -0.4978
 1329SOL     OW15619   1.876   0.852  13.517  0.6736  1.1168 -0.1814
 1329SOL    HW115620   1.956   0.812  13.550  0.9537  0.7878 -1.2476
 1329SOL    HW215621   1.813   0.822  13.583  1.1800 -1.3378 -0.7880
 1330SOL     OW15622   1.988   2.651  17.470  0.0772  0.0789  0.1026
 1330SOL    HW115623   1.920   2.713  17.499  0.8683  0.9596  0.0822
 1330SOL    HW215624   1.997   2.668  17.376  0.8109  0.2205  0.2050
 1331SOL     OW15625   2.519   4.345   0.457  0.3702 -0.2489  0.1994
 1331SOL    HW115626   2.497   4.270   0.400  2.3659 -0.6976  0.0227
 1331SOL    HW215627   2.447   4.405   0.438  0.5244  0.3628  1.5533
 1332SOL     OW15628   2.149   0.275   7.222  0.0408 -0.4934  0.7628
 1332SOL    HW115629   2.057   0.261   7.244 -0.4109 -1.3057 -1.6933
 1332SOL    HW215630   2.186   0.253   7.308  2.9030 -0.0976 -0.3438
 1333SOL     OW15631   4.353   3.456   4.564  0.2825  0.2996  0.4847
 1333SOL    HW115632   4.445   3.463   4.541  0.4999 -1.7602  0.7021
 1333SOL    HW215633   4.331   3.476   4.473  1.9906 -1.1617 -0.2511
 1334SOL     OW15634   2.527   4.229   8.945  0.0763  0.1929  0.0609
 1334SOL    HW115635   2.601   4.184   8.987  0.6974  0.5033 -0.7030
 1334SOL    HW215636   2.574   4.276   8.876 -0.5927 -0.3919 -0.7909
 1335SOL     OW15637   0.987   0.282   5.310 -0.0213  1.0331 -0.1125
 1335SOL    HW115638   0.969   0.310   5.400 -1.3117  1.3119 -0.4641
 1335SOL    HW215639   0.953   0.346   5.248 -1.2887  0.7621  0.2991
 1336SOL     OW15640   3.563   1.575   5.079 -0.5629 -0.2954 -0.3727
 1336SOL    HW115641   3.627   1.504   5.071  0.1915  0.8009 -4.0291
 1336SOL    HW215642   3.514   1.544   5.002 -0.0616 -1.8956 -0.0617
 1337SOL     OW15643   3.915   3.114   1.464  0.7010 -0.2414 -0.0499
 1337SOL    HW115644   3.964   3.054   1.521 -0.1188 -1.0907 -0.2534
 1337SOL    HW215645   3.982   3.160   1.414 -0.4581 -0.0737 -1.4303
 1338SOL     OW15646   3.521   3.257   2.410  0.0753  0.3967  0.1554
 1338SOL    HW115647   3.521   3.190   2.341  0.6845  0.4123  0.1408
 1338SOL    HW215648   3.576   3.323   2.367  0.1387 -0.6978 -1.4657
 1339SOL     OW15649   3.144   2.861   2.796 -0.0486  0.5284 -0.9798
 1339SOL    HW115650   3.146   2.854   2.700 -0.6302 -0.5831 -0.9161
 1339SOL    HW215651   3.190   2.780   2.815  0.1104  1.2990  1.9128
 1340SOL     OW15652   2.256   2.185   9.841  0.0577  0.2101 -0.0864
 1340SOL    HW115653   2.246   2.250   9.772 -2.2090 -0.1197 -0.0844
 1340SOL    HW215654   2.170   2.143   9.831  1.1621 -1.6117 -1.7259
 1341SOL     OW15655   3.981   2.279  12.473  0.2684 -0.0355  0.0760
 1341SOL    HW115656   3.948   2.190  12.486 -2.5379  1.2617  1.9897
 1341SOL    HW215657   4.029   2.268  12.391  1.4402  0.1508  0.7335
 1342SOL     OW15658   0.326   1.864   5.525 -0.2032 -0.1561  0.9917
 1342SOL    HW115659   0.370   1.922   5.587  2.5741 -1.0974 -0.1184
 1342SOL    HW215660   0.248   1.846   5.578 -0.1705  0.0928  1.1224
 1343SOL     OW15661   3.549   2.917   6.140 -0.3206 -0.4646 -0.5163
 1343SOL    HW115662   3.472   2.885   6.189 -1.8453 -0.8318 -3.1311
 1343SOL    HW215663   3.598   2.951   6.214  0.0074 -4.3029  1.0523
 1344SOL     OW15664   3.303   0.081   4.426 -0.3652  0.0641 -0.4982
 1344SOL    HW115665   3.237   0.116   4.365 -1.6537 -0.0782  0.8091
 1344SOL    HW215666   3.306   4.730   4.397 -1.1776 -0.8591  2.4089
 1345SOL     OW15667   1.616   1.820   6.076  0.5946  0.6071 -0.3108
 1345SOL    HW115668   1.657   1.854   5.997  0.6256 -0.4692 -0.7657
 1345SOL    HW215669   1.652   1.733   6.093 -1.2170 -0.3685 -1.3674
 1346SOL     OW15670   3.132   0.449  16.391  0.0098 -0.2886 -0.0409
 1346SOL    HW115671   3.062   0.478  16.449  0.0501 -1.5769  0.6580
 1346SOL    HW215672   3.193   0.402  16.449 -0.5076  0.2534  0.9378
 1347SOL     OW15673   1.793   3.433   6.932 -0.0468 -0.2062 -0.3808
 1347SOL    HW115674   1.789   3.527   6.950 -0.3185 -0.4635  0.9283
 1347SOL    HW215675   1.702   3.418   6.906 -0.5771  0.7878  0.9242
 1348SOL     OW15676   0.869   3.096  11.709 -0.0818  0.2935 -0.1105
 1348SOL    HW115677   0.881   3.169  11.648 -0.0125  2.5595  2.6030
 1348SOL    HW215678   0.909   3.142  11.782 -0.1803 -0.0307  0.1442
 1349SOL     OW15679   3.081   3.659  12.370  0.5177 -0.0071  0.4432
 1349SOL    HW115680   3.075   3.616  12.285 -0.6467 -0.7374  0.8931
 1349SOL    HW215681   3.005   3.620  12.415  0.1991  0.3348  0.2014
 1350SOL     OW15682   3.377   0.059  16.591  0.0703 -0.1015 -0.4100
 1350SOL    HW115683   3.361   4.706  16.606 -2.9038 -0.1771 -3.9803
 1350SOL    HW215684   3.459   0.045  16.545  0.0763 -0.2414 -0.3561
 1351SOL     OW15685   1.854   2.471   7.856 -0.3538 -0.2692  0.2209
 1351SOL    HW115686   1.934   2.419   7.863 -0.0556  0.4391  2.3928
 1351SOL    HW215687   1.825   2.437   7.941 -0.7797 -0.3375  0.0462
 1352SOL     OW15688   1.623   1.930  12.590 -0.2654 -0.3526 -0.0204
 1352SOL    HW115689   1.540   1.973  12.572 -0.6107 -1.2372 -0.5093
 1352SOL    HW215690   1.599   1.839  12.608 -0.7599 -0.4739 -1.3574
 1353SOL     OW15691   2.128   4.637   2.882  0.4390 -0.7535 -0.5101
 1353SOL    HW115692   2.195   4.679   2.829  0.3792  0.4336  0.3619
 1353SOL    HW215693   2.103   4.563   2.827 -1.2697 -0.8443  0.3739
 1354SOL     OW15694   4.735   3.025   2.225 -0.3444 -0.4033  0.3158
 1354SOL    HW115695   4.720   2.978   2.143 -1.6498 -0.2575  0.4787
 1354SOL    HW215696   0.049   2.973   2.285  0.2738 -0.8577 -0.6312
 1355SOL     OW15697   4.632   0.634   8.467 -0.5355 -0.0549 -0.5655
 1355SOL    HW115698   4.716   0.588   8.464 -0.9175 -0.7361 -0.8441
 1355SOL    HW215699   4.602   0.629   8.377 -1.0916  1.5078 -0.4635
 1356SOL     OW15700   2.986   2.883   4.086  0.6154  0.1652  0.6000
 1356SOL    HW115701   3.020   2.887   3.996  0.3920  0.7319  0.5425
 1356SOL    HW215702   2.920   2.814   4.077 -0.7466  1.3592  1.5848
 1357SOL     OW15703   3.815   3.128   5.312  0.1019  0.0446  0.8187
 1357SOL    HW115704   3.749   3.117   5.244  1.9094 -0.3702 -0.8738
 1357SOL    HW215705   3.769   3.082   5.383 -0.5126  0.8183  0.9261
 1358SOL     OW15706   3.235   0.930   5.181 -0.2600  0.1757  0.1682
 1358SOL    HW115707   3.266   0.915   5.271  0.5957 -2.3888 -0.5497
 1358SOL    HW215708   3.306   0.973   5.135 -0.2584  0.1241  0.1228
 1359SOL     OW15709   2.585   1.642   0.209 -0.6269 -0.2655 -0.0328
 1359SOL    HW115710   2.557   1.723   0.168  1.3666  0.7903  0.7097
 1359SOL    HW215711   2.503   1.607   0.246 -0.2968 -0.4013  0.5707
 1360SOL     OW15712   0.248   4.355   8.388  0.3168 -0.1312  0.2432
 1360SOL    HW115713   0.239   4.301   8.467  0.9740  1.7333  1.6055
 1360SOL    HW215714   0.164   4.400   8.389  0.0468 -0.6104 -0.6695
 1361SOL     OW15715   1.515   3.956   2.922  0.1773 -0.4418 -0.1216
 1361SOL    HW115716   1.452   3.886   2.935  0.8544 -1.0315 -0.0423
 1361SOL    HW215717   1.570   3.936   2.998 -1.0440 -1.0887  0.5876
 1362SOL     OW15718   1.314   1.856   7.826  0.1721  0.4434 -0.1735
 1362SOL    HW115719   1.285   1.945   7.807 -0.4252  0.0621 -1.0571
 1362SOL    HW215720   1.403   1.870   7.793  0.5382  2.3712  1.6839
 1363SOL     OW15721   1.586   3.784  10.492  0.5086  0.4506 -0.1013
 1363SOL    HW115722   1.599   3.689  10.492  0.9135  0.4977  1.7344
 1363SOL    HW215723   1.529   3.791  10.416  1.9532  1.5813 -1.0681
 1364SOL     OW15724   0.460   0.805  14.081 -0.2869  0.1196  0.1720
 1364SOL    HW115725   0.382   0.840  14.039 -0.2949 -0.6071 -0.4337
 1364SOL    HW215726   0.441   0.828  14.172  1.1797  0.7447  0.3269
 1365SOL     OW15727   1.252   2.160   2.820  0.0616 -0.3172 -0.1494
 1365SOL    HW115728   1.304   2.097   2.870  1.1539  0.5416 -0.1869
 1365SOL    HW215729   1.272   2.242   2.866 -1.2487 -1.2843  2.0856
 1366SOL     OW15730   2.311   4.086  15.476  0.3442  0.3702 -0.5901
 1366SOL    HW115731   2.315   4.182  15.477 -0.5452  0.3641  2.4937
 1366SOL    HW215732   2.401   4.079  15.509  0.2870 -0.2053 -0.5657
 1367SOL     OW15733   3.067   2.112   9.119 -0.0539 -0.1137 -0.5718
 1367SOL    HW115734   3.099   2.163   9.045  1.2974 -1.3175 -0.8301
 1367SOL    HW215735   3.038   2.187   9.171  0.2836  0.8305 -1.7472
 1368SOL     OW15736   4.505   1.704   5.546  0.3431 -0.4204  0.0672
 1368SOL    HW115737   4.430   1.706   5.486 -0.7402 -1.5633  1.3848
 1368SOL    HW215738   4.509   1.790   5.588 -1.2432 -0.6060  0.5942
 1369SOL     OW15739   4.413   0.321   3.332  0.2639  0.3621  0.7869
 1369SOL    HW115740   4.427   0.384   3.261  1.8936 -1.0701 -0.1526
 1369SOL    HW215741   4.319   0.325   3.351  0.9280  0.5438  4.0881
 1370SOL     OW15742   0.905   4.722  11.440  0.1711 -0.1489  1.0381
 1370SOL    HW115743   0.854   4.641  11.435  1.9969 -1.2263 -0.0449
 1370SOL    HW215744   0.962   4.711  11.516  1.3190  1.8919  0.4550
 1371SOL     OW15745   0.855   2.970   3.636 -0.1403  0.2104 -0.1231
 1371SOL    HW115746   0.914   2.978   3.711 -0.0845  0.0910 -0.1550
 1371SOL    HW215747   0.889   2.889   3.597 -0.6873 -1.0204  1.9857
 1372SOL     OW15748   1.416   1.709   9.019  0.2342  0.8925  0.0498
 1372SOL    HW115749   1.451   1.624   9.046 -2.0414  0.0302  0.3272
 1372SOL    HW215750   1.431   1.710   8.924  1.9330 -0.7452  0.2868
 1373SOL     OW15751   0.113   2.962   6.453 -0.2037  0.0379 -0.5077
 1373SOL    HW115752   0.110   3.020   6.529  0.3625  0.8559 -1.1147
 1373SOL    HW215753   0.085   3.024   6.386  1.7230  1.5209  0.0496
 1374SOL     OW15754   2.016   4.258   6.664  0.4663 -0.3847 -0.4518
 1374SOL    HW115755   2.072   4.311   6.607  2.5776 -0.1481  1.8382
 1374SOL    HW215756   2.009   4.315   6.741  0.8712 -0.0761 -0.6425
 1375SOL     OW15757   3.063   4.209   8.993  0.3062 -0.2805  0.1962
 1375SOL    HW115758   3.098   4.191   8.906 -2.5449 -2.3491 -0.5223
 1375SOL    HW215759   3.118   4.149   9.042 -0.1955 -0.2493  0.8049
 1376SOL     OW15760   3.519   3.090  12.253  0.0273 -0.5926  0.3725
 1376SOL    HW115761   3.431   3.102  12.289 -0.2246  2.3209 -1.2229
 1376SOL    HW215762   3.493   3.063  12.165 -2.3686  0.7779  0.6626
 1377SOL     OW15763   2.220   0.356   0.401 -0.5305 -0.4588  0.1978
 1377SOL    HW115764   2.229   0.371   0.495  1.3458 -0.4436  0.0082
 1377SOL    HW215765   2.182   0.268   0.406 -2.8796  0.4736 -1.4007
 1378SOL     OW15766   3.420   3.323  12.831 -0.0684  0.4519 -0.2862
 1378SOL    HW115767   3.414   3.273  12.913 -0.9831  1.3848  0.2122
 1378SOL    HW215768   3.515   3.315  12.823 -0.0808  1.9739 -1.9613
 1379SOL     OW15769   2.423   3.055   5.892 -0.1909 -0.1533 -0.4655
 1379SOL    HW115770   2.428   3.137   5.942  0.4666 -0.6511  0.2710
 1379SOL    HW215771   2.416   3.088   5.802 -2.1321 -0.4634 -0.4292
 1380SOL     OW15772   4.444   1.955   1.962  0.1155 -0.5070  0.2428
 1380SOL    HW115773   4.524   1.984   2.006  0.1949  0.4731 -0.5504
 1380SOL    HW215774   4.472   1.883   1.905 -1.4006 -0.8951 -0.0193
 1381SOL     OW15775   2.352   3.684  12.438 -0.2844  0.2503  0.6555
 1381SOL    HW115776   2.442   3.716  12.430  0.7590 -2.4766  1.4231
 1381SOL    HW215777   2.296   3.758  12.461 -3.0560 -1.4013 -0.6917
 1382SOL     OW15778   0.976   1.202   2.261  0.2346  0.2648 -0.2012
 1382SOL    HW115779   1.063   1.230   2.290  0.3896  1.9648 -2.3047
 1382SOL    HW215780   0.985   1.207   2.166  0.8560  0.9361 -0.1072
 1383SOL     OW15781   1.655   0.791   8.019  0.2458  0.2191 -0.1783
 1383SOL    HW115782   1.676   0.794   8.113  0.1035  0.6467 -0.1600
 1383SOL    HW215783   1.560   0.787   8.026  0.1951 -0.9591 -1.5628
 1384SOL     OW15784   0.251   4.441   3.501 -0.4362 -0.2965  0.6370
 1384SOL    HW115785   0.262   4.522   3.452 -1.5681 -0.1098  0.7118
 1384SOL    HW215786   0.338   4.421   3.536  0.4907 -0.4689 -1.7240
 1385SOL     OW15787   4.255   2.204  13.915 -0.1178 -0.0862 -0.2585
 1385SOL    HW115788   4.293   2.230  13.999  0.4785  2.3369 -1.2831
 1385SOL    HW215789   4.277   2.111  13.922 -2.0960 -0.5663 -0.3688
 1386SOL     OW15790   1.839   0.665   9.332 -0.5341  0.2138 -0.1718
 1386SOL    HW115791   1.874   0.749   9.300  0.4199  0.1419  0.6955
 1386SOL    HW215792   1.901   0.603   9.294  0.7820  0.4274  1.6356
 1387SOL     OW15793   1.895   1.612  16.802  0.2766 -0.2223 -0.4898
 1387SOL    HW115794   1.945   1.648  16.876 -1.9162  3.3781 -0.7544
 1387SOL    HW215795   1.923   1.521  16.799  0.2824 -0.2314 -0.1735
 1388SOL     OW15796   2.402   4.520   2.740  0.1294 -0.0058 -0.2489
 1388SOL    HW115797   2.437   4.449   2.686 -1.8549 -0.1883 -1.3117
 1388SOL    HW215798   2.396   4.594   2.680  1.6853  0.1077 -0.2578
 1389SOL     OW15799   3.739   3.795   1.694  0.4575 -0.2166 -0.2211
 1389SOL    HW115800   3.816   3.841   1.659 -0.6551  0.4952 -1.7251
 1389SOL    HW215801   3.738   3.733   1.621  0.1946 -0.3327 -0.1177
 1390SOL     OW15802   0.844   1.131   2.850  0.1235 -0.2392  0.5860
 1390SOL    HW115803   0.929   1.106   2.815  0.3986 -1.1766  1.8985
 1390SOL    HW215804   0.778   1.101   2.787  2.8846 -0.7900 -2.0418
 1391SOL     OW15805   4.271   3.822   5.396 -0.3794  0.1518 -0.0145
 1391SOL    HW115806   4.274   3.889   5.464  0.7697 -0.2563  0.3441
 1391SOL    HW215807   4.297   3.869   5.317 -1.9715  0.8157 -0.1406
 1392SOL     OW15808   0.622   0.049  14.072 -0.3327  0.1140 -0.0168
 1392SOL    HW115809   0.599   0.110  14.142 -1.3528  1.3373 -1.4279
 1392SOL    HW215810   0.557   4.720  14.086  1.1508 -1.5190 -1.2244
 1393SOL     OW15811   1.138   2.383  14.485  0.2138 -0.0571  0.2490
 1393SOL    HW115812   1.229   2.355  14.490 -0.5890 -2.8566 -1.2609
 1393SOL    HW215813   1.110   2.309  14.432 -0.5125 -0.1607  0.7840
 1394SOL     OW15814   2.758   0.531   0.591 -0.0099 -0.3478 -0.4000
 1394SOL    HW115815   2.688   0.474   0.560  0.0959 -0.2235 -0.8711
 1394SOL    HW215816   2.737   0.618   0.558  1.0042 -0.5303 -1.5478
 1395SOL     OW15817   2.317   2.142   7.886  0.1116 -0.2575  0.9249
 1395SOL    HW115818   2.286   2.110   7.970 -0.2390  1.2796  1.3837
 1395SOL    HW215819   2.288   2.233   7.895  1.3275  0.3168 -1.0342
 1396SOL     OW15820   3.824   3.941   0.335 -0.2407  0.1954  0.5541
 1396SOL    HW115821   3.835   4.009   0.268  1.3227  0.1701  0.7806
 1396SOL    HW215822   3.732   3.957   0.353 -0.8273 -4.2552  1.3703
 1397SOL     OW15823   1.577   0.680   9.791  0.0500 -0.1093 -0.8076
 1397SOL    HW115824   1.487   0.702   9.817 -0.1407 -1.4377 -0.3406
 1397SOL    HW215825   1.576   0.732   9.711  2.5508  1.4707  0.2082
 1398SOL     OW15826   3.165   2.470   6.768  0.0505 -0.0108  0.2584
 1398SOL    HW115827   3.078   2.493   6.802  0.1487  2.3219 -1.0762
 1398SOL    HW215828   3.222   2.514   6.831  1.7995 -0.8150 -0.7619
 1399SOL     OW15829   1.831   4.615   5.133  0.2205 -0.0804  0.5268
 1399SOL    HW115830   1.868   4.550   5.193 -0.0750 -0.5246  0.2228
 1399SOL    HW215831   1.839   4.557   5.057 -2.2286  1.5726 -0.9842
 1400SOL     OW15832   0.193   4.230   4.169 -0.4217 -0.1025  0.1139
 1400SOL    HW115833   0.140   4.309   4.159 -2.9480 -1.6525  0.9968
 1400SOL    HW215834   0.168   4.190   4.253  1.2499  0.4611  0.8827
 1401SOL     OW15835   2.257   2.686   1.706  0.0369  0.1673  0.2983
 1401SOL    HW115836   2.200   2.624   1.660 -0.4603 -0.2265  1.4580
 1401SOL    HW215837   2.266   2.760   1.646 -3.2487  0.4706  0.1945
 1402SOL     OW15838   3.284   1.748   6.110  0.6283 -0.5596  0.0180
 1402SOL    HW115839   3.194   1.750   6.143  1.6967  0.4163  2.9433
 1402SOL    HW215840   3.288   1.822   6.049  0.4507 -0.5284  0.0439
 1403SOL     OW15841   2.965   2.146   5.849 -0.1632  0.8247 -0.1855
 1403SOL    HW115842   2.962   2.214   5.782 -1.1814  0.1131 -0.8535
 1403SOL    HW215843   2.905   2.082   5.812 -0.8629  1.6661 -0.4965
 1404SOL     OW15844   3.629   1.866   5.594 -0.2887 -0.1097  0.5739
 1404SOL    HW115845   3.592   1.785   5.561  2.2316 -0.7437 -0.6235
 1404SOL    HW215846   3.586   1.863   5.680 -1.4805  0.4345 -0.0062
 1405SOL     OW15847   3.499   2.734   9.308 -0.7474  0.1165 -0.5525
 1405SOL    HW115848   3.493   2.828   9.324  1.8080  0.0339  0.8302
 1405SOL    HW215849   3.420   2.732   9.254 -0.8633 -0.4777 -0.3566
 1406SOL     OW15850   1.881   1.657   9.837 -0.6302  0.3945  0.0078
 1406SOL    HW115851   1.973   1.632   9.848 -0.4258  0.8412 -0.7411
 1406SOL    HW215852   1.848   1.571   9.812  0.0308  0.4050 -0.8745
 1407SOL     OW15853   2.726   1.097   4.956  0.5044 -0.2706 -0.4026
 1407SOL    HW115854   2.661   1.045   4.910 -0.5571  0.6745  0.0358
 1407SOL    HW215855   2.759   1.162   4.893 -0.3340 -3.0027 -3.6195
 1408SOL     OW15856   0.769   0.597   8.492  0.6157 -0.0075 -0.5358
 1408SOL    HW115857   0.700   0.663   8.477  0.3511  0.0498  0.9408
 1408SOL    HW215858   0.784   0.588   8.586 -1.0758 -0.9261 -0.3515
 1409SOL     OW15859   3.027   1.056   9.343 -0.4147  0.3319  0.0099
 1409SOL    HW115860   3.075   1.099   9.413  0.9010  1.3079 -1.4842
 1409SOL    HW215861   3.016   1.134   9.288 -0.9875  1.3040  1.5194
 1410SOL     OW15862   4.354   4.675   1.878  0.1353 -0.0131  0.1831
 1410SOL    HW115863   4.288   4.641   1.817 -1.9607 -0.0616  2.4737
 1410SOL    HW215864   4.394   4.591   1.899  0.9344  0.7410  1.6884
 1411SOL     OW15865   1.884   1.478   7.665 -0.5161  0.4350 -0.0381
 1411SOL    HW115866   1.824   1.419   7.618  0.0054  0.8604 -1.2228
 1411SOL    HW215867   1.963   1.471   7.612 -0.4480  1.3766 -0.0492
 1412SOL     OW15868   2.153   2.562   1.378  0.6110 -0.5957 -0.1456
 1412SOL    HW115869   2.148   2.505   1.454 -1.0756 -1.2457 -0.7477
 1412SOL    HW215870   2.144   2.652   1.408  0.2535 -0.7675  0.2618
 1413SOL     OW15871   1.561   1.315   9.202  0.3618 -0.5223  0.5581
 1413SOL    HW115872   1.643   1.322   9.251 -0.2220  0.8884  1.3424
 1413SOL    HW215873   1.492   1.310   9.268 -0.9997  1.8602 -0.6876
 1414SOL     OW15874   3.377   0.730   1.684 -0.0888  0.7944  0.4221
 1414SOL    HW115875   3.419   0.815   1.695 -1.1751  1.4527 -0.4737
 1414SOL    HW215876   3.314   0.761   1.618 -0.2155 -1.6995 -0.6465
 1415SOL     OW15877   2.550   2.216  12.749  0.1770 -0.0678  0.0789
 1415SOL    HW115878   2.511   2.128  12.756  1.8660 -1.0534 -3.0712
 1415SOL    HW215879   2.628   2.193  12.699  0.6972 -1.6060  1.5756
 1416SOL     OW15880   0.196   0.049  15.972 -0.1493  0.4280 -0.3237
 1416SOL    HW115881   0.249   4.710  15.967  2.2648  1.9980  0.2889
 1416SOL    HW215882   0.266   0.115  15.973 -1.3040  1.6497 -0.3452
 1417SOL     OW15883   3.406   0.518   9.209 -0.1006 -0.2335 -0.6256
 1417SOL    HW115884   3.430   0.425   9.202 -3.1724 -1.1162  0.3348
 1417SOL    HW215885   3.324   0.522   9.258  0.1005  1.0913 -0.4097
 1418SOL     OW15886   3.705   3.908   5.825 -0.3008  0.4306 -0.7132
 1418SOL    HW115887   3.714   3.816   5.801  1.5041 -0.1701  2.3180
 1418SOL    HW215888   3.745   3.946   5.746 -1.6473  0.6977 -1.2655
 1419SOL     OW15889   3.819   3.561  13.446  0.0248  0.5320 -0.0551
 1419SOL    HW115890   3.904   3.603  13.430  0.2415  0.5058  0.9891
 1419SOL    HW215891   3.766   3.614  13.387 -0.1097 -0.2765 -0.6511
 1420SOL     OW15892   4.079   4.290   7.843  0.2261  0.0102  0.0360
 1420SOL    HW115893   4.103   4.235   7.917 -1.5999 -1.6155 -0.5729
 1420SOL    HW215894   3.984   4.278   7.837  0.1655  0.1091  0.7520
 1421SOL     OW15895   1.851   4.549  12.521  0.2943 -0.2012  0.5062
 1421SOL    HW115896   1.887   4.498  12.448 -0.1492 -1.5082  1.1980
 1421SOL    HW215897   1.858   4.480  12.587  0.6684 -0.2185  0.4472
 1422SOL     OW15898   3.243   4.543   5.567 -0.2385  0.5913 -0.0382
 1422SOL    HW115899   3.230   4.483   5.493  0.4358  0.3951 -0.0000
 1422SOL    HW215900   3.204   4.623   5.533  1.2800  1.3519 -0.0238
 1423SOL     OW15901   4.195   1.219  12.404 -0.5382  0.1730  0.1605
 1423SOL    HW115902   4.260   1.260  12.348 -0.4246  0.0809  0.2244
 1423SOL    HW215903   4.248   1.151  12.447  0.9638  0.8708 -0.5762
 1424SOL     OW15904   1.363   3.638   1.955 -0.9021 -0.0650 -0.1761
 1424SOL    HW115905   1.427   3.614   1.888  1.4454 -0.4688  2.2176
 1424SOL    HW215906   1.420   3.663   2.028  0.6108 -1.4716 -0.8533
 1425SOL     OW15907   0.730   2.970   2.249 -0.6636  0.2245 -0.2326
 1425SOL    HW115908   0.754   2.973   2.157 -2.5456 -0.1808 -0.7444
 1425SOL    HW215909   0.653   3.027   2.252 -3.3430 -3.4990  2.1405
 1426SOL     OW15910   1.205   0.871  12.703  0.0711  0.5688  0.1120
 1426SOL    HW115911   1.251   0.871  12.786 -2.7773 -1.5180  1.6851
 1426SOL    HW215912   1.112   0.868  12.726 -0.6088 -1.6685 -2.9431
 1427SOL     OW15913   3.038   0.361  13.157 -0.0376  0.1231 -0.4768
 1427SOL    HW115914   3.026   0.289  13.095  0.8140 -2.4120  2.3454
 1427SOL    HW215915   3.123   0.327  13.183 -0.2805  1.2969  1.8800
 1428SOL     OW15916   2.172   3.458   8.453  0.2048 -0.6164 -0.0399
 1428SOL    HW115917   2.085   3.482   8.420 -0.4186 -0.4356  1.7360
 1428SOL    HW215918   2.218   3.522   8.399  1.1233 -0.1921  1.2520
 1429SOL     OW15919   3.771   2.005   3.149 -0.6334  0.2235 -0.4226
 1429SOL    HW115920   3.736   2.090   3.175 -1.0580 -0.1220  0.1449
 1429SOL    HW215921   3.736   2.019   3.061  0.9230 -0.6974 -1.1795
 1430SOL     OW15922   0.934   2.047   5.276  0.3193  0.0598  0.3771
 1430SOL    HW115923   1.003   2.016   5.217  0.2839 -0.4420  0.5928
 1430SOL    HW215924   0.970   2.035   5.363  1.3518 -0.1700 -0.0896
 1431SOL     OW15925   3.023   2.258   3.350 -0.2492 -0.0792 -0.1700
 1431SOL    HW115926   2.940   2.219   3.322  0.3901 -0.0726 -2.0514
 1431SOL    HW215927   2.999   2.280   3.440 -1.9020  2.3746 -1.2117
 1432SOL     OW15928   2.816   2.785  17.058  0.1798 -0.6449  0.1800
 1432SOL    HW115929   2.834   2.712  16.998 -1.0309 -0.3286 -0.5583
 1432SOL    HW215930   2.868   2.855  17.020  0.0690 -0.4066  0.4643
 1433SOL     OW15931   2.386   3.354  10.251  0.1569  0.5480  0.6011
 1433SOL    HW115932   2.404   3.443  10.282 -1.6653  0.6196  1.4485
 1433SOL    HW215933   2.297   3.345  10.285  0.2823 -1.9315  0.2921
 1434SOL     OW15934   1.776   2.971  14.886 -0.1075 -0.1443 -0.2480
 1434SOL    HW115935   1.700   2.947  14.939 -0.4205  0.9312 -0.2152
 1434SOL    HW215936   1.840   2.999  14.951  0.3935  0.5904 -1.0529
 1435SOL     OW15937   0.704   1.332  12.285 -0.0766 -0.1158  0.0018
 1435SOL    HW115938   0.682   1.244  12.318 -0.5018 -0.2098 -0.5336
 1435SOL    HW215939   0.622   1.377  12.305  0.1100  0.2007  0.0495
 1436SOL     OW15940   1.273   3.664   2.287  0.0754  0.2652 -0.0808
 1436SOL    HW115941   1.321   3.740   2.254 -2.9361  1.3835 -1.8939
 1436SOL    HW215942   1.278   3.605   2.213  0.4714  0.4460 -0.1973
 1437SOL     OW15943   2.376   0.633  12.677 -0.1484 -0.4538  0.6594
 1437SOL    HW115944   2.283   0.612  12.676  0.2255 -2.0883  0.5553
 1437SOL    HW215945   2.420   0.548  12.678  1.0998  0.1591 -1.9778
 1438SOL     OW15946   4.202   3.006   2.164  0.4089  0.0096  0.1208
 1438SOL    HW115947   4.200   3.037   2.254  2.3403  0.1867  0.1051
 1438SOL    HW215948   4.217   2.912   2.179  1.9242  0.4175  1.1038
 1439SOL     OW15949   2.452   1.944   5.008 -0.3913 -0.3620 -0.5909
 1439SOL    HW115950   2.431   2.006   5.078  2.2383 -0.8502  0.6192
 1439SOL    HW215951   2.369   1.896   5.000 -1.1255  1.3908 -3.3460
 1440SOL     OW15952   2.976   2.507  11.337 -0.1195  0.0629  0.1429
 1440SOL    HW115953   2.997   2.424  11.380 -1.1143 -0.3080 -0.0778
 1440SOL    HW215954   2.972   2.487  11.243 -1.6512  0.9789  0.0092
 1441SOL     OW15955   4.386   0.990  12.224 -0.5082 -0.1932 -0.3784
 1441SOL    HW115956   4.426   1.073  12.198 -0.7696 -0.7653 -2.6582
 1441SOL    HW215957   4.311   1.002  12.165  0.7675 -0.0701 -1.9893
 1442SOL     OW15958   3.577   0.988   7.973 -0.1596 -0.0578 -0.4160
 1442SOL    HW115959   3.572   1.075   7.933 -0.0574  0.1450  0.0101
 1442SOL    HW215960   3.659   0.996   8.022 -1.4651  0.0956  1.7627
 1443SOL     OW15961   1.028   4.557   5.109  0.1860  0.1161  0.0486
 1443SOL    HW115962   0.944   4.547   5.065  0.1620 -1.7941  0.5316
 1443SOL    HW215963   1.046   4.651   5.117  0.6383 -0.1414  2.1044
 1444SOL     OW15964   0.824   0.162  12.397 -0.2882  0.1327 -0.0675
 1444SOL    HW115965   0.899   0.159  12.457  1.0102  1.7078 -1.6027
 1444SOL    HW215966   0.771   0.086  12.417 -0.4242  0.4016  0.6001
 1445SOL     OW15967   0.341   3.106  11.873  0.7583 -0.3074  0.3411
 1445SOL    HW115968   0.433   3.131  11.881  0.2519  1.8343 -0.6241
 1445SOL    HW215969   0.359   3.020  11.912  0.3518 -1.9818 -3.2155
 1446SOL     OW15970   2.877   4.461   8.861  0.1695  0.5000 -0.4844
 1446SOL    HW115971   2.799   4.494   8.815 -0.1046  0.6810  0.1022
 1446SOL    HW215972   2.869   4.367   8.846 -0.4750  0.4983 -0.1355
 1447SOL     OW15973   2.810   0.595  16.244 -0.1431 -0.3063  0.2154
 1447SOL    HW115974   2.855   0.680  16.253  0.6275 -0.7135  0.2591
 1447SOL    HW215975   2.803   0.570  16.336 -2.0860 -0.8601 -0.1017
 1448SOL     OW15976   2.264   0.059   9.048  0.0983 -0.2297 -0.0220
 1448SOL    HW115977   2.336   4.737   9.050 -2.5959 -3.3841 -0.0005
 1448SOL    HW215978   2.237   0.050   8.957  1.5701  0.5412 -0.5310
 1449SOL     OW15979   4.349   1.184   6.078  0.2651  0.3937 -0.1152
 1449SOL    HW115980   4.275   1.199   6.136  0.9915 -0.6926  1.1093
 1449SOL    HW215981   4.395   1.268   6.075  0.5148  0.2906  0.7140
 1450SOL     OW15982   1.688   1.481   4.047  0.4865 -0.2257  0.3663
 1450SOL    HW115983   1.766   1.427   4.065  1.2349  1.5728  2.5331
 1450SOL    HW215984   1.637   1.413   4.004 -1.1677 -1.3419  4.0831
 1451SOL     OW15985   3.628   3.686  13.229 -0.3679 -0.2528  0.2273
 1451SOL    HW115986   3.591   3.745  13.295  0.1161  0.0145  0.2614
 1451SOL    HW215987   3.550   3.655  13.183  0.7829 -0.1134 -1.8393
 1452SOL     OW15988   1.894   1.063   1.637 -0.2170 -0.2397 -0.3417
 1452SOL    HW115989   1.988   1.044   1.628  0.5872  1.9292  3.6372
 1452SOL    HW215990   1.898   1.158   1.649 -1.4170 -0.0143 -1.7733
 1453SOL     OW15991   3.810   2.661   7.476 -0.0962  0.8789  0.5471
 1453SOL    HW115992   3.763   2.580   7.498  1.0705 -0.3208 -1.3906
 1453SOL    HW215993   3.834   2.681   7.567  1.3016  3.1561 -0.3238
 1454SOL     OW15994   4.217   1.277   2.448 -0.1133 -0.1059 -0.0582
 1454SOL    HW115995   4.196   1.220   2.522 -0.4924 -0.0774 -0.1454
 1454SOL    HW215996   4.139   1.330   2.428 -0.7694 -0.9163  0.3720
 1455SOL     OW15997   0.748   0.391   3.788 -0.5433  0.3064 -0.6150
 1455SOL    HW115998   0.660   0.374   3.754 -1.9268  2.4096  1.9595
 1455SOL    HW215999   0.784   0.434   3.710  1.3433  1.9750  1.1899
 1456SOL     OW16000   1.769   0.241   3.589 -0.0459  0.2924  0.4104
 1456SOL    HW116001   1.787   0.162   3.538  2.8289  0.8610  0.5582
 1456SOL    HW216002   1.726   0.200   3.664 -1.6274  1.3382  0.0792
 1457SOL     OW16003   0.534   3.606   2.740  0.2886  0.3341 -0.6444
 1457SOL    HW116004   0.596   3.672   2.709 -0.2810  0.8676 -0.6485
 1457SOL    HW216005   0.532   3.537   2.673  0.0079 -0.4946  0.2151
 1458SOL     OW16006   0.771   4.691   6.638 -0.1122  0.2059  0.3661
 1458SOL    HW116007   0.695   4.695   6.696  0.0076 -1.9480  0.6551
 1458SOL    HW216008   0.851   4.712   6.688  2.8263  0.6496 -4.5270
 1459SOL     OW16009   2.139   2.785   5.379 -0.1004 -0.1099  0.1664
 1459SOL    HW116010   2.171   2.788   5.288  2.3511 -2.8616  0.9457
 1459SOL    HW216011   2.056   2.832   5.369  0.9994  1.4523 -1.6704
 1460SOL     OW16012   0.800   2.647   0.490  0.0507 -0.1617 -0.0590
 1460SOL    HW116013   0.893   2.657   0.508  0.3778 -3.6830  0.1264
 1460SOL    HW216014   0.755   2.648   0.575  1.1467  1.1992  0.4941
 1461SOL     OW16015   4.084   2.072   1.513 -0.1071  0.5994 -0.3116
 1461SOL    HW116016   4.125   2.007   1.456  1.4086  1.1873  0.0917
 1461SOL    HW216017   4.043   2.120   1.441  0.5463  0.9188 -0.4765
 1462SOL     OW16018   4.339   0.329   0.448  0.1559 -0.7457 -0.4076
 1462SOL    HW116019   4.390   0.314   0.368 -1.2887  2.0494 -1.8586
 1462SOL    HW216020   4.409   0.375   0.493 -0.1039 -1.8906  1.1840
 1463SOL     OW16021   4.397   0.769   4.040 -0.7366 -0.1204  0.1275
 1463SOL    HW116022   4.441   0.695   4.081 -1.1360  0.9860  2.5542
 1463SOL    HW216023   4.370   0.815   4.119 -0.4984 -0.6286  0.5037
 1464SOL     OW16024   1.724   1.268  11.097  0.3943  0.4198  0.2245
 1464SOL    HW116025   1.818   1.287  11.091  0.1406  1.0195 -2.0247
 1464SOL    HW216026   1.705   1.330  11.166 -0.0686  1.2539 -0.6501
 1465SOL     OW16027   0.357   1.900  16.388  0.6434  0.7627 -0.5120
 1465SOL    HW116028   0.333   1.988  16.357 -0.1390 -0.0100 -2.0973
 1465SOL    HW216029   0.304   1.847  16.329 -0.4843 -0.3741  1.5190
 1466SOL     OW16030   4.084   1.882   5.971 -0.6467  0.0013 -0.5045
 1466SOL    HW116031   4.068   1.929   6.053  1.6773 -1.0946  0.5539
 1466SOL    HW216032   4.085   1.948   5.901 -1.4709  0.9513  0.3688
 1467SOL     OW16033   1.483   3.830   6.755  0.3105  0.3450  0.0699
 1467SOL    HW116034   1.540   3.807   6.828 -2.1237  1.2878  2.2195
 1467SOL    HW216035   1.526   3.908   6.719  2.2366 -1.1034 -0.7652
 1468SOL     OW16036   2.973   0.350  14.967  0.2211  0.2782  1.0489
 1468SOL    HW116037   2.928   0.266  14.975 -0.2724  0.2626 -2.0671
 1468SOL    HW216038   3.059   0.322  14.936 -0.2137 -1.1500  1.1352
 1469SOL     OW16039   2.496   0.245   5.878 -0.8413 -0.4209  0.0270
 1469SOL    HW116040   2.437   0.170   5.879  1.6206 -2.3465  2.1114
 1469SOL    HW216041   2.434   0.317   5.881  1.2932  1.5098 -2.1221
 1470SOL     OW16042   2.278   0.172   1.478  0.4008 -0.0414 -0.4998
 1470SOL    HW116043   2.194   0.126   1.482 -0.3978  1.4105 -0.6442
 1470SOL    HW216044   2.332   0.128   1.545 -0.8664 -1.3183 -0.3152
 1471SOL     OW16045   2.016   3.280   2.727 -0.5112 -0.0760 -0.0291
 1471SOL    HW116046   2.105   3.251   2.747 -1.1696 -0.3686  2.4603
 1471SOL    HW216047   2.033   3.358   2.675  1.3810 -0.8353 -0.5231
 1472SOL     OW16048   1.679   0.824   2.428 -0.0343  0.0536  0.0995
 1472SOL    HW116049   1.652   0.915   2.412 -2.1652 -0.1057  2.8160
 1472SOL    HW216050   1.631   0.787   2.353  0.9081 -1.9148  0.4938
 1473SOL     OW16051   3.786   4.165   4.686 -0.4994  0.8015  0.0130
 1473SOL    HW116052   3.756   4.103   4.619  0.0342  0.4155  0.1335
 1473SOL    HW216053   3.824   4.236   4.635 -1.1310 -0.3340 -2.0424
 1474SOL     OW16054   3.512   3.796  11.258  1.0401 -0.1044 -0.5875
 1474SOL    HW116055   3.583   3.788  11.321  0.7098 -0.7459 -0.2874
 1474SOL    HW216056   3.522   3.888  11.234 -0.2806  0.3481  0.5356
 1475SOL     OW16057   0.858   2.135   7.897  0.0774  1.4194 -0.3241
 1475SOL    HW116058   0.907   2.216   7.904  0.0615  1.1930  2.2378
 1475SOL    HW216059   0.924   2.070   7.870  0.5732  1.5132  0.6684
 1476SOL     OW16060   1.832   1.513   3.671 -0.6968 -0.2637  0.0065
 1476SOL    HW116061   1.771   1.442   3.690 -1.1060 -0.1880 -0.9968
 1476SOL    HW216062   1.805   1.520   3.579  0.1739 -0.9357 -0.2977
 1477SOL     OW16063   1.517   3.983  16.158 -0.1810  0.0841  0.0387
 1477SOL    HW116064   1.533   4.076  16.172 -0.6433  0.2534 -0.5733
 1477SOL    HW216065   1.437   3.972  16.209  0.4125 -1.0254  0.7425
 1478SOL     OW16066   1.551   3.397   7.109  0.5308 -0.1529  0.4434
 1478SOL    HW116067   1.564   3.385   7.015 -0.8357 -0.7147  0.3205
 1478SOL    HW216068   1.602   3.325   7.147 -1.5820 -1.2845  1.1330
 1479SOL     OW16069   2.930   2.463   5.978 -0.1323 -0.0554 -0.2861
 1479SOL    HW116070   2.956   2.523   5.907  2.1353 -0.0391  0.5479
 1479SOL    HW216071   2.995   2.393   5.979  2.4075  2.2686 -1.9712
 1480SOL     OW16072   0.577   4.208   7.591  0.5303  0.6736 -0.3512
 1480SOL    HW116073   0.618   4.294   7.599  0.2298  0.8886 -1.1287
 1480SOL    HW216074   0.502   4.213   7.651 -0.0424  1.0322 -1.0887
 1481SOL     OW16075   0.870   2.804   9.510 -0.1985  0.1339  0.5636
 1481SOL    HW116076   0.891   2.893   9.483  0.3210 -0.0121  0.4853
 1481SOL    HW216077   0.896   2.800   9.602  0.2581  1.5356  0.4897
 1482SOL     OW16078   4.140   3.674  10.940 -0.5874 -0.4301  0.1737
 1482SOL    HW116079   4.172   3.757  10.905  1.1370 -0.7486  0.9585
 1482SOL    HW216080   4.217   3.651  10.992 -1.0054 -0.9155  0.5793
 1483SOL     OW16081   0.043   4.676  11.930  0.0922 -0.0308 -0.3708
 1483SOL    HW116082   0.052   4.731  12.008  0.3810  0.6398 -0.8698
 1483SOL    HW216083   0.134   4.663  11.902  0.0289  0.5410 -0.8564
 1484SOL     OW16084   2.919   4.023   4.195 -0.2047 -0.3459  0.3879
 1484SOL    HW116085   2.895   4.109   4.161 -0.3632 -0.6465 -0.2572
 1484SOL    HW216086   3.013   4.020   4.177 -0.3400  2.1928 -0.7800
 1485SOL     OW16087   1.259   0.900   8.806 -0.1633  0.3613 -0.1251
 1485SOL    HW116088   1.170   0.892   8.773  0.0992 -3.2075  0.1071
 1485SOL    HW216089   1.305   0.949   8.738  0.3661  1.2468  0.8634
 1486SOL     OW16090   0.304   1.092   7.657  0.2894 -0.1173 -0.9722
 1486SOL    HW116091   0.371   1.152   7.689  0.8078  0.0722 -2.4114
 1486SOL    HW216092   0.334   1.011   7.697  0.2619  0.6010  0.5376
 1487SOL     OW16093   1.506   4.282   7.389  0.0917 -0.4561 -0.2831
 1487SOL    HW116094   1.463   4.365   7.410  0.7662 -0.5666  1.5263
 1487SOL    HW216095   1.441   4.229   7.435 -0.0169 -0.2877 -0.2392
 1488SOL     OW16096   1.442   0.614   3.084  0.7953 -0.3761 -0.2842
 1488SOL    HW116097   1.438   0.709   3.075 -1.3314 -0.4415 -0.0243
 1488SOL    HW216098   1.525   0.585   3.046  1.3188 -0.9687  1.2956
 1489SOL     OW16099   4.085   0.144   8.059 -0.3730 -0.1012 -0.1165
 1489SOL    HW116100   4.166   0.118   8.015 -0.1815  0.0241  0.1618
 1489SOL    HW216101   4.124   0.202   8.125  0.5890  2.2740 -2.7325
 1490SOL     OW16102   4.092   4.508   6.920  0.3522 -0.1062  0.5469
 1490SOL    HW116103   4.169   4.490   6.867 -0.4566 -0.3664 -0.5509
 1490SOL    HW216104   4.032   4.474   6.854 -0.3960 -0.1274  1.2344
 1491SOL     OW16105   0.917   3.057   2.580  0.1089  0.2756  0.3980
 1491SOL    HW116106   1.010   3.039   2.590  0.1863 -0.1106 -1.0111
 1491SOL    HW216107   0.900   3.037   2.673 -1.1047 -0.6081 -0.0056
 1492SOL     OW16108   4.127   4.616   2.815 -0.5831  0.8234 -0.3231
 1492SOL    HW116109   4.197   4.571   2.862 -1.6909 -0.9663 -0.3920
 1492SOL    HW216110   4.096   4.676   2.883 -0.8933  1.2001 -0.7994
 1493SOL     OW16111   2.103   0.765   7.859 -0.3238  0.1794  0.2876
 1493SOL    HW116112   2.055   0.725   7.931  0.1820 -3.5511 -1.4609
 1493SOL    HW216113   2.042   0.823   7.815 -1.7522 -1.6832 -0.1940
 1494SOL     OW16114   2.634   2.951   6.404 -0.0891 -0.7316  0.1976
 1494SOL    HW116115   2.593   2.959   6.490  0.2356  0.1885  0.2659
 1494SOL    HW216116   2.687   2.872   6.419  2.2259  0.7781 -0.0105
 1495SOL     OW16117   3.510   1.002   5.643  0.3699 -0.2195  0.3499
 1495SOL    HW116118   3.575   0.934   5.662  2.1549  1.2051 -0.6726
 1495SOL    HW216119   3.556   1.074   5.685  1.5641 -0.1882 -1.0045
 1496SOL     OW16120   2.852   1.972   9.441 -0.0605 -0.0406  0.4395
 1496SOL    HW116121   2.943   1.970   9.470  1.4087  0.7918 -4.0209
 1496SOL    HW216122   2.798   2.008   9.511  0.0422  1.8289 -0.4301
 1497SOL     OW16123   2.158   3.772   7.117 -0.5698 -0.3460 -0.0390
 1497SOL    HW116124   2.145   3.735   7.205  2.0602 -1.2716 -0.0417
 1497SOL    HW216125   2.136   3.703   7.054  1.7306 -1.1261  0.0009
 1498SOL     OW16126   1.754   4.611   6.534 -0.1925  0.7142  0.2710
 1498SOL    HW116127   1.690   4.548   6.568  2.1127 -2.7991 -1.9751
 1498SOL    HW216128   1.804   4.632   6.613  1.1713 -2.9248  0.3477
 1499SOL     OW16129   1.568   3.321  13.462 -0.0622  0.2406  0.1391
 1499SOL    HW116130   1.657   3.287  13.471  0.8305  2.8538  1.2080
 1499SOL    HW216131   1.583   3.406  13.421  0.3233 -0.8423 -1.9556
 1500SOL     OW16132   1.071   3.667   6.034 -0.1760 -0.0022  0.8689
 1500SOL    HW116133   1.076   3.641   6.126 -0.6519 -0.4412  0.7695
 1500SOL    HW216134   1.064   3.762   6.045 -2.0447 -0.0357  0.0133
 1501SOL     OW16135   0.975   3.925   1.558 -0.0013  0.0405  0.2382
 1501SOL    HW116136   1.044   3.860   1.576  0.7800  0.9907  0.6906
 1501SOL    HW216137   0.970   3.929   1.463  0.7613 -1.7112  0.1264
 1502SOL     OW16138   2.970   3.246  12.311  0.2364 -0.7570 -0.1511
 1502SOL    HW116139   2.979   3.307  12.384  3.2676  1.7352 -2.5958
 1502SOL    HW216140   2.916   3.304  12.256 -0.6415 -1.0780  0.3674
 1503SOL     OW16141   2.227   3.475  12.074 -0.3917  0.4482  0.3174
 1503SOL    HW116142   2.146   3.465  12.125  1.1738 -2.5760  2.1605
 1503SOL    HW216143   2.182   3.498  11.992 -3.0332 -0.3238  1.5408
 1504SOL     OW16144   3.195   2.388   0.843 -0.3247 -0.6224  0.4594
 1504SOL    HW116145   3.284   2.373   0.811  0.1307 -1.7942  2.2857
 1504SOL    HW216146   3.146   2.383   0.761 -1.6270  0.0325  1.1971
 1505SOL     OW16147   3.783   1.268   2.189  0.0090 -0.1123  0.0903
 1505SOL    HW116148   3.716   1.220   2.141 -1.4236  1.7232  0.2601
 1505SOL    HW216149   3.861   1.250   2.137 -0.2126  2.0259 -0.9913
 1506SOL     OW16150   1.446   4.280   8.250  0.0747 -0.2864 -0.0613
 1506SOL    HW116151   1.411   4.191   8.242  0.9504 -0.7959  1.9776
 1506SOL    HW216152   1.408   4.299   8.335 -0.3812 -2.3909  0.1815
 1507SOL     OW16153   4.556   0.969   6.446  0.2415 -0.1427  0.3983
 1507SOL    HW116154   4.488   0.913   6.408 -0.7091 -0.3250  2.3513
 1507SOL    HW216155   4.517   0.986   6.532 -0.0334 -0.8660  0.4217
 1508SOL     OW16156   3.861   3.090   6.075 -0.1691  0.0774  0.0031
 1508SOL    HW116157   3.829   3.000   6.065 -0.7988  0.1690  1.2280
 1508SOL    HW216158   3.778   3.127   6.044  0.8805  0.9927 -1.7705
 1509SOL     OW16159   0.128   0.625   4.612 -0.8248  0.7845 -0.3655
 1509SOL    HW116160   0.148   0.567   4.539 -2.9350  1.5949 -1.5817
 1509SOL    HW216161   0.157   0.576   4.689  0.8564  1.3306 -0.6321
 1510SOL     OW16162   1.541   0.401  12.078 -0.0069 -0.1308  0.3756
 1510SOL    HW116163   1.519   0.309  12.068 -0.0468 -0.0262 -0.4777
 1510SOL    HW216164   1.463   0.442  12.038  1.0063 -0.0949 -1.5524
 1511SOL     OW16165   4.093   3.260   8.296 -0.3648  0.7835  0.9585
 1511SOL    HW116166   4.150   3.241   8.222 -1.4323  0.4511  0.2327
 1511SOL    HW216167   4.063   3.347   8.270 -0.7227  0.6107  0.8071
 1512SOL     OW16168   1.828   2.600   4.317  0.0601 -0.2106  0.3804
 1512SOL    HW116169   1.797   2.561   4.399 -2.2279 -1.2810 -0.9933
 1512SOL    HW216170   1.878   2.678   4.341 -3.1815  1.7473  0.7295
 1513SOL     OW16171   3.995   0.488   1.383 -0.1092 -0.1952  0.1478
 1513SOL    HW116172   3.901   0.474   1.371 -0.2707  0.7748  0.2685
 1513SOL    HW216173   4.003   0.584   1.379  2.1164 -0.3715  0.3163
 1514SOL     OW16174   0.386   2.035   6.149  0.1832 -0.3416 -0.2135
 1514SOL    HW116175   0.459   1.980   6.176  2.2553  1.5830 -1.9087
 1514SOL    HW216176   0.425   2.122   6.138 -3.3946  1.2346 -0.3413
 1515SOL     OW16177   2.066   0.452   1.751  0.1981  0.3102 -0.0089
 1515SOL    HW116178   2.023   0.535   1.773 -2.7039 -1.1672 -0.1125
 1515SOL    HW216179   2.004   0.405   1.697 -1.2108  0.9613  1.0297
 1516SOL     OW16180   1.041   0.408   4.764  0.3672 -0.6171  0.6513
 1516SOL    HW116181   0.964   0.351   4.768 -0.1935  0.0859 -0.2209
 1516SOL    HW216182   1.027   0.470   4.692 -0.8206  0.5357  1.8617
 1517SOL     OW16183   2.815   1.258   6.731  0.5534 -0.4462  0.0605
 1517SOL    HW116184   2.851   1.170   6.748  2.5434  0.7933  2.2375
 1517SOL    HW216185   2.816   1.258   6.635 -1.0975 -2.3659  0.0342
 1518SOL     OW16186   1.704   0.024   0.407 -0.0470 -0.2717 -0.2193
 1518SOL    HW116187   1.733   4.697   0.468  1.3224  1.2059  0.7815
 1518SOL    HW216188   1.676   4.697   0.345  1.3194 -0.2337 -0.8798
 1519SOL     OW16189   0.293   0.227   3.553  0.2701 -0.0452  0.3270
 1519SOL    HW116190   0.326   0.209   3.465  0.8094  0.3078  0.4601
 1519SOL    HW216191   0.274   0.321   3.555  0.0658 -0.1014  0.9649
 1520SOL     OW16192   4.588   2.669   1.770 -0.1122  0.5417 -0.4984
 1520SOL    HW116193   4.508   2.703   1.730  0.5871  1.4223 -1.1490
 1520SOL    HW216194   4.641   2.748   1.762  1.3174 -0.5602 -1.9516
 1521SOL     OW16195   1.941   1.132   2.520  0.2508  0.2430  0.2988
 1521SOL    HW116196   1.850   1.104   2.527  0.9225 -1.7357  1.0134
 1521SOL    HW216197   1.926   1.223   2.496 -0.9834 -0.2084 -0.6387
 1522SOL     OW16198   0.121   1.160   4.910 -0.0367 -0.7974  0.6958
 1522SOL    HW116199   0.109   1.191   4.821  0.8491  0.5257  1.0312
 1522SOL    HW216200   0.035   1.155   4.953 -0.8116 -1.6904 -0.9995
 1523SOL     OW16201   0.218   3.040   9.017  0.1341  0.0097 -0.5190
 1523SOL    HW116202   0.205   3.035   8.922 -0.5665 -2.3613 -0.3146
 1523SOL    HW216203   0.311   3.062   9.024 -0.1021  0.5648  0.9484
 1524SOL     OW16204   3.036   0.462   4.475  0.5106  0.1574  0.5731
 1524SOL    HW116205   3.106   0.473   4.410 -1.1437 -1.7215 -1.5536
 1524SOL    HW216206   2.962   0.508   4.436  0.8963  1.0502  0.9054
 1525SOL     OW16207   3.843   0.620   3.291  0.4405 -0.2563  0.0268
 1525SOL    HW116208   3.751   0.629   3.318  0.8015  0.7748  0.8942
 1525SOL    HW216209   3.888   0.624   3.376  0.0397 -2.5949  0.3656
 1526SOL     OW16210   0.613   4.151   7.939  0.3219 -0.1773 -0.1181
 1526SOL    HW116211   0.580   4.224   7.887  0.8154  0.7034  0.8087
 1526SOL    HW216212   0.527   4.128   7.974  0.0894 -0.2487 -0.7258
 1527SOL     OW16213   1.849   4.519   0.655 -0.1567  0.6331 -0.1412
 1527SOL    HW116214   1.860   4.547   0.746 -1.2590  0.8368 -0.0760
 1527SOL    HW216215   1.765   4.476   0.668 -0.2816  1.0624  0.4783
 1528SOL     OW16216   0.376   0.261  11.441  0.4353  0.1709 -0.1284
 1528SOL    HW116217   0.460   0.215  11.443  0.6724  0.5472 -1.0069
 1528SOL    HW216218   0.397   0.329  11.505  1.3353  0.7581 -1.0208
 1529SOL     OW16219   1.519   2.235   1.612 -0.4887 -1.0272  0.0852
 1529SOL    HW116220   1.501   2.234   1.706  0.7419 -0.4141  0.3358
 1529SOL    HW216221   1.504   2.328   1.593  0.5368 -0.6258  1.2830
 1530SOL     OW16222   4.108   4.164   4.462  0.2383 -0.1936  0.0742
 1530SOL    HW116223   4.115   4.147   4.369 -0.4611 -1.4909  0.2573
 1530SOL    HW216224   4.057   4.246   4.462 -1.0193 -0.9712 -0.0069
 1531SOL     OW16225   0.388   2.193   3.978  0.1879  0.0683 -0.0762
 1531SOL    HW116226   0.364   2.281   3.948  1.3141 -0.0447 -1.3480
 1531SOL    HW216227   0.304   2.150   3.968  0.1765  0.2121 -0.6067
 1532SOL     OW16228   4.581   2.683   9.837  0.5770  0.2865 -0.3358
 1532SOL    HW116229   4.620   2.610   9.884 -0.3041  0.3648  0.5214
 1532SOL    HW216230   4.555   2.627   9.764  1.7938 -0.8444  0.1019
 1533SOL     OW16231   4.562   3.891   6.426 -0.3386  0.9822  0.1577
 1533SOL    HW116232   4.523   3.804   6.417 -3.6879  2.4243  0.8186
 1533SOL    HW216233   4.520   3.916   6.509 -0.8876  1.3859 -0.2385
 1534SOL     OW16234   1.011   2.118   4.943  0.3045 -0.4283 -0.0128
 1534SOL    HW116235   0.980   2.162   4.863  0.9733  2.6294  1.3933
 1534SOL    HW216236   0.939   2.137   5.003  1.4491  4.0550  0.0010
 1535SOL     OW16237   1.986   2.821   3.102  0.0987 -0.1515  0.7542
 1535SOL    HW116238   2.064   2.876   3.114  1.0143 -1.8356  2.4796
 1535SOL    HW216239   1.998   2.801   3.009  0.2434 -0.6238  0.8717
 1536SOL     OW16240   2.308   0.596   8.550 -0.1204  0.6196  0.8747
 1536SOL    HW116241   2.370   0.524   8.565 -1.3698 -0.5267  0.5672
 1536SOL    HW216242   2.323   0.618   8.458 -1.1187  1.9842  1.0414
 1537SOL     OW16243   0.232   0.181  11.738  0.2981  0.2495  0.8750
 1537SOL    HW116244   0.144   0.216  11.754 -0.0214 -0.2714  0.2503
 1537SOL    HW216245   0.278   0.257  11.702 -1.5522  1.2339  0.6182
 1538SOL     OW16246   3.199   0.160   5.048 -0.2661 -0.9272  0.1177
 1538SOL    HW116247   3.158   0.080   5.016 -0.9084 -1.0400  1.2270
 1538SOL    HW216248   3.292   0.136   5.050  0.1961  0.7381 -1.2596
 1539SOL     OW16249   4.303   4.504   0.323 -0.1812 -0.0528  0.4151
 1539SOL    HW116250   4.361   4.530   0.251 -0.6811 -0.5832 -0.1755
 1539SOL    HW216251   4.214   4.497   0.289  0.2342 -0.3947 -0.6175
 1540SOL     OW16252   2.609   2.430   6.344  0.1421 -0.2123 -0.2210
 1540SOL    HW116253   2.611   2.335   6.347  1.5273 -0.0791  2.6365
 1540SOL    HW216254   2.645   2.457   6.428 -0.2269 -0.7440  0.1092
 1541SOL     OW16255   4.099   2.561   5.677  0.4489 -0.9757  0.3547
 1541SOL    HW116256   4.063   2.525   5.758 -1.3916  0.0603  0.0113
 1541SOL    HW216257   4.127   2.647   5.711  1.4131 -2.5787  3.6044
 1542SOL     OW16258   2.077   3.870   3.340  0.6412 -0.4918  0.2189
 1542SOL    HW116259   2.064   3.887   3.247 -1.4700  0.2713  0.6383
 1542SOL    HW216260   2.139   3.937   3.367  0.7965  0.1623 -1.7658
 1543SOL     OW16261   0.157   4.252   7.458 -0.1870  0.1590  0.1094
 1543SOL    HW116262   0.083   4.255   7.398  0.4745  1.4678 -0.6499
 1543SOL    HW216263   0.152   4.336   7.504  2.3626  0.1048  0.4713
 1544SOL     OW16264   2.657   2.353   2.234  0.2634 -0.5943  0.3062
 1544SOL    HW116265   2.621   2.375   2.148 -1.5942  2.3795  1.8416
 1544SOL    HW216266   2.710   2.430   2.254  0.5923 -1.1176  1.4712
 1545SOL     OW16267   2.035   4.207   1.595 -0.0600 -0.5665 -0.4206
 1545SOL    HW116268   2.128   4.206   1.615  0.1902  0.9059 -1.4950
 1545SOL    HW216269   2.000   4.147   1.660 -0.7955 -0.0041 -0.2874
 1546SOL     OW16270   1.353   2.677   8.343 -0.7694  0.3012  0.9790
 1546SOL    HW116271   1.323   2.588   8.325 -0.0386  0.1318  0.5901
 1546SOL    HW216272   1.272   2.720   8.316 -1.4516 -0.2374  2.1526
 1547SOL     OW16273   2.574   1.224   5.162  0.4294  0.0160  0.0478
 1547SOL    HW116274   2.571   1.318   5.147  2.6489 -0.0842 -1.0491
 1547SOL    HW216275   2.615   1.191   5.082  1.7686  0.1742  0.6589
 1548SOL     OW16276   3.985   3.475   5.961  0.3334  0.1605 -0.7154
 1548SOL    HW116277   3.962   3.449   6.050  0.8843 -3.4438 -1.6157
 1548SOL    HW216278   3.963   3.402   5.904 -1.2031 -0.8836  1.2478
 1549SOL     OW16279   3.325   0.876   0.303  0.0197 -0.2616 -0.0350
 1549SOL    HW116280   3.260   0.827   0.354 -0.7536 -0.1551 -0.9158
 1549SOL    HW216281   3.390   0.806   0.291  0.4468 -0.0898  1.2496
 1550SOL     OW16282   4.221   1.337   4.388 -0.1964 -0.0210 -0.3465
 1550SOL    HW116283   4.208   1.340   4.482  3.5825 -0.6573  0.1934
 1550SOL    HW216284   4.258   1.249   4.380  0.3057  0.1390  0.1886
 1551SOL     OW16285   3.883   4.388   6.706 -0.4123 -0.1805  0.2777
 1551SOL    HW116286   3.880   4.312   6.648 -2.3236 -0.3990  0.6571
 1551SOL    HW216287   3.807   4.436   6.675 -0.6787 -0.4045  0.5814
 1552SOL     OW16288   1.538   3.532   5.096  0.3371  0.3919  0.2402
 1552SOL    HW116289   1.492   3.528   5.012  0.6610 -0.9613  0.1147
 1552SOL    HW216290   1.548   3.625   5.114 -0.5154  0.7161 -0.9551
 1553SOL     OW16291   4.218   4.054  11.528 -0.0043  0.2969 -0.1139
 1553SOL    HW116292   4.251   4.032  11.441  1.9788 -0.2188  0.7658
 1553SOL    HW216293   4.149   4.117  11.507  0.4310  0.2188 -1.8281
 1554SOL     OW16294   3.354   2.878   3.149  0.1123 -0.5645 -0.1925
 1554SOL    HW116295   3.318   2.794   3.180 -1.3690  0.4629  0.8836
 1554SOL    HW216296   3.439   2.865   3.108 -1.5375  1.5397 -4.2544
 1555SOL     OW16297   1.565   2.818  14.991 -0.2699 -0.3706 -0.1992
 1555SOL    HW116298   1.494   2.880  14.978 -0.4615 -0.2418  1.4304
 1555SOL    HW216299   1.532   2.740  15.036 -1.0194 -0.3103 -0.6556
 1556SOL     OW16300   0.133   1.012  10.623 -0.0924  0.5386  0.1903
 1556SOL    HW116301   0.211   1.059  10.595  1.1390 -0.8532  1.2573
 1556SOL    HW216302   0.078   1.023  10.546  0.2834 -1.0308 -0.2995
 1557SOL     OW16303   1.474   1.471  14.868 -0.1069 -0.3283 -0.2961
 1557SOL    HW116304   1.478   1.553  14.819  0.9756  0.4773  1.1588
 1557SOL    HW216305   1.382   1.448  14.859 -0.5583  0.8424  1.3274
 1558SOL     OW16306   0.124   3.503  16.383 -0.0090 -0.1993 -0.2980
 1558SOL    HW116307   0.114   3.431  16.446 -0.1468  0.0012 -0.0927
 1558SOL    HW216308   0.174   3.457  16.316  3.0468 -2.8836  3.8127
 1559SOL     OW16309   0.408   3.538   5.811  0.1504  0.2111 -0.1512
 1559SOL    HW116310   0.316   3.536   5.786  0.2435  0.6928 -0.5408
 1559SOL    HW216311   0.402   3.545   5.906  2.1077 -0.1931  0.0154
 1560SOL     OW16312   2.898   0.531   4.058 -0.0430 -0.0957  0.6322
 1560SOL    HW116313   2.807   0.534   4.030  0.2321  1.2946 -0.0974
 1560SOL    HW216314   2.907   0.452   4.112 -0.1995 -0.6194 -0.1040
 1561SOL     OW16315   1.921   3.402   0.275 -0.1334  0.4922 -1.3275
 1561SOL    HW116316   1.923   3.353   0.357 -1.5431 -1.8246 -2.6648
 1561SOL    HW216317   1.951   3.486   0.309  2.3290 -0.3497 -1.3872
 1562SOL     OW16318   4.239   0.509   4.657 -0.0518 -0.8784 -0.2330
 1562SOL    HW116319   4.167   0.472   4.606 -1.9796 -0.9915  2.6003
 1562SOL    HW216320   4.213   0.457   4.733 -0.6554 -1.6951 -1.0053
 1563SOL     OW16321   0.373   0.438  11.653  0.2220 -0.0114 -0.1515
 1563SOL    HW116322   0.313   0.508  11.678 -0.7425 -0.4490 -1.2352
 1563SOL    HW216323   0.450   0.471  11.699 -0.7488 -2.8586  3.6026
 1564SOL     OW16324   1.294   1.886   3.822 -0.1290  0.2104 -0.3063
 1564SOL    HW116325   1.261   1.801   3.850  0.2242  0.1438 -0.0873
 1564SOL    HW216326   1.343   1.865   3.742 -0.3575 -0.3987 -0.2902
 1565SOL     OW16327   3.658   0.870   8.536 -0.6344 -0.0759 -0.2458
 1565SOL    HW116328   3.641   0.813   8.612  1.6526  1.4683  1.4339
 1565SOL    HW216329   3.748   0.897   8.556 -0.4149  0.3738 -1.8857
 1566SOL     OW16330   3.146   3.354  11.819 -0.2243  0.3495  0.3442
 1566SOL    HW116331   3.158   3.424  11.755  1.1659  0.8764  1.1615
 1566SOL    HW216332   3.199   3.285  11.778 -4.3682 -1.9375 -1.1132
 1567SOL     OW16333   3.248   4.491  17.043 -0.3922 -0.0106 -0.1006
 1567SOL    HW116334   3.171   4.451  17.083 -0.4969 -1.3974 -1.6741
 1567SOL    HW216335   3.207   4.535  16.969 -2.5335  0.0906  1.1320
 1568SOL     OW16336   2.510   2.155   5.160  0.7496 -0.2462 -0.2212
 1568SOL    HW116337   2.571   2.093   5.199 -0.4602 -0.5286  1.2677
 1568SOL    HW216338   2.436   2.151   5.221  0.3331  0.8619 -0.6458
 1569SOL     OW16339   3.839   3.372   5.184 -0.7740 -0.1259  0.0356
 1569SOL    HW116340   3.864   3.303   5.245 -1.1975 -0.8901 -0.6552
 1569SOL    HW216341   3.782   3.420   5.243  1.3563  1.3851  0.8504
 1570SOL     OW16342   0.987   2.917  14.236  0.0271 -0.1772  0.4078
 1570SOL    HW116343   0.976   2.997  14.185  1.1891 -1.9598 -2.6234
 1570SOL    HW216344   1.007   2.854  14.167 -1.4731  1.3492 -1.3900
 1571SOL     OW16345   4.018   1.206   3.438  0.0168 -0.1544  0.4707
 1571SOL    HW116346   3.959   1.196   3.362  0.5029 -0.7667  0.1735
 1571SOL    HW216347   4.035   1.299   3.421 -0.3963  0.2989  2.5456
 1572SOL     OW16348   3.569   1.591   6.807 -0.3422 -0.0569 -0.5638
 1572SOL    HW116349   3.622   1.542   6.744 -0.3752 -0.6914 -0.1004
 1572SOL    HW216350   3.514   1.531   6.856  2.2438 -0.5280  1.7881
 1573SOL     OW16351   1.549   0.195   8.300  0.7384 -0.2145  0.4691
 1573SOL    HW116352   1.622   0.181   8.240  0.1005 -1.2648 -0.0535
 1573SOL    HW216353   1.471   0.169   8.251  1.1319 -0.1885 -0.1790
 1574SOL     OW16354   0.031   0.819   3.249 -0.6607 -0.0489  0.1960
 1574SOL    HW116355   0.087   0.816   3.172 -2.1423  0.2283 -0.9107
 1574SOL    HW216356   4.725   0.903   3.241 -2.0473 -0.8785 -0.6163
 1575SOL     OW16357   3.928   1.117   5.859 -0.2907  0.1363  0.6785
 1575SOL    HW116358   3.916   1.208   5.831 -3.1853 -0.2091  0.8413
 1575SOL    HW216359   3.954   1.125   5.951 -0.1450  1.6486  0.5136
 1576SOL     OW16360   4.374   1.081   0.725  0.2404 -0.5397  0.3092
 1576SOL    HW116361   4.464   1.069   0.694  0.7525  1.7357  0.9138
 1576SOL    HW216362   4.318   1.023   0.673 -2.0217 -0.0737  2.2236
 1577SOL     OW16363   2.927   3.798   7.771  0.1330  0.2111 -0.0193
 1577SOL    HW116364   2.848   3.745   7.784 -0.3477  1.0424  0.4158
 1577SOL    HW216365   2.895   3.877   7.727 -2.2263 -0.4317  0.5407
 1578SOL     OW16366   3.407   4.224   2.024  0.0165 -0.0508  0.3746
 1578SOL    HW116367   3.331   4.281   2.038  1.7255  2.0782  0.8311
 1578SOL    HW216368   3.376   4.188   1.940  0.1734  0.3923  0.1281
 1579SOL     OW16369   3.250   2.721   9.193 -0.4184  0.4634 -0.1155
 1579SOL    HW116370   3.180   2.695   9.253 -0.0422 -0.8009 -0.2287
 1579SOL    HW216371   3.211   2.725   9.106  2.7631 -1.9804 -1.6464
 1580SOL     OW16372   2.658   3.351   5.380 -0.1644 -0.6737  0.1328
 1580SOL    HW116373   2.613   3.416   5.434 -1.5965 -1.2117 -0.4136
 1580SOL    HW216374   2.746   3.390   5.373 -0.7614  0.6172 -0.1437
 1581SOL     OW16375   1.027   4.179   0.265  0.3665 -0.2007  0.0306
 1581SOL    HW116376   0.974   4.149   0.191 -0.7151 -0.1020  0.7610
 1581SOL    HW216377   1.004   4.109   0.326  1.8641 -0.7895 -0.0879
 1582SOL     OW16378   3.278   2.659   4.634 -1.0134  0.1176 -0.3577
 1582SOL    HW116379   3.333   2.600   4.686 -0.9439 -0.9928 -1.6891
 1582SOL    HW216380   3.346   2.682   4.570 -1.0704  1.0806 -0.0647
 1583SOL     OW16381   1.671   0.128   3.813  0.1867  0.8906  0.3375
 1583SOL    HW116382   1.608   0.059   3.831  1.7115 -0.2595  1.2642
 1583SOL    HW216383   1.649   0.190   3.883  2.3851  1.7110  0.2908
 1584SOL     OW16384   0.275   1.276  10.084  0.2281  0.7813  0.0924
 1584SOL    HW116385   0.350   1.304  10.137 -1.9800  1.5280  2.8537
 1584SOL    HW216386   0.200   1.316  10.128  1.3031  1.2079  1.5489
 1585SOL     OW16387   1.108   2.285   5.892  0.1897  0.0001 -0.2341
 1585SOL    HW116388   1.035   2.225   5.880  0.8780 -0.9713  0.4777
 1585SOL    HW216389   1.061   2.368   5.879 -0.1063 -0.2161 -0.5451
 1586SOL     OW16390   0.852   0.634  11.898  0.4023 -0.6093 -0.4084
 1586SOL    HW116391   0.776   0.692  11.896  0.7978 -0.0348  0.9337
 1586SOL    HW216392   0.898   0.670  11.973 -0.3834  0.7586 -0.5873
 1587SOL     OW16393   2.487   0.003   6.902 -0.3787 -0.0691  0.9692
 1587SOL    HW116394   2.468   4.737   6.995 -1.1274  0.7810  0.8769
 1587SOL    HW216395   2.520   0.092   6.917 -1.5922  0.5728 -0.1847
 1588SOL     OW16396   0.396   4.475   0.747  0.3534 -0.5418  0.1620
 1588SOL    HW116397   0.376   4.455   0.838  1.4730 -1.7724  0.1370
 1588SOL    HW216398   0.491   4.466   0.753  0.2947 -1.6675 -0.6794
 1589SOL     OW16399   0.705   1.060   2.638  0.5097 -0.2906 -0.1926
 1589SOL    HW116400   0.750   0.983   2.602  0.3955 -0.5800  0.2897
 1589SOL    HW216401   0.670   1.107   2.562 -1.4966  0.4724  1.2331
 1590SOL     OW16402   0.520   1.677  14.058  0.0637 -0.4639  0.1440
 1590SOL    HW116403   0.518   1.585  14.084 -1.9090  0.2180  2.3822
 1590SOL    HW216404   0.468   1.677  13.977 -0.1120 -0.3700  0.2566
 1591SOL     OW16405   4.441   2.688   5.385 -0.3275 -0.5627 -0.1422
 1591SOL    HW116406   4.441   2.758   5.320 -2.0327  1.6534  2.2583
 1591SOL    HW216407   4.482   2.614   5.340  0.7525  0.8812 -1.4924
 1592SOL     OW16408   1.024   0.121  16.672 -0.1903 -0.1248  0.4737
 1592SOL    HW116409   0.969   0.043  16.678  0.7442 -0.8423 -0.2685
 1592SOL    HW216410   1.099   0.101  16.727  1.5769 -1.4996 -2.4499
 1593SOL     OW16411   1.210   2.011  10.239  0.2806  0.1842  0.1504
 1593SOL    HW116412   1.184   2.058  10.160 -0.7758  0.2237  0.5197
 1593SOL    HW216413   1.275   2.066  10.282  0.7090 -1.1160  1.1539
 1594SOL     OW16414   2.355   2.677  14.620 -0.0313  0.2930 -0.1265
 1594SOL    HW116415   2.264   2.685  14.649  0.8574  1.5576  2.3707
 1594SOL    HW216416   2.377   2.762  14.658  0.1475  0.1796  0.0234
 1595SOL     OW16417   2.738   3.199   6.734 -0.2215 -0.1590  0.4768
 1595SOL    HW116418   2.729   3.152   6.817  0.0709  0.4903  0.8676
 1595SOL    HW216419   2.826   3.167   6.713 -0.1561  0.4572 -0.1819
 1596SOL     OW16420   0.333   2.518   3.130  0.1044 -0.4133  0.5018
 1596SOL    HW116421   0.282   2.442   3.104 -1.7872  0.7920  0.6917
 1596SOL    HW216422   0.420   2.477   3.129  0.5191  0.4902 -0.1401
 1597SOL     OW16423   4.044   3.451  16.974 -0.3661 -0.6270  0.0611
 1597SOL    HW116424   4.113   3.416  17.030  0.8470  0.9355 -0.4345
 1597SOL    HW216425   4.048   3.545  16.996 -0.7370 -1.2157  2.6790
 1598SOL     OW16426   2.588   0.892   1.220  0.1956 -0.1725  0.0809
 1598SOL    HW116427   2.677   0.867   1.247 -0.0509 -1.6788 -0.5478
 1598SOL    HW216428   2.541   0.875   1.302 -1.5345 -1.2586 -1.1427
 1599SOL     OW16429   1.014   4.737   3.371  0.1014  0.0687 -0.1474
 1599SOL    HW116430   1.091   0.050   3.350 -0.5646  0.6636 -1.0634
 1599SOL    HW216431   0.945   0.063   3.363 -1.8591 -1.6636  2.3586
 1600SOL     OW16432   4.499   1.891  17.740 -0.1211  0.1421 -1.1567
 1600SOL    HW116433   4.580   1.861   0.023 -2.2364 -1.9555  1.4751
 1600SOL    HW216434   4.492   1.826  17.670  0.6919 -1.1158 -0.0851
 1601SOL     OW16435   0.946   2.693   3.565 -0.0772 -0.3667  0.0927
 1601SOL    HW116436   0.921   2.647   3.645  0.8022 -1.7636 -0.4445
 1601SOL    HW216437   0.977   2.618   3.515  0.0485 -1.2261  1.4802
 1602SOL     OW16438   2.364   4.129  17.728  0.4611  0.2565 -0.0096
 1602SOL    HW116439   2.328   4.138  17.640 -0.3672 -0.0488  0.3010
 1602SOL    HW216440   2.399   4.040  17.730 -0.8050 -0.3073 -2.4440
 1603SOL     OW16441   4.076   0.887   7.353  0.2192  0.2797 -0.0366
 1603SOL    HW116442   4.138   0.936   7.408  1.0679 -0.3050 -0.4749
 1603SOL    HW216443   4.134   0.815   7.327  1.2553  1.0754  0.0602
 1604SOL     OW16444   1.764   0.845   8.489  0.1916 -0.0812 -0.2452
 1604SOL    HW116445   1.754   0.876   8.579  0.0181 -0.6697 -0.0609
 1604SOL    HW216446   1.693   0.897   8.451  1.9739  2.4559 -0.1644
 1605SOL     OW16447   4.534   3.146   8.935  0.0040  0.2182 -0.0941
 1605SOL    HW116448   4.589   3.077   8.972 -0.2501  0.0299 -0.0715
 1605SOL    HW216449   4.539   3.129   8.841 -0.7907 -2.3051  0.3326
 1606SOL     OW16450   2.200   4.598  17.357  0.0205 -0.0439 -0.0101
 1606SOL    HW116451   2.237   4.681  17.326 -0.3735 -0.0617 -0.5302
 1606SOL    HW216452   2.115   4.577  17.317 -0.1260  0.8472 -0.1719
 1607SOL     OW16453   2.388   1.456   1.783  0.0076 -0.3818 -0.3622
 1607SOL    HW116454   2.471   1.427   1.823 -0.3702 -1.1842 -0.1612
 1607SOL    HW216455   2.404   1.550   1.793  0.5766 -0.4553 -0.5502
 1608SOL     OW16456   0.614   3.719   1.781 -0.3228 -0.0307  0.0842
 1608SOL    HW116457   0.535   3.675   1.750 -0.2264 -1.2707  1.5876
 1608SOL    HW216458   0.672   3.685   1.714 -1.1279  0.0032 -0.6283
 1609SOL     OW16459   2.266   0.320   1.922 -0.0281 -0.4012  0.3981
 1609SOL    HW116460   2.264   0.391   1.986 -0.2836  2.7511 -3.1176
 1609SOL    HW216461   2.200   0.358   1.865 -2.3769 -1.3260  2.4980
 1610SOL     OW16462   0.002   2.595  10.760 -0.1124  0.0404  0.0195
 1610SOL    HW116463   4.740   2.616  10.853  1.8877  1.2064 -0.1892
 1610SOL    HW216464   4.678   2.524  10.755 -1.1993  1.1654 -1.9647
 1611SOL     OW16465   4.382   2.940   4.638  0.0557  0.1388  0.1611
 1611SOL    HW116466   4.289   2.962   4.647  0.7895  2.3619  2.2368
 1611SOL    HW216467   4.375   2.908   4.548  0.2669  1.5948 -0.3672
 1612SOL     OW16468   2.564   0.164   7.498 -0.0114 -0.2448 -0.2109
 1612SOL    HW116469   2.510   0.242   7.487  0.0908  0.3476  3.5785
 1612SOL    HW216470   2.595   0.153   7.408  2.1991  1.0912  0.3784
 1613SOL     OW16471   3.141   2.770   4.888 -0.0063 -0.1058 -0.6778
 1613SOL    HW116472   3.193   2.724   4.822 -1.9560 -0.0439 -2.2433
 1613SOL    HW216473   3.061   2.717   4.882 -0.1598  0.3166 -2.2595
 1614SOL     OW16474   4.658   1.826  11.666 -0.1566  0.4338  0.3084
 1614SOL    HW116475   0.010   1.837  11.689  0.3724 -1.9858 -0.6780
 1614SOL    HW216476   4.657   1.736  11.634  1.3039  1.2748 -2.0928
 1615SOL     OW16477   3.050   0.966   1.781 -0.0257 -0.3393  0.1987
 1615SOL    HW116478   3.053   1.053   1.822 -0.0168  0.4374 -1.4291
 1615SOL    HW216479   3.135   0.927   1.801  0.6721  1.3014  0.4908
 1616SOL     OW16480   1.394   3.857   9.966  0.4478  0.3565 -0.2553
 1616SOL    HW116481   1.446   3.781   9.938 -0.7664 -0.9140  0.9395
 1616SOL    HW216482   1.324   3.807  10.008  0.5383 -0.5102 -1.1414
 1617SOL     OW16483   3.487   4.379   2.642  0.1143 -0.0234  0.3275
 1617SOL    HW116484   3.401   4.365   2.682  0.5786 -2.0284  0.6029
 1617SOL    HW216485   3.549   4.382   2.715  0.6521  1.1074 -0.1700
 1618SOL     OW16486   2.785   2.750   3.001  0.2054 -0.0371 -0.0672
 1618SOL    HW116487   2.795   2.834   3.045  0.6440 -1.1424  1.9234
 1618SOL    HW216488   2.793   2.775   2.908  0.3879 -0.4811 -0.1726
 1619SOL     OW16489   2.342   0.407   9.060 -0.3867  0.1963 -0.4377
 1619SOL    HW116490   2.279   0.420   8.989 -1.6092 -0.9958  0.4153
 1619SOL    HW216491   2.335   0.313   9.077  1.1125  0.7144  3.1025
 1620SOL     OW16492   0.869   1.337   2.480  0.7267 -0.1473 -0.3789
 1620SOL    HW116493   0.777   1.315   2.494  1.0615 -0.8245  0.7653
 1620SOL    HW216494   0.895   1.290   2.401  0.8368 -2.3601  0.9562
 1621SOL     OW16495   0.246   3.678   8.376  0.6025 -0.1581 -0.0492
 1621SOL    HW116496   0.317   3.614   8.380  0.6618 -0.0352  0.7452
 1621SOL    HW216497   0.171   3.624   8.402  0.4790  0.3014  0.5378
 1622SOL     OW16498   0.365   4.629  13.008  0.5209 -0.2795 -0.3402
 1622SOL    HW116499   0.441   4.603  13.061  0.1125 -0.2795  0.2428
 1622SOL    HW216500   0.303   4.653  13.076 -0.0968 -1.7935 -0.3785
 1623SOL     OW16501   2.346   0.402  17.423  0.4181 -0.2174 -0.5052
 1623SOL    HW116502   2.431   0.430  17.391  0.7895 -1.2387 -0.4163
 1623SOL    HW216503   2.378   0.336  17.485 -0.3319 -0.4715 -0.3845
 1624SOL     OW16504   0.211   2.263   7.006 -0.4686  0.4067 -0.1692
 1624SOL    HW116505   0.204   2.291   7.097  0.8340  0.3637 -0.0590
 1624SOL    HW216506   0.277   2.194   7.008 -0.6545  0.1361 -2.9786
 1625SOL     OW16507   1.706   4.246   9.324 -0.1551  0.1929  0.9215
 1625SOL    HW116508   1.693   4.324   9.377  1.2722  1.2143 -0.2093
 1625SOL    HW216509   1.773   4.200   9.376  1.0127  1.5121  0.5941
 1626SOL     OW16510   3.793   1.352  11.267  0.1130  0.3932 -0.3772
 1626SOL    HW116511   3.809   1.271  11.219 -0.0685  0.3426 -0.3495
 1626SOL    HW216512   3.698   1.344  11.264  0.1346 -0.4827  1.9115
 1627SOL     OW16513   0.209   4.340   1.030 -0.1903  0.0860 -0.7367
 1627SOL    HW116514   0.177   4.429   1.017  0.7061  0.4947 -0.1801
 1627SOL    HW216515   0.300   4.362   1.052  0.5308 -3.2377 -0.3571
 1628SOL     OW16516   0.834   1.846   0.773 -0.3923 -0.1201  0.5363
 1628SOL    HW116517   0.808   1.779   0.836 -0.5747 -1.5392 -1.0566
 1628SOL    HW216518   0.854   1.917   0.835  1.1506  0.6557 -0.8607
 1629SOL     OW16519   2.323   0.174  17.071 -0.0363 -0.3856 -0.6503
 1629SOL    HW116520   2.272   0.093  17.061 -1.8054  0.8039 -1.2106
 1629SOL    HW216521   2.276   0.204  17.149  1.1751  0.7415 -0.3568
 1630SOL     OW16522   4.666   4.107   0.161 -0.0187 -0.8638 -0.5901
 1630SOL    HW116523   4.736   4.165   0.132  1.4739 -2.7904 -0.8286
 1630SOL    HW216524   4.716   4.050   0.220  0.0696  0.4909  0.6525
 1631SOL     OW16525   0.600   3.608   5.183  0.4118  0.2449  0.0269
 1631SOL    HW116526   0.660   3.562   5.242  1.1456  1.1074 -0.0527
 1631SOL    HW216527   0.541   3.645   5.249 -0.2451 -2.0592  0.7012
 1632SOL     OW16528   1.997   3.663   2.301  0.8099 -0.4245  0.0218
 1632SOL    HW116529   1.967   3.581   2.340  1.2630 -0.4798  0.2589
 1632SOL    HW216530   2.089   3.643   2.320  1.7411  4.1748  0.2427
 1633SOL     OW16531   4.400   4.051  14.556 -0.2051 -0.4274 -0.0071
 1633SOL    HW116532   4.335   4.065  14.625  0.8262  2.2329  0.4105
 1633SOL    HW216533   4.441   4.136  14.570 -2.5335  0.6368  0.4514
 1634SOL     OW16534   2.424   4.689   5.220 -0.2239  0.0757 -0.7178
 1634SOL    HW116535   2.355   4.686   5.153 -0.6318 -0.1893 -0.2912
 1634SOL    HW216536   2.439   4.598   5.247  1.1688  0.8404  1.0713
 1635SOL     OW16537   2.319   1.907  13.865 -0.2507 -0.2454 -0.5603
 1635SOL    HW116538   2.234   1.950  13.860 -0.0941  0.3031  1.4152
 1635SOL    HW216539   2.296   1.831  13.812 -0.6814  0.0910 -0.8554
 1636SOL     OW16540   1.977   3.180   4.708 -0.7553  0.1370  0.2801
 1636SOL    HW116541   1.917   3.182   4.782  1.7271 -1.8222  2.3155
 1636SOL    HW216542   1.919   3.192   4.632  2.3498  2.1583 -1.7738
 1637SOL     OW16543   1.652   3.093   2.384  0.5221 -0.5197 -0.0548
 1637SOL    HW116544   1.732   3.109   2.434  0.6951  1.9347 -1.1117
 1637SOL    HW216545   1.632   3.182   2.353 -0.4953 -0.5433  0.5273
 1638SOL     OW16546   0.421   4.312   5.643  0.8345 -0.1946 -0.2271
 1638SOL    HW116547   0.333   4.343   5.624  1.7488  1.5582 -1.6380
 1638SOL    HW216548   0.446   4.281   5.556 -0.1481  1.3271 -1.0379
 1639SOL     OW16549   4.053   3.011  15.427 -0.0932  0.0513 -0.0401
 1639SOL    HW116550   3.987   3.063  15.380 -2.5140 -0.5094  2.7196
 1639SOL    HW216551   4.028   3.047  15.512  2.6334  0.6024  0.5398
 1640SOL     OW16552   4.125   3.855   1.928 -0.6676  0.0346 -0.3745
 1640SOL    HW116553   4.037   3.819   1.926 -2.1539  3.6812 -0.4486
 1640SOL    HW216554   4.172   3.780   1.891  0.2712  0.0564  0.7745
 1641SOL     OW16555   4.190   4.078   3.436  0.3548 -0.0930  0.0271
 1641SOL    HW116556   4.173   4.164   3.398 -1.7839 -0.7217 -0.4354
 1641SOL    HW216557   4.279   4.105   3.459  0.5748 -0.0535 -0.8499
 1642SOL     OW16558   1.459   1.702   7.227 -0.0077  0.0006  0.3342
 1642SOL    HW116559   1.454   1.612   7.259  0.9096  0.4501  1.6913
 1642SOL    HW216560   1.550   1.721   7.247  0.0419 -0.7596  0.8331
 1643SOL     OW16561   0.788   1.493   1.773  0.3589 -0.1640 -0.0880
 1643SOL    HW116562   0.772   1.453   1.688 -2.5467  1.2712 -0.2134
 1643SOL    HW216563   0.823   1.580   1.756  0.6170  0.1299  1.9761
 1644SOL     OW16564   3.681   2.355   7.557 -0.1885  0.8938 -0.2009
 1644SOL    HW116565   3.664   2.263   7.577  0.0158  0.5897 -1.4520
 1644SOL    HW216566   3.679   2.385   7.648  1.1752 -0.6865  0.3403
 1645SOL     OW16567   1.696   3.698  16.128  0.5517  0.4885 -0.3057
 1645SOL    HW116568   1.628   3.764  16.112  0.0606 -0.6720 -2.9913
 1645SOL    HW216569   1.681   3.685  16.221 -0.3915 -0.0849 -0.5273
 1646SOL     OW16570   1.144   3.935  16.620 -0.5556 -0.3385 -0.0912
 1646SOL    HW116571   1.151   4.027  16.647  0.2561  0.2677 -2.3245
 1646SOL    HW216572   1.066   3.905  16.667 -0.6481  0.3186  0.1709
 1647SOL     OW16573   3.834   1.129   2.558  0.2180  0.2662 -0.0963
 1647SOL    HW116574   3.892   1.092   2.624 -0.3819 -1.1014 -0.3376
 1647SOL    HW216575   3.819   1.215   2.597 -1.4734 -0.5791  1.1011
 1648SOL     OW16576   3.242   0.826   9.403 -0.1819  0.1862  0.5108
 1648SOL    HW116577   3.214   0.913   9.375  3.3981  1.1371 -0.0917
 1648SOL    HW216578   3.166   0.774   9.375 -1.4631  2.7127 -0.7657
 1649SOL     OW16579   0.321   2.666   0.125 -0.6967 -0.6363  0.2484
 1649SOL    HW116580   0.322   2.629   0.213  1.8880  0.9277  0.8618
 1649SOL    HW216581   0.393   2.612   0.091  0.4437  2.0425 -1.5793
 1650SOL     OW16582   3.978   0.888   1.590 -0.3796 -0.0353  0.4892
 1650SOL    HW116583   3.942   0.891   1.501  0.9290  2.0553  0.0265
 1650SOL    HW216584   4.044   0.957   1.587 -0.2211 -0.2746 -1.4307
 1651SOL     OW16585   2.303   3.465   4.098 -0.3943 -0.1364 -0.3118
 1651SOL    HW116586   2.256   3.481   4.017 -0.5157  0.8587 -0.0424
 1651SOL    HW216587   2.287   3.372   4.113 -1.4588  0.4646  2.4223
 1652SOL     OW16588   0.394   3.669   5.417  0.0446 -0.0037  0.0253
 1652SOL    HW116589   0.322   3.678   5.355  0.2410 -2.2199 -0.5090
 1652SOL    HW216590   0.409   3.758   5.448 -1.1826  0.2903 -0.2151
 1653SOL     OW16591   2.338   4.309  11.474  0.7471 -0.3274  0.3072
 1653SOL    HW116592   2.303   4.394  11.449  2.6947 -0.1425 -1.7564
 1653SOL    HW216593   2.258   4.282  11.519  0.1744  3.5754  1.6172
 1654SOL     OW16594   4.690   1.558   9.483 -0.3553 -0.5964  0.4122
 1654SOL    HW116595   0.016   1.548   9.550 -1.9463 -0.5389  1.9887
 1654SOL    HW216596   4.722   1.506   9.408 -1.0748  0.9284 -0.9593
 1655SOL     OW16597   4.299   4.207   8.674  0.9628 -0.2083  0.0889
 1655SOL    HW116598   4.216   4.255   8.671 -0.1120 -1.8194  3.4338
 1655SOL    HW216599   4.294   4.161   8.758  1.3608  0.0128  0.2292
 1656SOL     OW16600   3.212   1.974  12.639 -0.1475  0.2670 -0.4003
 1656SOL    HW116601   3.270   1.968  12.715  0.4538  2.8392 -0.6609
 1656SOL    HW216602   3.134   1.929  12.672 -0.5326  1.3616  0.1662
 1657SOL     OW16603   1.396   2.672   2.911  0.3107 -0.4738 -0.2227
 1657SOL    HW116604   1.489   2.690   2.899  0.5503  0.0700  2.4128
 1657SOL    HW216605   1.371   2.734   2.979  2.1865 -0.7348  0.6846
 1658SOL     OW16606   0.357   1.069   1.855  0.1866  0.2634  0.4222
 1658SOL    HW116607   0.413   0.992   1.859  1.6839  1.4275  1.7582
 1658SOL    HW216608   0.363   1.108   1.942  3.2168  1.4027 -0.3188
 1659SOL     OW16609   2.070   0.771   0.981 -0.3026  0.1869 -0.0607
 1659SOL    HW116610   1.997   0.815   0.939 -0.5797  2.7968  3.1894
 1659SOL    HW216611   2.141   0.833   0.968 -0.0890  0.0748  0.5757
 1660SOL     OW16612   3.704   0.918   2.131  0.6177  0.0048  0.1572
 1660SOL    HW116613   3.680   0.826   2.138  2.4005 -0.4108  0.7823
 1660SOL    HW216614   3.776   0.917   2.068 -0.2320  0.4037 -0.8365
 1661SOL     OW16615   3.012   3.305   5.587  0.2892  0.4834 -0.3139
 1661SOL    HW116616   2.946   3.367   5.554 -1.4181  0.2220  2.5876
 1661SOL    HW216617   2.979   3.265   5.667 -0.0929  2.4516  0.5203
 1662SOL     OW16618   2.634   0.326  17.714 -0.0207  0.0851 -0.1690
 1662SOL    HW116619   2.575   0.394  17.744 -0.3942 -0.2670 -0.0996
 1662SOL    HW216620   2.572   0.263  17.676  0.1324  0.2611 -0.7106
 1663SOL     OW16621   0.277   4.570   6.285 -0.2437 -0.3564 -0.2762
 1663SOL    HW116622   0.239   4.538   6.367 -1.0823 -0.3840 -0.6801
 1663SOL    HW216623   0.214   4.636   6.256  0.6419  1.2567  1.4054
 1664SOL     OW16624   3.708   1.116   9.209 -0.4622 -0.8117 -0.6303
 1664SOL    HW116625   3.648   1.066   9.153 -0.1639 -1.0296 -0.7572
 1664SOL    HW216626   3.655   1.108   9.289 -1.2777 -0.3518 -1.1251
 1665SOL     OW16627   3.465   0.341  12.242  0.0597 -0.2930  0.5560
 1665SOL    HW116628   3.495   0.392  12.166  1.7523  0.4322  1.7174
 1665SOL    HW216629   3.552   0.347  12.281 -0.4411  0.1493  1.5853
 1666SOL     OW16630   4.190   3.127   3.327  0.4117 -0.0096  0.1293
 1666SOL    HW116631   4.230   3.087   3.250 -0.7774 -0.2176 -0.3938
 1666SOL    HW216632   4.244   3.076   3.388 -0.0293 -0.6615 -0.0233
 1667SOL     OW16633   2.508   1.646   6.023  0.2862  0.1860  0.0137
 1667SOL    HW116634   2.585   1.672   6.073  0.7556 -1.0708 -0.0593
 1667SOL    HW216635   2.455   1.599   6.088  0.2132  0.1469 -0.0733
 1668SOL     OW16636   3.724   3.373   0.084  0.2607  0.1963 -0.0374
 1668SOL    HW116637   3.710   3.444   0.147 -0.0604 -0.2791  0.4262
 1668SOL    HW216638   3.670   3.299   0.114 -3.5054  2.8675 -0.2082
 1669SOL     OW16639   1.829   3.290  15.074 -0.0735 -0.2702  0.2159
 1669SOL    HW116640   1.878   3.312  14.995 -2.6069 -0.6685 -1.4815
 1669SOL    HW216641   1.869   3.206  15.098  1.1181 -0.1091 -1.1947
 1670SOL     OW16642   4.398   0.016   4.162 -0.0664  0.2060 -0.1039
 1670SOL    HW116643   4.408   0.097   4.212 -3.4872  2.1380 -2.5944
 1670SOL    HW216644   4.303   0.018   4.156 -0.0820  1.3263  0.5566
 1671SOL     OW16645   1.738   0.549  12.145 -0.1163 -0.2073  0.5826
 1671SOL    HW116646   1.661   0.499  12.118 -0.7897  0.2714  1.6127
 1671SOL    HW216647   1.709   0.564  12.235  0.3338  1.0197  0.5137
 1672SOL     OW16648   1.924   2.554   8.835  0.4457 -0.0429 -0.4779
 1672SOL    HW116649   1.837   2.558   8.795  0.1405 -0.5047  0.1292
 1672SOL    HW216650   1.953   2.645   8.839 -0.1214  0.1354 -0.5082
 1673SOL     OW16651   2.694   1.330   8.974 -0.3642  0.0003 -0.3116
 1673SOL    HW116652   2.756   1.352   8.904  3.1326 -2.7715  1.8665
 1673SOL    HW216653   2.748   1.269   9.025 -1.5570 -0.0492  0.8911
 1674SOL     OW16654   2.863   0.476   6.156  0.4194  0.2145  0.0310
 1674SOL    HW116655   2.879   0.553   6.101 -1.1053  0.4086 -0.1439
 1674SOL    HW216656   2.941   0.491   6.209 -1.1134  2.9395  1.5421
 1675SOL     OW16657   3.128   2.153   7.908  0.3546  0.4425 -0.2705
 1675SOL    HW116658   3.203   2.210   7.896 -0.8810  1.8740 -1.2206
 1675SOL    HW216659   3.142   2.091   7.837 -0.6233  0.8003 -0.7819
 1676SOL     OW16660   3.511   0.599   2.777  0.1881 -0.4358  0.6721
 1676SOL    HW116661   3.504   0.506   2.798  2.6992 -1.1542 -1.6675
 1676SOL    HW216662   3.586   0.588   2.719 -2.1286  1.2751 -2.6314
 1677SOL     OW16663   1.444   0.049   2.275 -0.3260  0.5330 -0.0850
 1677SOL    HW116664   1.504   0.011   2.339  1.9522 -1.2417 -3.2789
 1677SOL    HW216665   1.504   0.112   2.236  1.0439 -0.8819 -0.2663
 1678SOL     OW16666   2.011   1.110   6.244  0.6821 -0.1354  0.0109
 1678SOL    HW116667   1.925   1.125   6.283  0.6374 -1.4727  0.4269
 1678SOL    HW216668   2.044   1.196   6.217  1.9233 -1.1917 -1.8842
 1679SOL     OW16669   0.532   3.817   6.363  0.2141  0.2710  0.2365
 1679SOL    HW116670   0.586   3.849   6.291  0.5788  0.1172  0.4440
 1679SOL    HW216671   0.591   3.770   6.421 -2.1602 -3.3290 -0.2825
 1680SOL     OW16672   3.233   0.053   9.255  0.1573 -0.1664  0.0459
 1680SOL    HW116673   3.277   4.719   9.213 -0.9621 -0.2035 -1.0497
 1680SOL    HW216674   3.167   0.072   9.188 -0.8813  2.1740  1.7276
 1681SOL     OW16675   0.887   0.187   0.303  0.3775  0.6432  0.4218
 1681SOL    HW116676   0.897   0.092   0.312 -0.5937  0.6488  1.5678
 1681SOL    HW216677   0.904   0.202   0.396 -0.0834  1.4357  0.3793
 1682SOL     OW16678   2.074   0.813   7.111  0.2386 -0.0056  0.5133
 1682SOL    HW116679   1.985   0.793   7.083 -0.3327  1.1922  1.5097
 1682SOL    HW216680   2.101   0.721   7.114 -0.8335 -0.3817 -1.2374
 1683SOL     OW16681   1.677   4.102   7.246 -0.4493 -0.0589 -0.3935
 1683SOL    HW116682   1.591   4.136   7.273 -0.0834 -0.3821  1.1719
 1683SOL    HW216683   1.735   4.166   7.285  1.1317 -1.8720  0.2359
 1684SOL     OW16684   4.722   2.912   9.787  0.0712  0.2204  0.1437
 1684SOL    HW116685   0.060   2.867   9.756  1.3668  1.8210  1.0505
 1684SOL    HW216686   4.675   2.835   9.817 -0.6189  0.2329 -0.8773
 1685SOL     OW16687   2.635   4.345   3.702 -0.1818  0.6428  0.2844
 1685SOL    HW116688   2.574   4.414   3.729  0.8809  1.3433  0.8974
 1685SOL    HW216689   2.650   4.288   3.778  1.8981  1.3811  0.4179
 1686SOL     OW16690   2.458   1.323  10.634 -0.0240 -0.6431  0.0119
 1686SOL    HW116691   2.549   1.293  10.628  0.1995  0.2107 -0.7721
 1686SOL    HW216692   2.435   1.323  10.727 -1.6687  1.4002 -0.3993
 1687SOL     OW16693   0.820   4.619  10.150 -0.1623  0.3373 -0.5588
 1687SOL    HW116694   0.736   4.657  10.176 -1.4119 -2.1239 -1.0103
 1687SOL    HW216695   0.859   4.698  10.112  0.9882  0.9949  2.0118
 1688SOL     OW16696   3.456   1.482   4.550 -0.2892 -0.1561  0.1124
 1688SOL    HW116697   3.412   1.563   4.578  1.0885  0.3926  0.6528
 1688SOL    HW216698   3.533   1.499   4.604 -0.7823  0.5650  0.5908
 1689SOL     OW16699   3.228   3.390   2.303  0.0059  0.2457  0.3368
 1689SOL    HW116700   3.176   3.310   2.295  0.5527 -0.0663 -0.1809
 1689SOL    HW216701   3.163   3.460   2.295  0.1640  0.4784  1.1420
 1690SOL     OW16702   0.784   2.086   4.272 -0.3441 -0.0237  0.4526
 1690SOL    HW116703   0.844   2.160   4.268  0.0879 -0.5813 -3.1399
 1690SOL    HW216704   0.747   2.086   4.184  1.6168  1.3636 -0.3538
 1691SOL     OW16705   4.231   1.548  11.106 -0.0514  0.1892 -0.1329
 1691SOL    HW116706   4.144   1.536  11.145  1.0117 -2.3083  1.4709
 1691SOL    HW216707   4.245   1.633  11.147  0.5268  0.0644 -0.0674
 1692SOL     OW16708   4.470   0.458   5.503  0.2530  0.8338  0.5294
 1692SOL    HW116709   4.556   0.492   5.528  0.6412 -0.7296  1.3285
 1692SOL    HW216710   4.411   0.519   5.546 -0.4339  1.0192 -0.6729
 1693SOL     OW16711   3.878   1.395   5.727  0.4062  0.1926  0.2693
 1693SOL    HW116712   3.898   1.488   5.737  1.6848 -0.2186  1.5402
 1693SOL    HW216713   3.783   1.404   5.737  0.2387  0.0144 -1.1833
 1694SOL     OW16714   0.182   3.919  13.458  0.0727 -0.0975  0.1150
 1694SOL    HW116715   0.152   3.941  13.546 -0.0611 -1.5673  0.4457
 1694SOL    HW216716   0.197   4.006  13.421 -1.0951  0.7674  1.6875
 1695SOL     OW16717   1.279   2.512   0.298 -0.4046  0.0243 -0.6516
 1695SOL    HW116718   1.221   2.588   0.300 -2.2896 -1.5360  4.0347
 1695SOL    HW216719   1.354   2.542   0.348  1.3600 -2.5277 -1.7489
 1696SOL     OW16720   3.874   3.934   4.220 -0.1015 -0.5607 -0.0401
 1696SOL    HW116721   3.951   3.950   4.165 -2.0770  0.5855 -2.4731
 1696SOL    HW216722   3.908   3.876   4.288  2.3597 -1.0014 -1.6330
 1697SOL     OW16723   3.532   2.785   2.740  0.2492 -0.5616 -0.3931
 1697SOL    HW116724   3.473   2.757   2.810 -1.0228  0.5047 -1.0161
 1697SOL    HW216725   3.612   2.743   2.771  1.3740  1.2757 -0.7988
 1698SOL     OW16726   4.412   0.823  11.849 -0.0225  0.0777 -0.0797
 1698SOL    HW116727   4.407   0.730  11.827 -0.2503  0.0923 -0.0981
 1698SOL    HW216728   4.321   0.831  11.878 -0.2649 -2.2601 -0.1493
 1699SOL     OW16729   0.011   3.563   3.841 -0.1074  0.2324 -0.2271
 1699SOL    HW116730   0.016   3.611   3.758  4.3679  1.7668  0.9122
 1699SOL    HW216731   4.661   3.532   3.837 -0.4679  0.5577  5.6863
 1700SOL     OW16732   4.315   1.003   2.808 -0.4510  0.1168  0.1588
 1700SOL    HW116733   4.311   0.908   2.797 -0.5288  0.1758 -0.3466
 1700SOL    HW216734   4.255   1.015   2.881 -0.5973 -1.5647  0.3063
 1701SOL     OW16735   4.130   1.839   1.361 -0.3647 -0.1671  0.2633
 1701SOL    HW116736   4.181   1.759   1.351  0.1147  0.1300  0.3252
 1701SOL    HW216737   4.041   1.806   1.375  0.7526 -3.4445 -0.3275
 1702SOL     OW16738   0.695   4.505   7.567 -0.8551  0.3628 -0.1927
 1702SOL    HW116739   0.693   4.543   7.655  1.9238  1.6964 -0.7252
 1702SOL    HW216740   0.785   4.525   7.541 -1.6382  0.8081 -2.5351
 1703SOL     OW16741   1.199   1.309   7.213  0.0910  0.1861  0.3882
 1703SOL    HW116742   1.254   1.240   7.250 -1.1532 -0.4815  1.0273
 1703SOL    HW216743   1.212   1.380   7.275  0.0299  1.4037 -0.9952
 1704SOL     OW16744   1.942   1.716  12.666 -0.0787  0.6533 -0.1154
 1704SOL    HW116745   1.981   1.680  12.745 -1.4968  1.7106  1.0644
 1704SOL    HW216746   1.983   1.670  12.592  0.5770 -1.4794  1.5905
 1705SOL     OW16747   0.769   2.586   2.383 -0.3443  0.1426  0.4055
 1705SOL    HW116748   0.825   2.527   2.434 -1.3695 -0.6310  0.6437
 1705SOL    HW216749   0.765   2.663   2.440 -0.2330  0.7873 -0.4651
 1706SOL     OW16750   4.179   3.996   7.686  0.5103 -0.2782  0.1547
 1706SOL    HW116751   4.141   4.082   7.704 -2.2648 -1.4083 -0.3321
 1706SOL    HW216752   4.125   3.985   7.608  3.0520 -0.2306 -1.5996
 1707SOL     OW16753   1.533   1.081   9.424 -0.1017 -0.6528 -0.0117
 1707SOL    HW116754   1.512   1.043   9.339 -3.4398 -0.2785  0.6426
 1707SOL    HW216755   1.489   1.166   9.431 -0.0290 -0.4312 -2.1519
 1708SOL     OW16756   3.943   0.918   6.217  0.2658 -0.5558  0.1656
 1708SOL    HW116757   3.934   0.896   6.309 -0.0027 -0.8611  0.0653
 1708SOL    HW216758   4.012   0.857   6.192 -0.3119 -0.8873 -0.6197
 1709SOL     OW16759   3.970   0.824   8.547  0.6634  0.1534  0.4887
 1709SOL    HW116760   4.059   0.836   8.516  0.4056  1.9387  0.4432
 1709SOL    HW216761   3.936   0.748   8.500 -1.9168  1.7109 -0.2114
 1710SOL     OW16762   1.647   2.377   5.449  0.1115 -0.2116 -0.1986
 1710SOL    HW116763   1.599   2.459   5.457 -2.3977 -1.6672 -0.4810
 1710SOL    HW216764   1.654   2.353   5.356  2.3083 -0.1918 -0.0447
 1711SOL     OW16765   4.553   3.258   4.208 -0.0014 -0.1460  0.6566
 1711SOL    HW116766   4.575   3.186   4.266 -0.0011 -0.3445  0.4100
 1711SOL    HW216767   4.543   3.200   4.132 -0.3455 -0.3230  0.8396
 1712SOL     OW16768   2.339   4.331   2.925 -0.0666  0.2885  0.0231
 1712SOL    HW116769   2.347   4.389   2.849  2.0605  1.8995  1.5014
 1712SOL    HW216770   2.272   4.267   2.900 -0.2837  0.6559 -0.3275
 1713SOL     OW16771   0.848   3.633  12.189  0.2613  0.0624 -0.4339
 1713SOL    HW116772   0.791   3.606  12.261  2.0624  0.6929  1.2255
 1713SOL    HW216773   0.882   3.717  12.218 -0.6690 -0.0006  0.8028
 1714SOL     OW16774   1.154   2.647  14.326  0.0588  0.5655 -0.3978
 1714SOL    HW116775   1.145   2.638  14.421 -0.4740 -2.7307 -0.7694
 1714SOL    HW216776   1.171   2.559  14.290 -0.9567  0.2242 -0.0342
 1715SOL     OW16777   4.408   3.611   0.198  0.1840  0.2373  0.1102
 1715SOL    HW116778   4.343   3.624   0.268  0.5130 -1.9408  0.8239
 1715SOL    HW216779   4.487   3.640   0.242  0.8117  0.8592 -1.4484
 1716SOL     OW16780   2.592   0.767   1.939  0.1475 -0.2348 -0.1457
 1716SOL    HW116781   2.497   0.777   1.934  0.3912  1.4489 -1.3155
 1716SOL    HW216782   2.618   0.802   2.024  0.9856  1.0896 -0.9537
 1717SOL     OW16783   4.334   3.537   6.685  0.2900  0.3974 -0.0230
 1717SOL    HW116784   4.291   3.458   6.651 -0.0203 -0.1729  1.6826
 1717SOL    HW216785   4.345   3.502   6.773  0.9165 -0.1938 -0.3406
 1718SOL     OW16786   1.690   2.803   8.920 -0.7972 -0.0142  0.1945
 1718SOL    HW116787   1.725   2.871   8.977  0.5582 -1.2472  0.8206
 1718SOL    HW216788   1.601   2.836   8.904 -1.1249 -1.0083 -0.0729
 1719SOL     OW16789   1.517   2.376   3.617  0.0650  0.0450 -0.1213
 1719SOL    HW116790   1.562   2.379   3.701 -1.1689 -0.1232  0.5543
 1719SOL    HW216791   1.464   2.297   3.619  1.6491 -0.9763  1.2737
 1720SOL     OW16792   3.586   4.530   3.782  0.6400  0.1190  0.0716
 1720SOL    HW116793   3.576   4.597   3.714 -0.7856  0.9002  1.0497
 1720SOL    HW216794   3.611   4.454   3.730  1.3302 -0.2351  0.9284
 1721SOL     OW16795   2.694   2.040   9.640 -0.1991 -0.3924 -0.3207
 1721SOL    HW116796   2.659   2.109   9.696  2.2132 -0.0748  0.8073
 1721SOL    HW216797   2.687   1.967   9.702  0.9135 -1.1095 -1.0482
 1722SOL     OW16798   4.400   4.263   9.336  0.7208  0.1493  0.4798
 1722SOL    HW116799   4.469   4.220   9.385 -1.0774 -1.9130  1.2165
 1722SOL    HW216800   4.336   4.285   9.404  1.2141  2.7057  0.1219
 1723SOL     OW16801   0.675   1.641   5.195  0.0555 -0.3149  0.0452
 1723SOL    HW116802   0.587   1.638   5.232  0.8119  2.0491  2.0384
 1723SOL    HW216803   0.713   1.568   5.245  0.0139  0.8844  1.8336
 1724SOL     OW16804   3.186   2.103   4.440  0.0207  0.1292  0.0680
 1724SOL    HW116805   3.122   2.084   4.509  1.6770  0.5059  1.7253
 1724SOL    HW216806   3.146   2.046   4.374  0.1680 -2.9691  2.6301
 1725SOL     OW16807   0.669   0.903  17.317 -0.6914 -0.4080  0.1699
 1725SOL    HW116808   0.600   0.926  17.255 -0.1598  0.0601 -0.2625
 1725SOL    HW216809   0.744   0.949  17.277  0.2181 -2.3216 -0.3119
 1726SOL     OW16810   4.006   3.485   8.165  0.1316  0.4908  0.0465
 1726SOL    HW116811   4.078   3.540   8.135 -0.2926  1.8410  1.4803
 1726SOL    HW216812   3.925   3.522   8.127 -0.8188 -1.4477  0.1899
 1727SOL     OW16813   3.543   1.111   9.906 -0.4315 -0.1464  0.3436
 1727SOL    HW116814   3.627   1.065   9.906  0.2339  1.0733 -1.3209
 1727SOL    HW216815   3.551   1.181   9.841 -0.0529 -1.2772 -0.8203
 1728SOL     OW16816   3.062   0.774   3.262  0.5597  0.2975 -0.7552
 1728SOL    HW116817   3.058   0.869   3.249 -2.2631  0.2496 -0.2471
 1728SOL    HW216818   3.063   0.734   3.175  2.9100 -1.2709 -0.0167
 1729SOL     OW16819   4.357   3.804  14.414  0.1536 -1.0143  0.1913
 1729SOL    HW116820   4.351   3.888  14.461  1.4767 -0.1130 -1.2555
 1729SOL    HW216821   4.294   3.742  14.449 -1.2282  0.1786 -0.1731
 1730SOL     OW16822   4.146   3.123   9.161  0.5978 -0.1698  0.0321
 1730SOL    HW116823   4.182   3.036   9.178 -0.0735 -0.4626 -0.0212
 1730SOL    HW216824   4.181   3.138   9.073 -0.1753  0.6652 -0.1338
 1731SOL     OW16825   4.612   4.095   1.549 -0.3072 -0.2537 -0.0158
 1731SOL    HW116826   4.533   4.047   1.575  1.1467 -3.0084 -0.6508
 1731SOL    HW216827   4.645   4.021   1.497  1.4427  1.0981 -0.8097
 1732SOL     OW16828   4.151   0.368   2.008  0.6463 -0.4670 -0.2396
 1732SOL    HW116829   4.234   0.323   2.022  1.3939 -0.0803 -3.4733
 1732SOL    HW216830   4.174   0.435   1.943  0.7109  0.2783  0.5513
 1733SOL     OW16831   0.060   3.484   6.995  0.4876 -0.0171  0.3294
 1733SOL    HW116832   4.730   3.545   7.020 -0.2783 -0.2751 -1.1951
 1733SOL    HW216833   0.134   3.543   7.010  1.4885 -0.7697 -1.6174
 1734SOL     OW16834   3.525   4.436   0.822  0.4326  0.3730 -0.1925
 1734SOL    HW116835   3.572   4.376   0.880 -1.6819  0.1445  1.2366
 1734SOL    HW216836   3.486   4.378   0.756 -1.1681  0.3573  0.7950
 1735SOL     OW16837   4.474   0.592  16.697 -0.0284  0.1494  0.6654
 1735SOL    HW116838   4.551   0.601  16.754 -0.4393  2.0655  0.9285
 1735SOL    HW216839   4.460   0.679  16.659  3.3580 -0.4173 -1.8466
 1736SOL     OW16840   4.089   0.728   3.958  0.0610 -0.0484  0.6630
 1736SOL    HW116841   4.139   0.660   3.913 -3.2487 -1.1586 -1.3369
 1736SOL    HW216842   4.093   0.802   3.896 -0.0752  1.4032  2.3914
 1737SOL     OW16843   1.090   3.619   7.131 -0.3669  0.2551 -0.2948
 1737SOL    HW116844   1.004   3.598   7.168 -0.8016  0.2209 -1.3236
 1737SOL    HW216845   1.072   3.616   7.037  0.6102 -0.8240 -0.4415
 1738SOL     OW16846   3.293   3.981   3.920  0.6595  0.9852  1.3277
 1738SOL    HW116847   3.248   4.026   3.848  1.4772 -0.6345 -0.1975
 1738SOL    HW216848   3.238   3.984   3.999 -0.7414  0.4716  0.3821
 1739SOL     OW16849   2.297   0.698   8.283 -0.0461 -0.2390 -0.2577
 1739SOL    HW116850   2.356   0.774   8.277  1.1695 -1.2647 -1.2597
 1739SOL    HW216851   2.214   0.744   8.289  0.4300  1.0773 -4.0090
 1740SOL     OW16852   2.743   4.049  10.903  0.2554  0.1791 -0.0618
 1740SOL    HW116853   2.717   4.056  10.995  0.6740 -1.9712  0.2392
 1740SOL    HW216854   2.823   3.997  10.911 -0.4381 -0.6021  1.9364
 1741SOL     OW16855   4.355   2.420  16.185  0.2034 -0.0213 -0.1579
 1741SOL    HW116856   4.390   2.442  16.098 -1.2845 -1.9856 -1.2694
 1741SOL    HW216857   4.300   2.495  16.204 -0.5604 -0.9718  1.4000
 1742SOL     OW16858   3.383   2.335   4.180  0.1579 -0.4976  0.3359
 1742SOL    HW116859   3.412   2.352   4.270  0.5108 -0.1547  0.1554
 1742SOL    HW216860   3.433   2.254   4.171 -0.2961 -0.9105  1.5587
 1743SOL     OW16861   0.561   3.253   9.851  0.0240 -0.7212  0.5370
 1743SOL    HW116862   0.543   3.207   9.769 -0.3892 -0.2696  0.3821
 1743SOL    HW216863   0.627   3.194   9.889 -0.4772 -0.4220  1.8665
 1744SOL     OW16864   3.406   1.923   8.020  0.0684 -0.0738 -0.9288
 1744SOL    HW116865   3.392   2.016   8.040  1.8813  0.5587 -2.5980
 1744SOL    HW216866   3.371   1.882   8.099 -1.3247  1.9867 -0.4850
 1745SOL     OW16867   1.097   2.645   5.069 -0.0423 -0.3932 -0.4843
 1745SOL    HW116868   1.090   2.732   5.108 -1.1953  0.1545 -1.9015
 1745SOL    HW216869   1.183   2.644   5.028  0.2739  0.1020  0.1566
 1746SOL     OW16870   3.962   1.411   4.582 -0.1344  0.3319 -0.2620
 1746SOL    HW116871   3.915   1.344   4.633 -0.3648  0.3551 -0.4451
 1746SOL    HW216872   4.044   1.407   4.632 -0.5687 -1.9078  0.2751
 1747SOL     OW16873   0.511   1.866   3.276 -0.2326  0.3716 -0.8364
 1747SOL    HW116874   0.500   1.961   3.270 -0.9824  0.6033  4.1535
 1747SOL    HW216875   0.572   1.847   3.205 -1.4415  1.8340 -2.2711
 1748SOL     OW16876   1.107   2.720  14.599 -0.1223 -0.4233  0.1072
 1748SOL    HW116877   1.123   2.814  14.586 -0.9175  0.1769  3.5588
 1748SOL    HW216878   1.071   2.716  14.688  1.4709  0.6971  0.7919
 1749SOL     OW16879   2.995   4.281  17.566 -0.0506 -0.0291 -0.0477
 1749SOL    HW116880   2.952   4.207  17.609 -1.4819  0.4195 -0.7057
 1749SOL    HW216881   3.031   4.240  17.487  0.6194 -0.3945  0.4418
 1750SOL     OW16882   0.602   1.640   9.592  0.0713 -0.6225  0.0614
 1750SOL    HW116883   0.582   1.730   9.568  1.3449 -0.6769 -1.2819
 1750SOL    HW216884   0.521   1.601   9.559 -0.4722 -0.2130  0.9404
 1751SOL     OW16885   0.871   3.401   8.208  0.6543  0.3250 -0.3149
 1751SOL    HW116886   0.959   3.438   8.202  1.3746 -1.1929  0.8117
 1751SOL    HW216887   0.828   3.479   8.241  0.0885  0.1909 -0.7392
 1752SOL     OW16888   3.971   1.888  15.012 -0.4059  0.3198  0.0519
 1752SOL    HW116889   4.057   1.930  15.009  0.6907 -1.9187  0.4068
 1752SOL    HW216890   3.987   1.806  15.060 -0.8070 -0.3281 -0.9232
 1753SOL     OW16891   0.196   0.326   4.486  0.0505  0.2561 -0.3243
 1753SOL    HW116892   0.114   0.354   4.528 -0.1441  1.2255 -1.3666
 1753SOL    HW216893   0.173   0.233   4.491  0.0487  0.2878  0.3123
 1754SOL     OW16894   2.187   0.454   1.148  0.1665 -0.0429 -0.2310
 1754SOL    HW116895   2.220   0.448   1.058  1.9021  1.0158  0.3301
 1754SOL    HW216896   2.228   0.376   1.187 -3.1963 -1.1169  1.1077
 1755SOL     OW16897   3.435   3.978   5.827  0.2842  0.2555 -0.0161
 1755SOL    HW116898   3.450   4.072   5.820 -1.5166  0.4561 -1.0130
 1755SOL    HW216899   3.525   3.945   5.836  0.0762  0.4381  2.7405
 1756SOL     OW16900   4.482   3.519   1.236  0.4073 -0.0697 -0.4032
 1756SOL    HW116901   4.526   3.436   1.220 -0.8420 -0.7385 -0.3630
 1756SOL    HW216902   4.392   3.488   1.227 -0.3255  1.9790 -0.2414
 1757SOL     OW16903   0.644   3.126  15.984 -0.0826 -0.0038 -0.5003
 1757SOL    HW116904   0.552   3.151  15.998 -0.1756  0.3406 -1.8081
 1757SOL    HW216905   0.664   3.075  16.063 -2.1466 -0.9040 -0.5593
 1758SOL     OW16906   0.190   0.571  13.481  0.0548 -0.3437  0.2004
 1758SOL    HW116907   0.151   0.658  13.467 -1.7801 -1.3789 -1.1808
 1758SOL    HW216908   0.147   0.522  13.411 -1.3676  2.6258 -1.0410
 1759SOL     OW16909   3.182   2.218   9.390  0.5845  0.4373  0.1502
 1759SOL    HW116910   3.232   2.298   9.407  1.3058  0.3100 -1.4221
 1759SOL    HW216911   3.102   2.256   9.353  0.9504 -0.7094 -1.8136
 1760SOL     OW16912   3.305   3.230   6.148  0.2203 -0.3033  0.5071
 1760SOL    HW116913   3.265   3.314   6.171 -0.1326  0.0171 -1.2981
 1760SOL    HW216914   3.361   3.228   6.226  1.4270 -2.3862 -0.4272
 1761SOL     OW16915   1.668   0.791   7.731 -0.1510 -0.3539 -0.2200
 1761SOL    HW116916   1.668   0.786   7.827 -0.1994  1.5953 -0.0979
 1761SOL    HW216917   1.673   0.887   7.732  1.1559 -0.4226  1.0137
 1762SOL     OW16918   4.483   1.458   3.916 -0.0108  0.3345 -0.2199
 1762SOL    HW116919   4.510   1.522   3.981 -0.3446 -0.2159  0.4493
 1762SOL    HW216920   4.490   1.379   3.968  0.2842 -0.6467 -1.7424
 1763SOL     OW16921   1.285   0.112  16.139  1.0958  0.4861  0.4225
 1763SOL    HW116922   1.301   0.205  16.157 -0.0748  1.0336 -1.3549
 1763SOL    HW216923   1.289   0.080  16.229 -2.4575 -0.9453  0.0584
 1764SOL     OW16924   0.743   4.033   2.430 -0.0673 -0.2351 -0.3379
 1764SOL    HW116925   0.683   4.087   2.481 -0.9513  0.5997 -2.2510
 1764SOL    HW216926   0.721   4.048   2.338  0.3624 -0.0358 -0.4051
 1765SOL     OW16927   0.824   0.932   2.112 -0.4294 -0.4803 -0.4396
 1765SOL    HW116928   0.846   0.843   2.137 -0.2770  0.5706  3.1178
 1765SOL    HW216929   0.912   0.970   2.115 -1.0344  0.9662 -0.9463
 1766SOL     OW16930   2.395   1.431  11.390  0.5462  0.7403  0.7910
 1766SOL    HW116931   2.320   1.474  11.431 -0.4605 -1.0158  0.7750
 1766SOL    HW216932   2.427   1.367  11.453  0.3712 -1.3039 -1.2071
 1767SOL     OW16933   0.990   0.648   1.261 -0.3603  0.1198  0.2211
 1767SOL    HW116934   1.039   0.650   1.343  0.9294 -0.1860 -0.5384
 1767SOL    HW216935   0.909   0.616   1.299 -0.2170 -0.2107  0.2504
 1768SOL     OW16936   2.039   3.895  14.918 -0.4213 -0.8067  0.5050
 1768SOL    HW116937   1.959   3.855  14.953 -1.1162 -1.9995 -2.4812
 1768SOL    HW216938   2.000   3.978  14.891  0.9423 -1.0628 -2.2412
 1769SOL     OW16939   1.917   2.160   9.202 -0.0435  0.2938  0.4000
 1769SOL    HW116940   1.960   2.090   9.153 -1.6481 -0.8828  0.7036
 1769SOL    HW216941   1.938   2.241   9.155  0.0898  0.8172  1.3627
 1770SOL     OW16942   0.950   3.501   7.742 -0.0409  0.2970 -0.1240
 1770SOL    HW116943   0.857   3.480   7.747 -0.1950  1.1384  0.3342
 1770SOL    HW216944   0.961   3.567   7.810  0.1349 -0.7346  0.8488
 1771SOL     OW16945   4.583   2.794  15.004  0.5513  0.1611 -0.3344
 1771SOL    HW116946   4.489   2.800  15.023  0.2848  2.5132 -2.3250
 1771SOL    HW216947   4.613   2.799  15.094 -0.1971 -0.5994 -0.0441
 1772SOL     OW16948   2.173   0.367   7.580 -0.1473  0.2875 -0.4179
 1772SOL    HW116949   2.193   0.366   7.673  1.1547 -2.2167 -0.7309
 1772SOL    HW216950   2.133   0.454   7.569  0.8658  0.9974  1.4858
 1773SOL     OW16951   0.959   3.803   1.936  0.0747  0.1300  0.6954
 1773SOL    HW116952   0.885   3.778   1.992 -0.6157 -0.2514 -0.3829
 1773SOL    HW216953   1.018   3.809   2.011  1.3451 -1.5292 -0.1864
 1774SOL     OW16954   1.139   2.159   8.309 -0.4677  0.1848  0.5062
 1774SOL    HW116955   1.122   2.246   8.273 -1.7853 -0.7013 -1.0229
 1774SOL    HW216956   1.083   2.109   8.249 -0.2607 -0.5415  0.9152
 1775SOL     OW16957   1.792   3.596   2.997 -0.3252 -0.3227 -1.0090
 1775SOL    HW116958   1.783   3.509   3.035 -1.7626  0.0359 -0.5460
 1775SOL    HW216959   1.702   3.608   2.966 -0.0543 -1.7777 -2.3609
 1776SOL     OW16960   3.348   3.206  16.164  0.3782  0.0390  0.2131
 1776SOL    HW116961   3.372   3.173  16.250 -0.6420  1.4456  1.0367
 1776SOL    HW216962   3.300   3.129  16.134  1.4874 -0.2473 -0.8362
 1777SOL     OW16963   0.200   3.353   9.111 -0.1484  0.0225 -0.8435
 1777SOL    HW116964   0.234   3.264   9.107 -2.3694 -0.8359 -0.8111
 1777SOL    HW216965   0.139   3.353   9.185  0.9128  0.5467  0.0251
 1778SOL     OW16966   0.867   3.849  11.753  0.6407 -0.5214 -0.7804
 1778SOL    HW116967   0.867   3.919  11.818 -1.0174 -1.2007 -0.0644
 1778SOL    HW216968   0.962   3.845  11.740  0.5740 -1.2183 -1.0628
 1779SOL     OW16969   2.449   0.282   8.272 -0.6773  0.0612 -0.0177
 1779SOL    HW116970   2.515   0.330   8.322 -1.0970  1.8460 -1.1649
 1779SOL    HW216971   2.460   0.199   8.317  0.8818  0.2063 -0.1341
 1780SOL     OW16972   2.604   2.715   7.310  0.3630 -0.5469  0.2081
 1780SOL    HW116973   2.547   2.660   7.364 -1.0302 -0.8362 -1.5435
 1780SOL    HW216974   2.601   2.667   7.227  1.9510 -0.3044  0.0063
 1781SOL     OW16975   2.973   0.271   9.948 -0.2295  0.0334 -0.2417
 1781SOL    HW116976   2.985   0.185   9.989 -0.7229  0.6953  1.3116
 1781SOL    HW216977   2.908   0.316  10.002 -0.8213 -0.3249 -0.6624
 1782SOL     OW16978   4.649   0.771   8.158 -0.5390 -0.1678  0.1082
 1782SOL    HW116979   4.631   0.840   8.222  1.0419  0.5556 -0.2213
 1782SOL    HW216980   4.569   0.782   8.107  1.5208  0.7979 -2.9169
 1783SOL     OW16981   1.516   3.032   2.619 -0.3047  0.4969  0.1437
 1783SOL    HW116982   1.552   3.055   2.533 -1.2485 -0.0247 -0.3892
 1783SOL    HW216983   1.483   3.117   2.648  1.5690  1.0951  0.5523
 1784SOL     OW16984   1.264   3.158   8.256 -0.1866 -0.4121  0.2157
 1784SOL    HW116985   1.188   3.205   8.290 -0.4306 -2.3785  2.4232
 1784SOL    HW216986   1.327   3.158   8.329 -0.7428  1.2373  0.6773
 1785SOL     OW16987   4.006   3.490   2.772 -0.3136  0.1876  0.4266
 1785SOL    HW116988   4.089   3.443   2.767  0.6820  1.9312  0.9175
 1785SOL    HW216989   4.005   3.554   2.701  0.7775  2.4355  2.4376
 1786SOL     OW16990   3.438   0.403   5.011  0.3267  0.5476 -0.5324
 1786SOL    HW116991   3.478   0.354   4.939 -0.5769  1.5948 -1.7444
 1786SOL    HW216992   3.364   0.444   4.965 -0.2838  1.6674  1.4297
 1787SOL     OW16993   1.298   3.822  12.051 -0.6548 -0.2696 -0.0462
 1787SOL    HW116994   1.381   3.799  12.093  0.7002 -0.9016 -3.0527
 1787SOL    HW216995   1.338   3.866  11.976 -2.1621 -1.7231 -1.7123
 1788SOL     OW16996   1.594   1.118  15.720 -0.0959 -0.1257  0.0574
 1788SOL    HW116997   1.612   1.181  15.650 -0.0098 -0.8364 -0.5634
 1788SOL    HW216998   1.513   1.080  15.687  0.4857 -1.7007  0.4555
 1789SOL     OW16999   3.169   1.318   3.970  0.0205  0.3844 -0.3334
 1789SOL    HW117000   3.184   1.231   4.007  0.5050 -0.1197 -1.7080
 1789SOL    HW217001   3.237   1.360   4.023 -0.7136  2.0719 -0.7376
 1790SOL     OW17002   4.398   3.486   8.837 -0.1766  0.0707 -0.8441
 1790SOL    HW117003   4.306   3.493   8.861  0.0231  1.5130 -0.5352
 1790SOL    HW217004   4.390   3.474   8.742 -1.8386  0.7655 -0.7930
 1791SOL     OW17005   2.068   1.524   5.640  0.6326  0.4017  0.9258
 1791SOL    HW117006   2.125   1.600   5.648  0.7495  0.4931 -0.7685
 1791SOL    HW217007   1.991   1.570   5.607 -0.3804 -1.2564  0.9347
 1792SOL     OW17008   4.454   3.257   7.630  0.6319  0.4163  0.2992
 1792SOL    HW117009   4.548   3.244   7.643  1.0079  2.2035 -0.5788
 1792SOL    HW217010   4.434   3.164   7.637 -0.0322  0.6232  1.0091
 1793SOL     OW17011   4.672   3.066   4.363  0.2182  0.4289 -0.7932
 1793SOL    HW117012   0.019   3.093   4.393  1.3067 -1.1386 -2.6033
 1793SOL    HW217013   4.672   2.975   4.390  2.6574  1.2402  1.9728
 1794SOL     OW17014   3.571   4.546   4.990 -0.6431  0.5730  0.5698
 1794SOL    HW117015   3.666   4.544   5.001 -0.6776 -0.8034  0.6425
 1794SOL    HW217016   3.549   4.614   4.927 -2.1478 -2.8932 -2.6679
 1795SOL     OW17017   3.646   1.829   5.144 -0.6274 -0.5054 -0.2939
 1795SOL    HW117018   3.592   1.758   5.111 -1.7781  1.1733 -2.0496
 1795SOL    HW217019   3.733   1.790   5.140 -0.9365 -1.3528  1.3576
 1796SOL     OW17020   1.202   0.355  15.859 -0.0920 -0.0780 -0.2712
 1796SOL    HW117021   1.130   0.419  15.853 -0.6232 -0.4679  1.7859
 1796SOL    HW217022   1.266   0.410  15.906  1.5287 -1.4542 -0.8885
 1797SOL     OW17023   1.355   3.967   7.124  0.4346 -0.5502  0.8089
 1797SOL    HW117024   1.291   4.028   7.160  1.9038  1.3602  0.2096
 1797SOL    HW217025   1.306   3.885   7.132  0.7394 -0.8288 -0.1323
 1798SOL     OW17026   2.744   0.258   5.723 -0.1399  0.7378 -0.0168
 1798SOL    HW117027   2.718   0.301   5.642  0.2844 -3.0152 -2.1646
 1798SOL    HW217028   2.659   0.274   5.765 -0.2707 -1.4493  0.5471
 1799SOL     OW17029   2.891   0.187   1.816 -0.1079  0.0009  0.5235
 1799SOL    HW117030   2.969   0.174   1.869  1.0438 -0.9409 -1.4196
 1799SOL    HW217031   2.836   0.129   1.870 -1.4897  1.1343  0.3485
 1800SOL     OW17032   1.820   0.213   8.216 -0.1775  0.3501 -0.1038
 1800SOL    HW117033   1.860   0.127   8.199  0.3401  1.2330 -3.3533
 1800SOL    HW217034   1.896   0.269   8.228  0.5920 -0.9166  1.0028
 1801SOL     OW17035   2.445   3.019  16.403 -0.0498 -0.9163  0.8485
 1801SOL    HW117036   2.374   2.984  16.349  0.6148  2.3773 -2.1940
 1801SOL    HW217037   2.452   2.945  16.463  1.4107  0.1815  2.0249
 1802SOL     OW17038   1.495   2.788   4.220  0.6691 -0.0806 -0.1538
 1802SOL    HW117039   1.474   2.705   4.263  1.8166 -1.3737 -2.0845
 1802SOL    HW217040   1.586   2.795   4.250  0.4542 -0.3545  0.5564
 1803SOL     OW17041   3.259   4.416   4.940  0.2636  0.1202  0.1700
 1803SOL    HW117042   3.295   4.328   4.944  0.5569  0.2465  0.3079
 1803SOL    HW217043   3.172   4.402   4.902 -0.1827  1.3859  0.7485
 1804SOL     OW17044   0.628   1.611   8.531  0.8001  0.2842  0.1333
 1804SOL    HW117045   0.720   1.632   8.547  0.9827 -0.4171  0.0185
 1804SOL    HW217046   0.603   1.682   8.473 -1.5068 -1.4598 -1.0090
 1805SOL     OW17047   4.082   3.857   0.297 -0.4556  0.2599  0.1661
 1805SOL    HW117048   4.098   3.917   0.225  2.4807 -0.5531  0.1293
 1805SOL    HW217049   3.988   3.873   0.308 -0.5051 -1.3836  2.2273
 1806SOL     OW17050   3.134   0.269   1.535  0.2120 -0.1378 -0.4918
 1806SOL    HW117051   3.202   0.312   1.483 -0.1872  1.1667  0.0531
 1806SOL    HW217052   3.080   0.343   1.566 -0.4110 -0.8371  0.1035
 1807SOL     OW17053   0.158   0.510   1.223  0.2955 -0.2379 -0.0296
 1807SOL    HW117054   0.135   0.423   1.256  1.8626 -0.4711  0.4401
 1807SOL    HW217055   0.249   0.514   1.251  0.4768 -1.4428 -0.4519
 1808SOL     OW17056   3.331   1.613   7.206  0.2318  0.0931  0.1227
 1808SOL    HW117057   3.414   1.586   7.166  0.2977  0.2955  0.1255
 1808SOL    HW217058   3.353   1.624   7.298 -0.6934  0.5067  0.2945
 1809SOL     OW17059   0.409   0.867   5.222 -0.2129  0.9235 -0.4909
 1809SOL    HW117060   0.363   0.942   5.185  3.2503  3.3145 -0.0253
 1809SOL    HW217061   0.410   0.814   5.142  0.4497 -0.3406  0.3529
 1810SOL     OW17062   1.540   0.224   2.940  0.7192  0.0785  0.5557
 1810SOL    HW117063   1.480   0.240   3.013  1.3933  1.3131  0.8381
 1810SOL    HW217064   1.623   0.269   2.955  1.3448 -1.6476  2.3050
 1811SOL     OW17065   0.563   3.159   5.571 -0.2281  0.6650  0.6783
 1811SOL    HW117066   0.468   3.164   5.588 -0.9296 -0.9405 -2.7887
 1811SOL    HW217067   0.599   3.231   5.622  0.4099  0.6583  0.2365
 1812SOL     OW17068   0.659   2.844   5.671  0.0704  0.8730  0.2310
 1812SOL    HW117069   0.670   2.934   5.639 -0.9877  1.0762  0.4560
 1812SOL    HW217070   0.572   2.824   5.638  1.3584  1.2197 -3.4216
 1813SOL     OW17071   1.611   2.597   8.259  0.7116  0.2083  0.0861
 1813SOL    HW117072   1.589   2.520   8.313  0.7396 -0.2107 -0.5002
 1813SOL    HW217073   1.538   2.655   8.280 -0.1538 -0.3818 -1.3250
 1814SOL     OW17074   2.147   1.377  11.750 -0.0690 -0.0710 -0.2313
 1814SOL    HW117075   2.203   1.382  11.827 -1.7252  0.5630  0.9470
 1814SOL    HW217076   2.111   1.292  11.777  0.9363  0.0231  1.4224
 1815SOL     OW17077   0.326   0.475  11.279 -0.1288 -0.3809 -0.2351
 1815SOL    HW117078   0.276   0.463  11.198 -1.0984 -0.1873  0.3301
 1815SOL    HW217079   0.297   0.392  11.318 -1.0306 -0.8324 -1.8724
 1816SOL     OW17080   0.658   1.979  17.036  0.2343  0.3499 -0.7874
 1816SOL    HW117081   0.607   1.919  17.090 -1.6678  1.9133 -0.8190
 1816SOL    HW217082   0.582   2.028  17.005  0.0413  0.6059  0.0907
 1817SOL     OW17083   0.968   4.186   7.108  0.2950  0.5270 -0.7025
 1817SOL    HW117084   0.962   4.114   7.169 -2.8206  0.3203 -1.2374
 1817SOL    HW217085   0.994   4.140   7.028 -1.1549  0.9384 -1.4096
 1818SOL     OW17086   2.632   3.785   7.153  0.3727 -0.2609  0.2643
 1818SOL    HW117087   2.717   3.821   7.130 -0.1248  0.6874 -0.0931
 1818SOL    HW217088   2.631   3.786   7.249  0.5058  1.9997  0.2420
 1819SOL     OW17089   1.483   3.913   5.735  0.1793 -0.5749  1.0348
 1819SOL    HW117090   1.393   3.924   5.703  1.1540  1.1031 -1.2049
 1819SOL    HW217091   1.465   3.880   5.823 -0.4633 -0.2956  1.0099
 1820SOL     OW17092   2.365   4.275   8.651  0.6616 -0.2425 -0.0457
 1820SOL    HW117093   2.334   4.208   8.712  0.6281  0.5898  0.8403
 1820SOL    HW217094   2.348   4.233   8.566  0.3292  0.9592 -0.5663
 1821SOL     OW17095   1.343   2.080   6.459  0.1655  0.3849  0.2113
 1821SOL    HW117096   1.311   2.002   6.504  0.8407 -1.2503 -2.1332
 1821SOL    HW217097   1.419   2.049   6.409  0.5359  0.0352  0.9860
 1822SOL     OW17098   0.495   2.357   0.246  0.2840 -0.5763 -0.1107
 1822SOL    HW117099   0.564   2.380   0.308  0.2833  1.1636 -0.7672
 1822SOL    HW217100   0.500   2.440   0.200 -1.9039  0.6795  1.9486
 1823SOL     OW17101   2.461   2.520   1.845 -0.1221  0.0899 -0.3885
 1823SOL    HW117102   2.460   2.510   1.941  3.2887  0.1793 -0.3576
 1823SOL    HW217103   2.371   2.537   1.816 -0.4933  0.7935  1.1771
 1824SOL     OW17104   4.024   3.705  17.092 -0.0054 -0.2331 -0.1616
 1824SOL    HW117105   4.002   3.796  17.076 -1.2737 -0.4638  0.3007
 1824SOL    HW217106   4.061   3.717  17.180 -1.2067 -2.6407  0.6675
 1825SOL     OW17107   1.766   3.381   9.181 -0.0697 -0.3271  0.2765
 1825SOL    HW117108   1.679   3.358   9.149  0.4554 -2.5535  0.4267
 1825SOL    HW217109   1.799   3.300   9.221  1.0553 -0.2385 -0.4826
 1826SOL     OW17110   4.516   3.641   7.492  0.3382 -0.4303  0.2889
 1826SOL    HW117111   4.443   3.698   7.468  0.4236  0.0850  1.2669
 1826SOL    HW217112   4.489   3.550   7.492 -1.5033  0.1267  1.5870
 1827SOL     OW17113   4.432   3.138  16.118 -0.6252 -0.1498 -0.1719
 1827SOL    HW117114   4.404   3.068  16.060 -0.9182 -0.9207  0.9040
 1827SOL    HW217115   4.352   3.140  16.172 -1.0195 -1.7230 -0.7260
 1828SOL     OW17116   1.687   0.064   3.344  0.2292 -0.1788  0.0871
 1828SOL    HW117117   1.739   4.738   3.300  0.0466 -1.5256  1.8964
 1828SOL    HW217118   1.740   0.138   3.314 -1.0112  0.2040 -1.1656
 1829SOL     OW17119   0.769   1.774   1.083  0.0370 -0.1094  0.0089
 1829SOL    HW117120   0.678   1.771   1.112 -0.0853  0.8139 -0.2812
 1829SOL    HW217121   0.808   1.719   1.151 -0.5672  1.8460  1.9390
 1830SOL     OW17122   0.422   3.771   7.976  0.3013  0.1228 -0.0469
 1830SOL    HW117123   0.385   3.772   7.888  1.2834  2.5664 -0.4481
 1830SOL    HW217124   0.475   3.692   7.966  2.8331  1.8693 -0.4415
 1831SOL     OW17125   1.795   2.064   5.274 -0.1099 -0.1486 -0.0640
 1831SOL    HW117126   1.707   2.068   5.235 -0.0238 -0.7024 -0.3100
 1831SOL    HW217127   1.770   2.061   5.366 -0.8630 -1.8282 -0.3325
 1832SOL     OW17128   1.889   3.460   8.395 -0.0980 -1.0700  0.0886
 1832SOL    HW117129   1.797   3.449   8.372 -0.6290  3.0484  0.3927
 1832SOL    HW217130   1.926   3.468   8.306 -1.7394  0.5337 -0.4376
 1833SOL     OW17131   4.626   1.169   2.507 -0.4140  0.1699  0.3259
 1833SOL    HW117132   4.713   1.149   2.540 -0.7454 -1.0019  0.4953
 1833SOL    HW217133   4.653   1.242   2.452  0.5682 -0.5902 -0.2025
 1834SOL     OW17134   2.254   3.224  16.622 -0.6020 -0.0642  0.3366
 1834SOL    HW117135   2.208   3.300  16.656  0.6832  0.7333  0.3190
 1834SOL    HW217136   2.343   3.249  16.596 -0.7102 -1.4880 -1.3782
 1835SOL     OW17137   1.288   0.776   4.777 -0.0148  0.1305 -0.3659
 1835SOL    HW117138   1.217   0.740   4.723 -0.0592  0.1323 -0.3084
 1835SOL    HW217139   1.247   0.844   4.830  2.5637  1.2656  0.1938
 1836SOL     OW17140   3.964   1.160   3.722 -0.0029 -0.3743  0.5517
 1836SOL    HW117141   3.983   1.164   3.628 -0.3069  0.4619  0.5224
 1836SOL    HW217142   4.052   1.187   3.750  0.8578 -0.3419 -2.1609
 1837SOL     OW17143   2.229   2.633  11.947  0.5452  0.8115  0.0977
 1837SOL    HW117144   2.242   2.541  11.925  2.2047  1.9973 -3.8225
 1837SOL    HW217145   2.254   2.635  12.039 -0.2133  1.4839  0.2921
 1838SOL     OW17146   1.581   1.002   9.875 -0.0842 -0.0286  0.2923
 1838SOL    HW117147   1.607   0.957   9.956  2.2735 -0.8483 -0.9391
 1838SOL    HW217148   1.604   0.942   9.804  1.6287  0.6340  0.2820
 1839SOL     OW17149   0.244   1.296   3.667  0.1815 -0.6792 -0.4032
 1839SOL    HW117150   0.289   1.216   3.695 -1.4746 -0.4688  2.7758
 1839SOL    HW217151   0.293   1.364   3.713 -0.0552 -2.3763  2.2960
 1840SOL     OW17152   1.189   4.556   3.874 -0.6172 -0.8227 -0.4886
 1840SOL    HW117153   1.190   4.636   3.822  1.1465 -0.4473  0.1439
 1840SOL    HW217154   1.284   4.548   3.870 -0.5873 -2.0815  2.7524
 1841SOL     OW17155   2.471   1.046  11.531 -0.0641  0.5165  0.1525
 1841SOL    HW117156   2.535   1.108  11.497  2.0803 -1.9249 -0.2569
 1841SOL    HW217157   2.526   1.007  11.599 -0.0654  1.8829  0.9454
 1842SOL     OW17158   0.743   2.411   0.353  0.2346  0.4191  0.3137
 1842SOL    HW117159   0.732   2.361   0.434 -1.9013  2.3007  1.1728
 1842SOL    HW217160   0.782   2.493   0.383  0.8180  1.2300 -2.6544
 1843SOL     OW17161   2.673   1.675  10.029  0.1608  0.3247 -0.5689
 1843SOL    HW117162   2.692   1.594  10.076 -2.1620 -1.5082 -2.8384
 1843SOL    HW217163   2.628   1.729  10.094 -0.4481 -2.5050  1.3165
 1844SOL     OW17164   1.313   1.793   6.629 -0.0370 -0.1573  0.4480
 1844SOL    HW117165   1.304   1.720   6.690 -1.3482 -0.2586  0.1257
 1844SOL    HW217166   1.366   1.837   6.695 -1.0386 -0.0729  1.1958
 1845SOL     OW17167   0.203   2.531  11.746 -0.0844  0.4393 -0.0556
 1845SOL    HW117168   0.166   2.579  11.821 -1.3592  0.5328 -0.7421
 1845SOL    HW217169   0.120   2.486  11.731  0.5324 -0.4441 -0.7920
 1846SOL     OW17170   4.630   0.254   6.554  0.0278 -0.1696  0.4528
 1846SOL    HW117171   4.575   0.183   6.589  2.6742 -3.0405 -1.1689
 1846SOL    HW217172   4.626   0.318   6.625 -0.1737 -1.7519  1.8714
 1847SOL     OW17173   1.013   4.539   2.647 -1.0077 -0.8715  0.1419
 1847SOL    HW117174   1.026   4.592   2.725  0.0375  2.5262 -2.3303
 1847SOL    HW217175   1.002   4.455   2.692  2.2317 -1.0739  0.5676
 1848SOL     OW17176   2.568   2.634   9.001  0.1621  0.1777 -0.2570
 1848SOL    HW117177   2.538   2.690   9.073 -0.7705 -1.8996  0.9704
 1848SOL    HW217178   2.523   2.552   9.025  1.5320 -1.0692 -1.9613
 1849SOL     OW17179   3.147   2.857  12.303 -0.4418 -0.3268  0.2611
 1849SOL    HW117180   3.186   2.929  12.253  3.2282 -2.7491 -0.3915
 1849SOL    HW217181   3.143   2.905  12.385 -2.2505 -1.2816  0.7257
 1850SOL     OW17182   3.158   4.220   8.747 -0.5282  0.6597  0.1710
 1850SOL    HW117183   3.238   4.173   8.727 -0.8827  0.4112 -0.6865
 1850SOL    HW217184   3.090   4.154   8.733 -0.6218  1.0422 -1.1394
 1851SOL     OW17185   2.207   4.695  14.726  0.1378 -0.6657 -0.1479
 1851SOL    HW117186   2.210   4.600  14.716  1.7410 -0.8627  2.2431
 1851SOL    HW217187   2.293   4.723  14.694  0.3325 -0.5470  0.4793
 1852SOL     OW17188   1.024   0.355  17.508 -0.2216 -0.6205  0.2283
 1852SOL    HW117189   0.961   0.426  17.491  1.8707  0.9829 -0.8031
 1852SOL    HW217190   1.053   0.388  17.593  0.0229 -1.2601  0.3901
 1853SOL     OW17191   1.926   1.468  10.361 -0.6056 -0.0847  0.1225
 1853SOL    HW117192   1.941   1.402  10.429  0.8587 -0.8488 -0.9361
 1853SOL    HW217193   1.872   1.531  10.409  0.4398  0.1801  0.9295
 1854SOL     OW17194   1.084   1.323  15.516  0.4082  0.0459 -0.2538
 1854SOL    HW117195   1.032   1.387  15.468 -1.4549 -1.5086 -0.2657
 1854SOL    HW217196   1.123   1.285  15.438 -1.4375 -0.3586 -0.9730
 1855SOL     OW17197   1.872   2.952   5.536 -0.2839  0.0692  0.7558
 1855SOL    HW117198   1.848   2.877   5.482 -0.7978  0.7936 -0.0250
 1855SOL    HW217199   1.917   3.009   5.473 -2.2105  1.4961  0.6761
 1856SOL     OW17200   4.260   1.029   9.231  0.2917  0.5693 -0.0005
 1856SOL    HW117201   4.292   1.097   9.171 -1.4591  0.9236 -0.5188
 1856SOL    HW217202   4.194   1.086   9.271  1.0027  2.2876 -1.2417
 1857SOL     OW17203   2.600   2.049   2.617 -0.1982  0.0278 -0.6321
 1857SOL    HW117204   2.611   1.967   2.570  0.2598  0.1096 -0.6757
 1857SOL    HW217205   2.692   2.074   2.624  0.7724 -4.5611  3.3942
 1858SOL     OW17206   4.705   4.039   6.837  0.1078 -0.0625  0.1583
 1858SOL    HW117207   0.051   4.064   6.803 -0.1666  3.2872  1.9566
 1858SOL    HW217208   4.692   4.112   6.898 -0.5818  0.2125 -0.3212
 1859SOL     OW17209   1.109   0.300  17.265 -1.0107  0.1363  0.2172
 1859SOL    HW117210   1.061   0.227  17.226  1.9440 -0.5785 -2.0911
 1859SOL    HW217211   1.063   0.312  17.348  0.0686 -0.8423  0.9702
 1860SOL     OW17212   1.231   4.342   4.519 -0.1574 -0.1707 -0.4934
 1860SOL    HW117213   1.304   4.379   4.569  0.6534 -1.3695 -0.7712
 1860SOL    HW217214   1.165   4.410   4.526  2.6857  2.4118  1.0696
 1861SOL     OW17215   1.130   3.024   4.665  0.0203 -0.5250  0.0944
 1861SOL    HW117216   1.192   3.075   4.717 -0.3053  0.2262 -0.2501
 1861SOL    HW217217   1.094   2.967   4.732  1.2991 -1.0973  0.2924
 1862SOL     OW17218   2.161   0.005   7.577  0.3226  0.8046 -0.3388
 1862SOL    HW117219   2.097   4.674   7.581 -0.4480  1.3742 -2.0419
 1862SOL    HW217220   2.099   0.078   7.579  0.4918  0.9744 -1.3103
 1863SOL     OW17221   2.409   4.151   3.639 -0.1740 -0.2459  0.3893
 1863SOL    HW117222   2.412   4.097   3.718  0.8997 -0.2047  0.3737
 1863SOL    HW217223   2.461   4.229   3.661  0.3298 -0.4551 -0.0483
 1864SOL     OW17224   2.138   0.173  16.687  0.0559  0.3700  0.5769
 1864SOL    HW117225   2.195   0.206  16.756 -0.9511  0.1414  1.5088
 1864SOL    HW217226   2.190   0.194  16.609  1.8638 -2.1379  1.0851
 1865SOL     OW17227   0.405   0.202   7.655 -0.0698  0.3360  0.2910
 1865SOL    HW117228   0.350   0.124   7.643 -0.7195  0.8154  0.1079
 1865SOL    HW217229   0.485   0.156   7.679 -0.6708 -1.3097 -0.9014
 1866SOL     OW17230   4.431   4.351   2.234  0.4144 -0.0784  0.2860
 1866SOL    HW117231   4.355   4.293   2.236  0.5513 -0.2513  0.4227
 1866SOL    HW217232   4.429   4.389   2.146  1.5217 -1.1457 -0.1863
 1867SOL     OW17233   3.040   1.784   1.739 -0.7565 -0.1647 -0.1125
 1867SOL    HW117234   3.061   1.742   1.822  0.0662  1.0793  0.3038
 1867SOL    HW217235   2.958   1.827   1.763  1.4559  3.1143  1.5394
 1868SOL     OW17236   4.646   4.543   3.259 -0.3237  0.0727  0.1584
 1868SOL    HW117237   4.701   4.550   3.181 -0.2408 -1.8575  0.0326
 1868SOL    HW217238   4.689   4.618   3.300  0.0064 -0.8541  1.5203
 1869SOL     OW17239   0.044   4.574   7.656 -0.2275  0.0712 -0.3322
 1869SOL    HW117240   4.735   4.644   7.699 -0.4758 -0.5296  0.3527
 1869SOL    HW217241   0.097   4.534   7.725  1.4653  2.6253 -0.1485
 1870SOL     OW17242   1.717   3.716   2.333 -0.0233  0.3143  0.1887
 1870SOL    HW117243   1.811   3.701   2.334  0.1622  1.0727 -4.3379
 1870SOL    HW217244   1.715   3.805   2.367  0.6292  0.1924  0.5399
 1871SOL     OW17245   3.938   3.156   6.426 -0.0233 -0.1108 -0.3133
 1871SOL    HW117246   3.847   3.156   6.396 -0.4975 -0.8021  1.1514
 1871SOL    HW217247   3.926   3.177   6.518  1.3862 -0.9104  0.0541
 1872SOL     OW17248   0.362   0.425   4.747 -0.0036  0.1472 -0.3500
 1872SOL    HW117249   0.409   0.407   4.666  0.5438  1.9953 -0.4229
 1872SOL    HW217250   0.328   0.342   4.782  0.6438  0.6885  1.5653
 1873SOL     OW17251   2.783   2.660   7.875 -0.0402 -0.2313 -0.0056
 1873SOL    HW117252   2.743   2.575   7.886  0.3584 -0.2847  1.0022
 1873SOL    HW217253   2.821   2.655   7.787 -0.7986 -1.4064 -0.2551
 1874SOL     OW17254   3.989   0.115   0.193  0.1095 -0.3439  0.4820
 1874SOL    HW117255   4.003   0.037   0.246 -1.8088 -0.2781  1.0764
 1874SOL    HW217256   4.013   0.182   0.257 -2.6064  2.2384 -1.1747
 1875SOL     OW17257   1.779   4.191   6.571 -0.5237  0.2729  0.4840
 1875SOL    HW117258   1.864   4.222   6.601  0.3063 -0.1280 -1.4917
 1875SOL    HW217259   1.810   4.168   6.484 -0.4570 -1.2932  0.9122
 1876SOL     OW17260   2.259   2.671  12.251 -0.3647 -0.2169 -0.1109
 1876SOL    HW117261   2.304   2.653  12.334  0.3419 -1.5962 -0.8034
 1876SOL    HW217262   2.183   2.617  12.271  0.1087 -0.6388  0.5507
 1877SOL     OW17263   2.507   0.271   2.833  0.0040  0.5630  0.2562
 1877SOL    HW117264   2.517   0.363   2.810  0.1904  0.2109 -1.0426
 1877SOL    HW217265   2.446   0.274   2.907  0.5612  0.7901  0.7103
 1878SOL     OW17266   2.746   1.772  15.851  0.3866  0.0098 -0.4149
 1878SOL    HW117267   2.666   1.775  15.904  0.8899  0.7997  0.3052
 1878SOL    HW217268   2.788   1.853  15.880  2.2402 -0.9687 -0.3383
 1879SOL     OW17269   4.100   3.089   7.642  0.1150 -0.5393 -0.0000
 1879SOL    HW117270   4.143   3.047   7.568 -2.1800 -1.5641 -0.7754
 1879SOL    HW217271   4.045   3.154   7.597  0.9483  0.0711 -0.1350
 1880SOL     OW17272   3.249   1.821   7.031  0.5654  0.1280  0.2597
 1880SOL    HW117273   3.335   1.851   7.002 -0.1511  0.4366 -1.5316
 1880SOL    HW217274   3.262   1.748   7.091 -5.0704  1.3769  2.9530
 1881SOL     OW17275   1.357   0.365  16.182  0.3128 -0.1621  0.4492
 1881SOL    HW117276   1.349   0.374  16.087  2.8969 -2.7501 -0.0252
 1881SOL    HW217277   1.346   0.456  16.211  1.4723 -0.0216  0.4631
 1882SOL     OW17278   3.775   3.426  14.633  0.1482 -0.3822 -0.0175
 1882SOL    HW117279   3.784   3.331  14.638  2.5699 -0.1408 -0.1509
 1882SOL    HW217280   3.830   3.465  14.700 -3.0140 -2.5060  3.8614
 1883SOL     OW17281   1.118   1.035   2.052 -0.5236  0.0020  0.1499
 1883SOL    HW117282   1.159   1.119   2.032  0.0826 -0.6119 -1.1654
 1883SOL    HW217283   1.174   0.991   2.115 -1.0719 -2.2130 -0.9222
 1884SOL     OW17284   1.014   0.913   1.826 -0.4855  0.2546 -0.0015
 1884SOL    HW117285   1.054   0.960   1.900 -0.2479  0.4038 -0.2228
 1884SOL    HW217286   1.089   0.861   1.798 -0.1328  0.7218  0.0644
 1885SOL     OW17287   1.210   1.310   0.722  0.6104  0.0655  0.2660
 1885SOL    HW117288   1.271   1.254   0.769 -0.9392  0.5347  2.8079
 1885SOL    HW217289   1.144   1.245   0.696 -1.3735  1.4886  1.7421
 1886SOL     OW17290   1.157   2.033   6.054 -0.0963 -0.0850  0.6527
 1886SOL    HW117291   1.099   2.045   6.129  0.4527 -0.7685  1.1922
 1886SOL    HW217292   1.146   2.114   6.005  2.8980 -0.5321 -0.7671
 1887SOL     OW17293   1.731   3.187  11.462 -0.2159  0.2233 -0.0633
 1887SOL    HW117294   1.721   3.214  11.553  0.4046 -1.0537  0.3942
 1887SOL    HW217295   1.663   3.122  11.447  0.8844 -0.6296 -1.4746
 1888SOL     OW17296   0.358   2.555   2.338 -0.1993  0.2519  0.0331
 1888SOL    HW117297   0.425   2.505   2.291  0.9820  1.6741  0.2207
 1888SOL    HW217298   0.413   2.624   2.375  0.3657 -0.9742  1.5064
 1889SOL     OW17299   1.787   0.892  11.764 -0.2752  0.3879 -0.1742
 1889SOL    HW117300   1.714   0.927  11.814 -1.0127  1.5141 -2.0443
 1889SOL    HW217301   1.803   0.814  11.818 -3.0290  0.4760  0.7470
 1890SOL     OW17302   1.253   2.540  10.852  0.1037 -0.1657  0.3313
 1890SOL    HW117303   1.288   2.468  10.905 -1.1570 -0.7583  0.3622
 1890SOL    HW217304   1.249   2.614  10.913 -0.0808 -0.8582  1.1615
 1891SOL     OW17305   1.771   2.228   4.110  0.3409 -0.0171 -0.0881
 1891SOL    HW117306   1.764   2.136   4.084  1.7120  0.0382 -0.6129
 1891SOL    HW217307   1.718   2.229   4.189  0.1317 -1.6744 -0.2121
 1892SOL     OW17308   3.873   3.088   9.117 -0.0465  0.2564 -0.4790
 1892SOL    HW117309   3.853   2.996   9.132 -2.0839  0.5294 -1.5095
 1892SOL    HW217310   3.961   3.096   9.154 -1.0654 -0.4262  2.0849
 1893SOL     OW17311   4.002   3.781  14.061  0.0138  0.3406 -0.1494
 1893SOL    HW117312   4.046   3.705  14.024 -3.3277 -1.5610 -0.2132
 1893SOL    HW217313   3.927   3.775  14.002  0.1755 -0.2515 -0.2903
 1894SOL     OW17314   1.051   1.132   6.695 -0.0852 -0.0890  0.3407
 1894SOL    HW117315   1.114   1.161   6.761 -2.3667  1.3582  1.8730
 1894SOL    HW217316   1.010   1.218   6.684  0.0701 -0.1031 -0.3877
 1895SOL     OW17317   3.841   1.201   1.500  0.2391  0.2174  0.0991
 1895SOL    HW117318   3.915   1.146   1.522 -0.4151 -0.6764  0.0828
 1895SOL    HW217319   3.884   1.272   1.452 -0.3221 -0.8629 -2.0072
 1896SOL     OW17320   1.759   3.176   5.693  0.3716  0.0518 -0.8829
 1896SOL    HW117321   1.839   3.164   5.641  2.1139 -1.1780  2.0974
 1896SOL    HW217322   1.706   3.193   5.616 -0.2866 -1.0203 -0.6646
 1897SOL     OW17323   0.657   0.710   7.307 -0.3070  0.2534 -0.3900
 1897SOL    HW117324   0.642   0.753   7.222  2.1465  1.3590 -0.2969
 1897SOL    HW217325   0.729   0.652   7.281  1.9062  2.0072  1.7984
 1898SOL     OW17326   3.171   4.058   2.610  0.0482  0.5163  0.3137
 1898SOL    HW117327   3.247   4.019   2.653  0.2429  1.5923  0.9327
 1898SOL    HW217328   3.103   4.046   2.676 -0.4770 -1.2232 -0.5281
 1899SOL     OW17329   4.012   0.999   4.609  0.0945 -0.1100 -0.0375
 1899SOL    HW117330   4.060   0.920   4.633 -0.9861 -1.2671 -1.6333
 1899SOL    HW217331   3.928   0.965   4.579  0.5964  0.6821 -2.3622
 1900SOL     OW17332   0.728   4.674   5.852  0.1456 -0.3116 -0.1127
 1900SOL    HW117333   0.706   4.618   5.778 -2.0437  0.9322 -0.4128
 1900SOL    HW217334   0.640   4.668   5.889 -0.0249 -0.6393 -0.5772
 1901SOL     OW17335   4.226   1.673  15.813 -0.4713 -0.1004  0.5927
 1901SOL    HW117336   4.183   1.741  15.761 -1.0849 -2.2289 -1.7196
 1901SOL    HW217337   4.244   1.600  15.753 -0.6212  1.3230 -1.1993
 1902SOL     OW17338   3.403   4.499   3.994 -0.1483 -0.0154  0.4456
 1902SOL    HW117339   3.466   4.505   3.922 -2.6947  1.2433 -1.6573
 1902SOL    HW217340   3.323   4.518   3.946  0.1990  1.2674  0.3613
 1903SOL     OW17341   2.770   0.681   8.134 -0.5536 -0.3401  0.3430
 1903SOL    HW117342   2.763   0.586   8.123  0.7420 -1.0530  5.8091
 1903SOL    HW217343   2.850   0.674   8.186  0.0703  1.5943 -0.3604
 1904SOL     OW17344   3.870   3.966   3.061 -0.4013  0.0098  0.4567
 1904SOL    HW117345   3.929   3.926   3.125 -0.2329  3.7213  2.5967
 1904SOL    HW217346   3.845   3.885   3.017  2.3220 -0.9684  0.7371
 1905SOL     OW17347   1.598   2.022   1.016 -0.0811  0.7600  0.5084
 1905SOL    HW117348   1.565   2.031   1.105 -0.0150  1.9490  0.4132
 1905SOL    HW217349   1.542   1.955   0.976 -0.0730  1.6351 -0.9235
 1906SOL     OW17350   4.421   2.151   6.832 -0.3407 -0.3560 -0.4379
 1906SOL    HW117351   4.440   2.080   6.770 -1.4807 -1.5934  0.6323
 1906SOL    HW217352   4.348   2.112   6.879  0.0598 -1.1877 -0.5081
 1907SOL     OW17353   0.204   1.310   4.094  0.3469  0.8033 -0.0439
 1907SOL    HW117354   0.173   1.372   4.028  1.2086  1.0914 -0.1780
 1907SOL    HW217355   0.296   1.300   4.070 -0.0659 -1.1755 -0.8153
 1908SOL     OW17356   0.837   4.280   7.817 -0.0394 -0.2731 -0.0079
 1908SOL    HW117357   0.849   4.371   7.845 -1.9362 -0.0184  0.0140
 1908SOL    HW217358   0.770   4.241   7.873  0.0063 -0.0584  0.1983
 1909SOL     OW17359   3.704   3.776   5.481 -0.8206  0.2135 -0.1022
 1909SOL    HW117360   3.718   3.726   5.561 -2.4748 -1.1359 -0.6691
 1909SOL    HW217361   3.693   3.867   5.511  0.5275  1.4602 -3.3192
 1910SOL     OW17362   4.182   2.477   2.784  0.0283  0.4724  0.2853
 1910SOL    HW117363   4.144   2.455   2.699  0.6021  2.6523 -0.5208
 1910SOL    HW217364   4.246   2.543   2.757 -0.3506  0.8667  0.3551
 1911SOL     OW17365   4.498   0.656  11.497 -0.1018 -0.2162  0.2444
 1911SOL    HW117366   4.418   0.674  11.447 -0.5124 -1.1635  0.5432
 1911SOL    HW217367   4.471   0.637  11.587 -1.7634  0.9280 -0.0055
 1912SOL     OW17368   0.744   0.329   0.129  0.1194  0.8971  0.3883
 1912SOL    HW117369   0.776   0.404   0.179  1.2289  2.0536 -2.0795
 1912SOL    HW217370   0.793   0.262   0.178  0.8596  1.0838 -0.0965
 1913SOL     OW17371   1.737   1.019  12.178  0.1333 -0.3998 -0.3817
 1913SOL    HW117372   1.701   0.993  12.093  0.5205 -0.4182 -0.5385
 1913SOL    HW217373   1.769   1.107  12.157  0.1548 -0.6533 -1.3683
 1914SOL     OW17374   1.260   1.030   2.777  0.1619 -0.1602 -0.6490
 1914SOL    HW117375   1.335   0.992   2.824 -2.0382  0.5595  3.4190
 1914SOL    HW217376   1.212   1.069   2.850  0.7306 -0.3927 -0.1443
 1915SOL     OW17377   0.496   0.131  17.756  0.3262  0.0476  0.8217
 1915SOL    HW117378   0.565   0.065  17.754  1.6333  1.3867  2.1625
 1915SOL    HW217379   0.497   0.163  17.666  0.0610 -0.9037  0.4760
 1916SOL     OW17380   2.183   4.683  17.066  0.3542 -0.1646 -0.7375
 1916SOL    HW117381   2.153   4.675  16.975 -0.9387 -0.7366 -0.2458
 1916SOL    HW217382   2.212   4.594  17.087 -0.8631 -0.8577 -1.9625
 1917SOL     OW17383   2.730   3.331   4.681  0.2026  0.3137 -0.6648
 1917SOL    HW117384   2.699   3.302   4.595 -2.5930  0.4899  0.2612
 1917SOL    HW217385   2.682   3.414   4.688  0.7823  0.4176  2.0022
 1918SOL     OW17386   2.720   2.496  10.082 -0.0145  0.9587 -0.1254
 1918SOL    HW117387   2.715   2.585  10.116 -0.8930  0.0198  2.1839
 1918SOL    HW217388   2.815   2.491  10.091 -0.0501  0.9472  0.2499
 1919SOL     OW17389   4.570   1.381   2.271 -0.4692  0.7296  0.0348
 1919SOL    HW117390   4.659   1.400   2.240 -0.3176  1.9289  1.2450
 1919SOL    HW217391   4.517   1.382   2.191 -1.0634 -0.1671  0.4168
 1920SOL     OW17392   1.842   2.635   7.646  0.4423 -0.1634 -0.1355
 1920SOL    HW117393   1.850   2.574   7.573  0.4867  1.2963 -1.3511
 1920SOL    HW217394   1.856   2.580   7.723  0.8196 -0.8972 -0.7267
 1921SOL     OW17395   4.401   3.414   3.496 -0.1837 -0.3199 -0.2243
 1921SOL    HW117396   4.390   3.495   3.547  1.5070 -0.8891  1.0584
 1921SOL    HW217397   4.348   3.349   3.541  0.2048 -0.3919  0.1326
 1922SOL     OW17398   0.097   1.603   8.198  0.0841 -0.0682  0.2623
 1922SOL    HW117399   0.089   1.546   8.275  0.1542  2.6935  2.2896
 1922SOL    HW217400   0.032   1.668   8.225  0.4098  0.0034  0.8714
 1923SOL     OW17401   4.383   1.483   7.937  0.6602 -0.1793 -0.4682
 1923SOL    HW117402   4.364   1.466   7.845 -0.0913  0.9548 -0.5195
 1923SOL    HW217403   4.429   1.566   7.935  0.9265 -0.3625 -1.6329
 1924SOL     OW17404   0.688   4.346   3.217  0.0516  0.3419 -0.6507
 1924SOL    HW117405   0.726   4.301   3.292  0.5341  0.6858 -0.6922
 1924SOL    HW217406   0.759   4.408   3.201 -0.4452  1.5663  2.0353
 1925SOL     OW17407   2.791   1.568   6.567 -0.3189  0.1939  0.4536
 1925SOL    HW117408   2.827   1.556   6.655 -0.7554  1.0693  0.7430
 1925SOL    HW217409   2.867   1.537   6.518 -0.9813  0.5593 -0.7999
 1926SOL     OW17410   1.603   0.325   2.331  0.1368 -0.0186  0.5428
 1926SOL    HW117411   1.650   0.403   2.360  0.3144  0.2900 -0.5622
 1926SOL    HW217412   1.613   0.271   2.409  0.1926 -1.9254 -0.7751
 1927SOL     OW17413   4.576   2.838   5.148 -0.1738 -0.3894 -0.2351
 1927SOL    HW117414   4.519   2.906   5.113 -0.9504 -0.8609  0.1163
 1927SOL    HW217415   4.657   2.889   5.141  0.7397 -1.5745  1.4682
 1928SOL     OW17416   2.835   0.758  11.781  0.4097 -0.0701 -0.2777
 1928SOL    HW117417   2.851   0.838  11.731  0.7203  0.4073  0.5864
 1928SOL    HW217418   2.920   0.714  11.773 -0.2047 -1.1934 -0.6579
 1929SOL     OW17419   2.834   4.252  11.360  0.0560  0.2000  0.0103
 1929SOL    HW117420   2.779   4.299  11.423 -2.3141  0.9097 -2.5978
 1929SOL    HW217421   2.910   4.311  11.361 -1.0375  1.6013 -0.1671
 1930SOL     OW17422   3.378   3.762   8.583  0.1494 -0.2135 -0.4988
 1930SOL    HW117423   3.405   3.768   8.675 -1.0923  2.0403 -0.2874
 1930SOL    HW217424   3.293   3.717   8.586 -1.0289  2.0485 -0.0490
 1931SOL     OW17425   2.503   2.118   0.018  0.4061  0.4340 -0.6905
 1931SOL    HW117426   2.519   2.060   0.093  1.9939  2.3768  0.4652
 1931SOL    HW217427   2.547   2.201   0.033  0.5047 -0.1793  2.5037
 1932SOL     OW17428   4.207   2.492   3.483 -0.1249  0.6881 -0.0458
 1932SOL    HW117429   4.163   2.411   3.508  3.2521 -1.0207  0.4615
 1932SOL    HW217430   4.171   2.501   3.395 -1.2979 -1.6421  0.2067
 1933SOL     OW17431   4.063   1.361   9.064  0.5318  0.0408  0.3295
 1933SOL    HW117432   4.137   1.357   9.004 -0.4505  3.4687 -1.0651
 1933SOL    HW217433   4.077   1.279   9.113 -0.0642 -0.6971 -0.7379
 1934SOL     OW17434   2.814   3.989   3.414 -0.2459  0.5142 -0.8110
 1934SOL    HW117435   2.773   3.937   3.484 -0.3809 -0.6851 -1.7770
 1934SOL    HW217436   2.906   3.979   3.436 -0.3469 -0.7266 -0.9717
 1935SOL     OW17437   1.434   3.966   5.302  0.5076 -0.5133 -0.1587
 1935SOL    HW117438   1.467   4.019   5.374 -3.7705  1.8083  0.1109
 1935SOL    HW217439   1.340   3.980   5.314  0.4102 -2.4145  1.3478
 1936SOL     OW17440   0.023   2.642   7.048  0.5067 -0.0130  0.1079
 1936SOL    HW117441   4.724   2.715   7.000  2.5208 -0.1297 -1.7090
 1936SOL    HW217442   4.688   2.584   7.060  1.5241 -1.0627  1.3549
 1937SOL     OW17443   2.662   3.148  14.849 -0.5488  0.5004  0.2118
 1937SOL    HW117444   2.659   3.153  14.944  2.4453  2.2283  0.1841
 1937SOL    HW217445   2.727   3.217  14.837  1.0985 -0.6319  2.5546
 1938SOL     OW17446   0.376   4.590  15.949  0.1076 -0.7077 -0.0747
 1938SOL    HW117447   0.467   4.613  15.964  0.0283 -2.3656  2.7956
 1938SOL    HW217448   0.383   4.495  15.936 -2.2708 -0.8669 -0.3669
 1939SOL     OW17449   0.380   2.400  15.234 -0.5075  0.0886 -0.2092
 1939SOL    HW117450   0.404   2.315  15.270  0.4079  0.8408  0.9717
 1939SOL    HW217451   0.362   2.382  15.142  2.8035 -0.9215 -0.6834
 1940SOL     OW17452   2.107   1.121   6.575  0.6423  0.2964  0.5460
 1940SOL    HW117453   2.020   1.158   6.564 -0.0664 -1.5520 -0.1790
 1940SOL    HW217454   2.093   1.034   6.614  0.3195 -1.5064 -3.5838
 1941SOL     OW17455   1.914   0.643   4.943  0.1305  0.5374  0.2078
 1941SOL    HW117456   1.888   0.604   5.027 -1.0984 -0.4521 -0.6388
 1941SOL    HW217457   1.913   0.564   4.890 -0.4470 -0.3329  1.5216
 1942SOL     OW17458   3.818   1.012   0.505  0.5593  0.1835 -0.0252
 1942SOL    HW117459   3.733   0.994   0.466  0.2984 -0.2696  0.7588
 1942SOL    HW217460   3.837   1.093   0.457  2.8803  0.3935  1.2574
 1943SOL     OW17461   1.398   0.030  12.894 -0.3428  0.0411 -0.7601
 1943SOL    HW117462   1.463   0.054  12.960 -1.3081 -1.9043  0.9157
 1943SOL    HW217463   1.328   0.092  12.914  0.0252 -0.4507  2.0650
 1944SOL     OW17464   2.424   2.329   1.382  0.3522 -0.4249  0.1922
 1944SOL    HW117465   2.398   2.269   1.312  0.2189  2.7900 -2.5292
 1944SOL    HW217466   2.466   2.264   1.437 -1.5836 -2.6512 -0.9360
 1945SOL     OW17467   2.631   4.173   9.780 -0.4722  0.2065 -0.1939
 1945SOL    HW117468   2.580   4.126   9.847  0.1020 -0.5732 -0.2932
 1945SOL    HW217469   2.701   4.108   9.773  0.0336  0.6103  1.1165
 1946SOL     OW17470   2.027   2.979   4.115 -0.5211 -0.4977 -0.3882
 1946SOL    HW117471   2.105   2.952   4.067  0.2387 -1.6783  1.5360
 1946SOL    HW217472   1.961   2.950   4.052 -0.3424 -3.1957  0.6900
 1947SOL     OW17473   3.084   3.160   2.244 -0.2734  0.1171  0.3482
 1947SOL    HW117474   3.032   3.143   2.323 -0.6473  4.6622  1.0640
 1947SOL    HW217475   3.024   3.144   2.170  0.3151  0.7708 -0.2661
 1948SOL     OW17476   4.562   3.961  14.334 -0.8626 -0.3009  0.3723
 1948SOL    HW117477   4.525   3.994  14.416  0.4021 -1.2694  1.3492
 1948SOL    HW217478   4.520   3.876  14.324 -3.4268  1.0174  0.0108
 1949SOL     OW17479   2.231   1.287   1.644 -0.6007  0.0281  0.4580
 1949SOL    HW117480   2.178   1.351   1.596 -0.0792  1.4717  1.7773
 1949SOL    HW217481   2.287   1.349   1.692  1.0502 -1.5253  0.5216
 1950SOL     OW17482   2.661   2.342   1.742 -0.0022 -0.0429  0.2031
 1950SOL    HW117483   2.589   2.399   1.768 -0.2556 -1.8171  3.3713
 1950SOL    HW217484   2.633   2.255   1.770 -0.3056 -0.2518 -0.7545
 1951SOL     OW17485   2.110   3.576  11.849  0.1109  0.4389 -0.2194
 1951SOL    HW117486   2.128   3.653  11.794  3.7907  0.3149  0.8292
 1951SOL    HW217487   2.023   3.547  11.822  0.0080  0.1530  0.4228
 1952SOL     OW17488   3.674   3.702   7.659  0.0478 -0.6709  0.2274
 1952SOL    HW117489   3.737   3.751   7.712 -0.2675  0.9533 -0.9014
 1952SOL    HW217490   3.611   3.756   7.612  0.7283 -0.8053 -0.8290
 1953SOL     OW17491   0.942   2.012   8.148 -0.5397 -0.6119  0.9862
 1953SOL    HW117492   0.854   2.046   8.163 -0.5246  1.0596 -2.8087
 1953SOL    HW217493   0.957   2.039   8.058 -4.4535  3.4670  1.5534
 1954SOL     OW17494   4.239   3.371  14.205  0.3649 -0.0976  0.5460
 1954SOL    HW117495   4.261   3.357  14.112  0.4990 -1.8783  0.8499
 1954SOL    HW217496   4.304   3.318  14.252  2.0238  1.4792  0.0103
 1955SOL     OW17497   3.232   0.789   7.970  0.2341 -0.2034 -0.3353
 1955SOL    HW117498   3.146   0.820   7.998  0.4678  0.1794 -0.0466
 1955SOL    HW217499   3.209   0.714   7.916 -0.5418 -0.3842  0.2348
 1956SOL     OW17500   2.766   3.664   0.101  0.3937 -0.2436  0.4177
 1956SOL    HW117501   2.758   3.575   0.134 -0.6429 -0.5049 -0.5573
 1956SOL    HW217502   2.724   3.662   0.015  0.8981  2.2951  0.1075
 1957SOL     OW17503   1.957   0.735   3.505 -0.1411 -0.3562 -0.2059
 1957SOL    HW117504   1.996   0.761   3.588 -2.3506 -1.4204  1.1592
 1957SOL    HW217505   1.984   0.815   3.460  4.2203 -1.0198  1.1867
 1958SOL     OW17506   3.984   1.174   9.247  0.0714  0.5538  0.1373
 1958SOL    HW117507   3.979   1.253   9.300  3.3793  0.6513  0.2539
 1958SOL    HW217508   3.895   1.138   9.257  0.7772 -1.3311 -0.2910
 1959SOL     OW17509   1.172   3.086   2.318 -0.4561  0.1921 -0.1007
 1959SOL    HW117510   1.113   3.129   2.380  0.0619 -0.5897  0.9376
 1959SOL    HW217511   1.228   3.033   2.375 -0.5079  0.1150 -0.1220
 1960SOL     OW17512   4.132   1.218   6.326  0.1612 -0.2415 -0.2149
 1960SOL    HW117513   4.072   1.198   6.398  0.4368 -0.2657  0.0063
 1960SOL    HW217514   4.179   1.290   6.367 -1.6273  0.4155  0.6789
 1961SOL     OW17515   0.069   1.366  10.245  0.1893  0.0822  0.0784
 1961SOL    HW117516   0.093   1.400  10.331 -1.2137  1.7534 -0.1909
 1961SOL    HW217517   4.714   1.371  10.251  0.4808  3.1778  1.9314
 1962SOL     OW17518   4.403   0.628   6.446 -0.0236 -0.4549  0.5202
 1962SOL    HW117519   4.423   0.617   6.539 -3.4199  0.2700  1.3158
 1962SOL    HW217520   4.341   0.701   6.444  0.8549  0.2952  0.5616
 1963SOL     OW17521   2.665   3.649   8.968 -0.3038 -0.1829  0.0343
 1963SOL    HW117522   2.663   3.559   8.934 -1.8952  0.3027 -1.1833
 1963SOL    HW217523   2.739   3.642   9.028 -0.1827 -0.1061 -0.1069
 1964SOL     OW17524   2.019   1.693   1.758  0.2703 -0.0775  0.2062
 1964SOL    HW117525   2.027   1.615   1.813 -2.1391 -0.7567 -0.3894
 1964SOL    HW217526   2.050   1.660   1.674 -0.2263 -0.5396  0.2026
 1965SOL     OW17527   3.805   3.033  12.704 -0.3518 -0.7594 -0.4374
 1965SOL    HW117528   3.753   3.113  12.701  1.0316  0.0961 -2.1200
 1965SOL    HW217529   3.775   2.986  12.781 -0.0190  0.6882  0.5777
 1966SOL     OW17530   2.104   4.470   6.864  0.2132  0.1187  0.8555
 1966SOL    HW117531   2.191   4.508   6.850  1.0083 -2.3462 -0.9577
 1966SOL    HW217532   2.046   4.545   6.849  1.3649  0.1196 -3.3429
 1967SOL     OW17533   1.103   0.151   6.695  0.1061  0.1328  0.1804
 1967SOL    HW117534   1.047   0.181   6.624 -0.1817 -0.6429  0.0743
 1967SOL    HW217535   1.170   0.099   6.649  0.1557 -0.7505  1.2407
 1968SOL     OW17536   2.326   3.675   9.322 -0.4664  0.0981  0.3012
 1968SOL    HW117537   2.234   3.651   9.309 -1.0587  3.6635 -1.9889
 1968SOL    HW217538   2.319   3.759   9.277  0.6083 -0.2237 -0.4900
 1969SOL     OW17539   2.644   3.554  12.608  0.2840 -0.3679  0.3050
 1969SOL    HW117540   2.623   3.491  12.677  0.7904 -1.4166 -0.4788
 1969SOL    HW217541   2.566   3.545  12.552  0.4549  5.2572 -0.8333
 1970SOL     OW17542   2.339   4.388   4.956  0.1614  0.8466 -0.3391
 1970SOL    HW117543   2.302   4.476   4.946 -0.9591  0.5395  1.1990
 1970SOL    HW217544   2.342   4.389   5.051  1.6412 -0.3865 -0.3686
 1971SOL     OW17545   1.422   3.024   5.726  0.3087  0.1806 -0.1744
 1971SOL    HW117546   1.457   2.988   5.645  3.6897  0.4483  1.1803
 1971SOL    HW217547   1.362   2.956   5.759 -0.2208 -0.4342 -2.3938
 1972SOL     OW17548   3.673   0.230   9.791  0.2682 -0.0332 -0.5196
 1972SOL    HW117549   3.727   0.303   9.760  1.6323 -1.8521 -2.3470
 1972SOL    HW217550   3.595   0.236   9.734  0.1114  3.5254  0.0433
 1973SOL     OW17551   3.522   2.703  14.712 -0.1586 -0.0775  0.0490
 1973SOL    HW117552   3.617   2.703  14.698  0.2273 -2.4650  2.6193
 1973SOL    HW217553   3.508   2.631  14.650  1.2582  0.9174 -1.4529
 1974SOL     OW17554   3.063   1.033   4.025  0.1157 -0.0022  0.1340
 1974SOL    HW117555   3.143   0.992   3.990  0.6443  1.3151 -0.1853
 1974SOL    HW217556   2.995   0.975   3.991  2.2538 -1.2409 -2.0691
 1975SOL     OW17557   3.663   4.238   3.389 -0.0458 -0.3709  1.1153
 1975SOL    HW117558   3.631   4.279   3.470 -0.4764  1.2444  0.1328
 1975SOL    HW217559   3.679   4.149   3.420 -0.4361 -0.5242  0.8808
 1976SOL     OW17560   2.419   2.494   2.112  0.2367 -0.4009 -0.5717
 1976SOL    HW117561   2.328   2.500   2.084  0.2488  1.3027 -0.2605
 1976SOL    HW217562   2.411   2.465   2.203 -0.7099 -1.5393 -1.0311
 1977SOL     OW17563   1.955   0.687   1.775 -0.2721 -0.3537 -0.7156
 1977SOL    HW117564   1.959   0.729   1.862 -1.3262 -0.1628 -0.7688
 1977SOL    HW217565   2.018   0.742   1.728  0.5349 -1.3468 -0.7980
 1978SOL     OW17566   2.642   0.421   2.500  0.6665  0.0741 -0.1848
 1978SOL    HW117567   2.701   0.460   2.436  1.5147 -1.8626 -0.5919
 1978SOL    HW217568   2.705   0.360   2.539 -0.4123 -1.6291 -1.1277
 1979SOL     OW17569   2.908   1.984  14.634 -0.0488  0.1792  0.4713
 1979SOL    HW117570   2.913   2.021  14.547  0.0468  0.4467  0.5912
 1979SOL    HW217571   2.813   1.970  14.636  0.1009 -0.6342  2.8391
 1980SOL     OW17572   3.312   0.912   4.851  0.1139  0.0424  0.4196
 1980SOL    HW117573   3.239   0.971   4.869 -1.0143 -2.0804  2.7347
 1980SOL    HW217574   3.369   0.928   4.926  0.4377  0.8219  0.0096
 1981SOL     OW17575   0.536   3.322   9.430 -0.2877 -0.0494  0.3184
 1981SOL    HW117576   0.535   3.273   9.512 -4.2209 -1.1435 -0.3736
 1981SOL    HW217577   0.492   3.404   9.450 -0.5476  0.2093 -1.3123
 1982SOL     OW17578   1.971   0.223   1.001  0.1812 -0.3483 -0.4250
 1982SOL    HW117579   1.953   0.240   1.093  1.4301 -2.0924  0.1397
 1982SOL    HW217580   1.944   0.307   0.964 -2.1035 -0.3143  1.3570
 1983SOL     OW17581   1.250   1.198  11.701  0.6108  0.1543 -0.5410
 1983SOL    HW117582   1.161   1.176  11.727  0.5321 -0.4413 -1.3209
 1983SOL    HW217583   1.299   1.117  11.714 -0.4165 -0.0240  2.1269
 1984SOL     OW17584   0.389   0.701   6.760 -0.5462  0.2587  0.2467
 1984SOL    HW117585   0.483   0.695   6.771 -0.3404  1.1095 -1.1194
 1984SOL    HW217586   0.383   0.780   6.707  0.6455 -0.1275 -0.4538
 1985SOL     OW17587   4.362   0.808   1.707  0.2203 -0.3091 -0.4904
 1985SOL    HW117588   4.287   0.780   1.655  0.4244  1.1606 -1.5854
 1985SOL    HW217589   4.360   0.904   1.703  2.7237 -0.2159  0.4765
 1986SOL     OW17590   4.030   2.452   2.532 -0.2753  0.3248 -1.0291
 1986SOL    HW117591   4.032   2.547   2.521  1.3382  0.6597  2.2757
 1986SOL    HW217592   4.031   2.423   2.440 -1.8378 -0.3325 -0.8251
 1987SOL     OW17593   0.829   0.030   4.117  0.3626  0.1906 -0.1467
 1987SOL    HW117594   0.820   0.051   4.024  0.0669  0.8594  0.0233
 1987SOL    HW217595   0.784   0.104   4.159  2.2077  1.2653 -0.0712
 1988SOL     OW17596   3.643   1.109  14.337 -0.0026  0.0406  0.0761
 1988SOL    HW117597   3.688   1.077  14.259  0.9731 -0.7395  0.9599
 1988SOL    HW217598   3.556   1.068  14.335 -0.8663  1.8477  0.3103
 1989SOL     OW17599   3.921   1.151   7.300 -0.2977 -0.4409  0.1852
 1989SOL    HW117600   3.936   1.083   7.366 -0.4271 -2.2153 -1.5914
 1989SOL    HW217601   4.007   1.191   7.293 -0.6867  0.3718  0.0463
 1990SOL     OW17602   2.614   0.452   8.440 -0.5963  0.5228 -0.2214
 1990SOL    HW117603   2.599   0.447   8.535  1.4739 -1.1521  0.0194
 1990SOL    HW217604   2.701   0.412   8.444 -0.9322 -0.2697 -0.9596
 1991SOL     OW17605   2.690   4.358  17.345 -0.1104  0.6570  0.6592
 1991SOL    HW117606   2.774   4.400  17.364  1.1366 -1.1736 -0.8092
 1991SOL    HW217607   2.694   4.284  17.405  0.1201  0.1768  0.0496
 1992SOL     OW17608   0.869   0.215  10.179 -0.8118  0.2080 -0.2252
 1992SOL    HW117609   0.800   0.200  10.243  0.6129 -0.6115  1.1200
 1992SOL    HW217610   0.917   0.294  10.204 -0.0134 -0.5809  0.7490
 1993SOL     OW17611   1.449   2.833   6.146  0.0389 -0.3215 -0.8337
 1993SOL    HW117612   1.493   2.751   6.127 -2.0343 -0.8631 -3.2698
 1993SOL    HW217613   1.505   2.895   6.098 -0.4250  0.2164 -0.6772
 1994SOL     OW17614   2.517   2.517  15.528  0.1723 -0.5496 -0.6662
 1994SOL    HW117615   2.442   2.464  15.504 -1.6081  1.0797  1.3283
 1994SOL    HW217616   2.539   2.570  15.451 -0.2411 -1.0573 -1.1295
 1995SOL     OW17617   2.809   2.877   7.556  0.1858 -0.2616  0.1958
 1995SOL    HW117618   2.842   2.965   7.576  2.1594 -1.1840  1.0916
 1995SOL    HW217619   2.772   2.896   7.470  0.7728 -0.3857 -0.0840
 1996SOL     OW17620   4.030   2.310   3.623  0.0272 -0.2115  0.0330
 1996SOL    HW117621   4.031   2.214   3.628 -2.0542 -0.2113  0.2188
 1996SOL    HW217622   4.002   2.338   3.710 -0.3811 -0.2409 -0.0906
 1997SOL     OW17623   2.775   2.112   6.730  0.1734 -0.8939  0.0402
 1997SOL    HW117624   2.851   2.137   6.782  0.5069 -1.1557 -0.3208
 1997SOL    HW217625   2.695   2.136   6.777  0.3403 -2.3540  1.0751
 1998SOL     OW17626   4.347   4.605  15.621  0.3219 -0.1132 -0.3543
 1998SOL    HW117627   4.392   4.668  15.677  0.4634 -0.3450 -0.2069
 1998SOL    HW217628   4.404   4.589  15.545 -0.3680 -2.5005 -0.3777
 1999SOL     OW17629   3.064   1.551   2.487  0.0006  0.6372  0.2138
 1999SOL    HW117630   3.017   1.600   2.555 -0.7643 -1.2451  1.0444
 1999SOL    HW217631   3.013   1.593   2.418 -1.4435 -0.8592  0.3796
 2000SOL     OW17632   0.467   2.310  10.645 -0.4300 -0.2197  0.3857
 2000SOL    HW117633   0.520   2.383  10.615  0.3513 -2.3893 -3.4361
 2000SOL    HW217634   0.493   2.233  10.595  1.4574 -0.4533  1.6938
 2001SOL     OW17635   1.930   2.883   7.259  0.1469  0.1961 -0.7570
 2001SOL    HW117636   1.924   2.927   7.344  1.1431  1.0862 -1.1485
 2001SOL    HW217637   1.895   2.796   7.278  1.0633  0.3622  1.7251
 2002SOL     OW17638   1.287   1.457   3.528 -0.0075  0.2157 -0.2076
 2002SOL    HW117639   1.269   1.404   3.605 -0.6885  0.4344 -0.2150
 2002SOL    HW217640   1.376   1.492   3.538  0.3232 -0.2072 -1.7208
 2003SOL     OW17641   2.928   1.743  12.829  0.4833  0.3270 -0.2695
 2003SOL    HW117642   2.962   1.742  12.739  1.9894  1.7957  0.2731
 2003SOL    HW217643   3.007   1.721  12.879  0.6688  0.4329 -0.5132
 2004SOL     OW17644   4.182   3.187   5.931  0.3586 -0.9815 -0.4941
 2004SOL    HW117645   4.097   3.187   5.887  1.7619  2.3870 -3.2279
 2004SOL    HW217646   4.236   3.212   5.856  0.3417 -0.9984 -0.5120
 2005SOL     OW17647   1.750   0.227   6.277 -0.2778 -0.2872 -0.3417
 2005SOL    HW117648   1.688   0.293   6.246 -0.0497 -1.1084 -2.5363
 2005SOL    HW217649   1.831   0.258   6.237 -0.3647 -1.1963 -1.2234
 2006SOL     OW17650   1.042   3.779  14.954 -0.2323  0.0110 -0.2732
 2006SOL    HW117651   1.115   3.838  14.971 -0.7030  1.0304 -1.7772
 2006SOL    HW217652   1.012   3.815  14.871  1.0652 -0.3463 -0.8906
 2007SOL     OW17653   4.055   4.331   7.175  0.1897 -0.3371 -0.6662
 2007SOL    HW117654   4.097   4.394   7.116 -0.5706  1.5105  0.7537
 2007SOL    HW217655   4.068   4.247   7.132 -0.0479  0.3548 -2.0631
 2008SOL     OW17656   2.917   3.833   9.208 -0.1344 -0.2367  0.2622
 2008SOL    HW117657   2.996   3.795   9.245 -0.2699 -0.8130 -0.0352
 2008SOL    HW217658   2.904   3.899   9.276 -0.5191  0.5397 -0.5631
 2009SOL     OW17659   3.484   0.334   2.814 -0.0113  0.3825  0.0640
 2009SOL    HW117660   3.522   0.253   2.780 -0.9727  0.1934 -0.5445
 2009SOL    HW217661   3.443   0.368   2.735  0.6765  2.0770  0.4309
 2010SOL     OW17662   0.194   1.618   5.132  0.6149  0.1877 -0.1931
 2010SOL    HW117663   0.238   1.698   5.159  0.1298  0.1848  0.5974
 2010SOL    HW217664   0.225   1.559   5.201 -1.9365  1.2700  1.8305
 2011SOL     OW17665   1.636   1.363   5.140 -0.0438 -0.0707  0.3209
 2011SOL    HW117666   1.579   1.377   5.064 -0.6241 -1.6214  0.4646
 2011SOL    HW217667   1.689   1.443   5.143 -0.6103  0.1697  3.3880
 2012SOL     OW17668   2.982   3.158   8.520  0.2753  0.2272 -0.2424
 2012SOL    HW117669   3.002   3.243   8.482  1.9062  0.9022  2.1468
 2012SOL    HW217670   2.900   3.136   8.474 -0.7849 -1.9939  2.6598
 2013SOL     OW17671   4.533   3.901   0.368 -0.3450 -0.5021 -0.5351
 2013SOL    HW117672   4.564   3.812   0.352 -0.7463 -0.8854  0.8431
 2013SOL    HW217673   4.495   3.886   0.454  0.1853  2.0157  0.1272
 2014SOL     OW17674   2.380   0.873   3.076 -0.4607 -0.3616 -0.0819
 2014SOL    HW117675   2.471   0.870   3.105 -0.7620 -1.3967  0.7422
 2014SOL    HW217676   2.345   0.820   3.147  0.4211  2.3333  2.3333
 2015SOL     OW17677   1.467   1.947   9.309  0.4353  0.3931  0.1214
 2015SOL    HW117678   1.404   1.940   9.237 -0.4817 -0.4729  1.0261
 2015SOL    HW217679   1.537   1.989   9.257  1.6765 -0.7556  0.8612
 2016SOL     OW17680   0.389   3.931   5.133  0.2275  0.3440 -0.6215
 2016SOL    HW117681   0.457   3.952   5.196 -0.5769 -0.8156  0.6280
 2016SOL    HW217682   0.334   3.881   5.193  0.6956 -1.1983 -1.4717
 2017SOL     OW17683   0.801   3.213   6.217  0.0147 -0.2829 -0.3364
 2017SOL    HW117684   0.749   3.134   6.204 -0.3707  0.2427 -1.9864
 2017SOL    HW217685   0.887   3.187   6.184  0.2066 -0.1642  0.0645
 2018SOL     OW17686   1.114   0.109  15.433  0.3954  0.6362 -0.4798
 2018SOL    HW117687   1.124   0.136  15.341 -0.9896 -0.3112 -0.9026
 2018SOL    HW217688   1.132   0.191  15.479  2.1304  1.0242 -1.8132
 2019SOL     OW17689   2.596   4.704   3.777  0.1927  0.2674 -0.2992
 2019SOL    HW117690   2.554   0.037   3.822  0.1741  1.1451 -1.7646
 2019SOL    HW217691   2.691   4.714   3.775  0.3345 -0.7174  1.3979
 2020SOL     OW17692   0.259   1.011  10.191  0.6415 -0.1598 -0.1742
 2020SOL    HW117693   0.322   0.940  10.178  1.3088  0.8088 -2.1639
 2020SOL    HW217694   0.280   1.076  10.124 -1.3387 -1.5686 -2.1228
 2021SOL     OW17695   1.195   2.555  12.885  0.0186 -0.2109 -0.0482
 2021SOL    HW117696   1.245   2.576  12.964  0.8722  1.8197 -1.1388
 2021SOL    HW217697   1.176   2.637  12.840  2.1371 -0.4284 -1.3386
 2022SOL     OW17698   2.811   3.390   2.393  0.8445 -0.4327 -0.1279
 2022SOL    HW117699   2.810   3.458   2.326  1.3604 -0.4856 -0.1909
 2022SOL    HW217700   2.724   3.396   2.434  0.1153  0.2401 -1.8020
 2023SOL     OW17701   2.951   2.353   5.174  1.0003  0.0401 -0.1382
 2023SOL    HW117702   2.969   2.435   5.220  0.0694 -0.4030  1.0022
 2023SOL    HW217703   3.033   2.309   5.196  0.6083 -0.0546  1.1210
 2024SOL     OW17704   1.717   0.851   9.080  0.0304 -0.1071 -0.3780
 2024SOL    HW117705   1.651   0.855   9.010 -0.1538 -4.3011 -0.4589
 2024SOL    HW217706   1.675   0.802   9.151  0.3012 -0.2586 -0.3235
 2025SOL     OW17707   0.743   2.128   2.961  0.0485  0.5976  0.2410
 2025SOL    HW117708   0.753   2.100   2.870  0.6806 -0.9900  0.8017
 2025SOL    HW217709   0.797   2.059   3.000  0.2181 -0.1313 -1.2610
 2026SOL     OW17710   1.169   1.174   3.021 -0.0478 -0.4764 -0.1665
 2026SOL    HW117711   1.212   1.167   3.106 -0.8149  3.3520  0.5242
 2026SOL    HW217712   1.096   1.225   3.055  0.9012  0.2561  0.7438
 2027SOL     OW17713   2.685   3.889  15.050 -0.0870 -0.5306  0.3447
 2027SOL    HW117714   2.697   3.959  14.986  0.2354 -0.8760  0.0280
 2027SOL    HW217715   2.756   3.832  15.024 -0.0224 -0.4039  0.2445
 2028SOL     OW17716   0.438   1.575   5.372  0.2044  0.1741 -0.2068
 2028SOL    HW117717   0.351   1.548   5.400 -0.8935  3.5405 -0.3587
 2028SOL    HW217718   0.470   1.628   5.445  0.7978 -1.9038  1.0345
 2029SOL     OW17719   3.054   2.770  10.444 -0.1178 -0.8070 -0.3673
 2029SOL    HW117720   3.022   2.698  10.390 -2.9137  1.2999 -1.5253
 2029SOL    HW217721   3.142   2.780  10.410 -0.1415 -2.8497 -1.0110
 2030SOL     OW17722   0.647   3.398  14.907 -0.0363 -0.1070 -0.3252
 2030SOL    HW117723   0.713   3.373  14.971 -0.6214  0.5687  0.5387
 2030SOL    HW217724   0.642   3.491  14.926 -2.6047  0.0658 -1.8995
 2031SOL     OW17725   0.723   2.384  14.071 -0.2760  0.2725  0.1957
 2031SOL    HW117726   0.664   2.458  14.062  1.7521  1.6089 -2.3765
 2031SOL    HW217727   0.678   2.311  14.028  3.3075 -1.3395 -0.8627
 2032SOL     OW17728   4.363   0.739   1.085 -0.4510  0.1041  0.4670
 2032SOL    HW117729   4.354   0.706   0.995 -2.6427  0.0984  0.6881
 2032SOL    HW217730   4.458   0.745   1.089 -0.3818 -0.0341 -0.8283
 2033SOL     OW17731   2.321   2.296  15.789  0.0978  0.1587  0.7233
 2033SOL    HW117732   2.260   2.339  15.729  0.0769 -1.3213 -0.3274
 2033SOL    HW217733   2.330   2.213  15.742 -0.5071 -0.0864  1.0489
 2034SOL     OW17734   0.688   0.739  11.210 -0.7597  0.3865 -0.1886
 2034SOL    HW117735   0.755   0.697  11.156 -3.4143 -4.1434  0.0072
 2034SOL    HW217736   0.661   0.668  11.269 -1.0509  0.8376  0.2262
 2035SOL     OW17737   0.469   3.199   6.979 -0.2143 -0.1320  0.1725
 2035SOL    HW117738   0.386   3.150   6.988  1.3748 -3.5137 -3.6233
 2035SOL    HW217739   0.485   3.213   7.072 -1.6706  1.0560  0.2438
 2036SOL     OW17740   3.130   1.033  12.893 -0.1373  0.4368  0.5362
 2036SOL    HW117741   3.223   1.026  12.913 -0.2755 -1.3712  0.4782
 2036SOL    HW217742   3.124   1.105  12.830 -1.1927  0.9735  1.2393
 2037SOL     OW17743   0.502   4.090   9.453 -0.4704 -0.3756  0.0077
 2037SOL    HW117744   0.565   4.019   9.442  0.9071  1.0140 -0.8876
 2037SOL    HW217745   0.547   4.156   9.506  1.5431 -0.0235 -2.1663
 2038SOL     OW17746   2.571   3.905   5.773  0.3292  0.1586  0.3899
 2038SOL    HW117747   2.609   3.865   5.852  0.3680 -1.4662 -0.4564
 2038SOL    HW217748   2.651   3.929   5.725  1.2502 -1.8705  0.9107
 2039SOL     OW17749   1.440   4.476   2.044  0.0935 -0.2239 -0.4711
 2039SOL    HW117750   1.496   4.520   2.108  1.0363 -0.3601 -1.1954
 2039SOL    HW217751   1.436   4.527   1.963  0.1578 -0.5711 -0.6976
 2040SOL     OW17752   1.229   2.545   7.632 -0.7676 -0.4168 -0.3010
 2040SOL    HW117753   1.159   2.578   7.687  0.1687  0.2056  0.5320
 2040SOL    HW217754   1.279   2.625   7.614 -1.1304  0.2762  1.7738
 2041SOL     OW17755   4.535   1.997   8.898 -0.8031  0.5440 -0.0635
 2041SOL    HW117756   4.475   2.058   8.854  0.1787  2.3029  1.0635
 2041SOL    HW217757   4.549   1.932   8.830  0.0050  0.8890 -0.2192
 2042SOL     OW17758   4.538   0.401   8.726  0.3560  0.0510 -0.3624
 2042SOL    HW117759   4.504   0.359   8.804  1.6627  0.5870  0.4968
 2042SOL    HW217760   4.508   0.491   8.739  2.6677  0.4753  1.9384
 2043SOL     OW17761   1.721   3.973   7.016 -0.1443  0.4931  0.6314
 2043SOL    HW117762   1.812   4.001   7.015 -0.4053  1.3535  1.0470
 2043SOL    HW217763   1.689   4.000   7.102 -2.4019  0.4158 -0.1813
 2044SOL     OW17764   3.909   2.368   7.413 -0.6435  0.2182  0.0338
 2044SOL    HW117765   3.968   2.372   7.489  1.4423 -2.1780 -1.4635
 2044SOL    HW217766   3.820   2.354   7.446 -0.3458  3.7973  2.4027
 2045SOL     OW17767   0.199   4.119   3.047  0.3015  0.5973  0.0776
 2045SOL    HW117768   0.247   4.166   3.115 -0.2296  2.2387 -0.6802
 2045SOL    HW217769   0.239   4.033   3.061 -0.7965  0.4391  2.1315
 2046SOL     OW17770   0.491   2.584  13.526  0.9952 -0.4154 -0.2688
 2046SOL    HW117771   0.541   2.580  13.607 -0.9077  3.5311  1.0959
 2046SOL    HW217772   0.409   2.629  13.548  0.9162  0.4705 -2.3223
 2047SOL     OW17773   0.048   1.830   5.431 -0.2774 -0.1154  0.4287
 2047SOL    HW117774   4.697   1.800   5.432 -0.1179 -0.6058  0.2056
 2047SOL    HW217775   0.045   1.925   5.436  0.2267 -0.0357 -0.8382
 2048SOL     OW17776   3.876   1.744   7.481 -0.2286  0.1951 -0.1224
 2048SOL    HW117777   3.850   1.813   7.542 -1.9683  0.1137 -0.7754
 2048SOL    HW217778   3.971   1.751   7.484 -0.2968  0.7823  0.6881
 2049SOL     OW17779   0.067   3.747  15.973 -0.2643 -0.0477  0.1217
 2049SOL    HW117780   0.008   3.797  16.029  0.5169  0.4163  0.5180
 2049SOL    HW217781   0.047   3.662  16.012  0.5396 -0.3543 -0.1498
 2050SOL     OW17782   4.006   4.353  12.916 -0.2929  0.5047  0.2156
 2050SOL    HW117783   4.087   4.306  12.900 -1.0818 -0.7404 -0.0636
 2050SOL    HW217784   4.023   4.395  13.001 -1.0397  0.2195  0.5060
 2051SOL     OW17785   0.511   1.476   5.966 -0.5310  0.0001 -0.5493
 2051SOL    HW117786   0.589   1.500   5.915  0.0012 -1.3310 -0.3543
 2051SOL    HW217787   0.450   1.541   5.931  0.6783  0.4001 -1.9168
 2052SOL     OW17788   2.691   1.796  13.334 -0.4080 -0.0292 -0.7897
 2052SOL    HW117789   2.680   1.890  13.350  0.4756 -0.0504 -0.0615
 2052SOL    HW217790   2.753   1.788  13.261 -2.3485 -1.9091 -2.2053
 2053SOL     OW17791   1.662   3.835   9.216  0.0860  0.1837 -0.3615
 2053SOL    HW117792   1.601   3.768   9.186  0.5672 -0.1113 -0.6729
 2053SOL    HW217793   1.727   3.780   9.262 -0.7943 -0.4327  0.1516
 2054SOL     OW17794   3.196   0.507   5.574 -0.0031 -0.1368  0.9800
 2054SOL    HW117795   3.277   0.556   5.569 -0.8493  1.1091 -0.4082
 2054SOL    HW217796   3.151   0.526   5.492  0.9233 -1.1688  0.2405
 2055SOL     OW17797   4.689   4.157   8.964  0.0161 -0.6358  0.0639
 2055SOL    HW117798   4.690   4.062   8.954 -0.3051 -0.8449  1.9660
 2055SOL    HW217799   4.726   4.163   9.052 -0.9760 -0.6176  0.4699
 2056SOL     OW17800   2.440   0.467   0.322 -0.1600 -0.1122  0.1227
 2056SOL    HW117801   2.455   0.483   0.415  0.4738 -0.1604  0.0229
 2056SOL    HW217802   2.363   0.410   0.333 -0.2127  0.1281  0.9946
 2057SOL     OW17803   1.894   2.061   5.626  0.5271 -0.1011 -0.5467
 2057SOL    HW117804   1.970   2.003   5.626  2.6533  2.6460 -3.0190
 2057SOL    HW217805   1.903   2.084   5.719  0.6187  0.6384 -0.7366
 2058SOL     OW17806   3.222   2.854   3.579 -0.0271 -0.3337 -0.1266
 2058SOL    HW117807   3.191   2.942   3.558 -0.9832 -0.2864  1.5349
 2058SOL    HW217808   3.193   2.816   3.496  2.4774 -1.8302 -0.3172
 2059SOL     OW17809   0.950   2.057   9.298 -0.6351  0.1349 -0.4513
 2059SOL    HW117810   0.858   2.045   9.323 -1.0551  0.7406 -1.7254
 2059SOL    HW217811   0.976   1.986   9.356 -0.5046 -0.3111 -1.0617
 2060SOL     OW17812   3.915   2.010  12.582 -0.2815  0.0500  0.5243
 2060SOL    HW117813   3.883   1.939  12.638  1.0753 -1.4657 -0.5964
 2060SOL    HW217814   3.988   2.045  12.633 -0.2920 -0.8640  1.1527
 2061SOL     OW17815   3.885   1.655   8.543  0.0396 -0.7407  0.5398
 2061SOL    HW117816   3.882   1.632   8.635 -0.1319  1.5043  1.0900
 2061SOL    HW217817   3.814   1.595   8.519 -0.5190  0.6538 -1.3473
 2062SOL     OW17818   2.974   0.075   9.061 -0.1392 -0.3464  0.2888
 2062SOL    HW117819   3.006   0.099   8.974 -0.9108  0.9239  0.3565
 2062SOL    HW217820   2.948   0.162   9.091 -1.5096 -0.5534 -0.2924
 2063SOL     OW17821   3.883   0.163  12.343 -0.0193  0.0613  0.0207
 2063SOL    HW117822   3.958   0.140  12.398  1.5673  2.1282 -1.2569
 2063SOL    HW217823   3.924   0.158  12.257  0.7050 -0.5414  0.3980
 2064SOL     OW17824   3.197   3.776   9.000  0.0952 -0.5920  0.6258
 2064SOL    HW117825   3.128   3.799   8.936  1.0406 -0.1589 -0.2399
 2064SOL    HW217826   3.149   3.715   9.056 -1.0978 -0.2610 -0.0167
 2065SOL     OW17827   3.007   1.609   7.566 -0.1923 -0.3632 -0.0110
 2065SOL    HW117828   3.043   1.548   7.631  0.0983  0.3882  0.5349
 2065SOL    HW217829   2.932   1.655   7.605 -0.7344  1.0366 -2.7221
 2066SOL     OW17830   1.584   0.759   2.674 -0.0037 -0.1238 -0.2162
 2066SOL    HW117831   1.604   0.785   2.584 -0.1168 -1.2382 -0.5557
 2066SOL    HW217832   1.529   0.681   2.667 -1.3571  0.5024  3.4915
 2067SOL     OW17833   3.464   2.238  11.983 -0.5650  0.0219  0.3074
 2067SOL    HW117834   3.490   2.318  12.029  1.4151 -0.9418  0.8648
 2067SOL    HW217835   3.434   2.280  11.903  1.2345 -0.0250 -0.3763
 2068SOL     OW17836   1.774   1.697   7.573  0.7051  0.1972  0.2948
 2068SOL    HW117837   1.836   1.741   7.516  1.7658 -0.7371  0.7260
 2068SOL    HW217838   1.812   1.615   7.604 -2.7174 -1.3059  0.5170
 2069SOL     OW17839   3.130   0.166   2.609  0.0246  0.4360 -0.4599
 2069SOL    HW117840   3.184   0.195   2.536  0.1986  1.2242 -0.0150
 2069SOL    HW217841   3.102   0.077   2.586 -0.0488  0.2685  0.2667
 2070SOL     OW17842   2.677   3.283  10.755 -0.4584 -0.0721  0.2034
 2070SOL    HW117843   2.662   3.231  10.676 -0.2738  2.9151 -1.7859
 2070SOL    HW217844   2.757   3.248  10.793  0.5537  0.2896 -1.5990
 2071SOL     OW17845   3.030   0.898   6.577 -0.1448 -0.3397 -0.1616
 2071SOL    HW117846   3.031   0.824   6.639 -1.3404 -0.7459 -0.6267
 2071SOL    HW217847   2.980   0.854   6.508  1.7493 -2.7385 -0.0277
 2072SOL     OW17848   2.987   3.420   2.940  0.2023 -1.0955  0.4163
 2072SOL    HW117849   2.970   3.332   2.974 -4.6880 -0.9770 -1.6817
 2072SOL    HW217850   2.996   3.393   2.848 -0.0621  0.7246 -0.1467
 2073SOL     OW17851   3.149   2.250  14.742  0.3235  0.4270  0.2600
 2073SOL    HW117852   3.063   2.293  14.748  0.7805  1.4463 -0.4402
 2073SOL    HW217853   3.145   2.161  14.778 -2.5200  0.2020 -0.6244
 2074SOL     OW17854   1.719   4.178   3.204 -0.1243 -0.4611  0.2206
 2074SOL    HW117855   1.769   4.259   3.196 -0.4473 -0.2760  0.0353
 2074SOL    HW217856   1.717   4.156   3.297 -0.0096  0.8968  0.5494
 2075SOL     OW17857   3.671   0.231   5.632  0.1012  0.3322 -0.1961
 2075SOL    HW117858   3.663   0.208   5.539  1.7547  0.7650 -0.4516
 2075SOL    HW217859   3.632   0.156   5.677  0.3525  1.0113  1.1588
 2076SOL     OW17860   0.031   1.369   3.129 -0.3030  0.6312  0.0849
 2076SOL    HW117861   4.707   1.390   3.061 -1.4131 -1.6474  0.4488
 2076SOL    HW217862   0.072   1.286   3.103 -0.0448  0.4605  1.0514
 2077SOL     OW17863   0.518   0.305   5.048  0.0286  0.1041  0.2739
 2077SOL    HW117864   0.430   0.269   5.059 -0.0402  0.0349 -0.5364
 2077SOL    HW217865   0.517   0.393   5.087 -2.6738  0.2981 -0.3005
 2078SOL     OW17866   1.406   1.124   0.328  0.4381 -0.4861 -0.2499
 2078SOL    HW117867   1.468   1.197   0.321  1.8383 -1.8228 -1.7275
 2078SOL    HW217868   1.445   1.071   0.398 -1.6039  0.0453  1.2902
 2079SOL     OW17869   0.529   3.848  15.241  0.3511  0.2801  0.7305
 2079SOL    HW117870   0.601   3.903  15.271 -0.0978  0.8527  0.7621
 2079SOL    HW217871   0.471   3.868  15.315 -1.1019  2.0163 -0.8947
 2080SOL     OW17872   2.477   1.231   3.797 -0.7554 -0.1045 -0.4247
 2080SOL    HW117873   2.443   1.227   3.887 -0.3923  1.6219 -0.2128
 2080SOL    HW217874   2.467   1.324   3.778  0.9222 -0.3212 -2.3534
 2081SOL     OW17875   1.669   2.389   4.903  0.2547  0.1234  0.4064
 2081SOL    HW117876   1.640   2.300   4.883  4.4211 -1.2193  0.4183
 2081SOL    HW217877   1.630   2.428   4.824  0.3875  1.5118  1.0227
 2082SOL     OW17878   1.638   3.976   4.594 -0.9327 -0.2679  0.3579
 2082SOL    HW117879   1.704   4.019   4.540  1.2341 -2.3361  1.3658
 2082SOL    HW217880   1.567   3.996   4.534  0.6729 -0.2391 -1.5364
 2083SOL     OW17881   1.851   0.431   4.764  0.2621 -0.4851 -0.1316
 2083SOL    HW117882   1.829   0.499   4.700  1.8803  1.9434  1.9015
 2083SOL    HW217883   1.800   0.360   4.725 -0.4765 -0.3345  0.5567
 2084SOL     OW17884   0.506   2.126   3.649  0.1527  1.0424  0.1621
 2084SOL    HW117885   0.447   2.127   3.725  1.0353 -0.3899  0.8683
 2084SOL    HW217886   0.511   2.032   3.629 -0.4513  0.8871  0.7196
 2085SOL     OW17887   2.826   1.344   8.110  0.5127  0.1761 -0.3448
 2085SOL    HW117888   2.886   1.336   8.184 -0.0257  2.3308  0.3075
 2085SOL    HW217889   2.741   1.338   8.153  0.2293 -1.6929 -1.1817
 2086SOL     OW17890   3.120   1.010   5.505  0.1631 -0.7897 -0.0457
 2086SOL    HW117891   3.114   0.915   5.504  1.0230 -0.8436  1.6786
 2086SOL    HW217892   3.211   1.023   5.481  0.2456  0.5640  0.9818
 2087SOL     OW17893   1.022   0.636   8.427  0.1250 -0.7142  0.5583
 2087SOL    HW117894   1.013   0.722   8.466  2.3616  0.0341 -0.5674
 2087SOL    HW217895   0.927   0.627   8.423 -0.0254  0.8530  0.7024
 2088SOL     OW17896   2.906   4.643   5.371 -0.0497 -0.1096 -0.7073
 2088SOL    HW117897   2.922   4.614   5.281  0.8101 -0.3201 -0.4841
 2088SOL    HW217898   2.862   4.727   5.364  0.3061  0.1070 -0.3288
 2089SOL     OW17899   0.623   0.991  16.869 -0.1996 -0.1389  0.3885
 2089SOL    HW117900   0.661   1.016  16.784  0.3702 -1.7266  0.1818
 2089SOL    HW217901   0.543   0.949  16.838 -0.9999  1.3644  0.3862
 2090SOL     OW17902   2.613   0.864   2.187 -0.1330 -0.0962  0.7610
 2090SOL    HW117903   2.564   0.821   2.257 -0.3563 -0.0565  0.6278
 2090SOL    HW217904   2.609   0.954   2.218 -0.0323  0.4469 -0.7677
 2091SOL     OW17905   2.383   0.350   4.038  0.2900  0.0989 -0.1411
 2091SOL    HW117906   2.391   0.329   4.131  2.1782 -0.7920 -0.5074
 2091SOL    HW217907   2.288   0.349   4.025  0.0039 -1.2598  2.0497
 2092SOL     OW17908   2.462   4.548   8.158 -0.4858 -0.3265  0.0601
 2092SOL    HW117909   2.400   4.619   8.174  1.1366  1.1112  0.0065
 2092SOL    HW217910   2.444   4.486   8.229  1.9236 -1.2258 -0.0817
 2093SOL     OW17911   0.251   1.674  15.006  0.0301 -0.2000 -0.3222
 2093SOL    HW117912   0.286   1.592  14.971 -1.3617 -0.4739 -1.0988
 2093SOL    HW217913   0.300   1.732  14.947 -0.5363  0.0042 -0.5982
 2094SOL     OW17914   2.907   3.499   4.373  0.1255 -0.3618 -0.1400
 2094SOL    HW117915   2.940   3.548   4.448 -0.4425  1.9167 -1.3725
 2094SOL    HW217916   2.967   3.426   4.381  0.2980  0.0191  2.1028
 2095SOL     OW17917   4.420   4.553   8.777 -0.1465  0.2708 -0.1196
 2095SOL    HW117918   4.414   4.483   8.841  0.2546  0.1191 -0.2534
 2095SOL    HW217919   4.475   4.614   8.826 -0.1363  0.1356  0.0357
 2096SOL     OW17920   1.729   1.456   0.718 -0.2678 -0.4547  0.0731
 2096SOL    HW117921   1.636   1.439   0.704 -0.0640 -1.8058  0.4322
 2096SOL    HW217922   1.732   1.483   0.810  0.6570 -0.9398  0.1779
 2097SOL     OW17923   3.539   1.993   7.268  0.8108  0.0032 -0.3482
 2097SOL    HW117924   3.489   1.942   7.332  1.2135 -2.3018 -1.8543
 2097SOL    HW217925   3.546   2.073   7.319  0.2000  1.4095 -2.4670
 2098SOL     OW17926   2.092   0.261   6.075  0.7381 -0.3847 -0.1567
 2098SOL    HW117927   2.068   0.303   6.158 -3.1255  0.0295 -1.4994
 2098SOL    HW217928   2.009   0.227   6.043 -0.4715 -0.7419  3.3984
 2099SOL     OW17929   0.470   0.803  11.064 -0.6941  0.1155  0.0954
 2099SOL    HW117930   0.552   0.799  11.114 -1.0948 -4.1997  0.4206
 2099SOL    HW217931   0.474   0.891  11.026 -0.9124 -0.5513 -1.4546
 2100SOL     OW17932   1.253   4.257  17.753 -0.2568  0.3663  0.2905
 2100SOL    HW117933   1.309   4.215   0.059  1.4499  0.4498 -1.1505
 2100SOL    HW217934   1.217   4.175  17.719  2.1003 -0.5445  0.0390
 2101SOL     OW17935   1.675   3.641   0.368  0.6156  0.4409  0.0321
 2101SOL    HW117936   1.634   3.687   0.441 -0.6129 -0.7415  0.0948
 2101SOL    HW217937   1.607   3.578   0.343 -0.2948  2.1594 -1.9274
 2102SOL     OW17938   1.030   1.579   3.420 -0.0960  0.1504  0.3156
 2102SOL    HW117939   1.030   1.674   3.428  0.6297  0.2098 -0.4220
 2102SOL    HW217940   1.112   1.544   3.453 -0.5266  0.4810  1.7458
 2103SOL     OW17941   2.989   1.538   8.547  0.1758 -0.1197 -0.0486
 2103SOL    HW117942   3.084   1.538   8.541  0.0917 -0.8873 -1.4449
 2103SOL    HW217943   2.975   1.618   8.598  1.5576  0.5991 -0.7906
 2104SOL     OW17944   0.704   4.089   4.980  0.0155  0.4459 -0.0090
 2104SOL    HW117945   0.725   4.134   5.062 -1.0378  1.3570 -0.2496
 2104SOL    HW217946   0.705   3.999   5.012 -1.0424  0.4084 -0.0959
 2105SOL     OW17947   0.813   0.152   3.858 -0.1313 -0.0901  0.0178
 2105SOL    HW117948   0.792   0.238   3.820 -0.5030 -0.4853 -0.6638
 2105SOL    HW217949   0.861   0.105   3.789 -0.6147 -0.2470 -0.2130
 2106SOL     OW17950   0.961   4.413   3.919  0.0783 -0.5499 -0.1363
 2106SOL    HW117951   0.883   4.467   3.911  0.7385  0.5855  0.9692
 2106SOL    HW217952   1.027   4.469   3.877 -0.6401  0.4542  0.0877
 2107SOL     OW17953   0.749   1.136   3.501  0.6147  0.1768 -0.0540
 2107SOL    HW117954   0.710   1.137   3.413  0.6221 -1.1093 -0.0753
 2107SOL    HW217955   0.842   1.133   3.479  0.7917  0.1532  0.7035
 2108SOL     OW17956   3.019   1.768   5.746  0.4971 -0.6952 -0.2833
 2108SOL    HW117957   2.973   1.685   5.757  1.5202 -1.0852  1.0251
 2108SOL    HW217958   3.112   1.747   5.748  0.8499  1.1280  3.2314
 2109SOL     OW17959   2.797   0.639   5.285  0.0453  0.3809  0.2796
 2109SOL    HW117960   2.865   0.686   5.236 -0.1205 -0.5312 -0.8239
 2109SOL    HW217961   2.742   0.713   5.311 -0.4612 -0.2170  0.8867
 2110SOL     OW17962   1.236   2.464   3.821  0.1406  0.5032 -0.4580
 2110SOL    HW117963   1.140   2.466   3.813 -0.1645  0.2865  2.9632
 2110SOL    HW217964   1.255   2.534   3.884  0.9131 -0.2183  0.1068
 2111SOL     OW17965   2.467   0.166  12.195 -0.0875  0.1521  0.1370
 2111SOL    HW117966   2.529   0.118  12.138  0.2375 -0.2304  0.8110
 2111SOL    HW217967   2.432   0.228  12.131 -1.5297  0.2443  1.0304
 2112SOL     OW17968   4.129   0.727   6.493 -0.6958  0.1016  0.0480
 2112SOL    HW117969   4.083   0.647   6.520 -0.3361 -0.7010 -1.6881
 2112SOL    HW217970   4.122   0.779   6.573 -0.6965 -0.6068  0.5133
 2113SOL     OW17971   2.616   0.597   4.195 -0.1219 -0.2695  0.2024
 2113SOL    HW117972   2.571   0.652   4.132  1.1542  0.4968 -0.0403
 2113SOL    HW217973   2.548   0.586   4.261  1.1530  0.5916  1.6589
 2114SOL     OW17974   1.441   0.870   6.453  0.3217  0.1822 -0.2179
 2114SOL    HW117975   1.436   0.804   6.383 -0.1837 -0.1654  0.1472
 2114SOL    HW217976   1.369   0.837   6.507  0.5410 -0.7874 -0.5194
 2115SOL     OW17977   4.193   0.917  11.439 -0.6886 -0.1281 -0.1820
 2115SOL    HW117978   4.220   0.902  11.530 -2.2552 -0.8641  0.1699
 2115SOL    HW217979   4.174   0.828  11.410 -0.2819  0.3927 -2.0472
 2116SOL     OW17980   4.664   2.287   6.881  0.2199  0.0490 -0.1354
 2116SOL    HW117981   4.575   2.254   6.892  0.0813  0.4927  0.0395
 2116SOL    HW217982   4.721   2.238   6.940 -0.9816  1.2680  2.0169
 2117SOL     OW17983   2.493   0.993   4.797 -0.1960 -0.1057 -0.3046
 2117SOL    HW117984   2.426   1.059   4.778 -1.2964 -1.4733 -1.2256
 2117SOL    HW217985   2.512   0.961   4.709 -0.7228 -0.4836 -0.2820
 2118SOL     OW17986   4.369   1.093   1.350  0.2433  0.8065 -0.2453
 2118SOL    HW117987   4.292   1.039   1.331  0.7264  0.7463 -1.9838
 2118SOL    HW217988   4.354   1.157   1.280 -0.8573  3.3148  2.2557
 2119SOL     OW17989   0.646   2.749   4.253  0.2169  0.1438  0.8841
 2119SOL    HW117990   0.613   2.727   4.166  2.3472 -0.9195  0.3335
 2119SOL    HW217991   0.730   2.704   4.248  0.3684  0.6436 -0.8920
 2120SOL     OW17992   2.115   3.755   5.329 -0.2273 -0.2729  0.1145
 2120SOL    HW117993   2.065   3.784   5.405 -0.9196  0.3148 -0.5628
 2120SOL    HW217994   2.053   3.746   5.256 -0.4391  3.0276 -0.1378
 2121SOL     OW17995   2.262   0.982   5.736 -0.0225  0.2551 -0.2863
 2121SOL    HW117996   2.256   0.914   5.670  3.9351 -0.8474  0.4494
 2121SOL    HW217997   2.198   1.047   5.705 -0.0690  0.0298 -0.6662
 2122SOL     OW17998   1.131   3.216   3.502  0.5747 -0.4420  0.1707
 2122SOL    HW117999   1.140   3.187   3.593 -1.3284 -1.0077  0.1909
 2122SOL    HW218000   1.222   3.234   3.481 -0.3749  2.7648 -1.1923
 2123SOL     OW18001   2.142   3.128  14.713 -0.3753 -0.0546  0.2448
 2123SOL    HW118002   2.153   3.132  14.808 -0.5822 -2.7198  0.4054
 2123SOL    HW218003   2.229   3.133  14.675 -0.7958 -2.0303 -0.9887
 2124SOL     OW18004   0.415   0.177   3.324 -0.3784 -0.3925  0.3387
 2124SOL    HW118005   0.370   0.230   3.257 -0.7806 -0.4466  0.5715
 2124SOL    HW218006   0.494   0.159   3.273 -0.2147 -3.9878  1.8842
 2125SOL     OW18007   2.430   2.404   8.411  0.3339 -0.3337  0.5283
 2125SOL    HW118008   2.465   2.487   8.444  0.0788 -0.2259  0.5288
 2125SOL    HW218009   2.433   2.419   8.317  0.8725  0.1637  0.6170
 2126SOL     OW18010   3.799   3.902   3.495  0.1906  0.4575 -0.3402
 2126SOL    HW118011   3.858   3.898   3.420  1.1438  0.5160  0.4085
 2126SOL    HW218012   3.839   3.975   3.542 -3.0533 -0.3963  3.7866
 2127SOL     OW18013   3.869   4.015  11.729  0.1433  0.6181 -0.3130
 2127SOL    HW118014   3.835   3.927  11.711  0.2919  0.4907  0.0357
 2127SOL    HW218015   3.856   4.027  11.823  1.6948  2.0853 -0.2930
 2128SOL     OW18016   1.253   4.339   3.089 -0.2595  0.2949 -0.2738
 2128SOL    HW118017   1.314   4.341   3.016  0.6768  0.8376  0.5249
 2128SOL    HW218018   1.193   4.267   3.069 -0.1065 -0.0044  0.3293
 2129SOL     OW18019   2.867   3.244  11.532  0.3877  0.1693 -0.5907
 2129SOL    HW118020   2.866   3.220  11.440  3.4805  1.2250 -0.9147
 2129SOL    HW218021   2.954   3.272  11.561 -1.1711  2.1781  2.1590
 2130SOL     OW18022   1.928   0.354   5.760 -0.0687  0.8900 -0.1986
 2130SOL    HW118023   1.940   0.285   5.826 -1.3191  0.7928 -0.0701
 2130SOL    HW218024   2.017   0.357   5.724  0.1864 -1.3137  0.2221
 2131SOL     OW18025   3.268   3.806   2.937  0.0717  0.0505  0.0566
 2131SOL    HW118026   3.289   3.713   2.935  1.5606  0.3739  0.7912
 2131SOL    HW218027   3.248   3.816   3.030 -0.6881  0.8344 -0.1856
 2132SOL     OW18028   1.865   3.479   5.341  0.2424  0.2370  0.4397
 2132SOL    HW118029   1.769   3.486   5.336  0.4538  2.1488 -0.7868
 2132SOL    HW218030   1.867   3.522   5.426  1.6141  1.2970 -0.1443
 2133SOL     OW18031   3.313   3.807   0.957 -0.7363  0.1307  0.2922
 2133SOL    HW118032   3.382   3.844   1.011 -0.6043  0.7745 -0.3200
 2133SOL    HW218033   3.242   3.798   1.021  0.6090 -4.0618  1.1919
 2134SOL     OW18034   3.211   2.490   6.196 -0.0122 -0.2043 -0.0124
 2134SOL    HW118035   3.157   2.567   6.181  2.6100  1.7680  0.7092
 2134SOL    HW218036   3.155   2.418   6.226  1.5971 -1.7507 -0.6784
 2135SOL     OW18037   1.333   0.388   5.226 -0.2874 -0.4873  0.6914
 2135SOL    HW118038   1.270   0.399   5.155 -0.3216 -0.9936  0.6463
 2135SOL    HW218039   1.411   0.388   5.169  0.5355 -2.3083  1.8270
 2136SOL     OW18040   0.969   3.681   7.925  0.1674 -0.1703 -0.1125
 2136SOL    HW118041   0.992   3.706   8.015  0.5893 -1.6660  0.1939
 2136SOL    HW218042   0.949   3.765   7.884 -0.7657 -0.8130 -0.9782
 2137SOL     OW18043   0.814   1.755   2.110  0.2142 -0.1695  0.0925
 2137SOL    HW118044   0.748   1.709   2.058 -1.4213 -0.2513  2.2475
 2137SOL    HW218045   0.764   1.784   2.186  0.6001  0.1914  0.2081
 2138SOL     OW18046   3.419   0.615   5.469 -0.4517  0.1601  0.2430
 2138SOL    HW118047   3.408   0.546   5.403  1.6912 -0.1528  0.2261
 2138SOL    HW218048   3.486   0.579   5.527  1.3172 -0.2226 -1.9957
 2139SOL     OW18049   3.732   1.810   4.196 -0.2065 -0.1895  0.1819
 2139SOL    HW118050   3.752   1.902   4.180 -0.2840 -0.1461  0.3385
 2139SOL    HW218051   3.820   1.772   4.198 -0.3777 -0.4901  2.2122
 2140SOL     OW18052   1.161   4.481   9.869  0.0151 -0.2327 -0.2219
 2140SOL    HW118053   1.216   4.529   9.931 -1.9372  1.0300  0.5094
 2140SOL    HW218054   1.096   4.440   9.925  0.1025  0.2213  0.2076
 2141SOL     OW18055   0.476   3.984   2.653 -0.6640 -0.5122  0.1648
 2141SOL    HW118056   0.398   3.956   2.700 -0.5457  1.2850  1.4550
 2141SOL    HW218057   0.479   4.080   2.660  1.6779 -0.7159  2.1969
 2142SOL     OW18058   0.480   2.771   2.476 -0.5066  0.2756 -0.8422
 2142SOL    HW118059   0.456   2.804   2.563 -0.8970  0.5349 -1.0470
 2142SOL    HW218060   0.574   2.787   2.463  0.1727 -0.7213  2.9607
 2143SOL     OW18061   0.960   4.024  14.786  0.1876 -0.1599  0.4603
 2143SOL    HW118062   0.987   4.067  14.868 -0.1469 -1.2581  1.1384
 2143SOL    HW218063   1.020   4.061  14.721  0.0064  0.2881  0.5432
 2144SOL     OW18064   3.551   4.059   8.138 -0.1553  0.2706 -0.2791
 2144SOL    HW118065   3.549   4.090   8.228  0.1961 -0.1016 -0.1408
 2144SOL    HW218066   3.458   4.065   8.117 -0.8369  1.8218  3.3018
 2145SOL     OW18067   0.653   2.075  15.358  0.0327  0.1546 -0.5287
 2145SOL    HW118068   0.659   2.052  15.451 -1.2509 -0.0263 -0.4944
 2145SOL    HW218069   0.574   2.129  15.355  0.7381  1.2299  0.3672
 2146SOL     OW18070   3.193   3.461   6.204 -0.1058  0.3097 -0.0438
 2146SOL    HW118071   3.108   3.474   6.162 -0.6459 -0.1273  0.9169
 2146SOL    HW218072   3.231   3.549   6.204 -1.1400  0.7632  1.0852
 2147SOL     OW18073   1.859   2.184   4.650  0.4817 -0.4859 -0.0623
 2147SOL    HW118074   1.849   2.186   4.745 -2.1496  1.3649 -0.3468
 2147SOL    HW218075   1.888   2.273   4.627 -1.3433 -0.7266 -3.3512
 2148SOL     OW18076   1.110   3.479   1.957 -0.9579  0.3106  0.5374
 2148SOL    HW118077   1.046   3.500   1.888 -1.2385  2.8693  1.5735
 2148SOL    HW218078   1.169   3.553   1.944 -2.4419  1.0101 -2.2654
 2149SOL     OW18079   0.003   3.730  16.592 -0.5620 -0.1480 -0.5002
 2149SOL    HW118080   0.054   3.650  16.583  1.2596  0.8763  0.6697
 2149SOL    HW218081   4.663   3.694  16.555 -0.7419 -0.4426  0.1831
 2150SOL     OW18082   0.191   2.943   3.445  0.1968 -0.7856  1.1200
 2150SOL    HW118083   0.125   2.910   3.506  0.6340 -1.3663  1.2755
 2150SOL    HW218084   0.185   3.037   3.463  0.3447 -0.3237 -1.1801
 2151SOL     OW18085   3.004   4.722   8.685 -0.2677 -0.0019  0.1449
 2151SOL    HW118086   3.038   4.634   8.700 -0.0230 -0.3242 -2.2833
 2151SOL    HW218087   2.965   4.711   8.599  0.1176  0.8907 -0.1422
 2152SOL     OW18088   1.462   4.078  10.136 -0.7187 -0.1788  0.4262
 2152SOL    HW118089   1.532   4.020  10.107 -0.5531  0.3223 -0.1896
 2152SOL    HW218090   1.388   4.042  10.087 -1.4396  1.3103  0.4211
 2153SOL     OW18091   1.400   3.132   3.545 -0.2459 -0.1719 -0.3630
 2153SOL    HW118092   1.411   3.220   3.508 -2.3084 -0.4632 -1.6397
 2153SOL    HW218093   1.486   3.104   3.578 -0.4650 -0.4567 -0.0311
 2154SOL     OW18094   0.153   2.552   2.167  0.1283  0.0885  0.5016
 2154SOL    HW118095   0.222   2.534   2.231  1.7573 -0.8913 -1.5236
 2154SOL    HW218096   0.197   2.601   2.098  1.0316 -0.8321  0.4065
 2155SOL     OW18097   4.059   0.917   3.487  0.0645  0.8129 -0.0230
 2155SOL    HW118098   4.125   0.891   3.422  2.3613 -0.6981  2.9230
 2155SOL    HW218099   4.024   1.003   3.461  0.8904  0.5553 -2.0176
 2156SOL     OW18100   4.307   2.263   5.771  0.8660 -0.2982 -0.0996
 2156SOL    HW118101   4.332   2.320   5.697  1.6403 -0.9406 -0.3324
 2156SOL    HW218102   4.229   2.216   5.743  1.1965 -0.5925 -0.5225
 2157SOL     OW18103   3.234   4.607   5.118 -0.0213  0.1724  0.1345
 2157SOL    HW118104   3.256   4.565   5.035 -0.9982  0.7720 -0.4177
 2157SOL    HW218105   3.167   4.545   5.148 -1.8925  1.8356 -0.6153
 2158SOL     OW18106   0.583   0.769  11.903  0.3641 -0.2012  0.1321
 2158SOL    HW118107   0.591   0.857  11.865 -2.2090  0.9891  2.3243
 2158SOL    HW218108   0.563   0.785  11.996 -2.3047 -0.2301 -0.4258
 2159SOL     OW18109   0.254   0.349   6.015 -0.4561 -0.1433 -0.0049
 2159SOL    HW118110   0.329   0.393   6.055 -1.9402  1.5197  0.9508
 2159SOL    HW218111   0.188   0.416   6.031 -1.0407 -0.6477 -0.3154
 2160SOL     OW18112   0.395   1.409   5.014 -0.3605  0.6218 -1.2301
 2160SOL    HW118113   0.480   1.369   4.997  0.4166  2.1658 -1.0018
 2160SOL    HW218114   0.384   1.465   4.938 -0.5836  1.0329 -0.8976
 2161SOL     OW18115   4.295   0.193   7.579  0.2587 -0.0227  0.4722
 2161SOL    HW118116   4.355   0.141   7.632  1.3799 -0.3944 -1.1545
 2161SOL    HW218117   4.303   0.146   7.495  0.4525  1.7927 -0.5138
 2162SOL     OW18118   1.014   0.881   5.487  0.1239  0.5763 -0.5780
 2162SOL    HW118119   0.994   0.954   5.545 -2.1965  0.4229 -1.1652
 2162SOL    HW218120   1.108   0.893   5.476 -0.0597  2.1744 -0.3506
 2163SOL     OW18121   4.036   3.897  12.121  0.3248  0.7404  0.0925
 2163SOL    HW118122   4.067   3.846  12.046  1.5793 -0.8726  1.6932
 2163SOL    HW218123   4.120   3.909  12.167  0.1540  0.2116  0.5350
 2164SOL     OW18124   4.187   0.061   3.539 -0.5535 -0.2444 -0.0589
 2164SOL    HW118125   4.096   0.064   3.511 -0.3309 -0.2306 -0.7707
 2164SOL    HW218126   4.241   0.063   3.460  2.0816  1.6462  1.7591
 2165SOL     OW18127   1.020   4.127   3.897  0.0302  0.4825 -0.3839
 2165SOL    HW118128   1.014   4.223   3.900 -1.7009  0.4146 -1.5906
 2165SOL    HW218129   1.067   4.115   3.980  0.6731 -0.0334 -0.8280
 2166SOL     OW18130   1.742   3.716   6.946 -0.2034  0.0907  0.4786
 2166SOL    HW118131   1.816   3.716   6.885  1.6434  2.1194  2.7053
 2166SOL    HW218132   1.738   3.805   6.980  0.5520  0.0881  0.5787
 2167SOL     OW18133   1.311   4.534   8.246  0.2003 -0.0425 -0.4227
 2167SOL    HW118134   1.291   4.545   8.339 -0.3721 -2.3322 -0.2773
 2167SOL    HW218135   1.355   4.449   8.240 -0.7590 -0.6015  0.5258
 2168SOL     OW18136   2.812   2.569  12.035 -0.1023 -0.3189 -0.0973
 2168SOL    HW118137   2.725   2.529  12.031 -0.6843  0.5902  2.8606
 2168SOL    HW218138   2.806   2.638  12.101  2.1090  0.6898 -0.9697
 2169SOL     OW18139   1.878   4.691  11.958  0.1170  0.2029 -0.3566
 2169SOL    HW118140   1.884   4.657  12.047 -1.5469  1.5171  0.2575
 2169SOL    HW218141   1.782   4.688  11.956  0.0831  0.9586 -0.1352
 2170SOL     OW18142   3.904   3.474   6.635 -0.0252 -0.7651 -0.2029
 2170SOL    HW118143   3.956   3.447   6.710 -1.9534 -1.5443  0.8698
 2170SOL    HW218144   3.873   3.393   6.595  1.3668 -1.6195  0.4820
 2171SOL     OW18145   2.515   0.643   3.389 -0.0982  0.4395  0.4173
 2171SOL    HW118146   2.549   0.583   3.456 -0.0640  1.5972  1.4484
 2171SOL    HW218147   2.602   0.650   3.349 -1.2847 -0.9322 -2.3195
 2172SOL     OW18148   0.550   4.058   3.312  0.2923 -0.2627  0.0532
 2172SOL    HW118149   0.644   4.043   3.323  0.6213  1.6032 -0.1633
 2172SOL    HW218150   0.516   3.984   3.361 -0.7295  1.3302  1.7602
 2173SOL     OW18151   1.774   0.042   9.133  0.1419 -0.0245 -0.2244
 2173SOL    HW118152   1.756   4.691   9.112 -2.5091  0.3100  0.5873
 2173SOL    HW218153   1.760   0.054   9.227 -0.4767 -0.2884 -0.2899
 2174SOL     OW18154   0.049   1.396   7.270  0.4602 -0.2455  0.2605
 2174SOL    HW118155   4.694   1.382   7.264  0.2546  1.6688 -1.1002
 2174SOL    HW218156   0.056   1.482   7.230 -1.7865  0.6507  1.7841
 2175SOL     OW18157   3.538   3.696  10.985  0.3763  0.2547  0.1741
 2175SOL    HW118158   3.532   3.747  11.065 -0.3508 -0.2390  0.4229
 2175SOL    HW218159   3.533   3.607  11.020 -0.3499  0.2915  0.1640
 2176SOL     OW18160   3.692   0.157   0.132 -0.0145 -0.5173  0.1916
 2176SOL    HW118161   3.788   0.150   0.131  0.0547  0.4848 -0.3905
 2176SOL    HW218162   3.693   0.213   0.055  1.1164 -1.7725 -0.7099
 2177SOL     OW18163   3.612   3.989   2.447  0.2549 -0.1728 -0.4910
 2177SOL    HW118164   3.632   3.952   2.533 -0.6006  0.4589 -0.0161
 2177SOL    HW218165   3.703   4.009   2.425 -0.1968 -0.4413 -2.6332
 2178SOL     OW18166   1.728   4.620  17.710  0.1030 -0.0209  0.0660
 2178SOL    HW118167   1.752   4.708  17.680  2.5295 -0.7980 -0.2602
 2178SOL    HW218168   1.814   4.582  17.727  0.0607 -0.2915 -0.3189
 2179SOL     OW18169   2.374   3.269   9.410 -0.1376  0.2814  0.2821
 2179SOL    HW118170   2.462   3.308   9.407  0.0265  0.0360  1.9414
 2179SOL    HW218171   2.338   3.272   9.499  0.2529  1.7077  0.4058
 2180SOL     OW18172   3.747   3.238   1.694 -0.3006 -0.3179 -0.5371
 2180SOL    HW118173   3.663   3.203   1.724 -0.6327  0.2249 -0.8236
 2180SOL    HW218174   3.748   3.224   1.599 -0.9857 -0.3125 -0.5475
 2181SOL     OW18175   1.022   4.268   4.885  0.0128 -0.1935  0.1488
 2181SOL    HW118176   1.094   4.308   4.934  2.0478 -1.4020 -1.8058
 2181SOL    HW218177   0.998   4.183   4.920  1.7484 -0.5688  0.4366
 2182SOL     OW18178   3.874   2.170   8.475  0.0257 -0.6095  0.3805
 2182SOL    HW118179   3.946   2.193   8.534  0.4206 -1.8954  0.3994
 2182SOL    HW218180   3.893   2.077   8.464  1.5893 -0.5162  2.1697
 2183SOL     OW18181   3.423   3.066   8.444  0.4201  0.1067 -0.2455
 2183SOL    HW118182   3.514   3.093   8.453  0.8149 -1.6282  0.9571
 2183SOL    HW218183   3.400   3.012   8.520 -1.2918  1.7140  0.3917
 2184SOL     OW18184   4.613   4.083  10.077  0.5861 -0.5814  0.7012
 2184SOL    HW118185   4.538   4.131  10.113  0.9091 -0.2184  0.8874
 2184SOL    HW218186   4.577   3.995  10.084 -0.0993 -0.3428  0.1631
 2185SOL     OW18187   1.850   2.165   6.549 -0.3328  0.6505 -0.1242
 2185SOL    HW118188   1.812   2.227   6.486  1.0183  0.3811 -1.2178
 2185SOL    HW218189   1.921   2.127   6.497 -1.3591 -0.9862 -0.3022
 2186SOL     OW18190   3.619   2.143  15.081  0.1054  0.2253 -0.2944
 2186SOL    HW118191   3.592   2.233  15.095 -0.9951 -0.5722  2.8168
 2186SOL    HW218192   3.614   2.145  14.985 -1.3409 -1.7428 -0.2613
 2187SOL     OW18193   0.933   4.589   7.442  0.5983  0.3093  0.0973
 2187SOL    HW118194   1.024   4.616   7.447  0.1730  1.0251  3.9852
 2187SOL    HW218195   0.901   4.599   7.352  2.3697  1.5120 -0.3906
 2188SOL     OW18196   3.477   2.004   8.770  0.4349  0.1144  0.2713
 2188SOL    HW118197   3.416   2.069   8.733  1.2098 -0.7124 -2.4969
 2188SOL    HW218198   3.445   1.922   8.734  3.7496 -2.4866  3.2557
 2189SOL     OW18199   2.076   0.961   3.395 -0.4304 -0.1957 -0.1040
 2189SOL    HW118200   2.072   1.057   3.391  1.1065 -0.0636  1.4228
 2189SOL    HW218201   2.166   0.950   3.427  0.1102  0.7693 -1.2765
 2190SOL     OW18202   0.695   3.813  17.565  0.9053 -0.1261 -0.0965
 2190SOL    HW118203   0.667   3.866  17.491  3.7451 -0.4733 -1.4032
 2190SOL    HW218204   0.790   3.820  17.561  1.1267 -1.4124  2.5887
 2191SOL     OW18205   2.546   4.495   4.812 -0.1048 -0.0840  0.0207
 2191SOL    HW118206   2.519   4.586   4.822  0.2015 -0.1186  1.0860
 2191SOL    HW218207   2.479   4.446   4.860  1.2892 -0.5356  1.5024
 2192SOL     OW18208   0.188   2.187  10.320 -0.3282  1.3918 -0.4988
 2192SOL    HW118209   0.243   2.110  10.307 -1.3244 -0.1369  4.1305
 2192SOL    HW218210   0.185   2.192  10.416  0.6733  0.2490 -0.4079
 2193SOL     OW18211   4.064   2.400   9.381 -0.0630  0.2793 -0.1457
 2193SOL    HW118212   4.014   2.348   9.444 -1.0653  1.7789  0.2902
 2193SOL    HW218213   4.041   2.356   9.299 -0.5754 -2.3748  1.4186
 2194SOL     OW18214   1.826   0.628   3.272 -0.0077  0.5854  0.4433
 2194SOL    HW118215   1.872   0.674   3.342  1.4169 -0.8910  0.4711
 2194SOL    HW218216   1.850   0.684   3.198 -1.1075 -1.3065 -1.3429
 2195SOL     OW18217   2.738   2.366   8.249 -0.5205 -0.5767  0.3917
 2195SOL    HW118218   2.804   2.380   8.181  0.4808 -0.4651  1.4017
 2195SOL    HW218219   2.659   2.396   8.203 -0.6227  2.2782  2.4100
 2196SOL     OW18220   2.038   1.854   3.223 -0.1511 -0.1628 -0.2523
 2196SOL    HW118221   2.041   1.949   3.220 -0.3381 -0.0675  3.2940
 2196SOL    HW218222   1.951   1.838   3.259 -0.4790  1.1979 -0.4410
 2197SOL     OW18223   3.179   0.223   6.571 -0.4153  0.2801 -0.1703
 2197SOL    HW118224   3.271   0.198   6.582  0.1894  2.5270 -0.0702
 2197SOL    HW218225   3.189   0.248   6.479 -2.1633 -1.5879 -0.8686
 2198SOL     OW18226   3.719   4.403   4.464  0.1739  0.0487 -0.5404
 2198SOL    HW118227   3.659   4.351   4.411  1.6451 -1.8173 -0.3897
 2198SOL    HW218228   3.663   4.439   4.533 -0.2391 -0.8518 -0.4087
 2199SOL     OW18229   4.183   3.646   8.059 -0.1460  0.1858  0.9303
 2199SOL    HW118230   4.116   3.687   8.004 -0.4578 -1.1630  0.2980
 2199SOL    HW218231   4.259   3.666   8.004 -0.7894 -0.4197 -0.1929
 2200SOL     OW18232   3.271   1.423   2.579 -0.3933 -0.4229 -0.2362
 2200SOL    HW118233   3.195   1.459   2.533 -1.3474 -1.3619  0.6258
 2200SOL    HW218234   3.274   1.331   2.553  2.5647 -0.1269 -0.9036
 2201SOL     OW18235   3.460   0.430   3.514 -0.0626 -0.4131  0.2346
 2201SOL    HW118236   3.379   0.475   3.491  0.7387  1.3200  0.8119
 2201SOL    HW218237   3.506   0.507   3.480 -1.1964 -0.3359 -1.1259
 2202SOL     OW18238   1.725   1.060   7.697 -0.1969 -0.7814  0.5532
 2202SOL    HW118239   1.744   1.038   7.605  0.8800 -2.2110  1.1193
 2202SOL    HW218240   1.818   1.048   7.717 -0.2294  0.1559  1.2465
 2203SOL     OW18241   0.914   0.108   5.714  0.3024 -0.2600  0.1089
 2203SOL    HW118242   0.848   0.058   5.762 -0.7203 -0.6995 -1.7271
 2203SOL    HW218243   0.993   0.068   5.749 -2.2227 -3.0837  2.5246
 2204SOL     OW18244   0.147   1.728   6.290 -0.3642 -0.2800 -0.4701
 2204SOL    HW118245   0.070   1.742   6.235 -1.0591  2.7903  1.2746
 2204SOL    HW218246   0.166   1.821   6.299  0.4310 -0.5119  0.2464
 2205SOL     OW18247   0.647   1.354   2.753 -0.1911 -0.0928 -0.5765
 2205SOL    HW118248   0.637   1.372   2.847  0.2459  0.7584 -0.6899
 2205SOL    HW218249   0.701   1.275   2.748  0.7449  0.5390 -0.4307
 2206SOL     OW18250   1.987   2.557  10.266 -0.1344 -0.5728 -0.2340
 2206SOL    HW118251   1.964   2.489  10.203 -1.5161 -0.1007 -0.2417
 2206SOL    HW218252   2.039   2.613  10.208 -0.4464 -0.6308 -0.5711
 2207SOL     OW18253   2.015   1.599   9.265 -0.1592 -0.1740 -0.7787
 2207SOL    HW118254   1.990   1.680   9.309  0.6622 -0.8932  0.9917
 2207SOL    HW218255   2.085   1.564   9.320  0.1582  0.5104 -0.7464
 2208SOL     OW18256   2.393   1.087   8.430  0.0599 -0.1604 -0.3352
 2208SOL    HW118257   2.347   1.044   8.502 -2.1838 -0.2570 -1.8190
 2208SOL    HW218258   2.464   1.026   8.415 -0.6368 -1.3106  0.9862
 2209SOL     OW18259   3.597   2.089   5.161 -0.2159  0.2484  0.4081
 2209SOL    HW118260   3.625   1.997   5.158 -0.7471  0.0868  0.4555
 2209SOL    HW218261   3.537   2.077   5.234  1.5134 -0.1672  1.7641
 2210SOL     OW18262   0.673   2.968  14.049  0.1335 -0.4778 -0.0668
 2210SOL    HW118263   0.677   2.980  14.144  0.7341  1.4671 -0.3518
 2210SOL    HW218264   0.745   3.028  14.033  0.3829 -0.5349  0.8277
 2211SOL     OW18265   4.246   3.597  14.990 -0.2268 -0.0096 -0.1025
 2211SOL    HW118266   4.335   3.610  14.958 -0.4708 -0.9077 -1.1355
 2211SOL    HW218267   4.203   3.626  14.910 -1.0836  0.4097  0.5009
 2212SOL     OW18268   4.332   3.730   4.634  0.3657  0.8436  0.0066
 2212SOL    HW118269   4.339   3.635   4.629 -2.3642  0.6933 -0.8211
 2212SOL    HW218270   4.426   3.748   4.631  0.5120  0.0397 -0.3514
 2213SOL     OW18271   0.348   0.476   0.825  0.2302 -0.1526 -0.1299
 2213SOL    HW118272   0.438   0.473   0.857  0.3060 -2.0877 -0.5339
 2213SOL    HW218273   0.349   0.548   0.761  2.1076 -3.3910 -3.7136
 2214SOL     OW18274   4.161   0.430   7.203  0.3240  0.3956  0.3887
 2214SOL    HW118275   4.231   0.412   7.266 -0.7053 -0.0981  1.3821
 2214SOL    HW218276   4.083   0.403   7.251  0.2665  1.4317  0.8889
 2215SOL     OW18277   4.628   2.311   5.315  0.3019 -0.1782  0.1011
 2215SOL    HW118278   4.589   2.301   5.228 -2.4070  2.4218  1.0168
 2215SOL    HW218279   4.693   2.381   5.304  1.4438 -0.9021  2.2594
 2216SOL     OW18280   2.718   1.071  16.177 -0.6352 -0.0487 -0.1350
 2216SOL    HW118281   2.727   1.139  16.244  2.1689 -1.2469  0.6847
 2216SOL    HW218282   2.635   1.093  16.136 -1.1837 -0.7015  0.6374
 2217SOL     OW18283   3.900   2.183  14.027  0.0687 -0.2725  0.2767
 2217SOL    HW118284   3.807   2.204  14.023 -0.0480 -0.5215  1.6489
 2217SOL    HW218285   3.903   2.133  14.108  0.0756  0.9162  1.0222
 2218SOL     OW18286   4.106   1.714   3.360  0.3460 -0.8082 -0.2141
 2218SOL    HW118287   4.064   1.797   3.337 -1.6886 -2.0299 -0.9530
 2218SOL    HW218288   4.154   1.739   3.439  2.9979 -1.4557 -1.6185
 2219SOL     OW18289   2.988   1.172   1.003 -0.1716 -0.9619  0.0863
 2219SOL    HW118290   2.991   1.268   0.997 -0.2873 -0.8755  1.2559
 2219SOL    HW218291   2.989   1.164   1.099  0.2246  2.4033  0.3825
 2220SOL     OW18292   0.165   2.429   2.784  0.4539  0.2286  0.8219
 2220SOL    HW118293   0.098   2.363   2.802  0.9007 -0.3748  0.2624
 2220SOL    HW218294   0.159   2.429   2.689 -1.7202  3.2115  0.9405
 2221SOL     OW18295   0.013   4.461   8.417  0.0067  0.2164 -0.2137
 2221SOL    HW118296   4.710   4.464   8.502  1.3390  3.1712  0.3768
 2221SOL    HW218297   4.716   4.533   8.366 -3.9727  0.2178  2.6701
 2222SOL     OW18298   3.628   3.655   3.058 -0.8267  0.2146  0.1326
 2222SOL    HW118299   3.686   3.696   2.994 -2.3064 -1.5078 -2.3288
 2222SOL    HW218300   3.664   3.690   3.139  0.6504  1.5728 -1.1056
 2223SOL     OW18301   1.129   2.185   3.465 -0.0535 -0.1395 -0.1297
 2223SOL    HW118302   1.117   2.167   3.559  1.5469  1.0554  0.3185
 2223SOL    HW218303   1.054   2.136   3.432 -0.8911  0.2612  1.1466
 2224SOL     OW18304   4.498   1.374   5.539 -0.7818 -0.0989 -0.1335
 2224SOL    HW118305   4.493   1.311   5.611 -1.2025 -2.7387 -2.4711
 2224SOL    HW218306   4.590   1.361   5.515 -0.2300  0.2464  1.7945
 2225SOL     OW18307   3.225   3.130  12.231  0.0762  0.0978  0.0678
 2225SOL    HW118308   3.137   3.154  12.262  0.4980  1.0660  0.5128
 2225SOL    HW218309   3.231   3.195  12.162  1.6960 -0.0696  0.0642
 2226SOL     OW18310   4.706   0.062   5.832 -0.3748  0.3289 -0.6733
 2226SOL    HW118311   4.717   0.041   5.925  1.0525 -1.1577 -1.1735
 2226SOL    HW218312   0.054   0.085   5.802  0.2433 -1.7142 -0.3620
 2227SOL     OW18313   1.214   1.366   3.231 -0.2533 -0.3258 -0.3300
 2227SOL    HW118314   1.301   1.327   3.234 -0.0734  0.1028  0.2091
 2227SOL    HW218315   1.247   1.456   3.231  0.0298 -0.4229  0.3776
 2228SOL     OW18316   2.711   4.346   0.644  0.2572 -0.3044 -0.1237
 2228SOL    HW118317   2.645   4.348   0.574  0.4413 -1.0074 -0.3168
 2228SOL    HW218318   2.661   4.278   0.689 -0.9082  0.5326 -0.1311
 2229SOL     OW18319   3.614   2.862   3.050 -0.8391  0.6283 -0.0295
 2229SOL    HW118320   3.615   2.951   3.014 -1.5318  0.4149 -0.5637
 2229SOL    HW218321   3.701   2.867   3.090 -0.5870  2.4932 -0.7823
 2230SOL     OW18322   2.392   1.462   3.381  0.1294 -0.0267  0.0540
 2230SOL    HW118323   2.461   1.526   3.365 -1.5122  1.2266 -1.9810
 2230SOL    HW218324   2.318   1.514   3.348  0.1664 -1.2717 -1.9723
 2231SOL     OW18325   0.642   3.623   3.626  0.1634  0.0135 -0.0071
 2231SOL    HW118326   0.697   3.584   3.558  2.3617 -0.2451  1.8962
 2231SOL    HW218327   0.711   3.628   3.693 -2.1707  1.3055  2.2884
 2232SOL     OW18328   1.919   4.428  15.432 -0.7833 -0.3344 -0.1734
 2232SOL    HW118329   1.848   4.464  15.379 -0.5380 -1.2201 -1.1108
 2232SOL    HW218330   1.923   4.477  15.514  0.1685  0.0045 -0.4233
 2233SOL     OW18331   3.861   2.679  16.338  0.3754 -0.4419  0.8621
 2233SOL    HW118332   3.888   2.637  16.420  1.6235  0.1738  0.7708
 2233SOL    HW218333   3.841   2.768  16.366 -0.5457 -0.5424  0.5360
 2234SOL     OW18334   2.617   0.322  16.860  0.0657  0.3848  0.0992
 2234SOL    HW118335   2.630   0.251  16.923 -1.2079 -1.1065 -1.2939
 2234SOL    HW218336   2.611   0.399  16.916 -2.3135 -1.0380  1.8171
 2235SOL     OW18337   1.469   4.205  13.897  0.0948 -0.2866 -0.2963
 2235SOL    HW118338   1.460   4.122  13.942  0.9080 -0.2998 -0.1544
 2235SOL    HW218339   1.545   4.244  13.940 -1.4766  2.1045  0.3103
 2236SOL     OW18340   3.808   4.078  11.468  0.3516 -1.0718 -0.0568
 2236SOL    HW118341   3.780   3.987  11.474 -1.5746 -0.5386 -1.0754
 2236SOL    HW218342   3.856   4.085  11.550 -1.2809 -0.9009  0.8924
 2237SOL     OW18343   3.212   1.426   6.747 -0.7233 -0.4847 -0.1541
 2237SOL    HW118344   3.144   1.492   6.763 -1.9071 -2.2414  1.9928
 2237SOL    HW218345   3.170   1.361   6.691 -0.3652  1.4549 -2.6734
 2238SOL     OW18346   3.869   1.342   5.453  0.2829  0.0392  0.3949
 2238SOL    HW118347   3.919   1.264   5.475 -1.5661 -0.9163  1.2047
 2238SOL    HW218348   3.846   1.373   5.541 -0.6674 -0.3188  0.2743
 2239SOL     OW18349   1.238   2.420   6.857  0.1390  0.2255 -0.2445
 2239SOL    HW118350   1.258   2.380   6.772  0.4354  1.8111 -0.9113
 2239SOL    HW218351   1.291   2.500   6.854 -0.1661  0.4358  0.0455
 2240SOL     OW18352   0.316   3.404   6.587 -0.6613  0.2754  0.2041
 2240SOL    HW118353   0.235   3.380   6.541 -1.0238 -1.5553  1.8096
 2240SOL    HW218354   0.308   3.499   6.590  0.4587  0.3179  1.5626
 2241SOL     OW18355   3.462   3.016  12.000  0.1049 -0.2116 -0.2969
 2241SOL    HW118356   3.384   2.975  11.962 -0.0492 -0.6124  0.4486
 2241SOL    HW218357   3.454   3.094  11.945 -1.6305  0.0084  0.2646
 2242SOL     OW18358   0.440   1.798  17.328  0.0618 -0.2177 -0.0195
 2242SOL    HW118359   0.460   1.890  17.312  0.8659 -0.6227 -1.3388
 2242SOL    HW218360   0.529   1.762  17.324 -1.5315 -4.0960  0.2562
 2243SOL     OW18361   3.489   0.569  12.516  0.2191 -0.1171  0.0042
 2243SOL    HW118362   3.548   0.644  12.523  0.8514 -0.4735 -1.6143
 2243SOL    HW218363   3.416   0.601  12.569 -0.1395  0.8598 -1.0665
 2244SOL     OW18364   3.947   3.654   5.383  0.0755  0.2052  0.1910
 2244SOL    HW118365   3.862   3.676   5.420  0.4866  2.2436 -0.1060
 2244SOL    HW218366   3.927   3.708   5.307  2.9576  1.4447  0.3381
 2245SOL     OW18367   2.610   0.411   8.707 -0.1682 -0.0457 -0.0372
 2245SOL    HW118368   2.671   0.426   8.779  1.9851 -0.9348 -1.6751
 2245SOL    HW218369   2.552   0.341   8.738  0.5077 -0.5399  0.1144
 2246SOL     OW18370   0.599   2.165   6.759 -0.8341 -0.0589  0.0188
 2246SOL    HW118371   0.514   2.134   6.789 -0.1527  0.5853  2.5600
 2246SOL    HW218372   0.587   2.260   6.754 -0.8633 -0.0246  0.8166
 2247SOL     OW18373   3.514   4.025   9.168  0.1350  0.1927  0.3853
 2247SOL    HW118374   3.546   4.027   9.078 -0.2780  2.3964  0.2912
 2247SOL    HW218375   3.583   4.054   9.227 -0.5383  1.6321  0.4574
 2248SOL     OW18376   2.548   2.287   9.773  0.6372  0.0258 -0.4660
 2248SOL    HW118377   2.512   2.353   9.832  0.8189 -1.2809  1.0980
 2248SOL    HW218378   2.469   2.284   9.719  2.4032 -2.9538 -2.9359
 2249SOL     OW18379   0.886   0.835  17.485  0.4561  0.3227 -0.1546
 2249SOL    HW118380   0.831   0.858  17.410 -1.4637  0.1877  1.2132
 2249SOL    HW218381   0.865   0.912  17.539  0.1541  0.0368  0.1390
 2250SOL     OW18382   0.060   4.607   6.811 -0.1093  0.4703  0.6604
 2250SOL    HW118383   0.076   4.532   6.868  2.2862  0.4946  0.0292
 2250SOL    HW218384   4.724   4.576   6.761  0.0875  0.6667  0.2337
 2251SOL     OW18385   1.771   1.086   6.989  0.1691 -0.5082 -0.1021
 2251SOL    HW118386   1.751   0.995   6.966 -0.5022 -1.0033  2.5353
 2251SOL    HW218387   1.808   1.070   7.075  1.1715 -1.1759 -0.6716
 2252SOL     OW18388   3.102   0.196   3.256  0.2070  0.0090 -0.8069
 2252SOL    HW118389   3.166   0.267   3.253 -0.8054  0.8625 -2.1741
 2252SOL    HW218390   3.029   0.230   3.310  0.7437  0.7290 -0.5358
 2253SOL     OW18391   3.905   1.181   7.689 -0.3188 -0.4818  0.0470
 2253SOL    HW118392   3.961   1.157   7.763  1.1791 -0.0606 -0.9435
 2253SOL    HW218393   3.841   1.111   7.694 -0.3150 -0.5685 -1.1188
 2254SOL     OW18394   2.129   0.518   0.868 -0.1210 -0.0255 -1.1117
 2254SOL    HW118395   2.042   0.511   0.908  0.6113 -1.4067  0.2022
 2254SOL    HW218396   2.137   0.611   0.888 -0.5367 -0.0712 -0.7232
 2255SOL     OW18397   4.148   3.739   0.659  0.6468 -0.0205  0.3062
 2255SOL    HW118398   4.077   3.803   0.666  0.0578 -0.4453 -1.7199
 2255SOL    HW218399   4.217   3.786   0.705  1.7887 -0.2645 -1.1670
 2256SOL     OW18400   4.571   2.060   1.393 -0.1871 -0.3444 -0.1820
 2256SOL    HW118401   4.597   1.987   1.449  1.7438 -0.0901 -0.7367
 2256SOL    HW218402   4.524   2.120   1.451 -0.0280  0.3174 -0.7342
 2257SOL     OW18403   1.556   0.273   7.428 -0.6361  0.0939 -0.4287
 2257SOL    HW118404   1.484   0.336   7.437  0.0714  0.6281  1.5800
 2257SOL    HW218405   1.626   0.330   7.461 -0.8469  0.6718 -0.9980
 2258SOL     OW18406   0.296   1.383   8.028  0.2751  0.2481 -0.3526
 2258SOL    HW118407   0.246   1.464   8.034  1.2833  0.8261  0.3981
 2258SOL    HW218408   0.232   1.322   7.991 -0.6780  0.5177  0.8467
 2259SOL     OW18409   0.110   3.479  16.815  0.3487  0.0828  0.4875
 2259SOL    HW118410   0.022   3.512  16.834 -0.6327 -2.9556  1.2941
 2259SOL    HW218411   0.110   3.426  16.735 -0.3871  2.2350 -0.9489
 2260SOL     OW18412   2.336   0.024   8.535  0.0195  0.2934  0.0413
 2260SOL    HW118413   2.294   4.679   8.525  1.7843 -0.0440 -4.4741
 2260SOL    HW218414   2.403   0.025   8.467 -0.3656 -1.3791 -0.3650
 2261SOL     OW18415   3.933   2.407   6.552 -0.3361 -0.1730 -0.1019
 2261SOL    HW118416   3.947   2.413   6.646 -1.1774  1.0517 -0.0426
 2261SOL    HW218417   3.992   2.474   6.519 -0.6465  0.7920  1.2777
 2262SOL     OW18418   3.597   3.446   4.208  0.3937  0.2197  0.3147
 2262SOL    HW118419   3.523   3.443   4.146  1.9794  1.4657 -1.6398
 2262SOL    HW218420   3.623   3.538   4.217  2.8271 -0.1932 -2.4830
 2263SOL     OW18421   1.990   0.999   7.753 -0.0309  0.0703 -0.6491
 2263SOL    HW118422   2.078   1.028   7.729 -1.0468  1.5501 -2.5638
 2263SOL    HW218423   1.979   1.045   7.836 -2.3387  0.2411 -1.0604
 2264SOL     OW18424   4.440   2.509  15.938  0.4135 -0.2847  0.4099
 2264SOL    HW118425   4.469   2.586  15.888  0.8368 -0.7887 -0.1129
 2264SOL    HW218426   4.467   2.435  15.883 -0.9290 -2.9251  3.3234
 2265SOL     OW18427   1.083   2.210   4.542  0.4010  0.5981  0.1183
 2265SOL    HW118428   1.014   2.171   4.594 -0.2646 -2.3894 -2.9834
 2265SOL    HW218429   1.085   2.151   4.466  0.7431 -0.3335  0.8557
 2266SOL     OW18430   0.500   4.216   4.592  0.1413 -0.5670 -0.9434
 2266SOL    HW118431   0.408   4.242   4.589  0.2225 -0.1604  0.4612
 2266SOL    HW218432   0.496   4.158   4.516  0.9219 -1.7338 -0.0936
 2267SOL     OW18433   2.222   0.804   4.886 -0.3051  0.0073 -0.3256
 2267SOL    HW118434   2.211   0.878   4.947  0.6564  0.7692 -1.0940
 2267SOL    HW218435   2.136   0.808   4.845 -0.4568 -1.6813 -0.1772
 2268SOL     OW18436   1.477   4.389   0.948  0.1266  0.0297 -0.1422
 2268SOL    HW118437   1.527   4.422   0.873  1.4421 -2.3774 -0.3052
 2268SOL    HW218438   1.389   4.420   0.925  0.3282  0.8290  0.1418
 2269SOL     OW18439   1.606   2.024  13.218 -0.0030 -0.1014 -0.4673
 2269SOL    HW118440   1.557   1.943  13.208 -0.5056  0.0597  0.7357
 2269SOL    HW218441   1.567   2.059  13.137 -0.9013 -1.0078 -0.4304
 2270SOL     OW18442   2.116   4.659   0.652 -0.3166 -0.4321 -0.2491
 2270SOL    HW118443   2.186   4.593   0.659  0.9351  0.9513  0.3929
 2270SOL    HW218444   2.043   4.599   0.636 -1.2799  0.9032 -0.8365
 2271SOL     OW18445   2.266   3.077   8.897 -0.2905  0.0362  0.4432
 2271SOL    HW118446   2.325   3.046   8.828 -0.6846 -0.4395  0.3114
 2271SOL    HW218447   2.245   3.165   8.867  1.1836 -0.4469 -2.0608
 2272SOL     OW18448   3.321   2.059   2.718  0.4485  0.5464 -0.0314
 2272SOL    HW118449   3.355   2.126   2.777 -0.5242 -0.5841  1.8177
 2272SOL    HW218450   3.387   1.990   2.730 -0.3379 -0.3037 -0.5513
 2273SOL     OW18451   0.147   4.076   0.481 -0.3214 -0.5952 -0.1075
 2273SOL    HW118452   0.122   4.057   0.572 -0.2324  1.7563  0.4224
 2273SOL    HW218453   0.096   4.155   0.462 -0.7574 -1.1662 -1.2610
 2274SOL     OW18454   3.090   2.674   8.952  0.4946  0.4486  0.0407
 2274SOL    HW118455   3.124   2.587   8.971  0.2254  0.2137 -0.5555
 2274SOL    HW218456   2.996   2.663   8.966  0.4100  0.5866 -0.4031
 2275SOL     OW18457   4.005   0.369   7.923  0.2604 -0.0915 -0.5273
 2275SOL    HW118458   4.013   0.283   7.966 -1.2735  0.0290 -0.0194
 2275SOL    HW218459   4.043   0.356   7.836 -1.5278  0.9269 -1.4506
 2276SOL     OW18460   3.086   4.364  12.238 -0.3916 -0.2639  0.4696
 2276SOL    HW118461   3.091   4.429  12.167  1.1595  0.6814  1.4459
 2276SOL    HW218462   3.175   4.359  12.270 -0.9311  0.5302  2.1009
 2277SOL     OW18463   0.444   3.001  12.158  0.9395 -0.5214 -0.6724
 2277SOL    HW118464   0.510   2.932  12.162  0.6317 -0.6804  1.3873
 2277SOL    HW218465   0.478   3.079  12.201 -0.1792  0.0074 -0.7410
 2278SOL     OW18466   0.950   0.047  14.094 -0.1472  0.6815  0.0709
 2278SOL    HW118467   0.879   4.728  14.120 -0.1559  0.2208 -1.0220
 2278SOL    HW218468   1.027   4.731  14.096  0.4264  1.4293 -1.2522
 2279SOL     OW18469   1.774   3.129   6.222 -0.2837 -0.4804 -0.0884
 2279SOL    HW118470   1.787   3.152   6.130  0.3465 -1.6987 -0.3110
 2279SOL    HW218471   1.802   3.210   6.265 -2.0617  0.5866 -1.0014
 2280SOL     OW18472   4.262   1.068   4.449  0.2756 -0.2632 -0.0085
 2280SOL    HW118473   4.326   1.107   4.509 -0.0863 -2.4866  1.8604
 2280SOL    HW218474   4.204   1.022   4.510 -0.3415 -1.9896 -1.8966
 2281SOL     OW18475   0.745   1.741   5.647  0.0267 -0.5008  0.4222
 2281SOL    HW118476   0.791   1.807   5.698 -2.3971  0.1501  1.7500
 2281SOL    HW218477   0.778   1.747   5.557  1.5422 -1.3416  0.9197
 2282SOL     OW18478   0.305   0.867  17.634  0.3882 -0.1021  0.0414
 2282SOL    HW118479   0.393   0.833  17.651  0.4333 -0.0728 -0.1297
 2282SOL    HW218480   0.312   0.899  17.544 -1.2905 -1.3462 -0.5164
 2283SOL     OW18481   3.535   0.444  16.702  0.5342 -0.4249  0.6005
 2283SOL    HW118482   3.450   0.486  16.716  0.6084 -0.0054 -0.2174
 2283SOL    HW218483   3.589   0.481  16.772  0.7568  1.9129 -0.8110
 2284SOL     OW18484   0.047   2.413  15.972  0.4451 -0.5477  0.5836
 2284SOL    HW118485   0.131   2.455  15.989  0.7024 -0.5122 -0.7808
 2284SOL    HW218486   4.739   2.427  16.053  1.0324  1.6735  0.5622
 2285SOL     OW18487   0.285   1.957   3.576 -0.2439  0.3929  0.3427
 2285SOL    HW118488   0.216   2.005   3.530  0.2736  0.8418  0.0251
 2285SOL    HW218489   0.242   1.872   3.577 -2.2991  1.4543  0.8161
 2286SOL     OW18490   3.301   2.298  11.160 -0.3431  0.2812  0.1277
 2286SOL    HW118491   3.274   2.206  11.155 -1.2555  0.6300 -1.3011
 2286SOL    HW218492   3.223   2.340  11.196  0.9792  3.2050 -0.4190
 2287SOL     OW18493   0.240   2.802   7.120 -0.0871  0.6935  0.3827
 2287SOL    HW118494   0.162   2.758   7.087  0.9525 -1.7953  1.2942
 2287SOL    HW218495   0.305   2.750   7.074 -1.9715 -0.4453 -0.9648
 2288SOL     OW18496   3.713   4.641   2.034  0.8996  0.6003 -0.3989
 2288SOL    HW118497   3.703   4.553   2.069 -1.8155  0.3584 -1.7718
 2288SOL    HW218498   3.809   4.641   2.043  1.1193  0.8241 -2.7407
 2289SOL     OW18499   2.771   1.213   5.878  0.6446  0.9788 -0.3741
 2289SOL    HW118500   2.833   1.208   5.805 -0.2442  0.7469 -1.1132
 2289SOL    HW218501   2.686   1.220   5.834 -0.0467  1.7999  1.1103
 2290SOL     OW18502   0.498   2.030  14.716  0.3569  0.0579  0.1408
 2290SOL    HW118503   0.551   2.071  14.648  0.8320  0.5131  0.7789
 2290SOL    HW218504   0.560   2.042  14.788  2.3998 -0.1011 -1.5786
 2291SOL     OW18505   0.195   2.844   4.495 -0.1539  0.4512  0.0791
 2291SOL    HW118506   0.136   2.858   4.570  0.5248 -1.9298  1.0780
 2291SOL    HW218507   0.155   2.766   4.456 -1.5882  1.3259 -0.2175
 2292SOL     OW18508   2.427   1.755   8.737 -0.2188 -0.5242 -0.0631
 2292SOL    HW118509   2.374   1.830   8.709  0.3259 -0.0925  0.0460
 2292SOL    HW218510   2.360   1.698   8.775 -0.9902 -1.6936 -3.1936
 2293SOL     OW18511   0.918   4.105   9.798  0.5558  0.0152  0.2846
 2293SOL    HW118512   0.882   4.136   9.881 -1.5790 -2.9983  0.4738
 2293SOL    HW218513   0.854   4.040   9.770  1.2837  0.4829 -2.4025
 2294SOL     OW18514   0.416   0.075  10.976  0.5865 -0.8783 -0.0570
 2294SOL    HW118515   0.349   0.055  11.042  0.1772  0.1587 -0.1492
 2294SOL    HW218516   0.377   0.156  10.942  1.4712  0.0331  1.0697
 2295SOL     OW18517   2.774   3.764   5.380 -0.4741 -0.5110 -0.5903
 2295SOL    HW118518   2.767   3.852   5.342  2.3914 -0.7759 -1.7530
 2295SOL    HW218519   2.708   3.725   5.322 -0.6085  1.3889 -1.7238
 2296SOL     OW18520   2.273   1.425   8.784 -0.4873 -0.0686 -0.1029
 2296SOL    HW118521   2.254   1.331   8.786  1.7452 -0.4718  1.8505
 2296SOL    HW218522   2.290   1.432   8.690 -2.5869  1.8142 -0.3456
 2297SOL     OW18523   3.855   1.074  11.438 -0.3180  0.1003  0.1928
 2297SOL    HW118524   3.858   1.165  11.469 -1.5872  0.3909 -0.5168
 2297SOL    HW218525   3.767   1.051  11.467 -0.8119  0.8163 -0.6999
 2298SOL     OW18526   4.225   0.984  15.971  0.5220 -0.1509  0.5219
 2298SOL    HW118527   4.202   0.908  16.024  1.8409 -0.7842  0.2000
 2298SOL    HW218528   4.299   0.950  15.921  0.5177  0.9758 -0.2461
 2299SOL     OW18529   2.255   2.737   6.374 -0.4594  0.4359  0.0433
 2299SOL    HW118530   2.236   2.811   6.431 -0.6632  1.0468 -0.8078
 2299SOL    HW218531   2.286   2.669   6.434 -1.8122  0.6922  1.0493
 2300SOL     OW18532   4.138   0.681   5.837 -0.2735  0.1335 -0.2668
 2300SOL    HW118533   4.094   0.608   5.882  0.0088 -0.3445 -0.7636
 2300SOL    HW218534   4.063   0.741   5.833 -0.9157 -0.4897  1.8975
 2301SOL     OW18535   1.542   0.056   5.331  0.0172  0.2414 -0.6063
 2301SOL    HW118536   1.527   0.075   5.239  1.9232  2.6652 -0.4234
 2301SOL    HW218537   1.467   0.086   5.382  2.9937  4.4003  1.3720
 2302SOL     OW18538   3.318   2.633   0.961 -0.4362 -0.3452 -0.3198
 2302SOL    HW118539   3.252   2.613   0.894 -1.5826 -0.8708  0.9554
 2302SOL    HW218540   3.289   2.564   1.021 -1.0189  1.4857  1.5221
 2303SOL     OW18541   2.456   2.895   0.538 -0.3305 -0.1404  0.3397
 2303SOL    HW118542   2.451   2.844   0.619  0.6739 -1.8898 -0.6877
 2303SOL    HW218543   2.551   2.899   0.523 -0.4630 -0.5709 -0.6688
 2304SOL     OW18544   1.246   3.026   7.850 -0.0245  0.3874  0.0566
 2304SOL    HW118545   1.296   3.052   7.928 -0.1786  1.7327 -0.3071
 2304SOL    HW218546   1.210   3.107   7.816 -2.1019 -0.1418  0.9959
 2305SOL     OW18547   0.774   1.517   8.088 -0.0352 -0.3089 -0.2550
 2305SOL    HW118548   0.857   1.476   8.112  0.0700 -0.4113 -0.7795
 2305SOL    HW218549   0.724   1.439   8.062 -1.6091  0.9337 -0.9660
 2306SOL     OW18550   1.099   1.808   2.334  0.1034 -0.3104 -0.0646
 2306SOL    HW118551   1.044   1.730   2.330  1.0104 -1.0778  2.6262
 2306SOL    HW218552   1.040   1.868   2.288  0.5757 -0.3467 -0.7112
 2307SOL     OW18553   4.223   3.410   1.264  0.2088 -0.5706  0.4688
 2307SOL    HW118554   4.250   3.344   1.328  3.0516 -0.4653 -0.6476
 2307SOL    HW218555   4.131   3.388   1.249 -0.7333  2.3289  1.9190
 2308SOL     OW18556   4.503   4.024  14.073 -0.2263 -0.0466  0.2950
 2308SOL    HW118557   4.515   4.001  14.165  0.0195 -2.0265 -0.2307
 2308SOL    HW218558   4.413   3.996  14.060 -0.3272 -0.0352  0.9578
 2309SOL     OW18559   3.230   1.014   8.309  0.0361 -0.2691 -0.3830
 2309SOL    HW118560   3.181   1.096   8.307 -0.8228 -0.7679  0.2366
 2309SOL    HW218561   3.171   0.960   8.360 -0.7963 -1.1159 -2.2419
 2310SOL     OW18562   2.917   2.806  15.957  0.1164 -0.7708  0.5044
 2310SOL    HW118563   2.893   2.838  16.044  1.4869 -0.3061  0.7204
 2310SOL    HW218564   3.012   2.814  15.969 -0.1348 -2.3599  3.5490
 2311SOL     OW18565   3.491   1.163  15.605 -0.0948 -0.1401  0.1297
 2311SOL    HW118566   3.543   1.113  15.542 -1.5593 -1.2256 -0.2214
 2311SOL    HW218567   3.448   1.235  15.559 -2.6883 -1.8581 -0.1125
 2312SOL     OW18568   2.785   2.254   0.830 -0.0530  0.1065  0.2065
 2312SOL    HW118569   2.853   2.195   0.864  0.7657  0.6304 -0.5340
 2312SOL    HW218570   2.708   2.202   0.854 -0.6660  0.9374  0.0516
 2313SOL     OW18571   3.459   2.958   1.894 -0.8629 -0.0153  0.0059
 2313SOL    HW118572   3.401   2.992   1.961  0.0521 -1.2262  1.4194
 2313SOL    HW218573   3.406   2.893   1.849 -2.0333  1.3860 -0.6373
 2314SOL     OW18574   2.397   0.211   8.723 -0.3647 -0.1449 -0.0327
 2314SOL    HW118575   2.311   0.253   8.725 -1.3437 -1.9990 -3.4138
 2314SOL    HW218576   2.367   0.133   8.675  2.0002 -1.4092  0.5692
 2315SOL     OW18577   4.223   2.721   2.292  0.1999  0.0726 -0.6786
 2315SOL    HW118578   4.245   2.634   2.259  1.1876  0.9426 -2.3181
 2315SOL    HW218579   4.296   2.741   2.350 -1.4634 -0.0774  1.4515
 2316SOL     OW18580   0.465   4.401  14.686 -0.3135  0.2261 -0.3733
 2316SOL    HW118581   0.537   4.440  14.736 -0.5678  0.2137  0.0021
 2316SOL    HW218582   0.455   4.460  14.611 -0.4415 -0.8480 -1.2014
 2317SOL     OW18583   2.109   4.453  10.684 -0.1451  0.2208 -0.1249
 2317SOL    HW118584   2.123   4.393  10.611 -0.3514  0.4945 -0.3873
 2317SOL    HW218585   2.073   4.389  10.746 -0.1407  1.2549  0.9546
 2318SOL     OW18586   4.026   1.102   8.250 -0.6134  0.1915 -0.3770
 2318SOL    HW118587   4.106   1.153   8.259  0.0786 -0.4522 -2.8331
 2318SOL    HW218588   4.000   1.108   8.342 -0.2939  0.3203 -0.2946
 2319SOL     OW18589   1.582   1.410  16.486  0.5787 -0.5245 -0.1598
 2319SOL    HW118590   1.641   1.334  16.487 -1.2299 -1.9297  1.6576
 2319SOL    HW218591   1.516   1.369  16.543  0.5980 -0.5694 -0.1700
 2320SOL     OW18592   1.163   1.135  16.060  0.5715  0.0135  0.1394
 2320SOL    HW118593   1.210   1.053  16.048 -0.8121 -0.4180 -2.5406
 2320SOL    HW218594   1.077   1.108  16.094 -0.1113  1.9883 -0.0080
 2321SOL     OW18595   4.469   3.988   6.671 -0.0195 -0.3530 -0.6498
 2321SOL    HW118596   4.441   3.913   6.724 -0.2251  0.2985  0.1567
 2321SOL    HW218597   4.556   3.995   6.710 -0.7292  1.5434  0.5864
 2322SOL     OW18598   0.944   4.436   8.641  0.1969  0.0148  0.0228
 2322SOL    HW118599   1.006   4.424   8.713  0.4580  0.7192 -0.0778
 2322SOL    HW218600   0.907   4.349   8.634 -0.2412  0.4119 -2.6553
 2323SOL     OW18601   1.495   1.080   4.505  0.0281 -0.4348 -0.6747
 2323SOL    HW118602   1.538   1.000   4.475  3.3039  1.4334 -0.9825
 2323SOL    HW218603   1.402   1.070   4.484  0.1676 -2.8445 -0.0756
 2324SOL     OW18604   4.067   2.280   4.778 -0.3318  0.4034  0.5955
 2324SOL    HW118605   4.044   2.349   4.715 -0.3690  1.1084  1.3756
 2324SOL    HW218606   4.072   2.328   4.861  0.9564  1.1317  0.0981
 2325SOL     OW18607   1.980   2.802   0.086 -0.0571 -0.0714 -0.5658
 2325SOL    HW118608   1.966   2.757   0.002  1.1283 -1.4980 -0.0089
 2325SOL    HW218609   2.062   2.757   0.110 -1.1260 -1.3744  0.6386
 2326SOL     OW18610   3.642   0.895  10.224  0.2004 -0.1699 -0.5377
 2326SOL    HW118611   3.642   0.982  10.264 -0.3097 -2.7299  5.0373
 2326SOL    HW218612   3.626   0.842  10.302  0.1774  2.0061  0.9431
 2327SOL     OW18613   0.141   4.386   7.848  0.3919  0.1296 -0.2490
 2327SOL    HW118614   0.151   4.378   7.943 -0.2801 -1.0154 -0.2774
 2327SOL    HW218615   0.051   4.357   7.833 -0.1110 -0.6804  4.4863
 2328SOL     OW18616   1.092   4.197   6.221 -0.3699 -0.0504  0.2465
 2328SOL    HW118617   1.104   4.202   6.126 -1.1023 -1.0616  0.0986
 2328SOL    HW218618   1.175   4.155   6.244  0.9298  2.2005 -0.3284
 2329SOL     OW18619   1.947   3.850   5.555 -0.4418  0.4525 -0.7876
 2329SOL    HW118620   1.961   3.762   5.588 -0.9940  0.4174 -0.6325
 2329SOL    HW218621   1.853   3.862   5.574 -0.7986 -2.4191 -0.7863
 2330SOL     OW18622   3.118   4.048   0.784 -0.6188 -0.5552 -0.7988
 2330SOL    HW118623   3.164   4.017   0.862 -0.7989  0.4655 -0.2864
 2330SOL    HW218624   3.057   3.975   0.780  1.3720 -2.3963  2.5310
 2331SOL     OW18625   4.219   0.689   1.510 -0.8006  0.0593 -0.4897
 2331SOL    HW118626   4.286   0.658   1.450 -0.3170  0.2292 -0.0396
 2331SOL    HW218627   4.152   0.719   1.448 -1.1961  0.5420  0.1690
 2332SOL     OW18628   2.008   3.719   4.566  0.1691  0.2203 -0.8450
 2332SOL    HW118629   1.946   3.731   4.638  1.9274 -0.9854  0.8899
 2332SOL    HW218630   1.991   3.625   4.562  0.0361  0.2278 -0.4120
 2333SOL     OW18631   4.114   2.629   4.847  0.5273  0.3664 -0.1857
 2333SOL    HW118632   4.204   2.661   4.855 -0.2715  2.7131 -0.4151
 2333SOL    HW218633   4.093   2.608   4.938 -2.6193  1.4832 -0.6384
 2334SOL     OW18634   1.790   2.906   7.747  0.0761  0.5670  0.2249
 2334SOL    HW118635   1.798   2.832   7.687  0.6650  0.5493  0.3246
 2334SOL    HW218636   1.702   2.891   7.783  1.5766 -0.8952  3.3385
 2335SOL     OW18637   4.587   2.383   7.927  0.6224  0.1219 -0.3660
 2335SOL    HW118638   4.604   2.325   8.001  1.5217  0.3433 -0.4005
 2335SOL    HW218639   4.495   2.405   7.942  0.7953  0.4150  0.2908
 2336SOL     OW18640   4.580   0.211  16.648 -0.1673 -0.0493  0.5499
 2336SOL    HW118641   4.575   0.120  16.678  4.1631  0.3039  2.3617
 2336SOL    HW218642   4.672   0.230  16.667 -0.2069 -0.0735  0.7693
 2337SOL     OW18643   3.224   1.565  11.314  0.1884 -0.1138 -0.0497
 2337SOL    HW118644   3.199   1.562  11.222  1.2338 -0.3833 -0.3237
 2337SOL    HW218645   3.303   1.618  11.309  0.3090 -0.4043 -1.1625
 2338SOL     OW18646   0.029   2.854   1.641 -0.2940  0.0021  0.5924
 2338SOL    HW118647   4.715   2.830   1.565  0.2832  0.2849  0.0965
 2338SOL    HW218648   0.110   2.886   1.601 -0.7234  3.0818  2.2608
 2339SOL     OW18649   0.602   3.195   5.917  0.6527  0.5825 -0.2106
 2339SOL    HW118650   0.580   3.242   5.998  0.9458 -0.3933  0.4446
 2339SOL    HW218651   0.693   3.221   5.905  1.1224 -1.8951 -2.0684
 2340SOL     OW18652   1.061   0.360   5.787  0.6329 -0.4372 -0.3640
 2340SOL    HW118653   1.032   0.272   5.814 -0.3621  0.2124  0.6858
 2340SOL    HW218654   1.008   0.416   5.844  0.7715 -2.6823  1.9961
 2341SOL     OW18655   0.649   0.377  12.384 -0.1977  0.0219  0.8651
 2341SOL    HW118656   0.724   0.317  12.384 -0.0430  0.2235 -1.5456
 2341SOL    HW218657   0.615   0.360  12.296 -0.3805 -1.7150  1.2701
 2342SOL     OW18658   0.505   3.847   2.414  0.4322 -0.3663  0.1308
 2342SOL    HW118659   0.587   3.891   2.390  1.9707 -3.2336  0.1903
 2342SOL    HW218660   0.444   3.915   2.385  0.8494  0.2560  0.7254
 2343SOL     OW18661   4.309   0.830   8.550  0.4117  0.3736 -0.3422
 2343SOL    HW118662   4.299   0.835   8.455 -0.5275  1.3322 -0.1873
 2343SOL    HW218663   4.326   0.736   8.549 -2.6715 -0.1436 -2.1543
 2344SOL     OW18664   1.763   3.242   5.960 -0.2051  0.3280 -0.9885
 2344SOL    HW118665   1.707   3.315   5.933 -1.1663  0.0799  0.3139
 2344SOL    HW218666   1.785   3.215   5.871  0.4927  0.7073 -0.9279
 2345SOL     OW18667   3.474   2.838   5.356 -0.1533  0.5365 -0.2934
 2345SOL    HW118668   3.565   2.818   5.382  0.5665  2.0635 -1.6772
 2345SOL    HW218669   3.433   2.754   5.377 -1.2727  1.1764  0.0585
 2346SOL     OW18670   4.469   1.783  16.325  0.3047 -0.5345 -0.4936
 2346SOL    HW118671   4.490   1.705  16.377  0.4503 -1.8332 -2.5205
 2346SOL    HW218672   4.453   1.740  16.241 -0.1774 -0.1057 -0.6193
 2347SOL     OW18673   2.978   4.174   6.775  0.0774  0.0799 -0.2177
 2347SOL    HW118674   2.899   4.151   6.824 -0.0360  1.9841  0.4878
 2347SOL    HW218675   3.000   4.097   6.723 -0.0681 -0.3296  0.3305
 2348SOL     OW18676   2.273   4.180  11.158  0.1909  0.3632 -0.2286
 2348SOL    HW118677   2.208   4.250  11.156 -0.5967 -0.3365  1.0002
 2348SOL    HW218678   2.220   4.115  11.113  1.5484 -1.3042  0.5789
 2349SOL     OW18679   0.981   3.607   1.754 -0.7232  0.0581 -0.5752
 2349SOL    HW118680   0.986   3.681   1.814  1.9176  0.4354 -1.2934
 2349SOL    HW218681   0.917   3.636   1.689 -0.2624 -1.7106 -1.8266
 2350SOL     OW18682   4.583   4.719   8.993  0.1483  1.0139  0.5027
 2350SOL    HW118683   4.487   4.711   8.999  0.0902  2.1608  1.1814
 2350SOL    HW218684   4.618   4.700   9.080 -1.0498  1.0839  1.0128
 2351SOL     OW18685   0.080   0.833  13.453 -0.2210 -0.0012 -0.4611
 2351SOL    HW118686   0.051   0.895  13.386  0.2597 -1.6034 -2.1543
 2351SOL    HW218687   0.105   0.897  13.519  0.7097 -0.2815 -0.5346
 2352SOL     OW18688   2.618   4.548  14.819 -0.6519 -0.2165  0.1190
 2352SOL    HW118689   2.672   4.609  14.768 -0.7746 -1.6873 -1.7820
 2352SOL    HW218690   2.535   4.545  14.772 -1.2100  1.9777  0.9916
 2353SOL     OW18691   2.933   0.395  16.906 -0.0836  0.3018  0.5350
 2353SOL    HW118692   2.879   0.456  16.855 -0.1295 -1.8587 -2.0742
 2353SOL    HW218693   2.935   0.434  16.993 -1.2902  0.9254  0.2878
 2354SOL     OW18694   0.481   4.256   4.885 -0.5738  0.0393 -0.3921
 2354SOL    HW118695   0.510   4.257   4.793 -2.0256 -2.9969 -0.9186
 2354SOL    HW218696   0.557   4.210   4.920 -2.2672 -0.9983  1.9098
 2355SOL     OW18697   2.596   3.692  17.266 -0.1759 -0.3848 -0.1846
 2355SOL    HW118698   2.586   3.602  17.295  2.2148 -1.2279 -1.9972
 2355SOL    HW218699   2.666   3.678  17.203  1.7678 -0.3472  1.9649
 2356SOL     OW18700   2.171   3.851   0.669  0.3647 -0.9572  0.1684
 2356SOL    HW118701   2.227   3.851   0.746  0.0508 -1.7087  0.4024
 2356SOL    HW218702   2.155   3.945   0.664 -0.6509 -1.2099 -1.5575
 2357SOL     OW18703   1.625   0.988  15.954 -0.9283  0.1621 -0.4252
 2357SOL    HW118704   1.716   1.002  15.981 -0.6381 -2.1312 -0.2633
 2357SOL    HW218705   1.623   1.046  15.878  1.4472  1.3697  0.4281
 2358SOL     OW18706   0.356   3.617   2.392  0.1541  0.4623  0.3281
 2358SOL    HW118707   0.407   3.543   2.425 -4.2341 -1.4010  2.8170
 2358SOL    HW218708   0.417   3.690   2.407 -0.4112  1.3096 -1.4569
 2359SOL     OW18709   1.206   3.424   2.455 -0.8347 -0.0885  0.3339
 2359SOL    HW118710   1.162   3.405   2.372  0.1097  1.6925 -0.5670
 2359SOL    HW218711   1.232   3.516   2.448 -1.1725  0.0782  1.2370
 2360SOL     OW18712   2.819   3.078   9.799  0.3227 -0.4487  0.0431
 2360SOL    HW118713   2.863   3.137   9.738  1.4021  0.7858  2.0381
 2360SOL    HW218714   2.832   2.991   9.762  0.8146  0.0315 -0.9266
 2361SOL     OW18715   4.637   2.428  16.238 -0.1229 -0.3914 -0.3192
 2361SOL    HW118716   4.542   2.419  16.246  0.0887 -1.9224  0.5714
 2361SOL    HW218717   4.653   2.522  16.234  1.4308 -0.6051  0.7562
 2362SOL     OW18718   3.580   1.771   1.226 -0.1409 -0.3544 -0.5119
 2362SOL    HW118719   3.485   1.783   1.220 -0.2173 -0.2480  1.0796
 2362SOL    HW218720   3.589   1.749   1.133  0.6920  0.8607 -0.7157
 2363SOL     OW18721   4.401   3.942   7.852  0.3276  0.0256 -0.0997
 2363SOL    HW118722   4.330   3.967   7.794  0.1821 -0.0402  0.0511
 2363SOL    HW218723   4.480   3.940   7.798  1.1707 -2.2954  1.1905
 2364SOL     OW18724   4.454   0.172  15.385  0.0565  0.1525  0.3412
 2364SOL    HW118725   4.461   0.080  15.410 -0.1994 -0.4861 -1.9794
 2364SOL    HW218726   4.444   0.161  15.291  0.1588  3.1829 -0.0416
 2365SOL     OW18727   1.001   1.138   4.546  0.0849 -0.5157  0.4457
 2365SOL    HW118728   0.933   1.075   4.567 -1.2607 -0.1584 -2.8572
 2365SOL    HW218729   1.023   1.183   4.628 -2.5554 -0.1780  0.9638
 2366SOL     OW18730   0.514   3.137   2.241  0.2484 -0.0769 -0.0833
 2366SOL    HW118731   0.562   3.220   2.233 -1.1357  0.9118  1.8795
 2366SOL    HW218732   0.485   3.140   2.332 -0.5958 -0.0719 -0.3605
 2367SOL     OW18733   2.416   1.165   9.857 -0.2976  0.2015 -0.2958
 2367SOL    HW118734   2.404   1.146   9.950  0.3902  2.2198  0.2070
 2367SOL    HW218735   2.495   1.114   9.837  0.1677  1.1721 -0.9299
 2368SOL     OW18736   0.608   0.456   0.921 -0.0250  0.6981 -0.1929
 2368SOL    HW118737   0.686   0.404   0.938 -0.2173  0.6336  0.5224
 2368SOL    HW218738   0.616   0.522   0.990  1.6910  1.3732 -1.0374
 2369SOL     OW18739   0.639   2.335   7.243  0.2930 -0.2404  0.3158
 2369SOL    HW118740   0.668   2.306   7.156 -1.3644  0.3289 -0.4234
 2369SOL    HW218741   0.652   2.247   7.280  0.4884 -0.0237  0.7571
 2370SOL     OW18742   2.120   3.707   1.573  0.6358  0.0960 -0.5288
 2370SOL    HW118743   2.048   3.710   1.511 -1.5177  1.4036  2.0228
 2370SOL    HW218744   2.134   3.613   1.572  0.4972  0.0731 -0.4191
 2371SOL     OW18745   4.027   2.032   3.595  0.2748  0.4650  0.3913
 2371SOL    HW118746   3.975   1.971   3.543  0.9738 -1.4558  1.9571
 2371SOL    HW218747   4.067   1.977   3.663  0.7092  0.9074  0.4943
 2372SOL     OW18748   1.101   1.892   3.408 -0.4890 -0.1441 -0.3199
 2372SOL    HW118749   1.140   1.935   3.332  1.1268  2.4444  2.0081
 2372SOL    HW218750   1.017   1.934   3.427  0.6577  2.9209 -2.0450
 2373SOL     OW18751   4.124   4.314   7.577 -0.2935 -0.1245 -0.0419
 2373SOL    HW118752   4.106   4.328   7.670 -0.1807 -0.0571 -0.0309
 2373SOL    HW218753   4.055   4.365   7.536  0.5758 -0.2978 -1.6968
 2374SOL     OW18754   2.688   1.986  16.833 -0.1224  0.5499 -0.2734
 2374SOL    HW118755   2.770   1.989  16.784 -0.1687  0.6045 -0.3462
 2374SOL    HW218756   2.710   2.030  16.915 -1.7158  1.2373 -0.2147
 2375SOL     OW18757   0.956   2.726   3.986  0.1765 -0.4575 -0.4328
 2375SOL    HW118758   0.947   2.698   4.078 -2.3410 -1.0150 -0.8588
 2375SOL    HW218759   0.925   2.641   3.954 -2.2786 -0.1783  1.1944
 2376SOL     OW18760   3.614   2.297   3.904 -0.7770 -0.0676  0.2052
 2376SOL    HW118761   3.570   2.224   3.947 -0.2087  0.1148  1.0901
 2376SOL    HW218762   3.678   2.260   3.843 -0.8802  1.8322 -1.0527
 2377SOL     OW18763   4.699   3.716  16.289 -0.2705  0.3648 -0.3515
 2377SOL    HW118764   0.017   3.641  16.304 -1.9101 -0.6751  0.7676
 2377SOL    HW218765   4.620   3.664  16.303  1.3319 -2.3185 -1.1969
 2378SOL     OW18766   2.146   4.011  10.942 -0.1567 -0.3198 -0.3485
 2378SOL    HW118767   2.078   3.979  10.882  0.2599  0.9578 -1.4928
 2378SOL    HW218768   2.226   3.981  10.900 -0.6146 -1.8440 -0.1314
 2379SOL     OW18769   3.662   4.640   2.847  0.0615  0.8268 -0.1230
 2379SOL    HW118770   3.700   4.644   2.935 -1.2527  1.7033  0.4066
 2379SOL    HW218771   3.631   4.550   2.855 -0.9060  0.8722 -3.1625
 2380SOL     OW18772   3.425   1.388   3.446  0.6228  0.1794 -0.2143
 2380SOL    HW118773   3.427   1.341   3.529 -1.0551 -2.1211 -1.4748
 2380SOL    HW218774   3.439   1.475   3.485  2.3907 -0.0718 -0.3070
 2381SOL     OW18775   3.991   1.389   1.389  0.8985 -0.5210  0.0285
 2381SOL    HW118776   4.034   1.370   1.306 -0.6496  0.2508 -0.9371
 2381SOL    HW218777   4.016   1.480   1.406  0.7486 -0.3148 -0.8723
 2382SOL     OW18778   1.447   1.375   9.458  0.9620  0.5781  0.3528
 2382SOL    HW118779   1.424   1.466   9.441  0.9803  0.5501  0.1780
 2382SOL    HW218780   1.478   1.382   9.549 -0.1889  0.2376  0.7725
 2383SOL     OW18781   1.795   0.424  17.210 -0.2715 -0.2987 -0.5642
 2383SOL    HW118782   1.867   0.387  17.160  0.6422  0.1683  0.4114
 2383SOL    HW218783   1.781   0.368  17.287  0.8165  2.5678  1.7033
 2384SOL     OW18784   4.384   4.417  16.605 -0.1810 -0.3799 -0.2976
 2384SOL    HW118785   4.381   4.424  16.510 -0.9234  0.5354 -0.2142
 2384SOL    HW218786   4.372   4.322  16.606  1.2182 -0.5392  0.7102
 2385SOL     OW18787   4.315   2.683   8.493  0.3963 -0.1005 -0.1066
 2385SOL    HW118788   4.361   2.750   8.545  0.5827 -0.5310  0.2871
 2385SOL    HW218789   4.357   2.703   8.410  0.7931 -1.1777 -0.1562
 2386SOL     OW18790   0.514   3.435   4.504  0.3906  0.5474 -0.0903
 2386SOL    HW118791   0.510   3.351   4.458 -1.7463 -0.5547  2.1431
 2386SOL    HW218792   0.501   3.500   4.434 -0.1878 -1.8326 -2.1939
 2387SOL     OW18793   4.043   4.065   0.965  0.5211  0.0590 -0.3013
 2387SOL    HW118794   4.058   4.148   0.919 -1.6880  0.2800 -0.6113
 2387SOL    HW218795   4.078   4.085   1.052  2.5085  0.6730 -1.2194
 2388SOL     OW18796   0.489   3.100   2.506 -0.5238  0.3708  0.6108
 2388SOL    HW118797   0.435   3.038   2.556 -1.9415  1.7937  0.8508
 2388SOL    HW218798   0.544   3.134   2.576  1.8048 -1.4213 -0.3655
 2389SOL     OW18799   0.155   3.397  14.928 -0.0095 -0.5266 -0.8196
 2389SOL    HW118800   0.249   3.391  14.914  0.0150 -1.9257 -0.0510
 2389SOL    HW218801   0.126   3.424  14.841  0.7208 -0.2977 -0.9933
 2390SOL     OW18802   0.536   2.332   3.482 -0.5172 -0.1661  0.2212
 2390SOL    HW118803   0.532   2.259   3.543 -1.2513  0.6358  1.1431
 2390SOL    HW218804   0.508   2.293   3.400 -0.4216 -0.2418  0.2250
 2391SOL     OW18805   3.852   4.317   3.835 -0.3899  0.1388  0.3271
 2391SOL    HW118806   3.778   4.269   3.873 -2.0528  2.4131 -0.0386
 2391SOL    HW218807   3.901   4.329   3.917 -0.0437  0.8502  0.0092
 2392SOL     OW18808   0.554   0.577  14.974 -0.1645 -0.3484 -0.3842
 2392SOL    HW118809   0.643   0.562  14.941 -0.1615 -1.4914  0.1341
 2392SOL    HW218810   0.524   0.487  14.990 -1.0175 -0.2985 -1.7179
 2393SOL     OW18811   2.584   3.952   2.922 -0.0565 -0.5683 -0.0944
 2393SOL    HW118812   2.576   3.969   3.016  0.4971  0.4384 -0.2263
 2393SOL    HW218813   2.576   3.857   2.913  0.2166 -0.6194  0.2063
 2394SOL     OW18814   3.292   0.502   1.553 -0.0826  0.1575 -0.0152
 2394SOL    HW118815   3.229   0.553   1.502  1.0535  1.7043  0.1436
 2394SOL    HW218816   3.370   0.557   1.544 -0.6782  1.3595  2.1821
 2395SOL     OW18817   3.217   2.721   6.489  0.4291 -0.1522 -0.8985
 2395SOL    HW118818   3.132   2.677   6.494 -0.5433  1.7581 -0.5037
 2395SOL    HW218819   3.243   2.720   6.581  2.1092  1.5265 -1.3630
 2396SOL     OW18820   1.341   4.295   9.936  0.0282  0.3298  0.5617
 2396SOL    HW118821   1.272   4.354   9.905 -1.8859 -2.1818  0.0608
 2396SOL    HW218822   1.291   4.220   9.966  0.8718 -0.4738 -0.0387
 2397SOL     OW18823   2.948   1.585   6.796 -0.5130 -0.2816 -0.2292
 2397SOL    HW118824   3.004   1.659   6.821 -0.1557 -0.9492  0.9332
 2397SOL    HW218825   2.906   1.557   6.877 -1.2202  1.3418 -0.0326
 2398SOL     OW18826   2.827   0.513   6.571 -0.1387 -0.3018  0.0910
 2398SOL    HW118827   2.921   0.500   6.581  0.2341  1.6359 -0.9652
 2398SOL    HW218828   2.835   0.604   6.541 -0.9979 -0.4471 -0.5884
 2399SOL     OW18829   0.155   3.901   8.062  0.0781 -0.4240 -0.2878
 2399SOL    HW118830   0.112   3.935   7.984  3.2539  0.4188 -1.6746
 2399SOL    HW218831   0.237   3.883   8.016  0.6607  1.3907  0.0481
 2400SOL     OW18832   2.892   3.923   7.128 -0.0656 -0.0116  0.7470
 2400SOL    HW118833   2.975   3.896   7.089 -2.3787 -2.5774 -2.4366
 2400SOL    HW218834   2.860   3.981   7.059  0.9628 -0.7387 -0.3462
 2401SOL     OW18835   2.617   0.819  16.090  0.1921 -0.2635  0.1844
 2401SOL    HW118836   2.617   0.914  16.094  2.9669 -0.0851 -3.5267
 2401SOL    HW218837   2.709   0.801  16.113  0.0491 -0.3239  0.6981
 2402SOL     OW18838   3.762   3.446   4.859  0.5908 -0.0340 -0.3700
 2402SOL    HW118839   3.804   3.403   4.933  1.6434  2.0131  0.2203
 2402SOL    HW218840   3.674   3.456   4.897  0.4548  0.2572 -0.7603
 2403SOL     OW18841   1.179   2.277   7.573 -0.0283  0.1997  0.2437
 2403SOL    HW118842   1.142   2.340   7.635  1.0866  0.9259  0.1782
 2403SOL    HW218843   1.120   2.281   7.498 -1.3152 -1.6808  1.1736
 2404SOL     OW18844   2.582   3.781   8.246 -0.1837 -0.0156 -0.3184
 2404SOL    HW118845   2.534   3.738   8.316 -2.3848 -0.4543 -2.1014
 2404SOL    HW218846   2.510   3.832   8.209  0.2291 -0.4288 -1.6999
 2405SOL     OW18847   4.576   2.751   6.450 -0.0623  0.9020  0.6950
 2405SOL    HW118848   4.558   2.685   6.516  0.0584 -1.8020 -1.9590
 2405SOL    HW218849   4.498   2.807   6.437  0.0213  0.7792 -0.3575
 2406SOL     OW18850   1.302   2.521   8.083 -0.4807  0.2722  0.3695
 2406SOL    HW118851   1.368   2.563   8.028 -1.0998  0.7089 -0.0408
 2406SOL    HW218852   1.222   2.559   8.045 -0.2055 -1.6679 -2.1755
 2407SOL     OW18853   2.560   1.156   9.198  0.1130 -0.6147 -0.1233
 2407SOL    HW118854   2.596   1.078   9.241  0.0307 -0.7454 -0.2886
 2407SOL    HW218855   2.465   1.139   9.196 -0.0037  0.0429 -0.1065
 2408SOL     OW18856   2.124   3.831   2.907  0.0340  0.1492 -0.0290
 2408SOL    HW118857   2.086   3.744   2.899 -0.2635  0.3981 -1.3437
 2408SOL    HW218858   2.143   3.849   2.815 -0.9839  2.0207  0.1340
 2409SOL     OW18859   2.156   1.807  10.359 -0.8826 -0.3864  0.5133
 2409SOL    HW118860   2.250   1.800  10.344 -1.1914 -2.1092 -0.6024
 2409SOL    HW218861   2.123   1.731  10.310 -1.7013  1.3113 -1.6186
 2410SOL     OW18862   4.526   4.433   2.959 -0.6816 -0.5849  0.5183
 2410SOL    HW118863   4.438   4.456   2.989 -0.6526  3.2203 -2.4516
 2410SOL    HW218864   4.489   4.359   2.911 -3.0339  1.0684 -0.2078
 2411SOL     OW18865   0.326   1.443   2.027  0.8111 -0.1545 -0.2634
 2411SOL    HW118866   0.309   1.348   2.032 -2.4867  0.4818  0.8522
 2411SOL    HW218867   0.421   1.434   2.035  0.9190 -0.5684 -1.9912
 2412SOL     OW18868   4.103   2.664   8.662  0.4949  0.4272 -0.4400
 2412SOL    HW118869   4.145   2.663   8.575  0.4153 -0.4377 -0.4646
 2412SOL    HW218870   4.156   2.602   8.711 -2.7076 -3.2737 -1.6753
 2413SOL     OW18871   0.717   0.382   4.063 -0.3612 -0.5775  0.2051
 2413SOL    HW118872   0.755   0.350   3.981 -0.4093  3.1198 -1.2788
 2413SOL    HW218873   0.632   0.416   4.032  0.3195  0.9030 -0.0732
 2414SOL     OW18874   0.126   0.351  17.427  0.1793 -0.2778  0.1439
 2414SOL    HW118875   0.121   0.440  17.393 -1.0140 -0.9005 -1.3088
 2414SOL    HW218876   0.064   0.298  17.377 -0.1281  0.8355 -0.6518
 2415SOL     OW18877   0.900   1.590   2.901  0.2352  1.0155  0.3159
 2415SOL    HW118878   0.950   1.589   2.983 -1.2382  0.5378  1.2164
 2415SOL    HW218879   0.949   1.556   2.826  0.1039 -2.0645  1.6179
 2416SOL     OW18880   2.241   3.043   0.476  0.2008 -0.4101 -0.1431
 2416SOL    HW118881   2.284   2.957   0.474  0.4276 -0.2760 -1.0351
 2416SOL    HW218882   2.318   3.098   0.490 -0.9202  1.2629 -0.6330
 2417SOL     OW18883   1.410   4.640   1.256  0.3201  0.4319 -0.1914
 2417SOL    HW118884   1.505   4.636   1.261  0.2484  1.0212  1.5830
 2417SOL    HW218885   1.387   4.678   1.340 -0.0469  0.9443 -0.5265
 2418SOL     OW18886   3.735   0.501   0.821  0.0153  0.0078 -0.2926
 2418SOL    HW118887   3.725   0.588   0.784 -1.4545 -0.6562 -1.4927
 2418SOL    HW218888   3.787   0.457   0.753 -1.7949  0.0772 -1.7252
 2419SOL     OW18889   2.075   1.071  14.358 -0.7459 -0.5254 -0.4559
 2419SOL    HW118890   2.113   1.036  14.439 -1.5627  1.9808  1.0213
 2419SOL    HW218891   2.000   1.116  14.398  1.2904  0.2359  2.5355
 2420SOL     OW18892   3.056   0.381   1.184 -0.1022 -0.3066  0.7404
 2420SOL    HW118893   3.032   0.316   1.250  1.1004 -1.8421 -0.3440
 2420SOL    HW218894   3.101   0.449   1.233 -1.2728  0.1533  1.1943
 2421SOL     OW18895   1.937   0.625   8.950  0.2117  0.1702  0.0981
 2421SOL    HW118896   1.882   0.694   8.986  0.6359  0.0902  0.8820
 2421SOL    HW218897   1.893   0.574   8.882 -0.0433  0.0964  0.3190
 2422SOL     OW18898   4.549   2.118   1.743 -0.0625  0.0600  0.1461
 2422SOL    HW118899   4.516   2.178   1.810  1.7419  1.1701  0.0323
 2422SOL    HW218900   4.559   2.038   1.796  0.1586  0.2679  0.4157
 2423SOL     OW18901   2.838   0.374   4.719 -0.5270  0.0494  0.5627
 2423SOL    HW118902   2.847   0.405   4.629 -1.3987  1.2747  0.9008
 2423SOL    HW218903   2.916   0.319   4.721 -1.0057 -0.6649 -0.8105
 2424SOL     OW18904   4.003   1.777  14.752  0.2717  0.5747 -0.5281
 2424SOL    HW118905   4.057   1.702  14.777 -0.3191 -0.2427 -1.6846
 2424SOL    HW218906   3.978   1.810  14.838  2.1823 -0.3608  0.3777
 2425SOL     OW18907   2.795   1.910   5.839 -0.8021  0.0826  0.4686
 2425SOL    HW118908   2.858   1.879   5.774 -1.3021 -1.2615  0.6253
 2425SOL    HW218909   2.824   1.862   5.917  2.3498 -0.7342 -1.1912
 2426SOL     OW18910   3.234   2.217   2.059 -0.3156  0.3150 -0.5336
 2426SOL    HW118911   3.234   2.263   2.142 -1.6992 -1.1564  0.2849
 2426SOL    HW218912   3.300   2.147   2.060 -2.4030 -1.6794 -1.5452
 2427SOL     OW18913   3.372   0.605   5.179 -0.8704 -0.5606 -0.2736
 2427SOL    HW118914   3.351   0.604   5.085 -0.6348 -0.0038 -0.3320
 2427SOL    HW218915   3.459   0.566   5.181 -0.9661 -0.7772 -0.2740
 2428SOL     OW18916   1.909   2.096   3.279  0.2173  0.1913  0.3731
 2428SOL    HW118917   1.816   2.102   3.302  0.1943 -1.3129  0.6676
 2428SOL    HW218918   1.938   2.154   3.349  1.3494  0.3138 -0.1958
 2429SOL     OW18919   4.653   0.688   9.525  0.0760  0.2585 -0.4338
 2429SOL    HW118920   4.612   0.703   9.611 -1.3686  1.5636 -1.3470
 2429SOL    HW218921   4.737   0.732   9.539  0.6222 -0.7529 -0.5155
 2430SOL     OW18922   0.075   2.475  17.248  0.2630 -0.3467 -0.3471
 2430SOL    HW118923   0.082   2.403  17.311  0.7634 -1.0905 -1.2505
 2430SOL    HW218924   0.047   2.545  17.307 -2.3516 -0.0977 -1.9360
 2431SOL     OW18925   1.267   2.171   4.895 -0.0969  0.2590 -0.1071
 2431SOL    HW118926   1.187   2.133   4.931 -2.1345  2.9807 -1.7146
 2431SOL    HW218927   1.268   2.253   4.945 -1.5420 -0.4911  1.1401
 2432SOL     OW18928   1.057   4.700  11.894  0.3080 -0.2449  0.2225
 2432SOL    HW118929   1.014   0.045  11.902  0.4189 -0.2262  0.6213
 2432SOL    HW218930   0.982   4.644  11.911  1.3806 -1.6639  0.2392
 2433SOL     OW18931   1.272   4.440   7.396 -0.2876 -0.0298 -0.2414
 2433SOL    HW118932   1.198   4.380   7.400  0.1874 -0.4649  1.8043
 2433SOL    HW218933   1.243   4.516   7.345  0.2985  0.9352  0.8411
 2434SOL     OW18934   2.682   0.892   5.367 -0.0953  0.1822  0.0977
 2434SOL    HW118935   2.701   0.962   5.429 -1.7754  0.9601 -0.2911
 2434SOL    HW218936   2.720   0.930   5.288  4.4038 -0.7076  1.8285
 2435SOL     OW18937   3.542   1.106   2.413  0.6651  0.6990 -0.4478
 2435SOL    HW118938   3.626   1.075   2.449  0.0366  0.5192  0.8566
 2435SOL    HW218939   3.560   1.085   2.321  1.4952  2.1893 -0.6177
 2436SOL     OW18940   2.985   0.833   7.558  0.0219 -0.2989  0.1768
 2436SOL    HW118941   2.977   0.879   7.475  1.6162 -1.3273 -0.5469
 2436SOL    HW218942   3.042   0.761   7.531  0.5955 -1.0623  3.3657
 2437SOL     OW18943   2.036   1.640  10.175 -0.2021  0.6099 -0.5626
 2437SOL    HW118944   1.987   1.583  10.235 -1.7989  2.9853  0.3717
 2437SOL    HW218945   2.090   1.574  10.132  1.2857  2.8640 -2.1280
 2438SOL     OW18946   2.701   3.769   2.212  0.2437 -0.0524  0.2644
 2438SOL    HW118947   2.780   3.822   2.211 -0.0612  0.3287 -1.8634
 2438SOL    HW218948   2.736   3.685   2.183 -0.6002 -0.6067  0.8236
 2439SOL     OW18949   2.186   0.092   8.060  0.9643  0.3668 -0.2172
 2439SOL    HW118950   2.109   0.094   8.003  0.2328 -0.5869  0.7486
 2439SOL    HW218951   2.255   0.087   7.993 -1.2019 -1.4130 -2.3009
 2440SOL     OW18952   1.050   2.545   6.999  0.6529 -0.1653  0.4101
 2440SOL    HW118953   1.024   2.456   7.024 -1.4029  0.3673  0.1272
 2440SOL    HW218954   1.135   2.532   6.957 -0.1537 -2.5310 -0.5170
 2441SOL     OW18955   1.127   2.272   2.056  0.5474  0.3936 -0.0476
 2441SOL    HW118956   1.116   2.241   1.965 -1.8220  0.2856  0.2762
 2441SOL    HW218957   1.045   2.314   2.082  1.5868  2.0103  0.5930
 2442SOL     OW18958   4.483   2.459   9.674  0.3631 -0.0699  0.0435
 2442SOL    HW118959   4.407   2.516   9.668  1.3378  1.1889 -0.3212
 2442SOL    HW218960   4.442   2.373   9.682  0.4732 -0.2995 -1.7479
 2443SOL     OW18961   2.008   3.567   7.296  0.3086 -0.4104 -0.4888
 2443SOL    HW118962   1.946   3.640   7.288  0.3035 -0.4012 -0.3732
 2443SOL    HW218963   1.946   3.493   7.296  0.5557 -0.6219  0.3231
 2444SOL     OW18964   3.445   1.314   6.823  0.1404  0.1784 -0.7004
 2444SOL    HW118965   3.365   1.353   6.786  0.5715  1.8606  0.1515
 2444SOL    HW218966   3.460   1.235   6.772  0.5169 -1.4727  1.9448
 2445SOL     OW18967   2.694   1.906   9.873 -0.0354 -0.1240 -0.3835
 2445SOL    HW118968   2.655   1.978   9.923  0.3370 -0.8057  0.8678
 2445SOL    HW218969   2.714   1.845   9.943  0.7897 -1.2297 -1.5872
 2446SOL     OW18970   4.619   4.568   0.171  0.5618 -0.3722 -0.2827
 2446SOL    HW118971   4.571   4.491   0.141 -0.5210  0.3140 -0.3235
 2446SOL    HW218972   4.610   4.561   0.266 -1.6925  0.7179 -0.4062
 2447SOL     OW18973   2.992   4.355   3.433  0.1150 -0.0023  0.1511
 2447SOL    HW118974   3.078   4.391   3.414  0.4880 -0.4008  1.0719
 2447SOL    HW218975   2.952   4.341   3.347  1.5930 -3.0980 -0.0628
 2448SOL     OW18976   3.674   0.350  17.434  0.1459 -0.0502  0.1317
 2448SOL    HW118977   3.589   0.334  17.476  0.7618 -1.1022  0.9453
 2448SOL    HW218978   3.735   0.308  17.494 -0.6683 -0.3772  0.7379
 2449SOL     OW18979   4.393   0.231   8.541  0.2613 -0.3664 -0.0526
 2449SOL    HW118980   4.310   0.279   8.527  0.0306 -1.1529 -1.4272
 2449SOL    HW218981   4.435   0.283   8.610 -0.0722 -0.3152  0.1129
 2450SOL     OW18982   3.425   1.023   8.589 -0.5017  0.1712 -0.1439
 2450SOL    HW118983   3.352   0.965   8.611  0.0839 -1.2538 -1.9397
 2450SOL    HW218984   3.498   0.962   8.600  0.2133  1.1558  0.5573
 2451SOL     OW18985   3.375   4.020  14.508 -0.0742 -0.0703 -0.5171
 2451SOL    HW118986   3.404   4.038  14.418 -1.1231 -0.9621 -1.0377
 2451SOL    HW218987   3.427   4.088  14.551  1.1636 -1.9006  0.8887
 2452SOL     OW18988   1.486   1.108   5.742  0.2105  0.0267  0.3382
 2452SOL    HW118989   1.543   1.165   5.794 -0.1711  0.4211  0.3325
 2452SOL    HW218990   1.540   1.095   5.664 -0.9128  0.5308 -0.5311
 2453SOL     OW18991   1.131   0.277   7.138 -0.2455  0.1730  1.1298
 2453SOL    HW118992   1.157   0.321   7.057  0.4113  0.0596  1.2846
 2453SOL    HW218993   1.044   0.259   7.102 -0.2099  0.4876  0.8857
 2454SOL     OW18994   0.557   0.998   4.008 -0.3737 -0.3363 -0.0193
 2454SOL    HW118995   0.513   1.034   4.084  0.2272  0.1710  0.0845
 2454SOL    HW218996   0.475   0.962   3.972  0.1592 -1.0084 -0.5748
 2455SOL     OW18997   3.172   1.028   6.140  0.5873  0.5060  0.0941
 2455SOL    HW118998   3.219   0.945   6.146 -1.6135 -0.6951  0.9227
 2455SOL    HW218999   3.100   1.017   6.203  0.4738  1.5656  0.1469
 2456SOL     OW19000   4.616   3.675  11.301  0.2441  0.0078 -0.0187
 2456SOL    HW119001   4.677   3.622  11.249  1.3496  0.6210  0.6410
 2456SOL    HW219002   4.657   3.762  11.303 -0.0363  0.0715  2.5531
 2457SOL     OW19003   2.783   3.786  13.567 -0.6850  0.2242  0.2970
 2457SOL    HW119004   2.689   3.769  13.574 -0.2176 -2.3409  0.1803
 2457SOL    HW219005   2.791   3.877  13.537 -1.6364 -1.0528 -3.8573
 2458SOL     OW19006   2.307   0.311  11.999 -0.2524  0.0397 -0.1614
 2458SOL    HW119007   2.342   0.386  12.047  0.9887 -1.1495  0.7978
 2458SOL    HW219008   2.369   0.318  11.926  0.7334 -2.1299  0.4480
 2459SOL     OW19009   0.963   1.737   4.034 -0.2524 -0.5628  0.3795
 2459SOL    HW119010   0.897   1.712   4.099  0.8397 -0.4690  1.5203
 2459SOL    HW219011   0.973   1.831   4.053 -1.1532 -0.7663  1.8023
 2460SOL     OW19012   2.048   3.053   5.351 -0.1806 -0.5751  0.7369
 2460SOL    HW119013   2.031   3.129   5.405  2.0782 -0.8975  1.9091
 2460SOL    HW219014   2.004   3.085   5.272  0.4901  0.5375  0.8201
 2461SOL     OW19015   2.165   0.519   4.674  0.5746  0.2105 -0.2710
 2461SOL    HW119016   2.136   0.573   4.601  0.0469  0.3575  0.0434
 2461SOL    HW219017   2.115   0.439   4.656 -1.9578  1.5835  0.6139
 2462SOL     OW19018   2.396   4.039   2.704 -0.1696  0.0444 -0.0016
 2462SOL    HW119019   2.469   4.004   2.755  0.3557  0.6625 -0.3277
 2462SOL    HW219020   2.431   4.125   2.679 -0.9285  0.8364  1.6315
 2463SOL     OW19021   0.842   2.099   4.566  0.3335  0.0049  0.4427
 2463SOL    HW119022   0.819   2.118   4.475  0.9954 -2.7749 -0.2944
 2463SOL    HW219023   0.788   2.022   4.584  1.3174 -0.4458  1.3956
 2464SOL     OW19024   0.686   3.215  11.446 -0.5830  0.0703  0.0483
 2464SOL    HW119025   0.704   3.254  11.531 -1.2568 -1.1740  0.7748
 2464SOL    HW219026   0.737   3.266  11.383  1.4098 -0.1999  1.4666
 2465SOL     OW19027   3.869   1.728   2.672 -0.2038  0.3240  0.5395
 2465SOL    HW119028   3.873   1.717   2.577  1.6309 -0.1547  0.6561
 2465SOL    HW219029   3.778   1.710   2.696 -0.1923  0.2276  0.5096
 2466SOL     OW19030   1.315   4.512   6.431  0.0646 -0.1944  0.1873
 2466SOL    HW119031   1.314   4.581   6.498 -1.5972  1.0227 -1.0807
 2466SOL    HW219032   1.341   4.565   6.356 -1.6444  0.2164 -0.1112
 2467SOL     OW19033   0.590   3.716  12.189  0.3309 -0.2386 -0.5011
 2467SOL    HW119034   0.680   3.721  12.158 -0.1664  1.2146 -1.7193
 2467SOL    HW219035   0.565   3.807  12.208  0.5605 -0.4978  1.0000
 2468SOL     OW19036   2.379   2.349   5.750  0.5707 -0.9217  0.0686
 2468SOL    HW119037   2.306   2.410   5.744  2.4027  1.0500 -2.4302
 2468SOL    HW219038   2.388   2.348   5.845 -0.2618  1.1650  0.1838
 2469SOL     OW19039   4.289   0.931  13.045  0.6467 -0.4431  0.4804
 2469SOL    HW119040   4.265   1.024  13.045  0.3347 -0.5245  0.7054
 2469SOL    HW219041   4.368   0.933  12.991 -0.5308  0.4111 -1.1674
 2470SOL     OW19042   0.808   3.819   8.421  0.1076 -0.3127  0.1954
 2470SOL    HW119043   0.783   3.736   8.382  2.1899 -1.5509  1.5190
 2470SOL    HW219044   0.726   3.836   8.469 -1.0411  1.3841 -2.3531
 2471SOL     OW19045   3.029   4.631   9.848 -0.0113 -0.0407  0.6098
 2471SOL    HW119046   2.988   4.617   9.762  2.7840  0.0990 -0.7225
 2471SOL    HW219047   3.120   4.610   9.831 -1.2157 -3.7193 -1.4062
 2472SOL     OW19048   4.665   1.526  12.244  0.8260  0.1801 -0.4298
 2472SOL    HW119049   4.705   1.546  12.159 -0.7243  0.9760 -0.9916
 2472SOL    HW219050   4.683   1.434  12.260 -1.3331 -0.0828  0.5719
 2473SOL     OW19051   3.981   4.529  10.692  0.2755 -0.0545  0.6540
 2473SOL    HW119052   4.011   4.596  10.630 -2.5306  0.8551  0.2914
 2473SOL    HW219053   3.896   4.564  10.719 -0.9499 -2.5838  0.1478
 2474SOL     OW19054   3.988   0.915  13.719  0.6473  0.0274  0.4132
 2474SOL    HW119055   3.989   1.009  13.701 -1.8672 -0.2290 -1.1222
 2474SOL    HW219056   4.014   0.930  13.810 -0.4018  1.2108  0.5193
 2475SOL     OW19057   3.611   2.622   6.920 -0.3756  0.3592 -0.2418
 2475SOL    HW119058   3.613   2.572   6.838  0.2908  0.5721 -0.3546
 2475SOL    HW219059   3.692   2.671   6.904 -0.7415  1.2959  0.8084
 2476SOL     OW19060   2.379   1.572   6.840  0.4895  0.0346  0.3975
 2476SOL    HW119061   2.302   1.515   6.837  2.5549 -2.7627 -0.4249
 2476SOL    HW219062   2.414   1.554   6.752  0.8035 -0.0611  0.5390
 2477SOL     OW19063   1.006   0.341   3.311 -0.0179 -0.2777  0.1417
 2477SOL    HW119064   1.050   0.337   3.226 -0.0127  0.2414  0.1206
 2477SOL    HW219065   1.052   0.406   3.362  0.7124 -1.8260  1.4524
 2478SOL     OW19066   4.693   0.680   7.113  0.4211 -0.1568  0.2358
 2478SOL    HW119067   0.006   0.610   7.075 -0.8729 -0.8539 -0.3050
 2478SOL    HW219068   4.728   0.753   7.064  0.5580 -0.0483  0.4946
 2479SOL     OW19069   1.737   0.625  12.998 -0.2727  0.7978  0.5807
 2479SOL    HW119070   1.692   0.606  12.917  0.8389 -0.5744  0.2834
 2479SOL    HW219071   1.769   0.715  12.985  1.6728 -0.0202 -0.3579
 2480SOL     OW19072   0.288   0.979   4.353 -0.6703  0.2909 -0.0005
 2480SOL    HW119073   0.265   0.967   4.445 -0.2558 -0.0283  0.0582
 2480SOL    HW219074   0.373   0.937   4.338  0.2034  1.8637  0.5321
 2481SOL     OW19075   3.695   3.418  10.932  0.3094 -0.4391 -0.2876
 2481SOL    HW119076   3.610   3.399  10.893  0.3903  0.4731 -0.9020
 2481SOL    HW219077   3.681   3.395  11.024 -1.0626  0.6823 -0.1985
 2482SOL     OW19078   3.461   2.069   4.159 -0.5859  0.2262  0.4536
 2482SOL    HW119079   3.432   1.994   4.211  2.3004  0.3353  2.1821
 2482SOL    HW219080   3.527   2.109   4.216  0.3279 -1.3680  0.4810
 2483SOL     OW19081   2.321   0.722   1.873 -0.0682 -0.2798  0.1380
 2483SOL    HW119082   2.294   0.648   1.818  0.1604 -0.4236  0.2177
 2483SOL    HW219083   2.250   0.783   1.851 -1.2359 -0.9106  2.1667
 2484SOL     OW19084   3.357   3.123  11.749 -0.0820  0.0800  0.0280
 2484SOL    HW119085   3.301   3.118  11.671  1.6784  2.2590 -1.3865
 2484SOL    HW219086   3.307   3.064  11.806  0.8050  2.3793  3.1566
 2485SOL     OW19087   2.370   1.872   3.434  0.4401  0.3952  0.1482
 2485SOL    HW119088   2.413   1.957   3.439  0.3650  0.4293  0.2095
 2485SOL    HW219089   2.340   1.866   3.525  1.7754  0.0056  0.5663
 2486SOL     OW19090   0.779   0.550  16.549 -0.0596 -0.4931  0.6129
 2486SOL    HW119091   0.723   0.496  16.494  0.5288 -0.2754 -0.1995
 2486SOL    HW219092   0.834   0.481  16.586  0.1076  0.2685  1.7968
 2487SOL     OW19093   3.131   3.511   1.470 -0.0440 -0.7095  0.0399
 2487SOL    HW119094   3.208   3.519   1.526  1.5495  2.1801 -2.5740
 2487SOL    HW219095   3.120   3.602   1.443  0.3037 -1.3087 -2.1538
 2488SOL     OW19096   2.231   2.408   7.983  0.2901  0.0647 -0.0194
 2488SOL    HW119097   2.201   2.439   8.068 -0.8769 -0.5839 -0.1858
 2488SOL    HW219098   2.252   2.493   7.945 -2.7220  0.3999 -0.9493
 2489SOL     OW19099   1.070   2.358   4.249 -0.3108 -0.4504  0.3039
 2489SOL    HW119100   1.154   2.385   4.211 -1.7669 -0.0453 -2.6753
 2489SOL    HW219101   1.081   2.267   4.276  1.1072  0.2405  2.0633
 2490SOL     OW19102   2.882   1.221   7.471 -0.0232  0.3853 -0.0763
 2490SOL    HW119103   2.796   1.237   7.434  0.9594  0.7771 -2.1568
 2490SOL    HW219104   2.859   1.196   7.561  1.4741  0.0162  0.2020
 2491SOL     OW19105   0.257   3.250   3.076  0.3389  0.6283 -0.1183
 2491SOL    HW119106   0.352   3.249   3.093  0.4866 -0.3896 -1.0160
 2491SOL    HW219107   0.232   3.178   3.134 -2.2722  1.0268 -0.7536
 2492SOL     OW19108   3.692   3.369   9.548 -0.4471  0.3099  0.3499
 2492SOL    HW119109   3.721   3.414   9.469  3.4702 -3.5938 -0.3959
 2492SOL    HW219110   3.773   3.367   9.598 -0.2424  0.8794  0.0389
 2493SOL     OW19111   0.812   3.326  16.068 -0.3193  0.1158 -0.3340
 2493SOL    HW119112   0.760   3.249  16.046 -2.7735  1.3108  1.3386
 2493SOL    HW219113   0.748   3.397  16.067  0.8578  1.1881  0.9763
 2494SOL     OW19114   4.189   4.541   5.778 -0.2170 -0.3119 -0.1685
 2494SOL    HW119115   4.200   4.522   5.685 -0.4414 -0.8559 -0.0833
 2494SOL    HW219116   4.124   4.474   5.801 -2.8349  1.9814 -0.8505
 2495SOL     OW19117   2.520   3.370  15.388  0.0116  0.2657 -0.2929
 2495SOL    HW119118   2.522   3.457  15.348  0.1806 -0.2204 -1.3483
 2495SOL    HW219119   2.528   3.396  15.480 -0.7717  3.2296 -1.0700
 2496SOL     OW19120   4.246   3.944  17.577  0.3567 -0.4573  0.0890
 2496SOL    HW119121   4.250   3.866  17.633  1.5154  0.3858  1.1997
 2496SOL    HW219122   4.183   3.908  17.514 -0.0235 -1.6253  1.1253
 2497SOL     OW19123   1.576   3.262   5.486 -0.7903 -0.7855  0.3549
 2497SOL    HW119124   1.544   3.328   5.425 -3.7260 -0.8715  1.8016
 2497SOL    HW219125   1.572   3.183   5.432  1.5169  0.6554 -1.9183
 2498SOL     OW19126   1.391   3.404   4.713 -0.2377 -0.4586 -0.7234
 2498SOL    HW119127   1.371   3.462   4.786 -0.6557 -1.7389  0.1750
 2498SOL    HW219128   1.432   3.328   4.755 -1.2110 -0.0082  1.0455
 2499SOL     OW19129   3.910   1.039   9.495 -0.2035 -0.1092 -0.2813
 2499SOL    HW119130   3.885   1.129   9.512 -0.0090 -0.2990  1.0166
 2499SOL    HW219131   3.886   0.989   9.573 -1.0580 -2.3482 -1.9370
 2500SOL     OW19132   3.121   0.613   7.795 -0.3069  0.2116 -0.7309
 2500SOL    HW119133   3.028   0.629   7.811  0.1647 -0.2105  2.4241
 2500SOL    HW219134   3.136   0.616   7.700  1.1465  1.3072 -0.4733
 2501SOL     OW19135   0.948   1.077   7.699 -0.3699 -0.0025 -0.4633
 2501SOL    HW119136   1.008   1.027   7.755  0.3531 -0.5350 -1.7103
 2501SOL    HW219137   0.864   1.064   7.743 -0.3981 -1.4639 -0.9505
 2502SOL     OW19138   4.018   3.270   4.977 -0.4199 -0.1759 -0.1203
 2502SOL    HW119139   4.054   3.191   5.017  0.3846 -0.8841 -2.2769
 2502SOL    HW219140   3.978   3.316   5.051  1.0311  1.6968 -0.4785
 2503SOL     OW19141   4.010   1.616   8.009 -0.1226 -0.6963  0.8681
 2503SOL    HW119142   3.937   1.610   8.071  0.6087  0.5260  1.8372
 2503SOL    HW219143   3.960   1.631   7.929  1.1555 -0.1202  0.1869
 2504SOL     OW19144   2.208   2.898  14.340 -0.1622  0.5037 -0.1846
 2504SOL    HW119145   2.227   2.991  14.351  2.5329 -0.1539  0.6477
 2504SOL    HW219146   2.155   2.875  14.416 -0.1818 -0.2070 -0.4148
 2505SOL     OW19147   0.505   3.966   5.388 -0.9552  0.1329  0.3475
 2505SOL    HW119148   0.542   3.954   5.475 -1.3759  0.6454  0.5978
 2505SOL    HW219149   0.429   4.017   5.417  0.8269  1.5121  2.6410
 2506SOL     OW19150   4.683   4.091   3.452  0.1754  0.3347 -0.7706
 2506SOL    HW119151   4.735   4.164   3.418 -0.2786  1.2500  0.5017
 2506SOL    HW219152   4.708   4.015   3.398 -1.2628 -0.4822 -0.2665
 2507SOL     OW19153   1.076   4.705   8.001  0.2680  0.0389  0.2944
 2507SOL    HW119154   1.113   4.649   7.933 -2.1284 -0.1827 -0.8344
 2507SOL    HW219155   1.082   0.045   7.950 -0.1647  0.4484  0.8919
 2508SOL     OW19156   2.539   1.434  15.975 -0.1893 -0.0852  0.1558
 2508SOL    HW119157   2.517   1.341  15.974 -0.1083 -0.1183  1.0365
 2508SOL    HW219158   2.578   1.451  16.061 -0.3617 -3.1070  0.8336
 2509SOL     OW19159   3.546   2.931   0.431  0.3486 -0.3878 -0.2241
 2509SOL    HW119160   3.584   2.846   0.408 -0.7687 -0.8198 -0.4546
 2509SOL    HW219161   3.624   2.975   0.467  0.4101 -1.8755  1.4512
 2510SOL     OW19162   2.401   4.558   6.500  0.0721 -0.2911  0.7106
 2510SOL    HW119163   2.458   4.492   6.459 -0.3127  0.0952 -0.4361
 2510SOL    HW219164   2.462   4.631   6.506  0.3447 -0.5196  0.7127
 2511SOL     OW19165   3.854   3.668   5.736 -0.0912 -0.2964  0.8687
 2511SOL    HW119166   3.790   3.611   5.777 -0.1244 -0.8037  0.1225
 2511SOL    HW219167   3.925   3.630   5.787  1.2749  0.5259 -0.4070
 2512SOL     OW19168   2.706   0.079   4.690  0.0982  0.0071 -0.1075
 2512SOL    HW119169   2.777   0.101   4.751 -1.1815  2.1694  0.5806
 2512SOL    HW219170   2.637   0.046   4.747 -0.7148  0.3460 -0.8945
 2513SOL     OW19171   1.309   1.277   5.240 -0.1520  0.3545 -0.5299
 2513SOL    HW119172   1.365   1.205   5.270  0.4428  0.5509 -1.1695
 2513SOL    HW219173   1.323   1.256   5.148  4.0615  0.9102 -0.0082
 2514SOL     OW19174   3.116   1.327   9.896  0.5533  0.5585  0.0508
 2514SOL    HW119175   3.163   1.264   9.951 -0.4433  0.2956  0.5908
 2514SOL    HW219176   3.179   1.398   9.885  2.8089 -1.6491 -1.3758
 2515SOL     OW19177   2.851   2.144  10.042 -0.1633 -0.0867  0.1159
 2515SOL    HW119178   2.910   2.078  10.003 -1.0184 -1.0943  0.5336
 2515SOL    HW219179   2.761   2.123  10.020 -0.5138  2.3981 -0.7990
 2516SOL     OW19180   4.094   0.760   9.686  0.6732  0.5521  0.7601
 2516SOL    HW119181   4.053   0.712   9.757  0.9794  2.3047  2.1208
 2516SOL    HW219182   4.010   0.792   9.651 -0.3870  0.0430  2.8385
 2517SOL     OW19183   1.711   4.545   9.020  0.8697  0.4717  0.6996
 2517SOL    HW119184   1.619   4.518   9.021  0.1049  2.9093 -1.7028
 2517SOL    HW219185   1.753   4.460   9.013 -0.6221 -0.1676 -0.1969
 2518SOL     OW19186   4.318   0.096   7.315 -0.0850 -0.1883  0.0586
 2518SOL    HW119187   4.269   0.133   7.241 -0.0227 -1.2330 -0.5077
 2518SOL    HW219188   4.408   0.117   7.291 -0.6824  2.1232 -0.2204
 2519SOL     OW19189   3.339   1.982  15.698  0.3321  0.8246 -0.1885
 2519SOL    HW119190   3.414   2.008  15.644  0.9286 -0.5198 -0.0103
 2519SOL    HW219191   3.267   2.030  15.657 -0.0187  0.7229  0.3103
 2520SOL     OW19192   0.621   0.504  13.856 -0.2680 -0.5047  0.5049
 2520SOL    HW119193   0.708   0.534  13.833 -0.8967  0.4908 -0.5816
 2520SOL    HW219194   0.634   0.412  13.878 -0.0917 -0.5128  0.3574
 2521SOL     OW19195   4.008   0.098   7.022  0.0276  0.4918  0.3541
 2521SOL    HW119196   3.970   0.110   6.934  1.7368  4.0994  0.1012
 2521SOL    HW219197   3.968   0.176   7.061 -2.4209 -0.2692 -0.6207
 2522SOL     OW19198   3.679   1.460   1.100  0.9009 -0.3040  0.1846
 2522SOL    HW119199   3.740   1.454   1.026  0.1587  1.4835 -0.5787
 2522SOL    HW219200   3.619   1.529   1.075 -0.5753 -2.2324 -1.6419
 2523SOL     OW19201   1.936   3.559   5.600 -0.3684  0.4794 -0.1704
 2523SOL    HW119202   1.870   3.496   5.630 -0.8748 -0.1179 -2.5436
 2523SOL    HW219203   2.003   3.572   5.667 -0.6453 -2.6648  0.7141
 2524SOL     OW19204   4.482   3.914   2.341  0.1788  0.3194 -0.0759
 2524SOL    HW119205   4.552   3.856   2.372  0.8477 -0.1653 -2.4775
 2524SOL    HW219206   4.409   3.890   2.399 -1.4921 -1.4610 -2.8966
 2525SOL     OW19207   0.580   3.683   7.332  0.0550 -0.0592 -0.1789
 2525SOL    HW119208   0.499   3.694   7.382  0.4124  3.0750 -0.3162
 2525SOL    HW219209   0.543   3.618   7.272 -0.6919  0.5418 -0.3651
 2526SOL     OW19210   1.430   0.606  13.492 -0.3106  0.3031 -0.1499
 2526SOL    HW119211   1.357   0.564  13.538 -0.7046  0.1294 -0.9485
 2526SOL    HW219212   1.392   0.639  13.411  1.8655 -0.2060 -1.3736
 2527SOL     OW19213   2.629   1.518   4.793  0.1742  0.1085 -0.2758
 2527SOL    HW119214   2.658   1.597   4.838  1.5319 -0.9301  0.6555
 2527SOL    HW219215   2.699   1.512   4.728  0.4491  0.1257  0.0232
 2528SOL     OW19216   1.913   0.749   1.491  0.6270  0.3783  0.0656
 2528SOL    HW119217   2.001   0.748   1.529  0.0701  0.6672  1.3671
 2528SOL    HW219218   1.927   0.702   1.409 -2.0219 -1.5906  0.7495
 2529SOL     OW19219   4.019   2.753   6.116  0.2342  0.4712 -0.6188
 2529SOL    HW119220   4.073   2.821   6.157 -0.5426 -0.3755  1.8133
 2529SOL    HW219221   4.084   2.688   6.087  0.1092 -0.1292  0.4332
 2530SOL     OW19222   4.656   2.877  10.973  0.1858 -0.6786  0.2550
 2530SOL    HW119223   4.608   2.846  10.895 -0.9054  0.7085  0.3778
 2530SOL    HW219224   4.685   2.796  11.015  1.2973  1.6093  3.9125
 2531SOL     OW19225   3.742   0.639   2.168  1.1290  0.1117  0.6597
 2531SOL    HW119226   3.834   0.633   2.192  0.9124  1.4245  1.8639
 2531SOL    HW219227   3.756   0.598   2.083 -1.3118 -2.4021  1.4642
 2532SOL     OW19228   4.560   4.452   4.920 -0.2377 -0.1111  0.1446
 2532SOL    HW119229   4.633   4.436   4.980  0.5560  3.1582  0.0616
 2532SOL    HW219230   4.591   4.417   4.836 -1.6793 -1.4692  0.1746
 2533SOL     OW19231   2.268   4.047   3.425 -0.4566 -0.6159  0.3617
 2533SOL    HW119232   2.327   4.088   3.489  0.8955 -2.0429  0.0145
 2533SOL    HW219233   2.252   4.116   3.361  1.5002 -1.4463 -1.0230
 2534SOL     OW19234   2.406   0.189  12.910 -0.2142  0.4472  0.3071
 2534SOL    HW119235   2.339   0.133  12.870  0.4808 -0.7480  0.7991
 2534SOL    HW219236   2.354   0.257  12.952  0.6506 -0.0122  2.0925
 2535SOL     OW19237   2.715   4.450  15.292 -0.2633 -0.0802  0.1000
 2535SOL    HW119238   2.714   4.441  15.197 -1.2022  1.4513 -0.0422
 2535SOL    HW219239   2.793   4.501  15.312  0.2449 -1.1093  0.7635
 2536SOL     OW19240   0.679   3.925  15.815  0.3075  0.1060 -0.2403
 2536SOL    HW119241   0.593   3.887  15.795 -0.4873  1.1340  1.1956
 2536SOL    HW219242   0.664   3.942  15.908 -1.8672  1.5057 -0.8445
 2537SOL     OW19243   3.939   4.508   5.994  0.5767  0.1361 -0.2234
 2537SOL    HW119244   3.968   4.449   5.924 -1.6953  0.5859 -1.5485
 2537SOL    HW219245   3.978   4.466   6.070 -3.1420  1.7859  2.5831
 2538SOL     OW19246   0.397   2.004   5.724 -0.6514  0.6988  0.1429
 2538SOL    HW119247   0.479   2.003   5.774  0.5711 -0.4725 -1.9032
 2538SOL    HW219248   0.344   1.942   5.773  1.1909 -2.7704 -2.2126
 2539SOL     OW19249   3.366   1.428  13.960  0.0005 -0.2709  0.7487
 2539SOL    HW119250   3.289   1.407  13.908 -0.0572 -0.7750  1.0302
 2539SOL    HW219251   3.394   1.509  13.917  1.5047 -1.2967 -0.2172
 2540SOL     OW19252   2.539   4.214  11.606 -0.2432  0.3665  0.2009
 2540SOL    HW119253   2.469   4.257  11.557 -1.7725 -1.1130  1.1129
 2540SOL    HW219254   2.514   4.122  11.596 -0.5666  0.5581 -0.7634
 2541SOL     OW19255   0.195   4.342   8.107  0.5283  0.4002  0.2467
 2541SOL    HW119256   0.199   4.312   8.198  0.9797 -1.6762 -0.4649
 2541SOL    HW219257   0.237   4.427   8.122  0.7552 -0.1623  2.8203
 2542SOL     OW19258   4.445   2.096   2.273  0.1318  0.1295  0.2166
 2542SOL    HW119259   4.366   2.067   2.227  0.6934 -1.9099  0.5339
 2542SOL    HW219260   4.395   2.118   2.352  0.1287  0.1551  0.2074
 2543SOL     OW19261   0.165   3.387   5.473  0.4574 -0.2772  0.5881
 2543SOL    HW119262   0.131   3.325   5.408  0.6005  1.9309 -1.5850
 2543SOL    HW219263   0.103   3.460   5.479 -0.8824 -1.6164  3.4105
 2544SOL     OW19264   3.742   3.783  11.454  0.1551 -0.0294 -0.2306
 2544SOL    HW119265   3.738   3.768  11.548 -0.3486 -0.8772 -0.3894
 2544SOL    HW219266   3.806   3.715  11.435  1.4530  1.2116 -0.2746
 2545SOL     OW19267   0.138   2.591  11.993 -0.3994 -0.7483 -0.1787
 2545SOL    HW119268   0.150   2.675  12.038 -0.8379 -0.0523 -1.3661
 2545SOL    HW219269   0.127   2.525  12.062  0.6212  0.5549  1.2399
 2546SOL     OW19270   3.296   1.864   3.400 -0.4485 -0.0325  0.4746
 2546SOL    HW119271   3.211   1.845   3.439 -1.1837  1.0174 -0.5986
 2546SOL    HW219272   3.318   1.780   3.360 -1.0259  0.6245 -1.2479
 2547SOL     OW19273   2.952   3.755   8.874 -0.6974 -0.8360 -0.4817
 2547SOL    HW119274   3.005   3.676   8.878  1.6123  0.6769 -1.0992
 2547SOL    HW219275   2.914   3.748   8.962 -2.0097  1.0167 -0.9037
 2548SOL     OW19276   3.829   2.823   8.721 -0.2223 -0.4307  0.1773
 2548SOL    HW119277   3.894   2.884   8.757  1.6359 -2.6846  0.6572
 2548SOL    HW219278   3.872   2.738   8.725  2.0854  0.6716 -0.7419
 2549SOL     OW19279   0.522   1.535  15.022 -0.2776 -0.3490 -0.4936
 2549SOL    HW119280   0.538   1.616  15.071 -0.2622 -0.6695  0.0220
 2549SOL    HW219281   0.577   1.554  14.946 -1.7127  0.9746 -1.2018
 2550SOL     OW19282   3.248   1.305   5.726 -0.1850  0.5256  0.3340
 2550SOL    HW119283   3.254   1.209   5.726  0.2576  0.5483  2.2416
 2550SOL    HW219284   3.208   1.325   5.811 -1.9050  1.1639 -0.6338
 2551SOL     OW19285   4.392   3.883   9.003  0.3050 -0.1548  0.5736
 2551SOL    HW119286   4.317   3.911   8.949  0.7979  0.5750  0.2611
 2551SOL    HW219287   4.377   3.941   9.078  0.6258 -1.1117  1.3786
 2552SOL     OW19288   3.504   0.125  15.551 -0.4628 -0.0761 -0.5306
 2552SOL    HW119289   3.457   0.142  15.632 -0.2832 -0.1861 -0.4049
 2552SOL    HW219290   3.440   0.143  15.482 -0.5029 -0.4562 -0.5940
 2553SOL     OW19291   0.356   3.867   1.651  0.1154 -0.3970 -0.0422
 2553SOL    HW119292   0.374   3.774   1.637  1.7443 -0.1974  0.7818
 2553SOL    HW219293   0.438   3.901   1.616  0.5009  0.6586  1.8825
 2554SOL     OW19294   2.381   3.915   4.614  0.1639  0.0443 -0.0317
 2554SOL    HW119295   2.318   3.895   4.683  0.4588 -1.9569 -0.3244
 2554SOL    HW219296   2.408   3.825   4.597 -2.1108 -0.6343  0.0212
 2555SOL     OW19297   0.294   0.113   4.843 -0.4773 -0.2954  0.2741
 2555SOL    HW119298   0.228   0.054   4.807 -1.5839  1.0003  0.1704
 2555SOL    HW219299   0.249   0.190   4.877 -1.9123  0.1285 -2.6369
 2556SOL     OW19300   2.299   2.945   2.950  0.1785  0.4205 -0.1121
 2556SOL    HW119301   2.392   2.965   2.936  0.3942 -1.2977 -1.0755
 2556SOL    HW219302   2.291   2.977   3.040  1.9264  1.1580 -0.2146
 2557SOL     OW19303   2.090   4.431  16.867  0.1766  0.6425 -0.1400
 2557SOL    HW119304   2.067   4.524  16.856 -1.7366  0.2570  0.5884
 2557SOL    HW219305   2.031   4.385  16.807  0.2620 -0.3010  0.5109
 2558SOL     OW19306   4.659   3.116   7.420  0.2517  0.2566 -0.0109
 2558SOL    HW119307   4.597   3.107   7.347  0.5482 -1.9251  0.0202
 2558SOL    HW219308   4.615   3.057   7.481  2.5734 -1.2976  0.1287
 2559SOL     OW19309   0.039   2.063   6.566 -0.0856 -0.0078 -0.1703
 2559SOL    HW119310   0.080   2.061   6.480  0.2124  0.7158 -0.0482
 2559SOL    HW219311   0.077   2.139   6.611 -0.5901  0.3228 -0.3113
 2560SOL     OW19312   4.211   0.924   2.087 -0.2104  0.5066  0.3186
 2560SOL    HW119313   4.203   1.001   2.144  0.3793  1.6918 -1.2087
 2560SOL    HW219314   4.221   0.960   1.999  0.9155  2.1397  1.1180
 2561SOL     OW19315   2.521   0.626   7.251 -0.1501 -0.7301 -0.4923
 2561SOL    HW119316   2.562   0.558   7.304  0.7405  0.0371 -0.2024
 2561SOL    HW219317   2.428   0.617   7.272 -0.0063 -0.2333  0.3614
 2562SOL     OW19318   0.800   3.924  12.246 -0.3755  0.2333  0.2572
 2562SOL    HW119319   0.800   3.975  12.327  1.1525  0.3215  0.1998
 2562SOL    HW219320   0.879   3.953  12.200  1.7312 -0.5661  3.4140
 2563SOL     OW19321   4.200   0.893   0.604 -0.1870  0.0530  0.2121
 2563SOL    HW119322   4.257   0.822   0.575  0.0582  0.3242  0.0314
 2563SOL    HW219323   4.150   0.900   0.522  1.2276  0.4391 -0.6301
 2564SOL     OW19324   0.464   1.428  12.274 -0.2688 -0.0866  0.2817
 2564SOL    HW119325   0.443   1.494  12.340 -0.8077 -0.0680  0.0885
 2564SOL    HW219326   0.388   1.449  12.220  0.0616 -0.6132 -0.3820
 2565SOL     OW19327   3.336   0.496   8.940 -0.0617 -0.3950  0.0186
 2565SOL    HW119328   3.409   0.452   8.896  0.0353 -1.0262  0.8187
 2565SOL    HW219329   3.379   0.519   9.022 -0.4168 -0.1490  0.1331
 2566SOL     OW19330   4.263   1.241  11.130  0.0910 -0.4501  0.2622
 2566SOL    HW119331   4.211   1.208  11.057  0.0786  1.3181 -0.5447
 2566SOL    HW219332   4.220   1.203  11.206  1.1158 -1.5309  0.2982
 2567SOL     OW19333   1.950   1.085   7.218 -0.2556 -0.1636  0.1072
 2567SOL    HW119334   2.037   1.122   7.229 -0.4126  0.5791 -1.1241
 2567SOL    HW219335   1.978   0.995   7.199 -2.6649 -0.6206 -1.3512
 2568SOL     OW19336   4.523   4.189   7.425 -0.2873 -0.2387 -0.5130
 2568SOL    HW119337   4.532   4.118   7.488  0.3795 -0.6527 -1.0679
 2568SOL    HW219338   4.429   4.176   7.413  0.1743 -2.0209 -2.2313
 2569SOL     OW19339   4.018   3.614   7.250 -0.6241 -0.1880  0.2453
 2569SOL    HW119340   3.936   3.656   7.227 -0.0944  0.3540 -0.6903
 2569SOL    HW219341   4.032   3.631   7.343 -1.2899 -0.2308  0.3531
 2570SOL     OW19342   1.417   2.106   9.021  0.4652  0.3846 -0.2220
 2570SOL    HW119343   1.347   2.048   9.050  1.1847 -1.0553 -1.3486
 2570SOL    HW219344   1.367   2.182   8.990 -2.6784 -1.8391 -0.5411
 2571SOL     OW19345   3.793   4.478   4.808 -0.0458 -0.2275  0.0654
 2571SOL    HW119346   3.888   4.465   4.798 -0.0718 -0.0656 -0.3909
 2571SOL    HW219347   3.767   4.386   4.804 -4.0929  0.8836  0.7570
 2572SOL     OW19348   2.332   1.172   3.570  0.3008  0.3401  0.1216
 2572SOL    HW119349   2.393   1.166   3.644  0.9326  0.8241 -0.3600
 2572SOL    HW219350   2.348   1.089   3.525  1.5917  0.4038  0.4524
 2573SOL     OW19351   2.707   0.602  11.966  0.0467  0.2551 -0.3485
 2573SOL    HW119352   2.730   0.679  11.913 -0.4303  0.7313  0.1331
 2573SOL    HW219353   2.751   0.530  11.921  0.5229 -0.4069  1.1707
 2574SOL     OW19354   1.675   2.166   3.440  0.1551 -0.1692  0.0549
 2574SOL    HW119355   1.648   2.241   3.491 -0.3512  0.5042 -1.2067
 2574SOL    HW219356   1.590   2.155   3.397 -0.8774  0.2619  2.0067
 2575SOL     OW19357   4.331   0.801   9.562 -1.1157 -0.0368 -0.0280
 2575SOL    HW119358   4.324   0.896   9.561 -2.8613 -0.1503  2.5546
 2575SOL    HW219359   4.251   0.771   9.605  0.0821 -0.2689  2.0277
 2576SOL     OW19360   0.892   0.620  13.835 -0.2539 -0.4680  0.0179
 2576SOL    HW119361   0.931   0.694  13.880 -0.7700 -0.4352  0.4075
 2576SOL    HW219362   0.942   0.548  13.873 -0.6719  0.4382  2.2450
 2577SOL     OW19363   2.889   0.061   4.946  0.4542  0.0394 -0.1917
 2577SOL    HW119364   2.816   0.063   5.009  0.4639  2.2044 -0.2558
 2577SOL    HW219365   2.906   4.708   4.955  0.8734  0.2018  0.7506
 2578SOL     OW19366   3.619   4.393   2.025 -0.4728  0.1092  0.5748
 2578SOL    HW119367   3.632   4.394   1.930  0.3234  0.7863  0.6951
 2578SOL    HW219368   3.548   4.329   2.027 -0.3855 -0.0684 -1.5068
 2579SOL     OW19369   0.678   0.824  15.070 -0.1755  0.2355  0.0415
 2579SOL    HW119370   0.720   0.741  15.096  2.5344  1.7507  0.4970
 2579SOL    HW219371   0.704   0.817  14.978 -1.3247  0.4597 -0.3078
 2580SOL     OW19372   3.235   4.468   0.600  0.0394 -0.1855 -0.5066
 2580SOL    HW119373   3.227   4.382   0.561 -1.4923 -0.1019 -0.3984
 2580SOL    HW219374   3.311   4.507   0.558  0.2003 -1.3314 -1.2700
 2581SOL     OW19375   2.181   1.365   4.966  0.1947 -0.3306 -0.3005
 2581SOL    HW119376   2.199   1.372   5.059  0.0519 -0.4586 -0.2623
 2581SOL    HW219377   2.209   1.451   4.935  0.4983  0.7649  3.0458
 2582SOL     OW19378   0.225   0.092  11.231  0.4412  0.4411 -0.3278
 2582SOL    HW119379   0.136   0.077  11.263  0.5742  1.7446  0.6531
 2582SOL    HW219380   0.259   0.164  11.283  1.4278 -1.6928  1.9763
 2583SOL     OW19381   3.135   0.603   2.445 -0.1239  0.0914  0.1964
 2583SOL    HW119382   3.114   0.597   2.352 -1.6523 -2.9308  0.7388
 2583SOL    HW219383   3.228   0.625   2.435 -0.3872  0.3628 -1.5997
 2584SOL     OW19384   0.117   1.506   6.443  0.0625  0.4931  0.4035
 2584SOL    HW119385   0.115   1.585   6.388 -0.6275  0.9366  1.0623
 2584SOL    HW219386   0.183   1.517   6.511 -1.4339 -1.3095  2.1416
 2585SOL     OW19387   1.677   4.092  11.472 -0.2114  0.2266  1.0050
 2585SOL    HW119388   1.727   4.100  11.390 -0.4144  1.0280  0.9604
 2585SOL    HW219389   1.748   4.077  11.534  0.1430 -0.2123  0.5023
 2586SOL     OW19390   3.664   1.119   6.340 -0.3713  0.0800 -0.2622
 2586SOL    HW119391   3.752   1.098   6.373  0.3719  0.0817 -2.2355
 2586SOL    HW219392   3.676   1.136   6.246 -0.4242 -0.4997 -0.3720
 2587SOL     OW19393   2.618   3.664   2.844  0.3556 -0.0853  0.0365
 2587SOL    HW119394   2.668   3.675   2.925  0.6269  0.4708 -0.2024
 2587SOL    HW219395   2.692   3.645   2.787 -0.0564 -1.3983 -0.0706
 2588SOL     OW19396   2.626   3.321  15.154  0.0374 -0.2432  0.4517
 2588SOL    HW119397   2.608   3.409  15.122  0.2399 -0.8367 -1.3538
 2588SOL    HW219398   2.606   3.349  15.243 -0.1453  0.0698  0.3126
 2589SOL     OW19399   1.949   2.002   2.404 -0.0796  0.8414 -0.0588
 2589SOL    HW119400   1.919   2.089   2.378  0.4208  0.7906 -0.8165
 2589SOL    HW219401   1.919   1.952   2.327  1.0170 -2.4177  1.6401
 2590SOL     OW19402   0.773   3.184   4.813  0.0335  0.4059 -0.3172
 2590SOL    HW119403   0.681   3.165   4.834  1.0341  1.1102  4.6424
 2590SOL    HW219404   0.788   3.117   4.746 -1.6291 -0.6438  0.3442
 2591SOL     OW19405   3.264   3.162  14.650  0.2895  0.2382  0.0039
 2591SOL    HW119406   3.320   3.141  14.575 -1.7016 -1.3990 -1.0495
 2591SOL    HW219407   3.288   3.087  14.705 -1.4346 -0.5402 -0.2881
 2592SOL     OW19408   2.356   2.753   4.938  0.2102  0.0209 -0.3498
 2592SOL    HW119409   2.411   2.829   4.961  0.3384  0.0821 -0.8548
 2592SOL    HW219410   2.416   2.693   4.895  1.3940 -0.3182  1.7589
 2593SOL     OW19411   0.301   1.599   1.750 -0.0077 -0.4208  0.0077
 2593SOL    HW119412   0.297   1.627   1.842  1.6015  2.7554 -0.9263
 2593SOL    HW219413   0.330   1.507   1.753  0.1557 -0.3607  0.2550
 2594SOL     OW19414   3.103   3.280   3.299  0.0384 -0.2959 -0.3165
 2594SOL    HW119415   3.049   3.258   3.223  0.6711 -0.1932 -0.7932
 2594SOL    HW219416   3.180   3.322   3.261  0.4863  0.5284  1.4794
 2595SOL     OW19417   3.952   2.815   9.101  0.7014 -0.2165 -0.0379
 2595SOL    HW119418   3.875   2.764   9.076  1.4203 -0.0662 -2.6050
 2595SOL    HW219419   3.980   2.766   9.177  0.9965  0.7479  0.4804
 2596SOL     OW19420   1.588   0.708   7.317 -0.0555 -0.1152 -0.5705
 2596SOL    HW119421   1.557   0.671   7.399  0.6813 -1.7525 -1.0163
 2596SOL    HW219422   1.616   0.627   7.273 -0.7990 -0.7004  0.0270
 2597SOL     OW19423   3.341   1.045   3.381 -0.2728 -0.4518 -0.0318
 2597SOL    HW119424   3.341   0.992   3.301 -0.8806 -2.1213  1.0780
 2597SOL    HW219425   3.431   1.077   3.384 -0.1741 -0.6020 -1.3254
 2598SOL     OW19426   1.138   1.452  13.363  0.0268 -0.0983 -0.0490
 2598SOL    HW119427   1.191   1.374  13.350  1.1799  0.5328  0.8303
 2598SOL    HW219428   1.136   1.483  13.273 -0.0065 -1.1603 -0.4103
 2599SOL     OW19429   1.209   4.726   8.896  0.3674  0.1982  0.1105
 2599SOL    HW119430   1.255   4.643   8.886  2.3682  1.3932 -0.7916
 2599SOL    HW219431   1.120   4.704   8.870  0.1659  2.1118 -0.8835
 2600SOL     OW19432   1.038   4.725  12.280  1.1754 -0.8002  0.2966
 2600SOL    HW119433   1.024   0.056  12.217 -1.2056 -0.9242  0.7036
 2600SOL    HW219434   1.062   0.031  12.360  0.9347  1.6380 -1.0310
 2601SOL     OW19435   1.307   3.858  10.376 -0.2436 -0.6538 -0.1420
 2601SOL    HW119436   1.308   3.799  10.451  1.5448 -0.1084  0.2701
 2601SOL    HW219437   1.263   3.936  10.409 -0.2329  0.0879 -1.8451
 2602SOL     OW19438   4.642   0.415   2.905 -0.5272  0.5231  0.5297
 2602SOL    HW119439   4.693   0.495   2.894 -1.5666  1.0764 -0.3460
 2602SOL    HW219440   4.563   0.421   2.851 -0.6834  0.3621  0.7429
 2603SOL     OW19441   4.070   1.199   8.781  0.0766  0.4215 -0.6817
 2603SOL    HW119442   3.975   1.203   8.792  0.4408 -0.1641  2.9283
 2603SOL    HW219443   4.079   1.104   8.790 -0.6139  0.3220 -1.0286
 2604SOL     OW19444   0.588   1.643   7.691  0.4088 -1.1464  0.0587
 2604SOL    HW119445   0.593   1.716   7.629 -1.1376 -0.2371  0.9780
 2604SOL    HW219446   0.513   1.589   7.668  0.4932 -0.7315 -1.1959
 2605SOL     OW19447   0.352   0.720  14.344 -0.8465 -0.6515 -0.1365
 2605SOL    HW119448   0.262   0.692  14.328 -0.5577 -1.8631  0.3210
 2605SOL    HW219449   0.339   0.802  14.392 -2.0705 -1.2183  0.5222
 2606SOL     OW19450   3.457   2.716  12.015 -0.1969  0.4404 -0.1148
 2606SOL    HW119451   3.425   2.719  11.925  1.9542 -1.1438 -0.9030
 2606SOL    HW219452   3.490   2.806  12.014  1.5532 -0.2078 -0.3198
 2607SOL     OW19453   1.530   3.836  11.560 -0.3462 -0.1788  0.0151
 2607SOL    HW119454   1.446   3.837  11.514 -0.4988  1.1528  0.3020
 2607SOL    HW219455   1.585   3.900  11.514 -0.7312 -0.1551 -0.4123
 2608SOL     OW19456   0.056   1.888   7.086  0.3894 -0.2865 -0.2110
 2608SOL    HW119457   0.130   1.906   7.028 -0.0648  0.3492 -0.5979
 2608SOL    HW219458   0.029   1.974   7.119  1.5670  1.5730 -4.1096
 2609SOL     OW19459   1.695   4.557   1.698 -0.1080  0.4033 -0.5558
 2609SOL    HW119460   1.653   4.472   1.711  3.1242 -1.2157 -0.8440
 2609SOL    HW219461   1.754   4.569   1.772  0.3814 -0.1462 -0.8583
 2610SOL     OW19462   1.417   3.300   5.721 -0.0558 -0.1261 -0.3800
 2610SOL    HW119463   1.461   3.313   5.637  0.9198  1.9035  0.4497
 2610SOL    HW219464   1.422   3.205   5.729 -0.0535 -0.0991 -0.0911
 2611SOL     OW19465   1.468   3.277   8.745  0.3412  0.4170  0.4466
 2611SOL    HW119466   1.475   3.252   8.653  0.2224  1.0849  0.2572
 2611SOL    HW219467   1.385   3.235   8.767  0.5092 -0.8784 -1.4241
 2612SOL     OW19468   4.695   1.456   0.220  0.0075  0.4652  0.0355
 2612SOL    HW119469   4.674   1.385   0.159  0.8162  2.4593 -2.6073
 2612SOL    HW219470   4.613   1.504   0.223  0.2897  0.7500  2.9972
 2613SOL     OW19471   1.424   4.139  11.417 -0.4371  0.5099  0.4609
 2613SOL    HW119472   1.511   4.119  11.451 -0.5814 -0.7170  0.1074
 2613SOL    HW219473   1.459   4.190  11.343 -1.8615 -1.5044 -1.6249
 2614SOL     OW19474   0.730   2.201   7.655  0.0106 -0.0886 -0.0609
 2614SOL    HW119475   0.813   2.153   7.648 -0.1003 -0.4579  1.1415
 2614SOL    HW219476   0.739   2.219   7.749 -1.1067 -1.5307  0.3280
 2615SOL     OW19477   0.263   4.649  11.710 -0.2836  0.2405  0.1800
 2615SOL    HW119478   0.256   0.003  11.726  2.3544  0.7956 -1.7406
 2615SOL    HW219479   0.176   4.636  11.672  0.6050  0.6057 -2.0056
 2616SOL     OW19480   4.033   0.545   6.704 -0.2927  0.2208 -0.0035
 2616SOL    HW119481   4.075   0.460   6.688  1.6287  1.4952 -1.7757
 2616SOL    HW219482   3.942   0.521   6.721  0.1934 -0.7157  1.3107
 2617SOL     OW19483   2.756   2.008   2.335  0.6973 -0.3084  0.2125
 2617SOL    HW119484   2.718   2.094   2.315 -1.5867 -1.1309  1.0298
 2617SOL    HW219485   2.802   2.039   2.413 -0.3709  0.6079  0.4790
 2618SOL     OW19486   1.402   0.631   6.918  0.8257 -0.9073 -0.0999
 2618SOL    HW119487   1.322   0.634   6.866  2.3410 -0.0322 -2.4133
 2618SOL    HW219488   1.470   0.590   6.864  1.1607 -0.1869 -0.2290
 2619SOL     OW19489   2.287   1.433   0.031  0.5750 -0.2302  0.4956
 2619SOL    HW119490   2.215   1.488  17.757  0.0237 -0.5138  1.2397
 2619SOL    HW219491   2.308   1.474   0.115 -1.2225 -0.6063  1.1199
 2620SOL     OW19492   0.101   3.485   4.791 -0.1194 -0.6005  0.4109
 2620SOL    HW119493   0.114   3.423   4.719  0.1246  0.5819 -0.5625
 2620SOL    HW219494   0.007   3.486   4.807 -0.3707 -2.2835 -0.9725
 2621SOL     OW19495   1.466   2.555   4.703 -1.0860  0.0904 -0.0851
 2621SOL    HW119496   1.442   2.591   4.789  2.1891 -0.6276  1.1159
 2621SOL    HW219497   1.396   2.490   4.701 -0.8122 -0.2213  0.4541
 2622SOL     OW19498   0.890   0.114  17.558 -0.1139 -0.1105  0.2498
 2622SOL    HW119499   0.934   0.198  17.555 -0.4795  0.0381 -0.7314
 2622SOL    HW219500   0.923   0.081  17.642  1.3302 -0.8538 -0.6120
 2623SOL     OW19501   4.456   1.654   9.390 -0.1241  0.3725 -0.4512
 2623SOL    HW119502   4.427   1.577   9.440 -0.0978  0.5203 -0.2054
 2623SOL    HW219503   4.549   1.643   9.411 -0.3033  0.3845  0.3572
 2624SOL     OW19504   4.194   1.110  12.102  0.1652  0.2784  0.2603
 2624SOL    HW119505   4.229   1.110  12.013 -0.4247  0.0741  0.0279
 2624SOL    HW219506   4.099   1.107  12.091 -0.1151  1.3589  2.3116
 2625SOL     OW19507   0.992   3.709  16.408  0.7641 -0.6542  0.0832
 2625SOL    HW119508   1.001   3.768  16.484 -2.2744 -2.0420  1.5026
 2625SOL    HW219509   1.024   3.776  16.348 -3.1086  1.4305  0.3480
 2626SOL     OW19510   1.212   3.816   4.774  0.1034  0.1617  0.1234
 2626SOL    HW119511   1.227   3.905   4.743 -2.2921  1.4135  2.5266
 2626SOL    HW219512   1.175   3.770   4.699  1.3919  0.9603 -1.0022
 2627SOL     OW19513   2.654   0.545   3.011 -0.1898  0.2769  0.4643
 2627SOL    HW119514   2.750   0.550   3.015  0.1026 -3.1270 -2.8768
 2627SOL    HW219515   2.635   0.532   2.918  0.2757  2.2366  0.0957
 2628SOL     OW19516   4.671   4.187   2.685 -0.7134  0.3320 -0.2377
 2628SOL    HW119517   4.723   4.123   2.637  0.2639  0.4106  0.7238
 2628SOL    HW219518   4.727   4.262   2.665 -1.1945  0.7703  0.0733
 2629SOL     OW19519   2.018   1.909  10.073 -0.1662  0.0144  0.8793
 2629SOL    HW119520   1.943   1.896  10.015  1.2763  1.3185 -1.2789
 2629SOL    HW219521   2.035   1.825  10.116  0.3827 -0.0877  0.4705
 2630SOL     OW19522   3.154   2.866   8.212 -0.2033  0.7773  0.2190
 2630SOL    HW119523   3.086   2.866   8.144 -0.7196 -1.2768  0.7441
 2630SOL    HW219524   3.160   2.958   8.237  1.6336  0.6555  0.2279
 2631SOL     OW19525   3.985   1.974   7.940  0.2393 -0.4672  0.0133
 2631SOL    HW119526   4.077   1.950   7.936 -0.1574 -1.8626 -0.6378
 2631SOL    HW219527   3.982   2.012   8.028 -1.5279 -1.0887  0.2195
 2632SOL     OW19528   0.129   3.506  12.368 -0.2372  0.0767  0.1625
 2632SOL    HW119529   0.140   3.463  12.453 -1.3030 -1.5030 -0.4892
 2632SOL    HW219530   0.096   3.594  12.388 -4.0378 -1.4734  0.7253
 2633SOL     OW19531   0.601   2.905   1.811  0.2242 -0.0826  0.3209
 2633SOL    HW119532   0.679   2.849   1.799 -0.1267 -0.8151  1.4576
 2633SOL    HW219533   0.543   2.850   1.758  1.2508 -0.6250 -0.2469
 2634SOL     OW19534   0.856   0.021   4.795  0.2635  0.1882  0.1374
 2634SOL    HW119535   0.806   0.093   4.834  0.4378  0.2359  0.2739
 2634SOL    HW219536   0.847   0.052   4.705 -1.9710 -0.9923 -0.0454
 2635SOL     OW19537   4.273   0.059   6.975  0.0227  0.1991 -0.1373
 2635SOL    HW119538   4.181   0.034   6.961  0.1265  0.2810 -0.9956
 2635SOL    HW219539   4.260   0.153   6.988  1.8420  0.2219  1.5100
 2636SOL     OW19540   1.039   4.379   8.036 -0.0721  0.0211 -0.4044
 2636SOL    HW119541   1.100   4.449   8.061  1.0280 -0.8539 -0.6820
 2636SOL    HW219542   1.025   4.326   8.114  1.6026  0.7822  0.4191
 2637SOL     OW19543   4.369   2.109  13.519  0.0168 -0.4303 -0.3054
 2637SOL    HW119544   4.312   2.045  13.562  2.7356 -1.0802  2.3215
 2637SOL    HW219545   4.314   2.185  13.538  1.8114  0.2354  2.2174
 2638SOL     OW19546   0.792   2.696  15.109 -0.2212 -0.2793  0.4805
 2638SOL    HW119547   0.884   2.698  15.083  0.3872 -0.2859  2.6389
 2638SOL    HW219548   0.751   2.747  15.039 -1.4530 -1.7130  0.1523
 2639SOL     OW19549   0.600   2.734   3.493 -0.2075 -0.6778 -0.6166
 2639SOL    HW119550   0.572   2.675   3.562  0.4323  1.9433  1.8746
 2639SOL    HW219551   0.685   2.697   3.470  0.3504  0.7705 -0.8870
 2640SOL     OW19552   1.990   3.911  11.905 -0.1611  0.9053  0.0744
 2640SOL    HW119553   2.037   3.859  11.840 -2.7016 -0.5824 -0.5663
 2640SOL    HW219554   1.915   3.853  11.916 -0.1292  1.4023  3.1197
 2641SOL     OW19555   1.600   3.688   7.737  0.6167 -0.0981  0.0687
 2641SOL    HW119556   1.612   3.773   7.779  0.5272 -0.0080 -0.0854
 2641SOL    HW219557   1.613   3.633   7.814  0.1224  0.5845  0.6373
 2642SOL     OW19558   2.323   0.227   1.225  0.5841  0.0751 -0.2131
 2642SOL    HW119559   2.293   0.200   1.312 -2.3923  0.9307 -0.9868
 2642SOL    HW219560   2.416   0.246   1.237  0.6210  0.4600 -1.1837
 2643SOL     OW19561   1.808   0.650   2.155  0.1590  0.2324  0.3170
 2643SOL    HW119562   1.775   0.671   2.067 -2.0357 -0.9292  0.8455
 2643SOL    HW219563   1.886   0.598   2.136  1.0208  1.8078 -0.4402
 2644SOL     OW19564   1.795   4.277  10.096 -0.3423 -0.3164  0.2127
 2644SOL    HW119565   1.720   4.332  10.120  1.0833  1.9018 -0.3410
 2644SOL    HW219566   1.787   4.289  10.001  1.7581  1.0505  0.2012
 2645SOL     OW19567   1.399   2.688   2.145  0.6562 -0.4749 -0.2457
 2645SOL    HW119568   1.464   2.744   2.187  0.9001 -0.5405 -0.5360
 2645SOL    HW219569   1.379   2.636   2.223  0.3136 -1.5765 -1.0662
 2646SOL     OW19570   0.452   3.537   0.106  0.1260 -0.3663  0.2414
 2646SOL    HW119571   0.395   3.567   0.035  1.6282  0.0241 -0.8003
 2646SOL    HW219572   0.536   3.521   0.063  0.5485  0.6991  0.6758
 2647SOL     OW19573   0.598   1.544   2.241 -0.4308 -0.4189  0.2380
 2647SOL    HW119574   0.634   1.627   2.270  1.6338 -0.1853 -2.9427
 2647SOL    HW219575   0.514   1.558   2.285 -0.0237  0.4223  0.7386
 2648SOL     OW19576   2.648   3.612   4.327 -0.3512  0.4515 -0.3183
 2648SOL    HW119577   2.654   3.704   4.301 -2.9505  0.2166 -1.6637
 2648SOL    HW219578   2.740   3.585   4.335  0.0616  2.2980  1.2269
 2649SOL     OW19579   4.675   1.724   2.353 -0.0801  0.4217  0.6225
 2649SOL    HW119580   0.013   1.739   2.406  0.8735  1.2315 -0.9988
 2649SOL    HW219581   4.625   1.677   2.419 -1.6881  0.5227 -0.5255
 2650SOL     OW19582   4.163   1.449   0.346 -0.1087 -0.7548 -0.1335
 2650SOL    HW119583   4.083   1.432   0.396 -0.5581  1.9778  0.0362
 2650SOL    HW219584   4.151   1.537   0.311  0.1251 -0.6677  0.0053
 2651SOL     OW19585   4.131   4.232   8.114  0.1765 -0.3097  0.5651
 2651SOL    HW119586   4.082   4.186   8.182  0.8345  1.0185  1.9464
 2651SOL    HW219587   4.213   4.245   8.162  0.0854 -2.2781  1.2601
 2652SOL     OW19588   0.087   0.525   3.962 -0.5768 -0.1472  0.1836
 2652SOL    HW119589   0.049   0.606   3.927  4.1261  1.7729 -0.3594
 2652SOL    HW219590   0.072   0.544   4.054 -1.1846 -0.8136  0.2276
 2653SOL     OW19591   2.213   1.231   7.247  0.1042 -0.0573 -0.4016
 2653SOL    HW119592   2.292   1.262   7.202 -0.1851  0.3433 -0.6369
 2653SOL    HW219593   2.263   1.161   7.288 -1.2327  0.5572  2.2745
 2654SOL     OW19594   3.947   3.306   3.357 -0.2209 -0.7279 -0.5326
 2654SOL    HW119595   3.867   3.255   3.372  0.7034 -2.1319 -0.4068
 2654SOL    HW219596   4.019   3.244   3.369  0.1697  0.1534  1.6562
 2655SOL     OW19597   1.346   0.691   2.410  0.6952  0.2776  0.0636
 2655SOL    HW119598   1.372   0.627   2.475  0.8402  0.3594  0.0864
 2655SOL    HW219599   1.422   0.697   2.353  0.0728 -0.3522 -0.8419
 2656SOL     OW19600   0.055   4.095   8.233  0.2686  0.5262  0.1446
 2656SOL    HW119601   0.089   4.033   8.169 -0.4873 -0.3114  0.5554
 2656SOL    HW219602   0.056   4.044   8.314 -1.8525 -1.4445 -1.1083
 2657SOL     OW19603   3.812   2.903  16.002 -0.1445  0.0135  0.0269
 2657SOL    HW119604   3.838   2.813  16.021  0.6250  0.3565  0.5856
 2657SOL    HW219605   3.887   2.959  16.020  2.0194 -2.8638 -0.1642
 2658SOL     OW19606   3.539   4.061   8.878 -0.2727  0.1224  0.2219
 2658SOL    HW119607   3.614   4.044   8.820 -0.7204  4.3632 -1.5611
 2658SOL    HW219608   3.487   3.983   8.858 -2.2094  1.4159  0.1701
 2659SOL     OW19609   2.898   3.645  11.454  0.3026  0.1755 -0.0395
 2659SOL    HW119610   2.966   3.628  11.519 -0.4642  1.3081  1.0628
 2659SOL    HW219611   2.899   3.741  11.458  1.4534  0.1380  0.4915
 2660SOL     OW19612   2.577   2.308  10.228  0.3668  0.4631 -0.0586
 2660SOL    HW119613   2.632   2.376  10.188  1.7142 -0.2612  0.5881
 2660SOL    HW219614   2.541   2.358  10.301 -1.6176  1.1454 -1.5051
 2661SOL     OW19615   2.870   0.933   3.880  0.7076  0.7554 -0.0575
 2661SOL    HW119616   2.775   0.944   3.874  0.8291  0.4758 -2.6927
 2661SOL    HW219617   2.893   0.911   3.790  4.0550  1.2542  0.6908
 2662SOL     OW19618   2.341   1.654   5.119 -0.6570  0.1565  0.5172
 2662SOL    HW119619   2.299   1.732   5.081  0.9330  0.4933 -0.5335
 2662SOL    HW219620   2.342   1.600   5.040  2.4444  0.3299  0.4484
 2663SOL     OW19621   0.010   2.809   3.593  0.1186 -0.6548 -0.1787
 2663SOL    HW119622   0.028   2.740   3.657  0.3482  2.3715  3.0705
 2663SOL    HW219623   4.658   2.794   3.570  0.2244 -1.3345 -0.1677
 2664SOL     OW19624   2.923   0.544  10.634  0.4414  0.0712  0.3379
 2664SOL    HW119625   2.987   0.500  10.578  0.9980  0.1030  0.9573
 2664SOL    HW219626   2.936   0.633  10.599  0.2137  0.6931  1.8500
 2665SOL     OW19627   3.710   2.954   2.428  0.7337 -0.3052  0.3947
 2665SOL    HW119628   3.765   2.891   2.382  0.7028 -0.6263  0.7907
 2665SOL    HW219629   3.723   3.031   2.373  0.4171 -1.8943 -1.9129
 2666SOL     OW19630   1.904   4.643   3.225  0.0818  0.0014  0.0698
 2666SOL    HW119631   1.918   4.689   3.142  0.3707 -0.4173 -0.1135
 2666SOL    HW219632   1.993   4.637   3.261 -0.9463 -1.0904  2.4357
 2667SOL     OW19633   1.102   2.798   7.776 -0.1284  0.3185  0.3878
 2667SOL    HW119634   1.155   2.867   7.817  2.0539 -0.1371 -1.7002
 2667SOL    HW219635   1.031   2.855   7.746 -0.3534 -1.4831 -2.4773
 2668SOL     OW19636   0.197   1.153   3.241  0.1023 -0.2859  0.2217
 2668SOL    HW119637   0.236   1.240   3.250 -0.3643 -0.0246 -0.2913
 2668SOL    HW219638   0.242   1.093   3.300  1.8000  2.0857  1.2962
 2669SOL     OW19639   4.010   0.902  11.147  0.6734  0.3252  0.4115
 2669SOL    HW119640   4.105   0.897  11.148  0.6101 -0.8637  0.0996
 2669SOL    HW219641   3.975   0.814  11.160  0.0573  0.3202 -1.2875
 2670SOL     OW19642   3.042   1.353   2.174  0.1406 -0.2542 -0.1143
 2670SOL    HW119643   3.118   1.393   2.132  0.2006  1.3925  1.5270
 2670SOL    HW219644   2.998   1.428   2.216 -1.2646 -1.8734  1.2983
 2671SOL     OW19645   0.482   3.853   4.041  0.0988  0.4473  0.1831
 2671SOL    HW119646   0.473   3.845   4.136  0.9696 -1.3191  0.1196
 2671SOL    HW219647   0.577   3.865   4.038 -0.3142  3.3606 -1.2940
 2672SOL     OW19648   0.965   4.234   8.261 -0.0024 -0.5556 -0.1886
 2672SOL    HW119649   1.015   4.224   8.342  2.2362 -0.9289 -1.6109
 2672SOL    HW219650   0.970   4.145   8.226 -1.1217 -1.5338  2.1380
 2673SOL     OW19651   0.040   2.395   8.249 -0.3010 -0.2419  0.1895
 2673SOL    HW119652   0.074   2.328   8.308 -0.5749 -0.6665 -0.1295
 2673SOL    HW219653   4.721   2.337   8.201  0.4941 -0.1456 -0.9111
 2674SOL     OW19654   3.315   2.065  10.999 -0.8515  0.2859 -0.3808
 2674SOL    HW119655   3.379   2.135  10.988 -0.7723  0.3161  0.3223
 2674SOL    HW219656   3.327   2.032  10.910 -0.2160  1.2042 -0.6332
 2675SOL     OW19657   1.839   2.728  14.754  0.0203  0.1028  0.6612
 2675SOL    HW119658   1.836   2.812  14.801  1.3508 -0.4745  1.7569
 2675SOL    HW219659   1.766   2.738  14.693  0.0742 -1.9233  0.2771
 2676SOL     OW19660   2.572   0.018   3.419  0.7579  0.2826  0.1448
 2676SOL    HW119661   2.508   0.087   3.403  1.0458  0.5308  0.0779
 2676SOL    HW219662   2.592   0.039   3.511  2.2377  0.8177 -0.2954
 2677SOL     OW19663   2.597   1.899  17.618  0.2541 -0.1469  0.1939
 2677SOL    HW119664   2.650   1.941  17.550  0.2841 -0.8596 -0.2200
 2677SOL    HW219665   2.581   1.976  17.672 -2.2166  0.1529 -0.9553
 2678SOL     OW19666   0.123   3.066   6.714  0.5904  0.2586 -0.1840
 2678SOL    HW119667   0.084   3.122   6.781  0.1730 -0.5165  0.2211
 2678SOL    HW219668   0.187   3.018   6.767  1.9350  0.1785 -1.8712
 2679SOL     OW19669   1.687   1.397  17.466 -0.2501  0.3366  0.9100
 2679SOL    HW119670   1.711   1.343  17.541  3.2960  0.1254 -0.3935
 2679SOL    HW219671   1.664   1.483  17.503 -1.4192  0.8058 -0.9023
 2680SOL     OW19672   2.706   0.848   8.976 -0.1931 -0.0263  0.4457
 2680SOL    HW119673   2.634   0.851   9.038 -0.1581  3.0305  0.3671
 2680SOL    HW219674   2.766   0.917   9.004  1.4673 -0.9434 -0.8257
 2681SOL     OW19675   4.089   0.270  10.592  0.1694 -0.3237 -0.0208
 2681SOL    HW119676   4.086   0.366  10.589 -0.6778 -0.2929  2.0264
 2681SOL    HW219677   4.083   0.258  10.686 -0.2132  1.1979  0.1570
 2682SOL     OW19678   3.389   0.795   8.266  0.3871  0.4250 -0.2149
 2682SOL    HW119679   3.327   0.867   8.254 -1.3064 -0.9164  0.5347
 2682SOL    HW219680   3.343   0.734   8.209 -0.6139 -0.4098  1.4934
 2683SOL     OW19681   2.980   4.389  12.833 -0.0258  0.4100  0.4110
 2683SOL    HW119682   2.935   4.473  12.825 -0.2049  0.1525 -1.1730
 2683SOL    HW219683   2.909   4.341  12.875  0.5519 -1.0378 -0.2843
 2684SOL     OW19684   3.029   3.298   8.751 -0.1685  0.1897 -0.3605
 2684SOL    HW119685   2.992   3.277   8.665  0.2804 -1.3794 -0.1846
 2684SOL    HW219686   2.990   3.223   8.797 -1.2688  1.1197  0.2204
 2685SOL     OW19687   0.412   4.155   8.939  0.6144 -0.1150 -0.4350
 2685SOL    HW119688   0.387   4.190   9.025  1.3606  0.0366 -0.2802
 2685SOL    HW219689   0.345   4.087   8.943 -1.0824  1.6139  0.6018
 2686SOL     OW19690   1.109   3.691   5.049 -0.0367  0.3181  0.6681
 2686SOL    HW119691   1.042   3.649   4.994  0.6740  0.0868 -0.0320
 2686SOL    HW219692   1.075   3.690   5.138 -1.3164 -0.1376  0.1702
 2687SOL     OW19693   3.626   2.663   3.251 -0.5070  0.3985 -0.2205
 2687SOL    HW119694   3.600   2.727   3.185 -0.9715 -1.3671 -1.7243
 2687SOL    HW219695   3.610   2.721   3.326 -1.5005 -2.1499  1.5243
 2688SOL     OW19696   2.436   2.812  10.495  0.4264 -0.4034 -0.9099
 2688SOL    HW119697   2.398   2.876  10.435  1.4420  0.7880 -0.2955
 2688SOL    HW219698   2.370   2.743  10.492 -0.6305  0.6258 -1.3242
 2689SOL     OW19699   2.426   4.418   9.132 -0.0503  0.3126 -0.0748
 2689SOL    HW119700   2.440   4.510   9.112  0.0225  0.2132 -0.4910
 2689SOL    HW219701   2.463   4.378   9.053  2.0722  1.0485  0.5481
 2690SOL     OW19702   3.431   1.014  12.942  0.2339 -0.4100 -0.1579
 2690SOL    HW119703   3.513   1.063  12.937 -0.8848  1.5578  0.8206
 2690SOL    HW219704   3.461   0.939  12.890  2.1252  0.3448 -0.1570
 2691SOL     OW19705   4.252   4.393   0.579  0.0289  0.0627  0.5992
 2691SOL    HW119706   4.321   4.429   0.634 -1.7446 -0.8513  3.3991
 2691SOL    HW219707   4.274   4.425   0.491  1.4298  0.3618  1.0482
 2692SOL     OW19708   4.633   0.649   7.608  0.0807 -0.3055  0.2182
 2692SOL    HW119709   4.702   0.715   7.618 -0.5351  0.4905 -0.7743
 2692SOL    HW219710   4.692   0.575   7.594 -0.9277 -0.9456 -0.5952
 2693SOL     OW19711   4.681   3.822  13.372 -0.2265 -0.5069  0.3298
 2693SOL    HW119712   0.033   3.842  13.390 -0.4205  1.0470 -0.4002
 2693SOL    HW219713   4.643   3.876  13.441  2.5184  0.7730  0.8340
 2694SOL     OW19714   3.899   1.777  12.768 -0.0603 -0.4920  0.7018
 2694SOL    HW119715   3.861   1.690  12.756 -0.9287  0.1234 -1.0309
 2694SOL    HW219716   3.831   1.826  12.814 -0.0513  0.1599  0.0154
 2695SOL     OW19717   3.769   4.503   6.325  0.2935  0.3608 -0.2663
 2695SOL    HW119718   3.837   4.458   6.275  0.2768  0.0792 -0.0367
 2695SOL    HW219719   3.777   4.591   6.288 -1.2226  0.3256 -0.6817
 2696SOL     OW19720   3.892   3.703   2.952 -0.6951 -0.1001  0.0218
 2696SOL    HW119721   3.945   3.684   3.029 -0.7498 -0.9233 -0.1461
 2696SOL    HW219722   3.903   3.627   2.896  2.9065  0.4215 -0.0227
 2697SOL     OW19723   2.512   2.126   8.961 -0.0495 -0.4002 -0.2673
 2697SOL    HW119724   2.562   2.046   8.976 -1.7093 -1.4393 -0.2668
 2697SOL    HW219725   2.535   2.147   8.870 -1.8857  0.6598 -0.4785
 2698SOL     OW19726   3.382   2.015   5.974  0.7802 -0.1546  0.3521
 2698SOL    HW119727   3.326   2.085   5.942  0.0056 -0.2736  1.4433
 2698SOL    HW219728   3.439   1.988   5.902  1.8197  1.1729  0.6776
 2699SOL     OW19729   3.614   4.596   6.973 -0.3858 -0.0358 -0.5124
 2699SOL    HW119730   3.642   4.598   6.881  1.4315 -0.6673  0.0374
 2699SOL    HW219731   3.646   4.507   6.988 -1.4106 -0.4115 -0.5449
 2700SOL     OW19732   4.613   3.080   1.388  0.4680 -0.4236 -0.6759
 2700SOL    HW119733   4.587   3.125   1.469  0.1398 -0.4376 -0.7739
 2700SOL    HW219734   4.646   2.992   1.403 -1.6520 -0.6284  2.7103
 2701SOL     OW19735   1.341   1.584   7.989  0.6111 -0.5006  0.9594
 2701SOL    HW119736   1.333   1.532   7.909  1.5641  0.6843  0.0837
 2701SOL    HW219737   1.396   1.647   7.942  0.3646 -0.8972  0.1444
 2702SOL     OW19738   2.456   1.600  15.239 -0.1527  0.3006 -0.8304
 2702SOL    HW119739   2.498   1.533  15.294 -1.8124  0.4297  0.5702
 2702SOL    HW219740   2.402   1.641  15.306  1.1024  2.4444 -1.1247
 2703SOL     OW19741   2.925   2.694   6.707  0.3012  0.5177 -0.0638
 2703SOL    HW119742   2.916   2.738   6.622  1.2721 -0.9109 -0.9108
 2703SOL    HW219743   2.955   2.763   6.766  0.6819  2.5102 -2.5288
 2704SOL     OW19744   4.033   1.671   6.666 -0.3512 -0.1707 -0.1260
 2704SOL    HW119745   4.044   1.691   6.759  1.5174 -2.3314  0.1300
 2704SOL    HW219746   4.002   1.755   6.632 -0.6317 -0.3441 -0.3005
 2705SOL     OW19747   3.759   2.895   5.460 -0.7228  0.0755 -0.2799
 2705SOL    HW119748   3.783   2.802   5.455 -0.1589  0.1038  1.5951
 2705SOL    HW219749   3.731   2.894   5.552  1.6913 -2.0102  0.4489
 2706SOL     OW19750   3.754   3.666  16.963  0.2033  0.1282  0.1036
 2706SOL    HW119751   3.700   3.677  17.042 -0.9324  1.2323 -0.8405
 2706SOL    HW219752   3.817   3.736  16.978  0.4979 -0.1053 -0.0513
 2707SOL     OW19753   1.970   1.755   4.653 -0.3905 -0.1677 -0.3902
 2707SOL    HW119754   1.997   1.838   4.613 -1.6745  1.1096  1.3520
 2707SOL    HW219755   2.048   1.699   4.651  1.9322  2.9437  1.3644
 2708SOL     OW19756   2.351   3.781   5.635 -0.2966  0.1934  0.1487
 2708SOL    HW119757   2.317   3.866   5.606 -4.0210 -1.7704 -1.2820
 2708SOL    HW219758   2.433   3.803   5.679  0.0345  0.0664 -0.4085
 2709SOL     OW19759   3.651   4.362   3.144  0.0414 -0.7670 -0.1518
 2709SOL    HW119760   3.646   4.318   3.229 -1.4082 -0.2383  0.0282
 2709SOL    HW219761   3.747   4.366   3.138  0.0978 -0.3472  1.0861
 2710SOL     OW19762   3.336   3.915   3.345 -0.0474 -0.1546 -0.3402
 2710SOL    HW119763   3.409   3.907   3.407  1.2709  1.7172 -1.6193
 2710SOL    HW219764   3.365   3.847   3.283  0.5663 -1.6074  1.5395
 2711SOL     OW19765   4.730   3.081  16.405  0.0959  0.2936  0.4493
 2711SOL    HW119766   0.062   3.089  16.343 -0.1780 -1.3582 -0.0618
 2711SOL    HW219767   0.003   2.997  16.447  0.2783  0.6438  1.0953
 2712SOL     OW19768   1.355   2.009   4.477 -0.1105  0.1336  0.2072
 2712SOL    HW119769   1.316   1.960   4.405 -0.3596  1.7263 -0.7397
 2712SOL    HW219770   1.381   2.089   4.432  1.6426  0.6933  2.1712
 2713SOL     OW19771   2.650   0.770   1.492  0.1161  0.2673  0.9450
 2713SOL    HW119772   2.734   0.728   1.507 -0.6213 -1.9584 -1.2356
 2713SOL    HW219773   2.595   0.692   1.486  1.2284 -0.4596  0.3090
 2714SOL     OW19774   2.364   0.094   7.864 -0.0342 -0.5077 -0.7097
 2714SOL    HW119775   2.431   0.160   7.850 -0.6201  0.4294  0.9121
 2714SOL    HW219776   2.390   0.024   7.803  0.6256 -0.8625 -0.0271
 2715SOL     OW19777   0.085   1.639  12.879 -0.0224  0.3722  0.0720
 2715SOL    HW119778   0.001   1.666  12.916 -0.4002 -0.8999  0.1526
 2715SOL    HW219779   0.149   1.641  12.951 -0.4674  0.0455  0.4763
 2716SOL     OW19780   0.755   1.489  15.353 -0.3145  0.1374  0.5174
 2716SOL    HW119781   0.804   1.562  15.314  0.4815 -0.6276  0.0859
 2716SOL    HW219782   0.788   1.503  15.442 -0.0714 -1.4546  0.6810
 2717SOL     OW19783   3.926   0.519   8.754  0.5484 -0.1835 -0.4501
 2717SOL    HW119784   4.014   0.539   8.723  2.1240 -2.9351  2.2167
 2717SOL    HW219785   3.937   0.536   8.848  2.5830 -1.1538 -0.5114
 2718SOL     OW19786   3.865   1.245   0.905 -0.5944  0.0906 -0.3070
 2718SOL    HW119787   3.892   1.337   0.902 -0.7049  0.0073 -3.3370
 2718SOL    HW219788   3.950   1.205   0.920 -0.0578  1.5236  0.4527
 2719SOL     OW19789   3.491   0.727   7.987 -0.5203 -0.1118  0.5093
 2719SOL    HW119790   3.525   0.816   7.975  0.1705 -0.2106  1.7149
 2719SOL    HW219791   3.398   0.752   7.987 -0.6482 -0.6068 -0.5944
 2720SOL     OW19792   0.269   4.646   5.758  0.1023 -0.0052  0.1591
 2720SOL    HW119793   0.363   4.642   5.777 -0.2759 -1.0923  1.7912
 2720SOL    HW219794   0.251   4.736   5.788  0.6444  0.3604 -0.6323
 2721SOL     OW19795   4.239   2.730   3.609 -0.0992  0.1073 -0.1487
 2721SOL    HW119796   4.174   2.791   3.643  0.5069 -0.2814  1.7097
 2721SOL    HW219797   4.195   2.654   3.571 -0.4788 -0.0671  0.6561
 2722SOL     OW19798   4.402   1.553  15.472  0.0217  0.1335  0.1999
 2722SOL    HW119799   4.429   1.641  15.497 -0.7293  0.3343  0.3092
 2722SOL    HW219800   4.434   1.539  15.382  0.2126 -0.4203  0.3524
 2723SOL     OW19801   4.105   0.331   6.458 -0.2980  0.1133  0.0159
 2723SOL    HW119802   4.156   0.358   6.534  0.8452 -4.0096  0.7261
 2723SOL    HW219803   4.158   0.363   6.385 -0.5119 -0.6126 -0.4556
 2724SOL     OW19804   1.188   0.376   5.544 -0.0772 -0.3950 -0.2179
 2724SOL    HW119805   1.155   0.344   5.628  2.0872  0.3836  0.9190
 2724SOL    HW219806   1.134   0.454   5.531 -1.7267 -1.6744 -1.0519
 2725SOL     OW19807   2.004   3.605   6.089  0.0351  0.3485  0.2032
 2725SOL    HW119808   2.098   3.611   6.070 -0.0754  2.8875  0.3534
 2725SOL    HW219809   2.013   3.635   6.179  1.1801 -1.4815  0.6770
 2726SOL     OW19810   3.074   1.841   3.583 -0.0985 -0.1288  0.0359
 2726SOL    HW119811   3.008   1.773   3.594  0.5318 -0.6621  0.4548
 2726SOL    HW219812   3.122   1.828   3.664  1.1834  1.8960 -0.4014
 2727SOL     OW19813   4.298   4.642  11.921  0.1634 -0.3061  0.0348
 2727SOL    HW119814   4.364   4.687  11.868 -1.5976 -0.5630 -2.3529
 2727SOL    HW219815   4.331   4.650  12.011 -1.8167 -1.6018  0.8668
 2728SOL     OW19816   0.842   2.278   3.324  0.1240 -0.1225 -0.2998
 2728SOL    HW119817   0.901   2.249   3.254  0.5875 -2.1843  0.9374
 2728SOL    HW219818   0.791   2.345   3.278  1.0341  0.1809 -0.8840
 2729SOL     OW19819   0.356   2.949  14.629 -0.1225  0.0246  0.0256
 2729SOL    HW119820   0.304   2.870  14.621  0.0966 -0.3930  2.7619
 2729SOL    HW219821   0.355   2.968  14.535  0.3542 -0.7314 -0.1358
 2730SOL     OW19822   3.358   3.082   5.309  0.4342  0.2167 -0.5075
 2730SOL    HW119823   3.288   3.100   5.372  0.5948 -1.7609  0.2430
 2730SOL    HW219824   3.382   2.991   5.327  1.2298  0.2139 -1.5471
 2731SOL     OW19825   2.136   2.351   7.432 -0.4105 -0.0641 -0.3468
 2731SOL    HW119826   2.154   2.437   7.471  0.4983 -1.5057  2.3403
 2731SOL    HW219827   2.216   2.302   7.450 -1.1654 -1.5500 -1.0774
 2732SOL     OW19828   2.456   1.602   4.604  0.1455  0.3423 -0.2075
 2732SOL    HW119829   2.516   1.587   4.677 -1.4308  0.7811  1.1920
 2732SOL    HW219830   2.515   1.619   4.531 -0.9716 -0.6148 -1.3381
 2733SOL     OW19831   4.213   3.641  10.588 -0.6732 -0.4890  0.5587
 2733SOL    HW119832   4.289   3.699  10.593 -0.9354 -0.2474  1.8911
 2733SOL    HW219833   4.162   3.664  10.666 -3.4010  0.6216 -1.5512
 2734SOL     OW19834   3.622   1.995   4.578 -0.2407  0.2887  0.5501
 2734SOL    HW119835   3.676   2.066   4.612  2.3030 -0.7064 -1.4815
 2734SOL    HW219836   3.577   1.956   4.654  2.1055 -0.6469  1.4403
 2735SOL     OW19837   0.857   3.029   2.004 -0.0048 -0.1846 -0.2565
 2735SOL    HW119838   0.837   3.118   1.977  1.1800 -0.5572 -2.3745
 2735SOL    HW219839   0.803   2.984   1.939  0.5428 -0.9355 -0.1904
 2736SOL     OW19840   2.993   0.643  12.615 -0.3440  0.2600 -0.1134
 2736SOL    HW119841   2.899   0.631  12.605 -0.1316 -1.0985 -0.4898
 2736SOL    HW219842   3.021   0.561  12.574 -1.2815  0.2659 -0.7616
 2737SOL     OW19843   4.018   2.892   2.747  0.6406 -0.2434  0.4555
 2737SOL    HW119844   4.042   2.836   2.673  2.1154  1.4998 -0.3804
 2737SOL    HW219845   3.923   2.899   2.742  0.7523  0.5391 -0.6602
 2738SOL     OW19846   0.750   2.481   7.469  0.2864 -0.2624 -0.3550
 2738SOL    HW119847   0.688   2.486   7.542  0.6022  0.6694 -0.1593
 2738SOL    HW219848   0.709   2.425   7.403  0.8266 -0.8047 -0.2309
 2739SOL     OW19849   3.243   4.362  12.844 -0.0521 -0.2548 -0.2686
 2739SOL    HW119850   3.150   4.382  12.843  0.0641  0.3424  1.1008
 2739SOL    HW219851   3.284   4.444  12.816  0.7947 -1.4925 -2.7540
 2740SOL     OW19852   1.444   3.195   4.916 -0.3381  0.2541 -0.1323
 2740SOL    HW119853   1.503   3.136   4.868  1.2763  1.3310  0.5059
 2740SOL    HW219854   1.366   3.145   4.937 -1.3674  1.1994 -1.7718
 2741SOL     OW19855   2.909   1.287   9.196  0.0296 -0.6490 -0.1766
 2741SOL    HW119856   2.902   1.348   9.270 -0.1578  0.5831 -1.2043
 2741SOL    HW219857   2.938   1.348   9.128 -0.7616  0.4520  0.4542
 2742SOL     OW19858   4.076   3.508   6.416 -0.3152  0.2898 -0.0095
 2742SOL    HW119859   4.137   3.433   6.412  0.5387  1.0118 -0.4499
 2742SOL    HW219860   4.044   3.500   6.506 -2.6545  1.3299 -0.7628
 2743SOL     OW19861   3.586   2.873   4.124  0.1099 -0.3091 -0.0886
 2743SOL    HW119862   3.619   2.924   4.050 -0.2953 -1.9515 -1.4188
 2743SOL    HW219863   3.491   2.870   4.109 -0.0288 -2.7267  1.2429
 2744SOL     OW19864   4.729   3.497  10.474  0.5909 -0.0978 -0.5711
 2744SOL    HW119865   0.045   3.441  10.421  0.1709 -1.3712  0.3535
 2744SOL    HW219866   4.644   3.463  10.447  1.3595 -0.4327 -2.5253
 2745SOL     OW19867   1.052   3.873   6.230  0.0747 -0.0769 -0.0550
 2745SOL    HW119868   1.071   3.926   6.307 -3.8113 -1.1800  1.6719
 2745SOL    HW219869   0.965   3.843   6.255 -0.1710 -0.5165 -1.4334
 2746SOL     OW19870   3.288   3.056   4.618 -0.0573 -0.0104  0.5776
 2746SOL    HW119871   3.234   3.081   4.693  1.7878  0.2831  1.8327
 2746SOL    HW219872   3.291   3.141   4.574  2.3555 -1.5446 -2.2152
 2747SOL     OW19873   3.573   0.353   1.606  0.5330 -0.1870  0.4615
 2747SOL    HW119874   3.523   0.319   1.680  0.1543 -1.8105 -0.5391
 2747SOL    HW219875   3.520   0.318   1.534 -0.1597  0.0188  0.8755
 2748SOL     OW19876   0.217   4.558   4.070  0.4501  0.3167  0.2044
 2748SOL    HW119877   0.260   4.633   4.030  1.1562  0.9020  2.0332
 2748SOL    HW219878   0.295   4.502   4.076 -0.3723 -1.0131 -1.7101
 2749SOL     OW19879   0.732   2.219   5.303 -0.2389 -0.0559 -0.2985
 2749SOL    HW119880   0.796   2.162   5.260  0.5866  0.3013  0.4591
 2749SOL    HW219881   0.782   2.241   5.382  0.8665 -1.8805 -0.4743
 2750SOL     OW19882   1.575   3.916  16.480  0.0361  0.4529 -0.0079
 2750SOL    HW119883   1.502   3.857  16.464  0.9747 -0.5051 -0.7596
 2750SOL    HW219884   1.556   3.996  16.430 -1.4450 -1.5069 -2.5879
 2751SOL     OW19885   1.281   0.179  11.480  0.9508 -0.4559 -0.3397
 2751SOL    HW119886   1.199   0.156  11.437  0.6380  0.1224 -0.0608
 2751SOL    HW219887   1.247   0.185  11.569  2.2602 -0.6664  0.1688
 2752SOL     OW19888   4.584   0.060   2.491 -0.3146  0.4500 -0.3864
 2752SOL    HW119889   4.507   0.105   2.456  1.6841  2.5650 -2.0462
 2752SOL    HW219890   4.598   4.734   2.424  3.0557 -1.3445  2.1141
 2753SOL     OW19891   2.675   3.346  14.513 -0.3833 -0.4411  0.1447
 2753SOL    HW119892   2.611   3.373  14.579  1.3105  2.6484  0.5220
 2753SOL    HW219893   2.752   3.349  14.571 -2.1620  1.5546  2.3910
 2754SOL     OW19894   2.359   2.094   7.320  0.6048 -1.0655  0.5222
 2754SOL    HW119895   2.363   2.144   7.401  1.6265  2.0291 -1.4575
 2754SOL    HW219896   2.408   2.015   7.345  0.5152 -1.2006  0.2780
 2755SOL     OW19897   2.416   2.990   8.690 -0.2409  0.6168  0.5409
 2755SOL    HW119898   2.493   3.021   8.642 -1.0432  0.0924 -1.0849
 2755SOL    HW219899   2.438   2.898   8.703 -1.5290 -0.1399 -2.6755
 2756SOL     OW19900   2.486   4.673  17.539  0.1141  0.7875 -0.2767
 2756SOL    HW119901   2.549   4.646  17.606  0.4406 -0.9526 -1.2796
 2756SOL    HW219902   2.418   4.609  17.562  0.5519  1.1844  2.1319
 2757SOL     OW19903   1.492   1.632   7.627 -0.0824 -0.3108  0.3200
 2757SOL    HW119904   1.506   1.726   7.616  2.1391 -0.6067  0.6998
 2757SOL    HW219905   1.568   1.612   7.573 -1.7226 -0.5471 -1.8801
 2758SOL     OW19906   2.568   1.869  16.599  0.1418 -0.3382 -0.2968
 2758SOL    HW119907   2.578   1.904  16.688 -2.5506  3.7245 -1.5939
 2758SOL    HW219908   2.494   1.809  16.609 -2.4410  2.8991 -0.2757
 2759SOL     OW19909   0.803   0.889   4.313 -0.0727 -0.1638 -0.8595
 2759SOL    HW119910   0.790   0.979   4.283 -1.9798 -0.4444 -0.8576
 2759SOL    HW219911   0.888   0.861   4.277  1.1786  1.6898  0.6556
 2760SOL     OW19912   2.740   4.049   2.702  0.1228 -0.7551 -0.4656
 2760SOL    HW119913   2.691   3.998   2.766 -0.1546  1.7515  1.3323
 2760SOL    HW219914   2.743   3.990   2.627 -0.2084  0.1394 -1.1796
 2761SOL     OW19915   3.421   4.039   6.157  0.0966  0.0278  0.7093
 2761SOL    HW119916   3.505   4.081   6.142  1.3644 -1.7357  2.8845
 2761SOL    HW219917   3.378   4.087   6.086  0.9552 -1.5890 -0.8970
 2762SOL     OW19918   4.118   3.462  15.187  0.0932  0.5816  0.5687
 2762SOL    HW119919   4.185   3.441  15.253  0.7648 -1.7128 -0.8410
 2762SOL    HW219920   4.164   3.518  15.125 -0.5588 -0.2577 -0.6602
 2763SOL     OW19921   2.524   4.613   1.815 -0.1786  0.4781 -0.0063
 2763SOL    HW119922   2.468   4.563   1.875 -0.8069  1.0499 -0.1291
 2763SOL    HW219923   2.597   4.551   1.814  0.2510  0.9491  2.1823
 2764SOL     OW19924   0.261   1.864   6.915  0.3183 -0.8868  0.3852
 2764SOL    HW119925   0.311   1.938   6.881 -2.2582  0.1953 -1.0555
 2764SOL    HW219926   0.217   1.829   6.838 -1.3671  0.1043  0.8987
 2765SOL     OW19927   3.257   4.244   0.476 -0.2941 -0.3875  0.1584
 2765SOL    HW119928   3.316   4.172   0.501  0.8731  0.6792  0.5093
 2765SOL    HW219929   3.237   4.221   0.386 -0.1242 -0.0019  0.0234
 2766SOL     OW19930   2.170   3.997  15.684  0.2239 -1.1868  0.5206
 2766SOL    HW119931   2.131   4.083  15.701  1.7131 -0.8816  2.4826
 2766SOL    HW219932   2.221   4.020  15.606  1.3532 -0.2148  1.5442
 2767SOL     OW19933   1.663   2.244  13.394 -0.0925  0.2199 -0.7410
 2767SOL    HW119934   1.631   2.165  13.350 -1.3995 -0.0877  0.7515
 2767SOL    HW219935   1.681   2.208  13.481  1.1241 -0.4489 -1.2709
 2768SOL     OW19936   0.611   2.174   6.234 -0.0357 -0.0742  0.1246
 2768SOL    HW119937   0.697   2.178   6.192  0.4987 -1.6483  1.0581
 2768SOL    HW219938   0.634   2.220   6.315 -0.6969  1.9144 -0.8279
 2769SOL     OW19939   1.975   2.656   4.717  0.3273 -0.3399  0.1317
 2769SOL    HW119940   1.954   2.631   4.807 -2.0302 -0.0300 -0.3209
 2769SOL    HW219941   2.050   2.714   4.730  0.5326 -0.4647 -0.4852
 2770SOL     OW19942   3.166   3.105   5.490 -0.2910 -0.4454  0.3788
 2770SOL    HW119943   3.178   3.099   5.584  3.9733 -1.7660 -0.2771
 2770SOL    HW219944   3.097   3.172   5.497 -0.1255 -0.1135 -1.0405
 2771SOL     OW19945   4.284   3.635   1.856 -0.7253  0.1339 -0.5160
 2771SOL    HW119946   4.341   3.597   1.924  1.4903  0.8918 -1.9782
 2771SOL    HW219947   4.262   3.561   1.799 -2.4541  0.3295 -0.0998
 2772SOL     OW19948   1.969   4.351  13.419 -0.3311  0.5309  0.2044
 2772SOL    HW119949   1.960   4.426  13.359 -0.1635  1.6564  1.5757
 2772SOL    HW219950   2.060   4.370  13.441 -0.8814  2.4137  0.9254
 2773SOL     OW19951   4.586   1.743   3.175  0.1745 -0.3424 -0.5142
 2773SOL    HW119952   4.553   1.809   3.114 -1.9401 -0.6794  0.2882
 2773SOL    HW219953   4.668   1.724   3.129  0.1600 -1.3290 -0.1141
 2774SOL     OW19954   4.319   1.417   6.405  0.6171 -0.1400  0.3471
 2774SOL    HW119955   4.394   1.379   6.359  0.5910 -1.0149  1.0190
 2774SOL    HW219956   4.322   1.510   6.384 -0.6881 -0.3901 -0.9760
 2775SOL     OW19957   2.342   2.557   3.459  0.5044 -0.2613 -0.0017
 2775SOL    HW119958   2.290   2.480   3.436  0.5733 -0.4480  0.4802
 2775SOL    HW219959   2.270   2.621   3.462  1.0269  0.2823  1.0214
 2776SOL     OW19960   3.474   2.423   3.315  0.0737 -0.1845  0.2487
 2776SOL    HW119961   3.393   2.464   3.285  0.1947  0.0500  0.2349
 2776SOL    HW219962   3.532   2.497   3.294  1.7068 -0.7907  2.6194
 2777SOL     OW19963   2.494   4.547  10.385  0.2228  0.5113 -0.3927
 2777SOL    HW119964   2.506   4.578  10.295  2.2218  2.1534  0.4411
 2777SOL    HW219965   2.540   4.616  10.434  0.7808  0.2745 -0.5797
 2778SOL     OW19966   0.175   3.899   0.281  0.2600 -0.0048 -0.2592
 2778SOL    HW119967   0.193   3.934   0.368 -1.7121 -0.5660  0.3482
 2778SOL    HW219968   0.202   3.808   0.292  0.8578  0.1268 -0.5967
 2779SOL     OW19969   2.178   2.998   3.207 -0.5488  0.0193  0.4868
 2779SOL    HW119970   2.136   3.083   3.192 -1.2397 -0.4991 -0.4705
 2779SOL    HW219971   2.158   3.000   3.301 -2.1149 -2.6650  0.1929
 2780SOL     OW19972   1.250   0.183  12.237  0.2178  0.0866  0.2057
 2780SOL    HW119973   1.227   0.245  12.168  2.3720 -2.5261 -2.9237
 2780SOL    HW219974   1.246   0.100  12.188  2.1317  0.4004 -0.5005
 2781SOL     OW19975   1.223   4.205   5.563  0.0466  0.5816  0.0429
 2781SOL    HW119976   1.242   4.278   5.622 -0.3887  0.2068  0.6512
 2781SOL    HW219977   1.190   4.140   5.625 -0.0427  1.2421  0.6885
 2782SOL     OW19978   1.491   2.278   7.800  0.0316 -0.3360  0.2384
 2782SOL    HW119979   1.569   2.247   7.753 -0.1132 -3.2299  1.8763
 2782SOL    HW219980   1.506   2.371   7.817 -1.2402 -0.0551 -0.2373
 2783SOL     OW19981   0.831   4.164  10.808  0.3032 -0.4784  0.8005
 2783SOL    HW119982   0.902   4.130  10.754 -1.1132  0.1396 -1.4377
 2783SOL    HW219983   0.880   4.195  10.884  1.8779  0.0583 -0.4218
 2784SOL     OW19984   2.236   2.154   2.011 -0.1934 -0.5267 -0.4655
 2784SOL    HW119985   2.198   2.162   2.098 -0.0222 -2.0503 -0.2502
 2784SOL    HW219986   2.205   2.068   1.985  0.9964 -1.0362 -0.1896
 2785SOL     OW19987   1.579   0.612   9.361  0.7904 -0.3383 -0.3592
 2785SOL    HW119988   1.538   0.665   9.429 -0.6548 -3.3308  1.1442
 2785SOL    HW219989   1.673   0.629   9.372  0.1542  2.0825  1.1998
 2786SOL     OW19990   0.236   3.787   2.667 -0.1993 -0.1004 -0.0226
 2786SOL    HW119991   0.298   3.732   2.619 -1.7599 -0.7498 -1.2748
 2786SOL    HW219992   0.207   3.737   2.744  0.9759 -1.2091 -0.3089
 2787SOL     OW19993   1.948   2.826   8.851  0.1626  0.0618  0.1681
 2787SOL    HW119994   1.857   2.846   8.870 -0.2851 -1.5633 -0.2570
 2787SOL    HW219995   1.983   2.891   8.912  0.1464 -0.4592  0.7297
 2788SOL     OW19996   1.379   3.591   9.828 -0.0149 -0.2803  0.1182
 2788SOL    HW119997   1.341   3.625   9.747 -1.0234 -0.8309  0.3659
 2788SOL    HW219998   1.472   3.612   9.816  0.1461 -1.6686 -0.9555
 2789SOL     OW19999   0.096   3.380   6.389 -0.4192 -0.6590 -0.0051
 2789SOL    HW120000   0.040   3.311   6.354  0.0852 -1.2506  0.3534
 2789SOL    HW220001   0.140   3.416   6.311 -0.7172  0.1653  0.2050
 2790SOL     OW20002   0.736   0.807   5.556  0.3328 -0.2001  0.5935
 2790SOL    HW120003   0.752   0.840   5.468  0.8496  0.0242  0.7718
 2790SOL    HW220004   0.827   0.807   5.587 -0.1975  1.2818  2.1326
 2791SOL     OW20005   3.372   3.727  12.041  0.5235  0.5169  0.1218
 2791SOL    HW120006   3.390   3.766  12.126  4.3160 -1.2188  0.0891
 2791SOL    HW220007   3.284   3.688  12.043  1.7500 -2.3891 -3.0093
 2792SOL     OW20008   3.419   3.543  17.581  0.1480  0.0534 -0.4407
 2792SOL    HW120009   3.452   3.625  17.542  1.3471 -0.6408 -0.8747
 2792SOL    HW220010   3.429   3.555  17.676  0.7863  0.5988 -0.5777
 2793SOL     OW20011   1.935   4.737   2.626 -0.6128  0.0079  0.3132
 2793SOL    HW120012   1.859   4.703   2.674  0.0761  0.3558  1.6510
 2793SOL    HW220013   1.888   0.018   2.546 -0.2432  1.5652  0.5272
 2794SOL     OW20014   2.140   1.535   7.109 -0.0206  0.4488 -0.0950
 2794SOL    HW120015   2.177   1.456   7.070  1.9655  0.4905  1.7249
 2794SOL    HW220016   2.072   1.553   7.044 -1.7888 -0.7031  1.4348
 2795SOL     OW20017   1.416   3.888   3.914 -0.1707  0.1011 -0.2685
 2795SOL    HW120018   1.405   3.982   3.899 -0.4488  0.1053 -0.0507
 2795SOL    HW220019   1.510   3.880   3.927 -0.2276  0.6938  0.5407
 2796SOL     OW20020   0.382   0.830   7.724 -0.1779  0.0345 -0.1459
 2796SOL    HW120021   0.422   0.784   7.650 -0.6037 -1.0809  0.3207
 2796SOL    HW220022   0.394   0.764   7.792 -1.4052 -0.1801 -0.1329
 2797SOL     OW20023   1.500   1.341  16.755  0.1940  0.2888 -0.0157
 2797SOL    HW120024   1.498   1.419  16.811  0.9119 -0.0261  0.4568
 2797SOL    HW220025   1.417   1.304  16.783  0.9934 -1.4437  0.0842
 2798SOL     OW20026   2.623   0.360   1.210  0.4283 -0.0982 -0.1562
 2798SOL    HW120027   2.694   0.319   1.161 -0.2767 -1.2225 -0.2391
 2798SOL    HW220028   2.614   0.445   1.166 -1.1828  0.3713  1.0683
 2799SOL     OW20029   2.074   4.533   8.876  0.1835  0.6087 -0.0610
 2799SOL    HW120030   2.042   4.584   8.801  0.8697  0.7905 -0.2272
 2799SOL    HW220031   2.034   4.581   8.948 -2.4261  0.8687 -1.6652
 2800SOL     OW20032   0.342   0.625   4.920 -0.3544  0.4689 -0.3417
 2800SOL    HW120033   0.356   0.563   4.848  0.7517  0.7926 -0.3997
 2800SOL    HW220034   0.369   0.578   4.998 -1.6954 -1.3860 -0.9726
 2801SOL     OW20035   0.897   2.955  13.185  0.6126 -0.4202 -0.2832
 2801SOL    HW120036   0.830   3.013  13.222 -0.2664 -0.9896 -0.9586
 2801SOL    HW220037   0.980   2.988  13.220  1.6142 -0.3867 -2.6998
 2802SOL     OW20038   3.478   2.431   8.275  0.1562 -0.2215  0.4523
 2802SOL    HW120039   3.470   2.476   8.359  0.6156 -3.3426  2.1814
 2802SOL    HW220040   3.573   2.441   8.264  0.0689 -0.4856 -0.5284
 2803SOL     OW20041   0.583   0.462  15.330  0.1917 -0.0863  0.0209
 2803SOL    HW120042   0.546   0.513  15.402 -0.9178  0.0696 -0.6732
 2803SOL    HW220043   0.506   0.448  15.276  1.0029 -1.4153 -0.7941
 2804SOL     OW20044   4.588   1.010   3.055 -0.2549 -0.7330 -0.2451
 2804SOL    HW120045   4.533   1.056   3.118  2.3866  1.6606  0.3260
 2804SOL    HW220046   4.569   1.060   2.976  0.2186 -0.8392 -0.4267
 2805SOL     OW20047   3.178   1.204  17.006  0.3117  0.3694 -0.5015
 2805SOL    HW120048   3.132   1.257  17.071 -0.2214 -0.7595  0.0377
 2805SOL    HW220049   3.225   1.143  17.064  1.7022  0.5684 -1.4315
 2806SOL     OW20050   4.385   0.892   3.269  0.2436 -0.0743  0.0308
 2806SOL    HW120051   4.366   0.830   3.340  0.1465 -1.3983 -1.1669
 2806SOL    HW220052   4.380   0.836   3.192 -1.8408  0.1850 -0.0376
 2807SOL     OW20053   3.966   2.355   3.885  0.3870 -0.3040 -0.0981
 2807SOL    HW120054   3.983   2.262   3.899 -1.9021 -0.4696  1.5588
 2807SOL    HW220055   3.906   2.375   3.956 -0.9638 -3.1529 -0.4315
 2808SOL     OW20056   4.460   4.461   5.757  0.3125 -0.1953  0.1996
 2808SOL    HW120057   4.431   4.370   5.760 -0.3619 -0.0258 -1.2818
 2808SOL    HW220058   4.385   4.514   5.784 -1.0319 -0.3599 -3.1905
 2809SOL     OW20059   3.744   1.695  11.752  0.2346  0.5045  0.5236
 2809SOL    HW120060   3.694   1.695  11.834  1.0796 -0.3863  1.0311
 2809SOL    HW220061   3.668   1.685  11.694 -1.3929  3.1106  2.1915
 2810SOL     OW20062   1.333   0.926  14.404  0.3191 -0.0812 -0.5597
 2810SOL    HW120063   1.245   0.935  14.367  0.6461  1.2842 -1.0213
 2810SOL    HW220064   1.331   0.837  14.437 -1.4773  0.7699  1.6292
 2811SOL     OW20065   4.157   4.394   3.738 -0.3562  0.0926 -0.4670
 2811SOL    HW120066   4.063   4.408   3.750 -0.5241 -1.6450  0.3891
 2811SOL    HW220067   4.197   4.463   3.791 -1.3238  3.4582 -4.2057
 2812SOL     OW20068   1.749   0.311  15.205  0.2023  0.2377  0.4678
 2812SOL    HW120069   1.724   0.220  15.220  0.8699  0.2813  1.8701
 2812SOL    HW220070   1.718   0.319  15.115  0.7189 -0.2221  0.2484
 2813SOL     OW20071   2.624   4.519  15.732  0.3015 -0.0565 -0.5956
 2813SOL    HW120072   2.688   4.580  15.767  0.4230 -0.6937  0.2977
 2813SOL    HW220073   2.571   4.488  15.806  0.9427 -0.5967 -0.3537
 2814SOL     OW20074   2.634   4.147  17.491  0.7263 -0.0283 -0.0753
 2814SOL    HW120075   2.672   4.118  17.574 -0.2049 -0.5893  0.1490
 2814SOL    HW220076   2.626   4.064  17.443  0.0522 -1.2016  2.0570
 2815SOL     OW20077   1.995   1.841   7.517 -0.3908 -0.0146 -0.1474
 2815SOL    HW120078   2.018   1.869   7.605 -0.0806  1.2857 -0.6412
 2815SOL    HW220079   2.071   1.790   7.491 -1.6400 -1.7061 -0.4534
 2816SOL     OW20080   1.737   3.731   8.365  0.2094 -0.2743 -0.0140
 2816SOL    HW120081   1.779   3.749   8.281 -0.7314 -0.5962 -0.5451
 2816SOL    HW220082   1.791   3.659   8.397  0.4636  0.1581  0.5247
 2817SOL     OW20083   1.425   1.402   3.910 -0.0303  0.2279  0.7351
 2817SOL    HW120084   1.342   1.355   3.900 -0.3435  1.2847 -1.5108
 2817SOL    HW220085   1.389   1.487   3.935  2.6625  0.7744  2.7898
 2818SOL     OW20086   1.798   4.664  12.249 -0.1993 -0.2808  0.8541
 2818SOL    HW120087   1.724   4.605  12.239 -0.0294 -0.5930  1.4325
 2818SOL    HW220088   1.758   4.739  12.294  3.3434  0.8263  2.2165
 2819SOL     OW20089   3.236   0.579   3.386  0.1499  0.0898 -0.4658
 2819SOL    HW120090   3.305   0.599   3.323  0.0385  2.8025  0.2569
 2819SOL    HW220091   3.170   0.633   3.344 -1.8204 -1.4486  0.6421
 2820SOL     OW20092   2.383   1.636   3.972 -0.4883 -0.2354 -0.2174
 2820SOL    HW120093   2.439   1.617   4.047  0.6546 -1.6773 -1.4173
 2820SOL    HW220094   2.444   1.700   3.935  0.3811  0.3547  2.2060
 2821SOL     OW20095   0.131   0.136   7.272  0.3576 -0.6730  0.1762
 2821SOL    HW120096   0.189   0.202   7.234  1.3835 -0.6060  1.8596
 2821SOL    HW220097   0.110   0.071   7.206 -0.6721  0.5358 -0.6704
 2822SOL     OW20098   0.630   4.570   2.384  0.0127  0.0298  0.2391
 2822SOL    HW120099   0.579   4.490   2.380 -1.3162  0.7776  2.1418
 2822SOL    HW220100   0.719   4.554   2.413 -0.2978 -0.3437  0.9697
 2823SOL     OW20101   4.562   1.904   5.200 -0.4482  0.1867  0.4490
 2823SOL    HW120102   4.633   1.841   5.215 -1.6337 -1.1798  0.2989
 2823SOL    HW220103   4.608   1.968   5.146  0.9409 -0.7902  0.4601
 2824SOL     OW20104   3.746   0.264   8.647  0.2585  0.2825  0.1694
 2824SOL    HW120105   3.833   0.303   8.656  0.1446  0.6266 -0.2156
 2824SOL    HW220106   3.714   0.297   8.562 -1.7816 -1.1208  0.3839
 2825SOL     OW20107   2.798   1.309   3.359  0.1598 -0.9568  0.0684
 2825SOL    HW120108   2.821   1.348   3.443  1.8122  1.1797 -1.3939
 2825SOL    HW220109   2.867   1.313   3.293 -0.3468 -1.8715 -0.5209
 2826SOL     OW20110   0.650   1.103   7.234 -0.4878 -0.0047 -0.1015
 2826SOL    HW120111   0.719   1.125   7.296 -0.0284  1.4718 -1.1371
 2826SOL    HW220112   0.574   1.117   7.291  0.3467 -1.1794  1.2903
 2827SOL     OW20113   0.593   2.735   0.261  0.2945  0.1606  0.0295
 2827SOL    HW120114   0.532   2.736   0.335  0.2018  1.1082 -0.0655
 2827SOL    HW220115   0.676   2.728   0.308  0.5932 -1.0609 -0.6695
 2828SOL     OW20116   1.267   0.600  11.987  0.1630  0.3626  0.2566
 2828SOL    HW120117   1.321   0.671  11.951 -0.4545  0.3763 -0.6350
 2828SOL    HW220118   1.236   0.635  12.071 -0.3891 -0.6703  0.4820
 2829SOL     OW20119   1.353   1.238  10.857  0.1453  0.0167  0.3718
 2829SOL    HW120120   1.278   1.212  10.803  0.3760  3.4150 -1.5829
 2829SOL    HW220121   1.368   1.155  10.901  2.8565  1.8525  2.9264
 2830SOL     OW20122   1.474   1.610   4.259  0.9759  0.0199  0.5302
 2830SOL    HW120123   1.540   1.543   4.242 -0.9423 -1.5100 -0.8490
 2830SOL    HW220124   1.406   1.565   4.209 -1.7968  1.4020  2.9924
 2831SOL     OW20125   1.845   4.633   8.727  0.5975 -0.7250  0.6882
 2831SOL    HW120126   1.756   4.646   8.759 -0.3698  0.2050 -2.4502
 2831SOL    HW220127   1.888   4.682   8.798 -1.7108  0.2732  1.3776
 2832SOL     OW20128   0.381   2.605   4.519 -0.5387  0.3182  0.1206
 2832SOL    HW120129   0.348   2.688   4.555  0.4596  0.9483 -0.4272
 2832SOL    HW220130   0.465   2.635   4.486 -1.0217  1.6915  0.1386
 2833SOL     OW20131   3.499   4.358   4.714 -0.1256  0.2232  0.1818
 2833SOL    HW120132   3.527   4.353   4.805 -2.4553  0.4000  0.9123
 2833SOL    HW220133   3.490   4.266   4.691  1.2395  0.2243 -0.3571
 2834SOL     OW20134   2.103   0.281   4.044  0.4377  0.0841  0.1691
 2834SOL    HW120135   2.096   0.281   3.949 -1.0208  1.0826  0.2846
 2834SOL    HW220136   2.009   0.287   4.061  0.2598  0.5451 -1.0035
 2835SOL     OW20137   3.390   1.807   6.381  0.8792 -0.3766 -0.1704
 2835SOL    HW120138   3.313   1.847   6.423  1.6081 -0.4861  1.2555
 2835SOL    HW220139   3.365   1.790   6.290  1.4967  0.8784 -0.5745
 2836SOL     OW20140   0.143   1.944   7.578  0.2680  0.5413  0.1390
 2836SOL    HW120141   0.125   2.031   7.541 -1.8276  0.0294 -0.0460
 2836SOL    HW220142   0.198   1.900   7.514  1.5648  1.2503  0.7746
 2837SOL     OW20143   0.985   0.821   3.650 -0.4897 -0.0333  0.2338
 2837SOL    HW120144   0.941   0.740   3.624  0.1064 -1.1231  2.6620
 2837SOL    HW220145   0.908   0.864   3.688 -0.9841 -0.4123 -0.3367
 2838SOL     OW20146   4.059   3.513   3.514  0.7440  0.0183  0.9141
 2838SOL    HW120147   4.104   3.468   3.586 -0.2402 -0.6945  1.0771
 2838SOL    HW220148   4.030   3.440   3.461  0.2854 -0.0159  1.2076
 2839SOL     OW20149   1.523   0.737   5.488 -0.1088  0.6024  0.0629
 2839SOL    HW120150   1.592   0.711   5.426 -0.1471 -2.3012  1.2539
 2839SOL    HW220151   1.443   0.699   5.451  1.4067 -1.0418 -1.5480
 2840SOL     OW20152   2.041   1.233   8.653 -0.3353 -0.0588  0.1122
 2840SOL    HW120153   2.082   1.153   8.621  1.1739 -0.0977  2.1539
 2840SOL    HW220154   2.050   1.293   8.579 -0.5435 -0.2860 -0.0943
 2841SOL     OW20155   2.054   0.043   1.384 -0.8354  0.0491 -0.1428
 2841SOL    HW120156   1.982   4.737   1.427  0.3668 -0.1268  1.7005
 2841SOL    HW220157   2.108   4.708   1.357  0.4434  0.7037  0.5833
 2842SOL     OW20158   3.133   3.232   1.191 -0.1237  0.4361  0.7324
 2842SOL    HW120159   3.157   3.277   1.272  2.4216  1.5087 -0.6384
 2842SOL    HW220160   3.110   3.141   1.214 -1.1266 -0.0076 -1.9657
 2843SOL     OW20161   1.159   0.704   6.783 -0.3170  0.3991 -0.3553
 2843SOL    HW120162   1.205   0.782   6.754 -2.6866  1.8474 -0.1656
 2843SOL    HW220163   1.141   0.669   6.696  0.9869 -1.4679  0.1048
 2844SOL     OW20164   2.032   2.582   2.599  0.1199  0.0742 -0.1147
 2844SOL    HW120165   2.085   2.649   2.643  1.8255  0.0020 -2.0197
 2844SOL    HW220166   2.055   2.506   2.652  1.5879  1.0853  0.7226
 2845SOL     OW20167   3.888   2.649   2.039  0.2302 -0.0126  0.5609
 2845SOL    HW120168   3.910   2.571   2.089 -2.6751 -0.2855  1.4147
 2845SOL    HW220169   3.975   2.663   2.001  0.1210  2.9283  1.3577
 2846SOL     OW20170   4.253   0.923   4.220  0.5953 -0.2811 -0.2177
 2846SOL    HW120171   4.245   0.976   4.299  1.9750 -0.3589 -0.0301
 2846SOL    HW220172   4.281   0.986   4.154 -1.0650  0.1275 -0.5422
 2847SOL     OW20173   4.087   0.480   2.617 -0.2709 -0.3160 -0.0422
 2847SOL    HW120174   4.025   0.464   2.547  2.8454 -2.8545 -2.2420
 2847SOL    HW220175   4.064   0.402   2.667  3.5650 -0.9150  0.8048
 2848SOL     OW20176   0.152   3.190   3.745 -0.3313  0.0809  0.5782
 2848SOL    HW120177   0.176   3.111   3.793  1.7146 -0.2903 -1.0430
 2848SOL    HW220178   0.208   3.247   3.798 -0.8702  2.6972 -1.6348
 2849SOL     OW20179   4.125   2.780   2.991  0.0198 -0.2114  0.6905
 2849SOL    HW120180   4.114   2.786   2.897  0.9772 -0.5431  0.5501
 2849SOL    HW220181   4.216   2.752   3.006  0.0967 -0.4390 -0.1980
 2850SOL     OW20182   0.005   0.890   3.578  0.8287  0.0710 -0.5302
 2850SOL    HW120183   4.661   0.912   3.538  1.4284  2.0165 -0.7523
 2850SOL    HW220184   0.052   0.904   3.495  2.2353 -2.3602 -0.1221
 2851SOL     OW20185   2.773   1.075   0.805 -0.0304  0.2473 -0.4048
 2851SOL    HW120186   2.827   1.063   0.884 -0.5155 -2.0075 -0.4229
 2851SOL    HW220187   2.687   1.069   0.847  0.5294  0.0222  0.7100
 2852SOL     OW20188   3.147   1.762   9.358  0.0542 -0.2588 -0.6323
 2852SOL    HW120189   3.115   1.845   9.392  1.2421  0.3142 -0.9143
 2852SOL    HW220190   3.153   1.789   9.266 -2.9094  1.3871 -0.3493
 2853SOL     OW20191   0.310   1.127   8.571 -0.5723  0.5635  0.0902
 2853SOL    HW120192   0.260   1.102   8.649 -2.1786 -0.2094 -1.1860
 2853SOL    HW220193   0.349   1.041   8.557 -0.2336  0.6649  0.4139
 2854SOL     OW20194   0.410   3.436  12.470 -0.1070 -0.3336 -0.5117
 2854SOL    HW120195   0.331   3.478  12.435 -1.7204 -0.6470  2.8039
 2854SOL    HW220196   0.463   3.440  12.390  0.5007 -2.1584 -0.1894
 2855SOL     OW20197   0.924   1.718  14.152  0.7495  0.2215  0.4922
 2855SOL    HW120198   0.978   1.641  14.136 -1.6336 -0.7920 -2.7871
 2855SOL    HW220199   0.906   1.741  14.061  0.2649 -1.3451  0.1928
 2856SOL     OW20200   1.666   0.701  13.574  0.1637  0.2262 -0.6523
 2856SOL    HW120201   1.582   0.660  13.553  0.3137 -0.3948 -0.0334
 2856SOL    HW220202   1.681   0.653  13.656 -0.7796 -0.3157 -0.7918
 2857SOL     OW20203   2.092   1.461   7.481 -0.7545 -0.2792 -0.3949
 2857SOL    HW120204   2.139   1.544   7.489  0.4735 -1.1540  1.4069
 2857SOL    HW220205   2.052   1.470   7.394 -2.3990  0.3121  0.4341
 2858SOL     OW20206   2.644   2.051   3.534  0.2396  0.3177  0.0217
 2858SOL    HW120207   2.675   2.077   3.621  0.3564  1.6680 -0.4121
 2858SOL    HW220208   2.551   2.072   3.545  1.0009  3.1034  1.1253
 2859SOL     OW20209   3.739   0.494   6.700  0.2859 -0.1103 -0.1194
 2859SOL    HW120210   3.696   0.580   6.701  0.5531  0.0038  1.3730
 2859SOL    HW220211   3.736   0.474   6.794  1.8043 -1.4979 -0.3681
 2860SOL     OW20212   2.518   1.805   6.765 -0.6070 -0.1785 -0.3650
 2860SOL    HW120213   2.613   1.809   6.778 -0.7228  1.7999 -0.1267
 2860SOL    HW220214   2.495   1.722   6.807  0.1599  0.0823  0.5785
 2861SOL     OW20215   3.355   4.186   0.787 -0.2452 -0.0394  0.5748
 2861SOL    HW120216   3.371   4.165   0.879  2.0495 -2.1316 -0.2921
 2861SOL    HW220217   3.260   4.177   0.787 -0.2466 -0.0472 -1.4129
 2862SOL     OW20218   0.684   4.694   0.397 -0.0252 -0.2461  0.0211
 2862SOL    HW120219   0.598   4.721   0.365 -0.5258 -1.0254  0.7111
 2862SOL    HW220220   0.687   0.009   0.474  1.2619  1.1230 -1.0218
 2863SOL     OW20221   2.619   0.851   8.289 -0.5157  0.8248 -0.3875
 2863SOL    HW120222   2.644   0.786   8.224  1.4681  1.4577 -0.2711
 2863SOL    HW220223   2.684   0.828   8.355  0.1153  0.8433 -1.0020
 2864SOL     OW20224   3.300   0.937   2.086 -0.1085 -0.4490 -0.6698
 2864SOL    HW120225   3.217   0.910   2.124  0.3310  0.7803  1.1544
 2864SOL    HW220226   3.354   0.927   2.164 -2.3487 -0.9744  0.8006
 2865SOL     OW20227   2.377   3.251  11.155  0.8491  0.0453 -0.1232
 2865SOL    HW120228   2.348   3.336  11.123  1.1466  0.7193  1.3780
 2865SOL    HW220229   2.462   3.234  11.115  0.8576 -0.9949  0.3284
 2866SOL     OW20230   1.557   2.885   7.318 -0.3966 -0.5460  0.0252
 2866SOL    HW120231   1.473   2.840   7.313 -0.4934 -0.1785 -1.6328
 2866SOL    HW220232   1.616   2.811   7.305  0.3797 -0.0410  0.6506
 2867SOL     OW20233   0.552   0.848   7.098 -0.7041  0.1107 -0.0597
 2867SOL    HW120234   0.459   0.868   7.095 -0.9506 -1.3364 -1.9910
 2867SOL    HW220235   0.588   0.935   7.116 -1.1943  0.3553 -0.2482
 2868SOL     OW20236   1.090   2.060   3.710  0.3660 -0.1340 -0.0090
 2868SOL    HW120237   1.019   2.000   3.690  1.1407 -0.6130 -1.3382
 2868SOL    HW220238   1.151   1.990   3.733  0.1049 -0.2682  0.2659
 2869SOL     OW20239   4.316   2.880   2.529 -0.2278  0.0535  0.3277
 2869SOL    HW120240   4.247   2.935   2.492  2.4359  1.9477 -1.7865
 2869SOL    HW220241   4.393   2.930   2.505  0.3208 -0.6899  0.5333
 2870SOL     OW20242   3.099   1.202   6.552 -0.3384  0.0070 -0.3125
 2870SOL    HW120243   3.190   1.183   6.529 -0.4984  0.1144 -1.0352
 2870SOL    HW220244   3.059   1.115   6.553 -0.7667  0.2328  1.7316
 2871SOL     OW20245   4.144   1.453  16.607 -0.3520  0.0070  0.0966
 2871SOL    HW120246   4.066   1.475  16.557 -0.7506  0.4699  0.9045
 2871SOL    HW220247   4.204   1.419  16.542  0.8580  0.8547  0.7532
 2872SOL     OW20248   4.207   0.264   3.010  0.2049  0.0692  0.3594
 2872SOL    HW120249   4.197   0.360   3.005 -0.4960 -0.1843 -2.9935
 2872SOL    HW220250   4.115   0.235   3.008  0.0176  0.6369  0.6357
 2873SOL     OW20251   3.238   2.206   5.870  0.3326  0.1558 -0.5127
 2873SOL    HW120252   3.144   2.204   5.888  0.4217 -0.9939 -0.1893
 2873SOL    HW220253   3.253   2.299   5.855 -0.2673  0.5609  1.4093
 2874SOL     OW20254   0.946   4.655   8.789 -0.4616 -0.3061  0.5308
 2874SOL    HW120255   0.953   4.575   8.842  0.5904 -0.6156 -0.0858
 2874SOL    HW220256   0.940   4.609   8.706 -2.2135  2.8456 -1.0749
 2875SOL     OW20257   2.142   4.726  12.047 -0.0418 -0.2855  0.0499
 2875SOL    HW120258   2.146   4.631  12.048  0.0352 -0.2879 -0.4383
 2875SOL    HW220259   2.056   0.007  12.010  0.5026  0.0137 -1.0413
 2876SOL     OW20260   3.560   0.077   4.101  0.3519  0.4959 -0.2068
 2876SOL    HW120261   3.518   0.139   4.162 -0.1549  0.5489 -0.6042
 2876SOL    HW220262   3.512   0.090   4.019  1.3689  1.8141 -0.5916
 2877SOL     OW20263   2.410   3.626   4.538  0.3066 -0.5987  0.3132
 2877SOL    HW120264   2.453   3.555   4.491  0.4698 -0.4951  0.3063
 2877SOL    HW220265   2.373   3.665   4.459 -2.9844  1.1480  2.7097
 2878SOL     OW20266   1.124   2.860   8.510 -0.3539 -0.7376  0.0159
 2878SOL    HW120267   1.115   2.826   8.421 -0.2927 -0.0719 -0.2489
 2878SOL    HW220268   1.079   2.788   8.554  0.8040 -0.2836  1.9547
 2879SOL     OW20269   3.880   0.274   2.037  0.0054  0.2781  0.0132
 2879SOL    HW120270   3.856   0.354   1.990 -1.3307  0.3290  0.7891
 2879SOL    HW220271   3.976   0.274   2.039 -0.0073 -2.5914  1.0266
 2880SOL     OW20272   3.058   0.262   0.929 -0.0084 -0.7017 -0.2695
 2880SOL    HW120273   3.047   0.335   0.989  0.2623  0.5051 -1.6797
 2880SOL    HW220274   3.113   0.197   0.972 -2.5201 -1.0338  2.4315
 2881SOL     OW20275   1.049   2.510   2.914  0.3059 -0.3832 -0.3065
 2881SOL    HW120276   1.143   2.504   2.894  0.6170  1.8425  0.4701
 2881SOL    HW220277   1.049   2.595   2.957  1.0914  0.7600 -2.6077
 2882SOL     OW20278   1.811   0.743   7.074 -0.5042 -0.0843  0.3134
 2882SOL    HW120279   1.721   0.746   7.107 -0.3856  1.6964  0.4961
 2882SOL    HW220280   1.801   0.660   7.029 -0.1894 -0.0745  0.2265
 2883SOL     OW20281   2.071   4.410   6.226  0.6088 -0.3435 -0.2877
 2883SOL    HW120282   2.128   4.437   6.154 -0.5452  2.7136 -0.0763
 2883SOL    HW220283   2.000   4.475   6.225 -0.0326 -1.0399  0.2899
 2884SOL     OW20284   0.030   1.432  14.857  0.5183 -0.3146 -0.5185
 2884SOL    HW120285   0.061   1.344  14.878  2.6680  0.2513 -1.3821
 2884SOL    HW220286   0.107   1.486  14.841  0.1258  0.4069 -0.0029
 2885SOL     OW20287   2.024   0.032   5.009 -0.2230 -0.5133 -0.3148
 2885SOL    HW120288   1.961   4.714   5.051  1.0892 -1.6674  0.0307
 2885SOL    HW220289   1.985   0.116   5.033 -0.2330  0.3095 -3.2233
 2886SOL     OW20290   0.914   0.920  17.174 -0.1564  0.3452 -0.0484
 2886SOL    HW120291   0.924   0.829  17.147 -1.0433  0.8698 -2.1600
 2886SOL    HW220292   1.000   0.924  17.215 -0.2494 -1.5357  0.3387
 2887SOL     OW20293   0.915   2.082   6.541  0.0179  0.3955 -0.5303
 2887SOL    HW120294   0.863   2.161   6.553  0.9375  0.7772  1.0598
 2887SOL    HW220295   0.935   2.055   6.631  0.1501 -0.8490 -0.9237
 2888SOL     OW20296   1.078   1.611   2.071 -0.2482 -0.5298  0.4478
 2888SOL    HW120297   1.021   1.683   2.098  0.1171 -0.6159  1.4188
 2888SOL    HW220298   1.010   1.543   2.065 -0.7952  0.0299  0.3106
 2889SOL     OW20299   2.521   0.463  12.377  0.2260 -0.1004 -0.1607
 2889SOL    HW120300   2.590   0.524  12.403 -1.0188  1.3298 -0.1803
 2889SOL    HW220301   2.542   0.387  12.431  2.6786  1.3493  0.9527
 2890SOL     OW20302   2.615   4.632  16.923 -0.1887 -0.0511 -0.0147
 2890SOL    HW120303   2.556   4.621  16.848  0.3938 -2.7763 -0.0844
 2890SOL    HW220304   2.604   4.722  16.951 -2.0202 -0.1868 -0.2739
 2891SOL     OW20305   3.246   2.848  10.235  0.3578 -0.2201  0.1167
 2891SOL    HW120306   3.205   2.860  10.150  1.0746  0.2305 -0.1602
 2891SOL    HW220307   3.315   2.915  10.233 -0.8179  1.0265  1.0506
 2892SOL     OW20308   2.523   1.540   7.375  0.5014 -0.2847 -0.1845
 2892SOL    HW120309   2.504   1.542   7.281  0.3895  0.9846 -0.1421
 2892SOL    HW220310   2.536   1.634   7.392  2.1824 -1.1174  3.0741
 2893SOL     OW20311   3.408   0.708   3.207 -0.7787  0.0185  0.6317
 2893SOL    HW120312   3.345   0.764   3.162  1.3454 -0.0758 -2.4687
 2893SOL    HW220313   3.485   0.723   3.151  0.8884 -0.3742  2.8068
 2894SOL     OW20314   3.807   1.466   4.157  0.2158  0.4631 -0.3920
 2894SOL    HW120315   3.857   1.397   4.114  1.9104  1.1827  0.4521
 2894SOL    HW220316   3.877   1.507   4.208 -0.8634  1.4526  0.2868
 2895SOL     OW20317   3.283   0.626  14.152 -0.4449  0.2257  0.1922
 2895SOL    HW120318   3.284   0.532  14.169  0.1963  0.3689  0.9288
 2895SOL    HW220319   3.351   0.646  14.216  0.6645 -3.0017  0.0164
 2896SOL     OW20320   2.930   1.692   9.085 -0.7011  0.0433 -0.0211
 2896SOL    HW120321   2.894   1.686   9.174  2.4228 -0.4828  1.2105
 2896SOL    HW220322   2.852   1.728   9.043 -0.8914  0.1702  0.4396
 2897SOL     OW20323   4.640   0.357   3.846 -0.0772 -0.4915 -0.4396
 2897SOL    HW120324   4.698   0.432   3.834  0.2624 -0.2776  2.3973
 2897SOL    HW220325   4.632   0.361   3.942  1.0553 -1.1416 -0.3211
 2898SOL     OW20326   2.088   3.346   6.148  0.6372  0.5239 -0.0904
 2898SOL    HW120327   2.061   3.429   6.109 -0.7985 -0.3542 -0.9273
 2898SOL    HW220328   2.028   3.326   6.219 -1.3067 -0.7141 -2.1024
 2899SOL     OW20329   1.331   0.168   4.030  0.2418 -0.3902 -0.0248
 2899SOL    HW120330   1.410   0.198   4.076  0.3893  0.5661 -0.9015
 2899SOL    HW220331   1.302   0.108   4.098 -1.7443  1.3933  0.6854
 2900SOL     OW20332   2.249   3.736  17.452  1.0971 -0.2089  0.0619
 2900SOL    HW120333   2.199   3.674  17.505  1.4438 -0.1703  0.4269
 2900SOL    HW220334   2.329   3.743  17.503  0.5670  0.9460  0.7482
 2901SOL     OW20335   0.236   0.912   4.611  0.0896 -0.6523 -0.1441
 2901SOL    HW120336   0.199   0.932   4.697 -2.5969  2.3858 -2.0081
 2901SOL    HW220337   0.198   0.827   4.589 -0.1491 -0.3132 -1.0733
 2902SOL     OW20338   3.387   4.269   7.060  0.8425 -0.9017 -0.0456
 2902SOL    HW120339   3.328   4.341   7.041  4.1078  1.5975 -0.8144
 2902SOL    HW220340   3.416   4.246   6.971 -0.4494  0.6624 -0.8743
 2903SOL     OW20341   2.648   3.412   9.659 -0.3245  0.0984  0.2289
 2903SOL    HW120342   2.579   3.429   9.595  2.2391  1.6737 -2.1005
 2903SOL    HW220343   2.600   3.389   9.739  2.4502 -2.3678  1.2061
 2904SOL     OW20344   0.526   4.016  12.264 -0.3977  0.0376 -0.0651
 2904SOL    HW120345   0.607   4.020  12.213 -0.8192  1.3730 -0.5989
 2904SOL    HW220346   0.569   4.019  12.350  0.0979 -2.0769 -0.2257
 2905SOL     OW20347   1.880   0.453   0.314 -0.2282 -0.0667 -0.6742
 2905SOL    HW120348   1.971   0.462   0.287  0.1249 -1.0518  0.2309
 2905SOL    HW220349   1.867   0.360   0.297 -0.8444 -0.0186 -0.4573
 2906SOL     OW20350   3.368   1.308  14.858  0.2457  0.2276  0.5353
 2906SOL    HW120351   3.432   1.341  14.921  0.7138 -1.9856  1.2035
 2906SOL    HW220352   3.397   1.217  14.856  1.7038  0.7012  0.0971
 2907SOL     OW20353   0.981   0.339   8.152  0.0073  0.4742 -0.7561
 2907SOL    HW120354   1.024   0.259   8.122 -0.2447 -0.6434  1.8463
 2907SOL    HW220355   0.907   0.295   8.193 -1.0703  0.7616 -2.4028
 2908SOL     OW20356   2.204   2.956  17.622 -0.2797 -0.0056  0.6947
 2908SOL    HW120357   2.143   3.026  17.643 -0.4222  0.2861 -0.6942
 2908SOL    HW220358   2.261   2.964  17.698 -2.5329 -3.2449  2.7597
 2909SOL     OW20359   3.758   4.659   1.678 -0.1523 -0.2950 -0.1898
 2909SOL    HW120360   3.752   0.012   1.696 -1.9822 -0.4365  0.0053
 2909SOL    HW220361   3.849   4.647   1.704 -0.1594  0.6174  0.2408
 2910SOL     OW20362   0.676   3.972  12.505 -0.2244  0.4299  0.4694
 2910SOL    HW120363   0.596   3.936  12.544  1.0759  0.1609  2.9095
 2910SOL    HW220364   0.699   4.033  12.576  0.6761  0.0443  0.5113
 2911SOL     OW20365   1.152   3.132   7.121 -0.5292 -0.7803  0.3498
 2911SOL    HW120366   1.134   3.206   7.178 -0.6922 -0.1170 -0.5494
 2911SOL    HW220367   1.115   3.152   7.035  0.3917  1.8573  0.5713
 2912SOL     OW20368   4.036   1.038   2.698  0.5678 -0.2076  0.5042
 2912SOL    HW120369   4.118   0.997   2.672  0.9773  1.6662 -1.1249
 2912SOL    HW220370   4.049   1.045   2.793  0.9104 -0.5540  0.4802
 2913SOL     OW20371   1.405   1.157   8.018  0.2433  0.1286  0.1811
 2913SOL    HW120372   1.375   1.208   7.942 -0.4646 -2.2101 -1.1265
 2913SOL    HW220373   1.481   1.208   8.045  0.8773  0.1548 -1.6214
 2914SOL     OW20374   1.806   0.847  16.236  0.3496 -0.1830 -0.2686
 2914SOL    HW120375   1.823   0.913  16.169  1.0688 -0.6913 -0.5979
 2914SOL    HW220376   1.830   0.902  16.310 -0.3522  0.1778 -0.3094
 2915SOL     OW20377   0.924   2.044   2.493 -0.0807  0.1008 -0.0521
 2915SOL    HW120378   1.007   2.006   2.521 -2.2325 -2.0430  3.3998
 2915SOL    HW220379   0.922   2.014   2.402  1.8268  1.2144 -0.4741
 2916SOL     OW20380   4.186   4.282  15.458 -0.0834  0.2250  0.0351
 2916SOL    HW120381   4.229   4.296  15.543 -0.7928 -0.6753  0.5446
 2916SOL    HW220382   4.252   4.244  15.400  0.3032  2.0082 -0.6886
 2917SOL     OW20383   4.539   3.472   6.524 -0.3399 -0.2110 -0.0261
 2917SOL    HW120384   4.587   3.548   6.556 -0.6208 -0.1861  0.3432
 2917SOL    HW220385   4.455   3.476   6.571 -0.5900  1.0732 -0.5747
 2918SOL     OW20386   2.400   4.353  10.567  0.2248 -0.0898 -0.3051
 2918SOL    HW120387   2.316   4.348  10.522  1.0663  0.3762 -1.9376
 2918SOL    HW220388   2.445   4.400  10.497 -2.0727  0.9455 -1.0812
 2919SOL     OW20389   1.401   0.444   8.377  0.0688 -0.2340 -0.3958
 2919SOL    HW120390   1.442   0.359   8.361 -1.4865 -1.0053 -0.3361
 2919SOL    HW220391   1.311   0.425   8.405 -0.0337 -0.8319 -1.1275
 2920SOL     OW20392   2.172   2.600   7.543 -0.5796  0.2119  0.1923
 2920SOL    HW120393   2.248   2.654   7.525  0.3799 -0.8133  1.1707
 2920SOL    HW220394   2.121   2.661   7.596 -0.4313  0.8810 -0.4384
 2921SOL     OW20395   3.049   4.197   6.253 -0.0332  0.0272 -0.1948
 2921SOL    HW120396   3.033   4.289   6.232  0.0509 -0.7172 -3.4653
 2921SOL    HW220397   2.989   4.149   6.196 -0.1470 -0.5497  0.3990
 2922SOL     OW20398   1.968   4.624  11.715 -0.5237 -0.2510 -0.0476
 2922SOL    HW120399   1.955   4.639  11.808  3.3022 -1.6351  0.7151
 2922SOL    HW220400   1.908   4.691  11.681  1.7385  2.1648  0.6984
 2923SOL     OW20401   0.864   2.591   2.733 -0.6402 -0.4901  0.6243
 2923SOL    HW120402   0.922   2.546   2.794 -0.2184 -3.0240 -1.6495
 2923SOL    HW220403   0.803   2.643   2.787  2.1520  0.1267  3.1771
 2924SOL     OW20404   4.434   2.846   6.752  0.1748 -0.2436  0.2273
 2924SOL    HW120405   4.455   2.763   6.710 -0.1098  0.6127 -1.5731
 2924SOL    HW220406   4.507   2.859   6.813 -0.9950 -0.1601  1.6214
 2925SOL     OW20407   3.297   0.635  11.165 -0.7020  0.3463  0.0908
 2925SOL    HW120408   3.301   0.556  11.111 -0.1955  1.7170 -1.8634
 2925SOL    HW220409   3.368   0.689  11.129 -0.4625 -0.3659 -0.5025
 2926SOL     OW20410   1.384   4.144   7.584  0.2606  0.4620 -0.1215
 2926SOL    HW120411   1.409   4.067   7.533 -0.0309 -0.0333  0.4794
 2926SOL    HW220412   1.291   4.142   7.562 -0.1094 -1.8544  1.6444
 2927SOL     OW20413   2.316   3.648   8.730 -0.5428 -0.1160 -0.0301
 2927SOL    HW120414   2.228   3.640   8.767 -0.5203 -2.2219 -0.4457
 2927SOL    HW220415   2.326   3.556   8.705  0.5883  0.1711 -0.6504
 2928SOL     OW20416   4.162   1.004   0.898  0.1291  0.0668  0.0965
 2928SOL    HW120417   4.089   0.991   0.837 -0.7350  0.3953  1.0632
 2928SOL    HW220418   4.237   1.023   0.841  0.9437 -1.7733  0.5516
 2929SOL     OW20419   0.952   1.187   8.011  0.5415  0.3805  0.1656
 2929SOL    HW120420   0.858   1.204   8.011  0.5749  0.5981 -1.1562
 2929SOL    HW220421   0.968   1.137   7.931  0.3571  1.5012 -0.5854
 2930SOL     OW20422   2.512   3.583   6.301  0.0708 -0.1421  0.0761
 2930SOL    HW120423   2.514   3.677   6.315  1.0286 -0.3175  1.0502
 2930SOL    HW220424   2.595   3.562   6.342 -1.3582 -2.8352  1.6090
 2931SOL     OW20425   2.451   3.580   1.745  0.7780  0.3986  0.0513
 2931SOL    HW120426   2.368   3.577   1.792  0.2008  1.4454 -0.9207
 2931SOL    HW220427   2.435   3.530   1.665 -1.9440  1.4377 -0.0420
 2932SOL     OW20428   1.304   1.640  13.889 -0.5587 -0.1294 -0.2799
 2932SOL    HW120429   1.299   1.735  13.889 -0.8960 -0.1562  2.7502
 2932SOL    HW220430   1.384   1.621  13.840 -0.0508 -0.1348  0.5486
 2933SOL     OW20431   1.571   3.320   6.829 -0.2856 -0.3670 -0.3256
 2933SOL    HW120432   1.493   3.275   6.861 -0.6103 -0.3718 -1.1340
 2933SOL    HW220433   1.625   3.248   6.797 -0.7583 -1.6224  1.6744
 2934SOL     OW20434   2.981   0.526   3.528  0.1250 -0.0608  0.2131
 2934SOL    HW120435   3.067   0.517   3.487  0.2203  3.0945 -0.2183
 2934SOL    HW220436   2.983   0.615   3.561  0.9470  0.2430 -0.6671
 2935SOL     OW20437   1.613   1.383   2.561 -0.1460  0.2545 -0.2490
 2935SOL    HW120438   1.627   1.373   2.467 -3.1307  0.5330 -0.7040
 2935SOL    HW220439   1.571   1.468   2.568 -1.2453 -0.4805  2.0459
 2936SOL     OW20440   4.054   0.047   5.756  0.1668 -0.0682 -0.4179
 2936SOL    HW120441   3.964   0.030   5.729 -0.6296  3.1517  0.2066
 2936SOL    HW220442   4.080   4.697   5.774  0.3961  0.4639  1.9057
 2937SOL     OW20443   0.073   0.450   4.821 -0.0294  0.4047 -0.1783
 2937SOL    HW120444   0.038   0.506   4.891 -1.3487 -0.3085 -0.2570
 2937SOL    HW220445   4.729   0.445   4.776 -0.3848  0.2337  0.5105
 2938SOL     OW20446   2.389   2.145   3.504 -0.0003 -0.2548  0.0835
 2938SOL    HW120447   2.328   2.210   3.538 -0.1048 -0.6034  0.5754
 2938SOL    HW220448   2.418   2.183   3.421  0.7765 -2.6435 -0.7379
 2939SOL     OW20449   4.576   4.497  11.298 -0.1478 -0.0145 -0.3773
 2939SOL    HW120450   4.541   4.416  11.260 -0.2716 -0.8093  1.4377
 2939SOL    HW220451   4.610   4.457  11.378  0.6863 -1.4000 -1.4153
 2940SOL     OW20452   0.789   0.020  17.344  0.3041  0.2506  0.0054
 2940SOL    HW120453   0.727   4.698  17.384 -0.7572  0.7900 -0.8145
 2940SOL    HW220454   0.828   0.050  17.427 -0.6109 -0.3834  0.6620
 2941SOL     OW20455   4.389   2.205   5.484 -0.1539  0.0316  0.4560
 2941SOL    HW120456   4.334   2.231   5.410 -0.6972 -1.1978  0.4286
 2941SOL    HW220457   4.446   2.281   5.501  2.3198 -1.2876 -1.9247
 2942SOL     OW20458   3.105   3.591  11.623  0.3279 -0.7177  0.8739
 2942SOL    HW120459   3.168   3.608  11.553  0.4067  1.9677  1.5794
 2942SOL    HW220460   3.118   3.669  11.678  0.1035 -0.2482  0.2606
 2943SOL     OW20461   1.461   3.099   6.272 -0.2955  0.0441  0.1050
 2943SOL    HW120462   1.534   3.068   6.217 -0.7912 -0.8360 -0.0680
 2943SOL    HW220463   1.506   3.122   6.353  0.9871 -2.0259  0.0022
 2944SOL     OW20464   2.547   2.612   7.054  0.5387  0.2335  0.1624
 2944SOL    HW120465   2.598   2.585   6.977  0.8504  0.7401  0.1904
 2944SOL    HW220466   2.518   2.699   7.027  0.9662 -0.2416 -1.8200
 2945SOL     OW20467   3.777   3.962   6.729 -0.5266  0.0865  0.3901
 2945SOL    HW120468   3.770   3.871   6.701  0.8902 -0.1352  0.7718
 2945SOL    HW220469   3.856   3.976   6.677 -0.8516  0.0936 -0.1008
 2946SOL     OW20470   3.077   1.416  11.476  0.3419  0.3159 -0.0379
 2946SOL    HW120471   3.122   1.484  11.427 -0.3835  0.4014 -0.5873
 2946SOL    HW220472   2.990   1.454  11.488 -0.9938 -3.3504  2.0964
 2947SOL     OW20473   4.424   0.837  16.653 -0.4992 -0.2911  0.2597
 2947SOL    HW120474   4.360   0.889  16.703 -0.0856 -1.3135  1.8693
 2947SOL    HW220475   4.454   0.908  16.596 -0.9616 -1.7795 -1.8230
 2948SOL     OW20476   4.364   4.443   7.625  0.1816 -0.1545  0.9411
 2948SOL    HW120477   4.301   4.387   7.581 -1.0275  2.4136 -0.6568
 2948SOL    HW220478   4.327   4.471   7.708  0.2280  2.1618  0.1991
 2949SOL     OW20479   1.679   3.821   1.312  0.1264 -0.4568 -0.1969
 2949SOL    HW120480   1.613   3.887   1.327 -1.5712 -1.2840 -4.0933
 2949SOL    HW220481   1.752   3.878   1.334  1.4400 -1.6087 -1.4691
 2950SOL     OW20482   3.985   2.866   3.375 -0.3855  0.6435  0.6630
 2950SOL    HW120483   3.921   2.838   3.309  2.9167 -1.8114 -1.4652
 2950SOL    HW220484   4.039   2.926   3.324  0.2903  0.9283  1.7176
 2951SOL     OW20485   0.340   0.572   3.258  0.4107  0.6652  0.1596
 2951SOL    HW120486   0.309   0.487   3.226  2.0443  0.3412 -0.5807
 2951SOL    HW220487   0.304   0.627   3.188 -0.2450 -0.1330 -0.1327
 2952SOL     OW20488   4.740   4.027   7.193  0.2622  0.2238 -0.1492
 2952SOL    HW120489   0.089   3.995   7.180 -0.2783 -1.0373 -0.7957
 2952SOL    HW220490   0.019   4.112   7.154  2.6649  0.1054  0.7505
 2953SOL     OW20491   3.971   4.420   4.412  0.3305  0.0164 -0.0845
 2953SOL    HW120492   3.878   4.404   4.430  0.1428 -0.0688 -1.1473
 2953SOL    HW220493   3.979   4.515   4.420  0.2163  0.1527 -1.5542
 2954SOL     OW20494   2.595   2.590   3.539  0.5865  0.1357  0.0628
 2954SOL    HW120495   2.624   2.516   3.593  1.6474  0.0163 -0.6751
 2954SOL    HW220496   2.508   2.564   3.510  0.9509  0.2382 -1.1319
 2955SOL     OW20497   2.496   2.765   2.738  0.0081 -0.3267 -0.0889
 2955SOL    HW120498   2.583   2.736   2.710 -0.9177 -0.5054 -2.8585
 2955SOL    HW220499   2.469   2.704   2.806 -0.1751 -1.2599 -0.9995
 2956SOL     OW20500   1.646   4.107   8.149  0.2280 -0.4956 -0.5531
 2956SOL    HW120501   1.553   4.086   8.148  0.5128 -1.7853 -0.4715
 2956SOL    HW220502   1.645   4.202   8.152  1.9052 -0.5545  2.3578
 2957SOL     OW20503   0.749   0.717  14.115 -0.4240  0.4359 -0.1293
 2957SOL    HW120504   0.815   0.773  14.074  2.0789 -1.7731  0.8442
 2957SOL    HW220505   0.672   0.743  14.065 -1.5970 -2.6781  0.0188
 2958SOL     OW20506   2.492   4.590   4.369  0.3886  0.0626 -0.0935
 2958SOL    HW120507   2.506   4.653   4.298  1.1512  1.0010  0.8834
 2958SOL    HW220508   2.582   4.580   4.400 -0.7474 -0.2547  3.1127
 2959SOL     OW20509   0.801   0.364  14.966  0.1599  0.7700 -0.0473
 2959SOL    HW120510   0.718   0.334  15.003 -1.6214  5.2542 -0.3685
 2959SOL    HW220511   0.838   0.415  15.039 -2.1908  0.5147  1.3258
 2960SOL     OW20512   4.268   3.799   7.451  0.3438  0.4272  0.5314
 2960SOL    HW120513   4.180   3.836   7.444  1.2043  2.2357 -0.6720
 2960SOL    HW220514   4.292   3.789   7.359 -1.6059 -0.9563  0.1584
 2961SOL     OW20515   2.576   2.347   0.235  0.7726 -0.0906  0.0952
 2961SOL    HW120516   2.607   2.353   0.325 -0.5443 -0.6488  0.5731
 2961SOL    HW220517   2.652   2.337   0.177  1.0921 -3.1202  1.0536
 2962SOL     OW20518   1.120   2.562  17.665 -0.5543 -0.1598 -0.7713
 2962SOL    HW120519   1.125   2.481  17.716 -2.9799  2.0199  2.9888
 2962SOL    HW220520   1.042   2.602  17.705  1.3034  1.5913  1.0989
 2963SOL     OW20521   1.043   0.723   1.551  0.1380 -0.0067 -0.9345
 2963SOL    HW120522   1.128   0.764   1.567  0.2475 -0.8437  0.6353
 2963SOL    HW220523   0.987   0.799   1.535 -0.6106 -0.2247  0.6576
 2964SOL     OW20524   4.268   4.528   7.331 -0.5965  0.0223  0.3371
 2964SOL    HW120525   4.291   4.620   7.319  0.3144 -0.4331 -1.5325
 2964SOL    HW220526   4.200   4.535   7.398 -0.4180  4.3217  0.0774
 2965SOL     OW20527   3.582   3.507  10.372  0.6928  0.4126 -0.0060
 2965SOL    HW120528   3.567   3.577  10.436 -0.2450  0.0623  0.1541
 2965SOL    HW220529   3.675   3.494  10.388  0.5081 -1.4449 -0.5294
 2966SOL     OW20530   3.827   4.303  13.233  0.4772  0.2689 -0.1468
 2966SOL    HW120531   3.743   4.343  13.211 -0.4303 -1.2014  0.7025
 2966SOL    HW220532   3.890   4.364  13.193 -0.1180  0.8330 -0.2282
 2967SOL     OW20533   0.869   0.508   7.270 -0.7416  0.1671 -0.0672
 2967SOL    HW120534   0.808   0.461   7.213 -1.4302  1.0494 -0.0554
 2967SOL    HW220535   0.931   0.538   7.203  1.0636 -0.0005  1.5424
 2968SOL     OW20536   2.092   2.843  10.279  0.0519 -0.1297  0.3613
 2968SOL    HW120537   2.178   2.880  10.301 -0.0847 -0.8030  2.0463
 2968SOL    HW220538   2.113   2.816  10.190  1.4598 -0.6668  0.8457
 2969SOL     OW20539   1.501   2.627   5.171  0.6051 -0.2719 -0.2382
 2969SOL    HW120540   1.588   2.667   5.169  0.9291 -0.9535  0.5472
 2969SOL    HW220541   1.479   2.620   5.264 -0.9613  0.8396 -0.5264
 2970SOL     OW20542   2.515   1.542   8.174  0.1413 -0.6997 -0.2482
 2970SOL    HW120543   2.594   1.586   8.204 -0.1209  0.9054 -1.9798
 2970SOL    HW220544   2.511   1.474   8.242 -2.3648 -2.9049 -2.5891
 2971SOL     OW20545   4.256   4.223   7.364 -0.1359 -0.5956 -0.3028
 2971SOL    HW120546   4.215   4.247   7.447 -0.2620 -0.0283 -0.5312
 2971SOL    HW220547   4.228   4.288   7.300  0.9488  0.3476  0.1761
 2972SOL     OW20548   2.831   3.964   9.443  0.2289 -0.7146 -0.3115
 2972SOL    HW120549   2.865   3.884   9.481 -0.8204  0.4875  3.0945
 2972SOL    HW220550   2.810   4.023   9.515  0.1678  0.7049 -1.4715
 2973SOL     OW20551   3.080   1.482   8.990 -0.4286  0.0943 -0.1051
 2973SOL    HW120552   3.021   1.546   9.030 -0.9033  0.0644 -0.7361
 2973SOL    HW220553   3.054   1.510   8.902  0.1872  0.4502 -0.1754
 2974SOL     OW20554   0.569   3.561   8.589  0.3933  0.0168 -0.3358
 2974SOL    HW120555   0.496   3.501   8.606  0.4999 -0.4039 -1.3520
 2974SOL    HW220556   0.524   3.645   8.594  0.4216  0.0041  0.1768
 2975SOL     OW20557   1.527   4.315   8.850  0.4201 -0.1915  0.3818
 2975SOL    HW120558   1.616   4.280   8.855 -0.3599 -2.2473 -0.1063
 2975SOL    HW220559   1.546   4.384   8.786 -1.5315 -0.4710 -0.5031
 2976SOL     OW20560   2.284   4.139   5.465 -0.3792 -0.5597 -0.0754
 2976SOL    HW120561   2.251   4.152   5.376 -0.7939  0.4626  0.2343
 2976SOL    HW220562   2.198   4.111   5.496 -1.4650  2.6605 -0.2308
 2977SOL     OW20563   0.510   0.587   6.979  0.1183  0.5261 -0.0078
 2977SOL    HW120564   0.423   0.614   6.951 -0.2446 -0.5750  0.0520
 2977SOL    HW220565   0.550   0.671   7.002 -1.1171  1.5970 -1.8313
 2978SOL     OW20566   4.345   2.028   5.082 -0.2730 -0.6984 -0.2506
 2978SOL    HW120567   4.377   2.115   5.108  0.4522 -1.9805  3.1280
 2978SOL    HW220568   4.422   1.974   5.103 -0.5636 -0.8753  0.3636
 2979SOL     OW20569   3.617   0.408   5.210  0.2682 -0.0154 -0.1827
 2979SOL    HW120570   3.567   0.429   5.131 -1.8660  0.5429  1.3111
 2979SOL    HW220571   3.582   0.322   5.231 -1.2633  1.1276  1.9454
 2980SOL     OW20572   2.515   0.878   6.524  0.2207 -0.1329 -0.1782
 2980SOL    HW120573   2.447   0.827   6.568  1.6724 -1.6620  0.3001
 2980SOL    HW220574   2.473   0.866   6.439  1.5244 -1.8899 -0.5746
 2981SOL     OW20575   1.156   2.080   3.194  0.2001  0.3361  0.0498
 2981SOL    HW120576   1.196   2.151   3.244 -0.8228 -0.3615  1.8722
 2981SOL    HW220577   1.089   2.131   3.148  0.8215  1.9269  0.9035
 2982SOL     OW20578   2.641   0.037   2.752 -0.0658 -0.5161  0.0169
 2982SOL    HW120579   2.594   4.717   2.810  0.9669 -1.0397  0.3080
 2982SOL    HW220580   2.594   0.118   2.772 -0.8315 -1.0011  0.1480
 2983SOL     OW20581   2.854   2.230  11.789 -0.3066  0.2069 -0.3254
 2983SOL    HW120582   2.893   2.277  11.863  2.5040  0.0053 -1.6773
 2983SOL    HW220583   2.866   2.143  11.827  3.0004  0.6032 -0.4300
 2984SOL     OW20584   0.686   0.388  16.060  0.2701  0.1138  0.6731
 2984SOL    HW120585   0.736   0.463  16.093 -0.8021  0.7874  0.7885
 2984SOL    HW220586   0.599   0.425  16.040  0.6312  0.8122  0.3883
 2985SOL     OW20587   2.755   4.047  13.460 -0.2038  0.4195 -0.0290
 2985SOL    HW120588   2.691   4.070  13.392  0.4640  0.8676 -0.5077
 2985SOL    HW220589   2.776   4.135  13.492 -0.6031  1.1190 -1.6740
 2986SOL     OW20590   2.366   1.568   2.126 -0.0984  0.0809 -0.0193
 2986SOL    HW120591   2.437   1.632   2.128  0.0829 -0.1203 -0.1034
 2986SOL    HW220592   2.333   1.590   2.038  0.2489 -0.2331 -0.2265
 2987SOL     OW20593   0.632   2.881   3.781 -0.9753 -0.7610  0.2828
 2987SOL    HW120594   0.554   2.918   3.738 -0.8584 -0.0750  0.6662
 2987SOL    HW220595   0.697   2.921   3.724 -2.0422 -1.1470 -1.2100
 2988SOL     OW20596   2.588   0.142  17.057 -0.0579  0.1279  0.1901
 2988SOL    HW120597   2.582   0.111  17.147 -1.3980 -0.7936 -0.2093
 2988SOL    HW220598   2.493   0.153  17.047  0.2000  1.2219 -1.1393
 2989SOL     OW20599   1.462   0.316   4.825  0.4823  0.0598  0.6536
 2989SOL    HW120600   1.476   0.392   4.882 -2.1211 -0.0137  1.4192
 2989SOL    HW220601   1.413   0.264   4.890 -1.5171  0.3315 -0.6228
 2990SOL     OW20602   4.281   0.388   6.658  0.2925  0.1601  0.3298
 2990SOL    HW120603   4.281   0.339   6.740 -0.1023 -2.3825 -1.2030
 2990SOL    HW220604   4.376   0.392   6.648  0.3765  0.8509  1.3545
 2991SOL     OW20605   0.415   4.065   1.140  0.3285 -0.1715 -0.0982
 2991SOL    HW120606   0.343   4.101   1.191  0.5326 -1.6403  1.2485
 2991SOL    HW220607   0.484   4.073   1.207  1.1584  0.9540 -1.0772
 2992SOL     OW20608   2.820   2.139   5.051  0.0052  0.1842 -0.5172
 2992SOL    HW120609   2.828   2.214   5.110  1.2655  0.3977 -0.9647
 2992SOL    HW220610   2.786   2.086   5.123  2.0614 -0.6195 -0.1292
 2993SOL     OW20611   4.356   0.933   3.682 -0.1912 -0.3000  0.1426
 2993SOL    HW120612   4.406   0.863   3.641  1.6629  1.3123 -0.3205
 2993SOL    HW220613   4.283   0.889   3.725 -1.1984  0.9441 -0.3056
 2994SOL     OW20614   3.589   1.730   2.953  0.0982 -0.1612 -0.5467
 2994SOL    HW120615   3.640   1.724   3.034  2.2705 -2.2655 -2.0857
 2994SOL    HW220616   3.621   1.655   2.903 -0.4886 -0.4297 -0.5305
 2995SOL     OW20617   1.011   2.718   6.725 -0.1788 -0.4882  0.4167
 2995SOL    HW120618   1.103   2.695   6.713  0.0964  0.5532  0.5709
 2995SOL    HW220619   0.980   2.639   6.769  1.2823 -0.0915  2.1729
 2996SOL     OW20620   3.620   2.561   3.620  0.0157  0.3119  0.4198
 2996SOL    HW120621   3.612   2.633   3.558 -1.3279 -0.9614 -0.8711
 2996SOL    HW220622   3.706   2.527   3.597  0.4360  0.3822  1.8930
 2997SOL     OW20623   0.653   0.252   6.213 -0.2894 -0.2877 -0.3168
 2997SOL    HW120624   0.718   0.196   6.172  0.5595  1.7400 -1.7324
 2997SOL    HW220625   0.600   0.188   6.261 -0.0861  0.1826  0.5466
 2998SOL     OW20626   4.376   3.362   5.376  0.1860  0.0073 -0.2852
 2998SOL    HW120627   4.303   3.336   5.432 -0.1326  1.3894 -0.0544
 2998SOL    HW220628   4.401   3.441   5.424  0.0205 -1.8090  2.8136
 2999SOL     OW20629   0.817   1.375  15.057  0.1809 -0.0520 -0.2122
 2999SOL    HW120630   0.744   1.326  15.019  1.1789 -0.8187 -1.1348
 2999SOL    HW220631   0.795   1.367  15.150 -0.1236  1.0199 -0.1935
 3000SOL     OW20632   3.778   1.140   7.064  0.5300 -0.2968  0.1143
 3000SOL    HW120633   3.709   1.082   7.094 -0.5036 -0.7527 -3.1400
 3000SOL    HW220634   3.828   1.149   7.145  2.5543 -1.3148 -1.0220
 3001SOL     OW20635   3.379   0.504   6.155  0.0086 -0.0107 -0.8901
 3001SOL    HW120636   3.394   0.584   6.207  1.3902 -0.8278 -0.0548
 3001SOL    HW220637   3.438   0.505   6.080 -0.9018 -2.3137 -1.6089
 3002SOL     OW20638   4.287   4.073   9.178 -0.2865 -0.6569  0.0546
 3002SOL    HW120639   4.324   4.140   9.236 -0.0140 -0.5591 -0.2327
 3002SOL    HW220640   4.247   4.123   9.107 -0.3983  2.2316  2.1414
 3003SOL     OW20641   1.639   0.042  10.904 -0.3732 -0.4935 -0.0194
 3003SOL    HW120642   1.610   0.064  10.816  0.3821 -0.0938 -0.1684
 3003SOL    HW220643   1.673   0.124  10.942  1.6093 -1.4709  0.3125
 3004SOL     OW20644   0.524   4.680   4.921 -0.6876  0.9636 -0.0445
 3004SOL    HW120645   0.502   0.031   4.901  0.6734  1.6282  1.5207
 3004SOL    HW220646   0.459   4.627   4.875  1.5332 -1.0244 -0.9299
 3005SOL     OW20647   4.620   0.200   0.997 -0.6281 -0.0435 -0.4024
 3005SOL    HW120648   4.553   0.221   1.062  0.7627 -0.0247  1.0334
 3005SOL    HW220649   4.686   0.176   1.062 -0.6220 -1.7059 -1.0197
 3006SOL     OW20650   0.156   2.807   5.746 -0.0218 -0.1263 -0.6590
 3006SOL    HW120651   0.192   2.829   5.832  0.2320  2.0365 -1.3080
 3006SOL    HW220652   0.242   2.811   5.705  0.4307 -1.3646  0.1878
 3007SOL     OW20653   1.499   0.623   7.607 -0.4858  0.0890 -0.6601
 3007SOL    HW120654   1.560   0.679   7.655  1.4791 -2.2569 -0.4017
 3007SOL    HW220655   1.482   0.553   7.670  1.8266 -1.7677 -2.1149
 3008SOL     OW20656   2.999   2.102   7.291 -0.2310 -0.3882 -0.4067
 3008SOL    HW120657   3.083   2.132   7.256  0.2155 -1.0181  0.1338
 3008SOL    HW220658   2.960   2.184   7.323  2.6209  0.3792  1.0994
 3009SOL     OW20659   3.406   2.239   7.368  0.6442 -0.4960 -0.0769
 3009SOL    HW120660   3.347   2.187   7.312  2.6791 -1.0631 -1.6592
 3009SOL    HW220661   3.342   2.276   7.429 -0.1128 -1.1737 -0.4597
 3010SOL     OW20662   3.189   0.495   9.398  0.5528 -0.0041  0.4370
 3010SOL    HW120663   3.212   0.527   9.485 -0.4254 -1.7265  1.3349
 3010SOL    HW220664   3.124   0.426   9.410 -1.6297  2.0485  0.3547
 3011SOL     OW20665   0.846   4.051   5.780 -0.2732  0.3963 -0.3932
 3011SOL    HW120666   0.884   4.011   5.858  0.3705  0.3128 -0.7506
 3011SOL    HW220667   0.870   4.139   5.809  3.1121 -0.3672 -0.8271
 3012SOL     OW20668   4.620   0.376   2.531  0.2338 -0.2054 -0.0925
 3012SOL    HW120669   4.585   0.332   2.609 -0.3189  0.8072  0.2299
 3012SOL    HW220670   4.544   0.404   2.480  0.7417  1.3788  0.0220
 3013SOL     OW20671   1.033   0.059   9.993  0.0403 -0.3412  0.3663
 3013SOL    HW120672   1.107   0.009  10.028 -1.1007 -2.3655 -0.1241
 3013SOL    HW220673   1.008   0.116  10.066 -0.5113  0.4598 -0.4411
 3014SOL     OW20674   2.897   4.369   3.180 -0.0759  0.4675  0.2639
 3014SOL    HW120675   2.937   4.395   3.098  0.9181 -2.3320 -0.1638
 3014SOL    HW220676   2.806   4.392   3.162  0.2722  2.1518  0.7417
 3015SOL     OW20677   4.736   1.576   5.690 -0.2406 -0.1549  0.2834
 3015SOL    HW120678   4.663   1.588   5.630 -1.0337 -1.8520  0.9060
 3015SOL    HW220679   0.048   1.654   5.668 -1.1899  0.8144  1.4519
 3016SOL     OW20680   0.604   2.374   3.009 -0.0824 -0.0661  0.2060
 3016SOL    HW120681   0.678   2.435   3.017  0.9939 -1.4299  0.6284
 3016SOL    HW220682   0.652   2.294   2.986  2.0332  1.0459  0.7097
 3017SOL     OW20683   3.123   3.716   1.117  0.5016 -0.6606  0.3164
 3017SOL    HW120684   3.036   3.675   1.117  1.5256 -2.8567  0.2200
 3017SOL    HW220685   3.133   3.735   1.210 -1.1640 -1.3267  0.6314
 3018SOL     OW20686   4.253   3.652   7.042 -0.1012  0.5551  0.1731
 3018SOL    HW120687   4.309   3.576   7.029 -0.3055  0.4183  0.0862
 3018SOL    HW220688   4.167   3.610   7.048  0.2982 -0.1202  1.0993
 3019SOL     OW20689   0.418   3.962   4.647  0.0581 -0.6446 -0.0730
 3019SOL    HW120690   0.477   4.023   4.692 -1.8880 -0.1428  1.8163
 3019SOL    HW220691   0.413   3.889   4.709 -0.7324 -0.2884  0.2940
 3020SOL     OW20692   2.186   0.142   0.816  0.3139 -0.5841 -0.1512
 3020SOL    HW120693   2.110   0.164   0.870 -0.0296 -0.7434 -0.5718
 3020SOL    HW220694   2.157   0.069   0.760 -2.7234 -2.6925  4.1718
 3021SOL     OW20695   1.783   2.043   2.030  0.1375 -0.0282 -0.7287
 3021SOL    HW120696   1.700   2.047   2.076  0.8735 -3.7245  0.9393
 3021SOL    HW220697   1.826   1.971   2.075  0.7272  1.7363  1.5129
 3022SOL     OW20698   2.956   2.835   8.026 -0.3281 -0.2466 -0.4446
 3022SOL    HW120699   2.934   2.762   7.969  0.0381 -0.0424 -0.8437
 3022SOL    HW220700   2.870   2.863   8.059  0.2513 -0.4543  1.2495
 3023SOL     OW20701   2.265   4.195   9.058  0.3076  0.2202  0.2505
 3023SOL    HW120702   2.350   4.174   9.020 -0.2619 -1.6723  0.0586
 3023SOL    HW220703   2.298   4.266   9.114 -0.1642  1.3038 -0.8388
 3024SOL     OW20704   4.616   0.479  17.711  0.3714 -0.4673  0.0488
 3024SOL    HW120705   4.702   0.513  17.735 -0.6542  1.9224  0.3797
 3024SOL    HW220706   4.590   0.447   0.039  0.9900  1.6273  1.0023
 3025SOL     OW20707   0.079   2.330   3.592  0.0615 -0.0330 -0.1709
 3025SOL    HW120708   0.057   2.293   3.507 -1.8630 -1.4195  0.9129
 3025SOL    HW220709   0.072   2.251   3.645  2.9916  1.8351  2.9942
 3026SOL     OW20710   1.035   4.586   6.692  0.2295 -0.2580 -0.0647
 3026SOL    HW120711   1.118   4.633   6.692  1.1823 -1.9717  1.4234
 3026SOL    HW220712   1.060   4.501   6.658  0.5829 -0.6181  1.0987
 3027SOL     OW20713   3.338   0.592  16.229 -0.2992  0.0740 -0.3971
 3027SOL    HW120714   3.249   0.607  16.260 -0.0206 -0.2260  0.5629
 3027SOL    HW220715   3.344   0.498  16.243  0.3137 -0.0826 -1.6947
 3028SOL     OW20716   2.890   0.122   8.277 -0.1700 -0.1834 -0.7204
 3028SOL    HW120717   2.894   0.060   8.349 -0.1724  0.1302 -0.4511
 3028SOL    HW220718   2.868   0.071   8.199 -1.3985 -2.3999  1.0837
 3029SOL     OW20719   3.527   3.540   6.534  0.2761  0.0411 -0.0485
 3029SOL    HW120720   3.570   3.502   6.457  0.6201  1.6373 -0.6463
 3029SOL    HW220721   3.501   3.458   6.576  0.9253  0.4067  1.0482
 3030SOL     OW20722   4.487   3.835  10.125 -0.4094  0.0119  0.4932
 3030SOL    HW120723   4.557   3.784  10.167  0.4989  0.5140 -0.4355
 3030SOL    HW220724   4.493   3.786  10.043 -1.4847 -1.6082  1.3718
 3031SOL     OW20725   0.462   1.067  13.933 -0.2287 -0.1272 -0.6848
 3031SOL    HW120726   0.370   1.043  13.946  0.0444 -0.5687  0.4548
 3031SOL    HW220727   0.466   1.094  13.841 -0.3534  0.0093 -0.6510
 3032SOL     OW20728   1.743   4.122   5.124  0.1999 -0.8859  0.0573
 3032SOL    HW120729   1.693   4.042   5.109 -2.5933  0.3503  2.8869
 3032SOL    HW220730   1.673   4.185   5.106  0.7486 -0.5035 -0.7740
 3033SOL     OW20731   3.017   2.109   1.676  0.5563  0.0750 -0.0188
 3033SOL    HW120732   2.954   2.038   1.688  0.0839  0.7028  1.2233
 3033SOL    HW220733   2.999   2.161   1.754 -2.3400 -0.7063 -0.1457
 3034SOL     OW20734   0.310   4.115   9.276  0.2559 -0.3821 -1.0873
 3034SOL    HW120735   0.263   4.032   9.286  0.2972 -0.0334  2.0344
 3034SOL    HW220736   0.379   4.108   9.341  1.0234 -1.5877 -2.0288
 3035SOL     OW20737   3.966   4.628   7.184 -0.2706 -0.7003  0.1836
 3035SOL    HW120738   4.010   4.670   7.110 -0.7525 -2.4148 -1.0859
 3035SOL    HW220739   4.006   4.541   7.180 -0.5929 -0.8452  0.1090
 3036SOL     OW20740   0.108   4.021  10.447 -0.3505 -0.0724 -0.6858
 3036SOL    HW120741   0.059   4.016  10.530  1.0453  3.2128  0.3472
 3036SOL    HW220742   0.081   3.946  10.394 -0.6148 -1.3845  1.3129
 3037SOL     OW20743   3.386   1.527  11.811 -0.1100 -0.2151  0.1931
 3037SOL    HW120744   3.411   1.585  11.883  0.3551 -0.8214  0.5199
 3037SOL    HW220745   3.305   1.493  11.850 -0.2513  0.3480  0.3888
 3038SOL     OW20746   1.094   3.226   6.225  0.6722  0.4900  0.4022
 3038SOL    HW120747   1.127   3.173   6.152  1.0354  2.2092 -0.6887
 3038SOL    HW220748   1.176   3.274   6.241  1.6953 -0.8941 -0.6720
 3039SOL     OW20749   4.586   3.082   8.671  0.0941 -0.6593 -0.8492
 3039SOL    HW120750   4.671   3.066   8.631 -0.6273 -3.7699 -1.1161
 3039SOL    HW220751   4.554   3.146   8.607  0.0678  1.0480  0.8697
 3040SOL     OW20752   0.992   3.061   9.734  0.6588  0.1825  0.6691
 3040SOL    HW120753   1.040   2.990   9.777 -0.7365 -0.3519  1.3528
 3040SOL    HW220754   0.925   3.077   9.801  1.1651  4.2938  0.1881
 3041SOL     OW20755   4.029   0.587   2.164 -0.4512  0.3537 -0.9591
 3041SOL    HW120756   4.041   0.671   2.121 -0.5656  0.8346 -0.0535
 3041SOL    HW220757   4.095   0.537   2.115 -1.6359 -1.6596 -0.5330
 3042SOL     OW20758   0.002   3.667   6.597  0.7612 -0.0151  0.2198
 3042SOL    HW120759   0.011   3.667   6.692 -3.9676 -1.7139  0.6742
 3042SOL    HW220760   0.035   3.755   6.580 -3.3340  0.8820 -3.1342
 3043SOL     OW20761   0.754   0.877  13.289 -0.3378 -0.0462  0.4145
 3043SOL    HW120762   0.748   0.819  13.365  2.0197  0.1568  0.7365
 3043SOL    HW220763   0.756   0.806  13.225 -0.6156 -0.2958  0.6836
 3044SOL     OW20764   0.716   2.896   5.155  0.0908  0.3921 -0.4285
 3044SOL    HW120765   0.660   2.940   5.218  2.1837  0.3832  1.4402
 3044SOL    HW220766   0.799   2.942   5.168  0.0163  0.3095  0.3565
 3045SOL     OW20767   4.261   4.010   5.619  0.1032 -0.0807  0.2673
 3045SOL    HW120768   4.175   3.993   5.658  0.6809 -0.5350  1.3559
 3045SOL    HW220769   4.298   4.074   5.679 -0.8576  1.3248 -0.6375
 3046SOL     OW20770   3.073   2.936   1.325 -0.2301 -0.7731 -0.0158
 3046SOL    HW120771   3.017   2.935   1.247 -2.1092 -1.0674  1.3448
 3046SOL    HW220772   3.108   2.847   1.319 -0.1178 -0.7256 -0.0579
 3047SOL     OW20773   0.471   4.427   1.049  0.0489 -0.3403 -0.0303
 3047SOL    HW120774   0.567   4.430   1.049  0.0735 -0.8326 -2.5122
 3047SOL    HW220775   0.452   4.442   1.142  0.7092 -1.8243  0.3466
 3048SOL     OW20776   1.963   1.123   8.280 -0.1149  0.1408  0.6096
 3048SOL    HW120777   1.868   1.121   8.289 -0.3853 -2.7277 -2.7010
 3048SOL    HW220778   1.971   1.091   8.190  1.0884 -1.3549  1.2475
 3049SOL     OW20779   0.831   0.515   6.217  0.2051  0.3267 -1.0090
 3049SOL    HW120780   0.924   0.515   6.194  0.5361 -3.8352  0.1664
 3049SOL    HW220781   0.812   0.421   6.214  3.5806 -0.4109  0.3678
 3050SOL     OW20782   1.213   3.639   2.654  0.0811  0.4715  0.7325
 3050SOL    HW120783   1.292   3.613   2.700  0.5484  2.0189  0.8190
 3050SOL    HW220784   1.199   3.727   2.689  0.4166  0.8946 -0.1997
 3051SOL     OW20785   1.335   1.539  16.200 -0.1808  0.1537 -0.1080
 3051SOL    HW120786   1.281   1.618  16.189 -0.6185 -0.1680 -0.2528
 3051SOL    HW220787   1.296   1.506  16.281  1.0355 -0.1943  0.3302
 3052SOL     OW20788   3.905   0.204   5.359 -0.0526  0.3129 -0.1834
 3052SOL    HW120789   3.908   0.297   5.383 -1.0267  0.4265 -0.4705
 3052SOL    HW220790   3.812   0.181   5.367 -0.1243  0.4944 -0.4768
 3053SOL     OW20791   1.392   3.049   8.541 -0.2749  0.1397 -0.2613
 3053SOL    HW120792   1.396   2.965   8.586 -0.3265  0.3069  0.0521
 3053SOL    HW220793   1.299   3.066   8.525  0.0423  1.4642 -0.7736
 3054SOL     OW20794   2.026   1.480   6.152  0.2421  0.1759 -0.6035
 3054SOL    HW120795   2.069   1.487   6.066 -0.2547 -2.2392 -1.0245
 3054SOL    HW220796   2.090   1.430   6.202  0.8766  0.9241 -0.6525
 3055SOL     OW20797   4.630   4.483  12.216 -0.5830  0.3735  0.5438
 3055SOL    HW120798   4.582   4.566  12.211  2.2686  1.7616 -3.6858
 3055SOL    HW220799   4.576   4.431  12.276  1.9484 -0.6895  1.9048
 3056SOL     OW20800   0.493   0.787   3.623 -0.1064  0.1736 -0.0082
 3056SOL    HW120801   0.518   0.708   3.575 -0.2776  0.2681 -0.2553
 3056SOL    HW220802   0.485   0.755   3.713 -2.0911  1.0052  0.1118
 3057SOL     OW20803   2.111   2.748  16.380 -0.1432  0.1815  0.4119
 3057SOL    HW120804   2.165   2.806  16.434  1.9726  2.3714 -4.0915
 3057SOL    HW220805   2.169   2.672  16.390  0.3032  0.7209  2.0271
 3058SOL     OW20806   2.695   0.183   6.052  0.5855  0.0217 -0.0482
 3058SOL    HW120807   2.634   0.196   5.979 -0.5672 -2.5656  0.4734
 3058SOL    HW220808   2.683   0.270   6.090  1.0385 -0.3911  1.0393
 3059SOL     OW20809   2.198   4.110   2.909  0.2189 -0.6548 -0.1335
 3059SOL    HW120810   2.245   4.084   2.829  1.2711  1.0455 -0.0527
 3059SOL    HW220811   2.154   4.026   2.921  0.4953 -1.1465 -2.4667
 3060SOL     OW20812   4.494   4.674   8.091  0.3416  0.2758 -0.5927
 3060SOL    HW120813   4.547   4.698   8.167  2.1904  1.7742 -2.3426
 3060SOL    HW220814   4.450   0.019   8.087  1.2931  0.8941  2.5817
 3061SOL     OW20815   0.518   2.503   0.592 -0.4984  0.0510 -0.6610
 3061SOL    HW120816   0.465   2.520   0.515 -1.9146  2.1542  0.7738
 3061SOL    HW220817   0.548   2.416   0.566 -0.6605  0.3925 -1.9751
 3062SOL     OW20818   2.583   2.985  11.223 -0.2659  0.2048 -0.3397
 3062SOL    HW120819   2.627   3.040  11.158 -1.1864  1.3654  0.0139
 3062SOL    HW220820   2.583   3.031  11.307 -0.9023  1.4155 -0.9937
 3063SOL     OW20821   4.190   3.087   2.863 -0.1726 -0.5296  0.7846
 3063SOL    HW120822   4.125   3.018   2.858 -1.1939  0.3917  1.2579
 3063SOL    HW220823   4.263   3.028   2.845  0.2740  0.5157 -0.8957
 3064SOL     OW20824   1.044   0.193  14.922 -0.5846  0.4056 -0.1129
 3064SOL    HW120825   1.052   0.177  14.828 -0.9461  2.0339 -0.4183
 3064SOL    HW220826   0.960   0.239  14.929 -0.1259  1.5763 -2.3470
 3065SOL     OW20827   1.134   0.243   8.684  1.0608  0.2055  0.1236
 3065SOL    HW120828   1.156   0.295   8.607 -0.5844  0.1549 -0.3867
 3065SOL    HW220829   1.040   0.236   8.666  0.4487  1.6488  2.6166
 3066SOL     OW20830   2.097   2.718  13.215  0.0126  0.2305  0.2102
 3066SOL    HW120831   2.040   2.783  13.174  0.1138  0.2563  0.1123
 3066SOL    HW220832   2.046   2.638  13.201  0.2778  0.1887 -0.5039
 3067SOL     OW20833   2.087   2.018   8.058 -0.7247  0.0267  0.2700
 3067SOL    HW120834   2.093   2.027   8.154 -1.4577  2.5755  0.0912
 3067SOL    HW220835   2.096   1.923   8.059  0.3989  0.1369 -0.0048
 3068SOL     OW20836   2.490   4.574  16.096 -0.2829  0.2905  0.5733
 3068SOL    HW120837   2.453   4.657  16.065 -2.9366 -2.2387 -3.0627
 3068SOL    HW220838   2.451   4.563  16.183 -0.3707 -1.4086  0.3148
 3069SOL     OW20839   0.229   1.633   3.650  0.0211 -0.0966  0.5781
 3069SOL    HW120840   0.312   1.620   3.696  1.4903 -1.7950 -2.5156
 3069SOL    HW220841   0.236   1.568   3.580 -0.0732  0.5201 -0.0036
 3070SOL     OW20842   0.490   0.842   1.960 -0.5166 -0.5111 -0.2568
 3070SOL    HW120843   0.513   0.768   2.016  1.0431  1.4132  1.6316
 3070SOL    HW220844   0.554   0.831   1.890 -1.7201  0.1189 -1.4669
 3071SOL     OW20845   2.000   0.584   6.669  0.3069 -0.1992 -0.3629
 3071SOL    HW120846   1.912   0.609   6.639  0.4499  1.1319  0.3305
 3071SOL    HW220847   1.979   0.499   6.708 -1.4348  1.2217  1.7598
 3072SOL     OW20848   3.310   2.799   7.331 -0.1267  0.1739 -0.0885
 3072SOL    HW120849   3.396   2.778   7.295  0.2353  1.3574  0.0789
 3072SOL    HW220850   3.288   2.726   7.388 -1.2864 -1.0680 -2.1305
 3073SOL     OW20851   1.309   2.781   5.772  0.7278  0.7931 -0.0602
 3073SOL    HW120852   1.226   2.781   5.820  0.3950 -0.8881 -0.6248
 3073SOL    HW220853   1.348   2.702   5.810  0.9411  0.8338 -0.1922
 3074SOL     OW20854   4.041   3.631   1.579 -0.4020  0.2905  0.0233
 3074SOL    HW120855   3.965   3.576   1.564  1.3376 -1.9965 -0.3670
 3074SOL    HW220856   4.102   3.561   1.600  0.6390  1.2532  0.2447
 3075SOL     OW20857   0.496   3.506   4.046  0.2666 -0.0718 -0.0493
 3075SOL    HW120858   0.470   3.541   3.961  3.7014 -0.0888 -1.1018
 3075SOL    HW220859   0.477   3.413   4.035 -2.3519  0.2826  1.5817
 3076SOL     OW20860   3.966   3.482   3.156  0.3923 -0.3576 -0.0291
 3076SOL    HW120861   4.046   3.439   3.126  1.3817  0.5914  1.3071
 3076SOL    HW220862   3.944   3.420   3.226  1.8391  1.8029  2.3112
 3077SOL     OW20863   3.980   1.565  11.231  0.5452 -0.2453  0.1006
 3077SOL    HW120864   3.902   1.509  11.233  0.7269 -0.4816  0.6569
 3077SOL    HW220865   3.970   1.583  11.325 -0.6819 -1.1976  0.1579
 3078SOL     OW20866   2.602   2.433   5.171  0.5439  0.6727 -0.2404
 3078SOL    HW120867   2.551   2.354   5.152  0.2679  0.8270 -0.1347
 3078SOL    HW220868   2.630   2.416   5.261 -0.0101 -0.9113 -0.3623
 3079SOL     OW20869   0.836   3.372  14.082 -0.0611  0.1132  0.0486
 3079SOL    HW120870   0.900   3.443  14.080 -0.3670  0.3465 -2.2013
 3079SOL    HW220871   0.752   3.416  14.086 -0.4034 -0.7250  1.8940
 3080SOL     OW20872   3.585   3.714   6.067 -0.3093 -0.3217 -0.4517
 3080SOL    HW120873   3.501   3.758   6.072  1.7075  3.4318  0.2161
 3080SOL    HW220874   3.615   3.724   6.158 -1.0202  1.3707 -0.4064
 3081SOL     OW20875   4.672   1.799   0.172 -0.0269  0.2650  0.2223
 3081SOL    HW120876   4.612   1.746   0.227 -2.4847  1.3649 -1.3923
 3081SOL    HW220877   0.020   1.773   0.197  0.2792  2.4034  1.3345
 3082SOL     OW20878   3.323   1.851  12.159 -0.4342 -0.5736  0.0038
 3082SOL    HW120879   3.410   1.858  12.198 -1.0361  1.1711  1.0387
 3082SOL    HW220880   3.287   1.936  12.185  0.5605  0.1609 -0.9963
 3083SOL     OW20881   3.369   3.309   5.899 -0.4851  0.2715  0.3080
 3083SOL    HW120882   3.348   3.277   5.986  0.9250  0.4563  0.7236
 3083SOL    HW220883   3.291   3.364   5.890  1.6817  3.1158 -1.2241
 3084SOL     OW20884   4.012   4.013   2.130  0.1215  0.2242 -0.1960
 3084SOL    HW120885   4.066   3.952   2.080 -0.0149  0.5344 -0.7232
 3084SOL    HW220886   3.948   4.032   2.062  0.0452  0.5394 -0.0390
 3085SOL     OW20887   1.603   1.358  10.831  0.1658 -0.5490 -0.5655
 3085SOL    HW120888   1.643   1.340  10.917  2.2585 -1.3122 -1.7048
 3085SOL    HW220889   1.530   1.297  10.836 -1.5463  1.6793  1.6423
 3086SOL     OW20890   1.545   0.669   2.224 -0.3370  0.1126  0.1910
 3086SOL    HW120891   1.634   0.646   2.197 -0.5680 -0.9345  0.3362
 3086SOL    HW220892   1.511   0.704   2.142  0.0795 -1.2271 -0.5418
 3087SOL     OW20893   2.595   3.054  12.103 -0.0816  0.0560  0.0788
 3087SOL    HW120894   2.557   2.966  12.109  0.6303 -0.2671 -0.1284
 3087SOL    HW220895   2.685   3.034  12.128  0.6120 -2.3938 -4.3452
 3088SOL     OW20896   4.548   0.507   3.156 -0.5324 -0.4039  0.2919
 3088SOL    HW120897   4.518   0.595   3.131  0.8843  0.0346  0.1329
 3088SOL    HW220898   4.562   0.472   3.068  1.2626 -0.3459  0.5597
 3089SOL     OW20899   1.313   3.687   5.364  0.2709 -0.3759  0.0143
 3089SOL    HW120900   1.342   3.778   5.371 -0.1174 -0.0978 -1.8704
 3089SOL    HW220901   1.223   3.700   5.392  0.2135  0.4944 -0.5936
 3090SOL     OW20902   0.796   0.892   8.811  0.2320  0.6190  0.3544
 3090SOL    HW120903   0.851   0.814   8.816  0.3001  0.5091 -1.9176
 3090SOL    HW220904   0.820   0.944   8.887 -0.3642  1.2254  0.1341
 3091SOL     OW20905   1.479   1.966  10.721 -0.6433 -0.4909  0.1723
 3091SOL    HW120906   1.575   1.956  10.720 -0.8000 -1.9869 -0.0791
 3091SOL    HW220907   1.457   2.057  10.706  0.4924  0.0185  1.5381
 3092SOL     OW20908   2.641   1.870   0.990  0.0213  0.0516  0.1984
 3092SOL    HW120909   2.550   1.870   1.020 -0.3297 -0.0548 -0.8695
 3092SOL    HW220910   2.622   1.902   0.902  0.0881 -2.1612 -0.6180
 3093SOL     OW20911   1.632   3.555  15.823 -0.5377 -0.4401  0.0317
 3093SOL    HW120912   1.592   3.550  15.736  4.0804 -0.1223 -2.0782
 3093SOL    HW220913   1.677   3.638  15.818  0.1479 -0.7906  0.4326
 3094SOL     OW20914   0.090   0.733   6.701  0.0922  0.1843  0.0533
 3094SOL    HW120915   0.059   0.797   6.764 -2.2133 -0.2835 -0.6070
 3094SOL    HW220916   0.183   0.733   6.722  0.2156  2.0163 -0.5076
 3095SOL     OW20917   4.458   3.491   2.745  0.0453  0.8906 -0.0384
 3095SOL    HW120918   4.396   3.555   2.781 -2.5373 -0.1633 -2.6327
 3095SOL    HW220919   4.402   3.415   2.726  0.6587  0.2554  0.6990
 3096SOL     OW20920   2.930   1.040   6.307 -0.1458  0.1742  0.6227
 3096SOL    HW120921   2.880   1.097   6.365  1.2710  0.8843  1.1305
 3096SOL    HW220922   2.877   0.962   6.324 -1.6065  0.9757 -0.2025
 3097SOL     OW20923   3.110   4.508  11.993 -0.1194  0.1433  0.5209
 3097SOL    HW120924   3.095   4.601  12.010  0.3336  0.1522  0.8910
 3097SOL    HW220925   3.099   4.513  11.898  1.8992 -0.1149  0.2665
 3098SOL     OW20926   0.718   2.319  12.653  0.2334 -0.4555  0.2198
 3098SOL    HW120927   0.787   2.375  12.618  2.0583 -2.9519 -0.1639
 3098SOL    HW220928   0.768   2.246  12.688 -0.2517 -1.9568 -2.2075
 3099SOL     OW20929   4.201   3.840   2.832 -0.0621  0.3183  0.1180
 3099SOL    HW120930   4.212   3.752   2.866 -0.6592 -0.0655 -0.6836
 3099SOL    HW220931   4.274   3.888   2.873 -0.0436  0.3233  0.0796
 3100SOL     OW20932   2.387   2.531   4.574  0.1068 -0.0501  0.0873
 3100SOL    HW120933   2.326   2.461   4.550 -0.3171  0.9248 -1.6820
 3100SOL    HW220934   2.467   2.485   4.598  0.0998  1.0705  2.2395
 3101SOL     OW20935   4.430   3.281   9.251 -0.0888  0.1975  0.0419
 3101SOL    HW120936   4.452   3.286   9.344 -1.7120  0.2820  0.4222
 3101SOL    HW220937   4.444   3.189   9.227 -0.0650 -0.3284  1.9921
 3102SOL     OW20938   4.468   2.728   5.658 -0.3711 -0.1181 -0.5107
 3102SOL    HW120939   4.376   2.732   5.685  0.2693 -1.9992  1.9165
 3102SOL    HW220940   4.455   2.708   5.565  0.6441 -1.2280 -0.4138
 3103SOL     OW20941   2.811   2.122   3.031  0.3441 -0.6204  0.1836
 3103SOL    HW120942   2.731   2.127   2.979 -0.1561  0.2570  1.0389
 3103SOL    HW220943   2.774   2.107   3.118 -0.7702  1.5100  0.0723
 3104SOL     OW20944   3.785   3.716   6.614 -0.4081  0.6142  0.2712
 3104SOL    HW120945   3.815   3.639   6.663  1.2203 -0.0519 -1.7718
 3104SOL    HW220946   3.789   3.682   6.524 -0.7910  1.9143 -0.2343
 3105SOL     OW20947   2.184   1.552  11.544  0.0976  0.0314 -0.3119
 3105SOL    HW120948   2.094   1.582  11.534 -0.3082 -0.9580  0.3422
 3105SOL    HW220949   2.160   1.488  11.612  0.9383 -0.9866 -0.9771
 3106SOL     OW20950   3.621   2.321   8.935 -0.5476 -0.4658 -0.0289
 3106SOL    HW120951   3.650   2.242   8.889  2.0536  0.3649  0.1833
 3106SOL    HW220952   3.704   2.338   8.978 -0.5574 -1.8356  0.5141
 3107SOL     OW20953   3.997   1.307  14.858 -0.2839 -0.2200 -0.4679
 3107SOL    HW120954   3.910   1.293  14.895 -0.7703 -0.3322 -1.6553
 3107SOL    HW220955   4.056   1.259  14.916 -3.0863  0.0533  2.6263
 3108SOL     OW20956   3.547   4.528  16.059  0.2433 -0.6404  0.3858
 3108SOL    HW120957   3.506   4.596  16.006  4.3634  0.5735 -1.2512
 3108SOL    HW220958   3.534   4.564  16.147 -0.0825 -0.2573  0.1807
 3109SOL     OW20959   2.535   0.487   7.709 -0.0508 -0.3424 -0.0673
 3109SOL    HW120960   2.541   0.498   7.804 -0.1459 -4.2399  0.4114
 3109SOL    HW220961   2.581   0.566   7.683  0.4325 -0.3560  0.7417
 3110SOL     OW20962   2.742   3.395  12.183 -0.0226  0.2218 -0.3598
 3110SOL    HW120963   2.747   3.414  12.090  1.0075 -0.5563 -0.4646
 3110SOL    HW220964   2.647   3.389  12.199  0.0883 -1.2950 -0.2115
 3111SOL     OW20965   4.207   1.466   8.123  0.0380 -0.1001 -0.4789
 3111SOL    HW120966   4.137   1.510   8.074 -0.3599  1.6982  1.7128
 3111SOL    HW220967   4.281   1.480   8.063  1.2728 -0.6940  0.9189
 3112SOL     OW20968   3.017   1.454   6.461  0.2118 -0.5808 -0.3820
 3112SOL    HW120969   3.037   1.411   6.378 -1.0650 -0.8904 -0.5225
 3112SOL    HW220970   3.035   1.387   6.527 -0.3658 -1.6748 -1.3374
 3113SOL     OW20971   1.282   2.689   6.775 -0.4411  0.0371 -0.3185
 3113SOL    HW120972   1.374   2.681   6.749 -0.3186  1.3562 -0.2667
 3113SOL    HW220973   1.262   2.778   6.747 -3.6587 -0.8140 -0.7264
 3114SOL     OW20974   1.583   0.064   2.517  0.5932 -0.0549 -0.5012
 3114SOL    HW120975   1.643   0.062   2.592  1.2749 -0.0187 -1.0465
 3114SOL    HW220976   1.494   0.054   2.549 -0.4297 -0.1947 -3.3970
 3115SOL     OW20977   1.349   3.390   3.419  0.1610  0.0936  0.3688
 3115SOL    HW120978   1.260   3.425   3.420  0.0111 -0.2485 -0.4815
 3115SOL    HW220979   1.375   3.457   3.482  1.3530 -0.5608  0.5761
 3116SOL     OW20980   1.163   4.584  14.083 -0.4982 -0.4374 -0.1352
 3116SOL    HW120981   1.251   4.620  14.088 -0.3764 -0.9748  1.8128
 3116SOL    HW220982   1.192   4.496  14.105  1.2967 -0.2582 -1.7912
 3117SOL     OW20983   4.680   0.402   4.425  0.1787  0.0107  0.0206
 3117SOL    HW120984   4.652   0.310   4.422 -0.0836  0.0736  0.4765
 3117SOL    HW220985   4.599   0.452   4.440 -0.1145 -0.2462 -0.7087
 3118SOL     OW20986   4.277   4.670   6.616 -0.2370  0.1067 -0.5350
 3118SOL    HW120987   4.288   4.586   6.661  0.2664  0.1985 -0.4865
 3118SOL    HW220988   4.192   4.662   6.573  0.1936 -1.3645 -1.0903
 3119SOL     OW20989   4.739   3.486   8.070 -0.1940 -0.1193 -0.2180
 3119SOL    HW120990   4.718   3.575   8.097 -1.0872  0.1010 -1.6760
 3119SOL    HW220991   0.094   3.484   8.063 -0.1382  0.7462  0.3148
 3120SOL     OW20992   2.833   3.587  12.446 -0.1942 -0.0079  0.5736
 3120SOL    HW120993   2.797   3.512  12.398  0.9486  0.4960 -1.0637
 3120SOL    HW220994   2.764   3.599  12.510 -0.6514  0.6845 -0.0573
 3121SOL     OW20995   1.778   0.379   1.712  0.3499  0.0288 -0.3479
 3121SOL    HW120996   1.778   0.380   1.616  1.5708  3.3436 -0.3030
 3121SOL    HW220997   1.700   0.430   1.734  0.6672 -0.7321  2.4601
 3122SOL     OW20998   1.498   3.965   7.431  0.0302  0.4411  0.1550
 3122SOL    HW120999   1.439   3.894   7.408  1.3053 -0.5195 -0.1423
 3122SOL    HW221000   1.550   3.975   7.351  0.8284 -0.2587  0.5967
 3123SOL     OW21001   3.204   1.683   4.126  0.0455 -0.0492  0.0181
 3123SOL    HW121002   3.209   1.710   4.218  2.7666 -0.3669 -0.0610
 3123SOL    HW221003   3.297   1.665   4.113  0.5836  2.0675  0.8579
 3124SOL     OW21004   4.348   0.898   4.899  0.6573  0.6012 -0.2794
 3124SOL    HW121005   4.336   0.913   4.992 -0.8923  1.0758 -0.5466
 3124SOL    HW221006   4.424   0.842   4.911  0.7283  0.5696 -0.8500
 3125SOL     OW21007   1.073   0.422   1.962 -0.5199  0.1314  0.0138
 3125SOL    HW121008   1.087   0.328   1.968  1.0035  0.4021  0.6358
 3125SOL    HW221009   1.159   0.463   1.956  0.0784 -1.3740 -1.4047
 3126SOL     OW21010   4.581   1.753   9.672  0.4242 -0.4690  0.5194
 3126SOL    HW121011   4.565   1.692   9.744 -1.1849 -1.0047 -0.3151
 3126SOL    HW221012   4.594   1.696   9.597 -1.8280  0.5379 -0.6299
 3127SOL     OW21013   1.311   3.928   0.577  0.5374  0.4963  0.2109
 3127SOL    HW121014   1.305   4.024   0.579 -0.8741  0.3929  0.8050
 3127SOL    HW221015   1.277   3.903   0.491 -2.4754 -0.8629  1.7853
 3128SOL     OW21016   4.109   4.637  10.286 -0.1768 -0.6017  0.0556
 3128SOL    HW121017   4.183   4.674  10.240  0.4553  1.5801  2.8153
 3128SOL    HW221018   4.138   4.679  10.367 -2.7968  0.5141  0.4335
 3129SOL     OW21019   3.246   2.286   7.585 -0.1853  0.2658  0.2284
 3129SOL    HW121020   3.191   2.208   7.595  2.1288 -1.0021  2.8507
 3129SOL    HW221021   3.198   2.347   7.641 -0.4227 -1.5202  1.9585
 3130SOL     OW21022   4.296   3.833  14.136 -0.6675  0.2712 -0.1376
 3130SOL    HW121023   4.260   3.744  14.132  1.4153 -0.6357  1.0249
 3130SOL    HW221024   4.298   3.846  14.231 -0.6084  1.2056 -0.2741
 3131SOL     OW21025   0.543   3.275   5.172 -0.1356  0.2852  0.1093
 3131SOL    HW121026   0.510   3.348   5.224  1.1098  1.4819 -0.7671
 3131SOL    HW221027   0.543   3.206   5.238  2.1045  1.2242  1.0893
 3132SOL     OW21028   0.811   3.643   5.943  0.1027  0.1378  0.5943
 3132SOL    HW121029   0.794   3.556   5.907  0.0572 -0.5906  2.3843
 3132SOL    HW221030   0.898   3.635   5.982  0.7802  0.1316 -0.9472
 3133SOL     OW21031   3.283   1.317   4.931  0.0309  0.2403  0.2974
 3133SOL    HW121032   3.300   1.411   4.933  0.1375  0.1877  1.7464
 3133SOL    HW221033   3.189   1.317   4.911 -0.3137  0.0422  1.9074
 3134SOL     OW21034   1.975   3.330  15.357  0.2671  0.2277 -0.3798
 3134SOL    HW121035   1.995   3.420  15.383  1.6348 -0.6842  1.7446
 3134SOL    HW221036   2.058   3.317  15.311  0.5940  0.0345  0.2657
 3135SOL     OW21037   1.872   4.584   1.918 -0.3570  0.5481  0.6019
 3135SOL    HW121038   1.968   4.584   1.909 -0.7481 -0.1612 -3.5572
 3135SOL    HW221039   1.860   4.506   1.972 -2.0716 -0.9963 -2.0174
 3136SOL     OW21040   3.301   0.366  16.002 -0.0031  0.1410  0.3969
 3136SOL    HW121041   3.296   0.387  15.909 -0.0621 -2.8937 -0.2866
 3136SOL    HW221042   3.208   0.361  16.027 -0.3132 -0.1642 -0.8079
 3137SOL     OW21043   1.336   2.588  11.258 -0.3290 -0.0721 -0.0237
 3137SOL    HW121044   1.311   2.665  11.310 -3.4619 -0.3605 -1.0707
 3137SOL    HW221045   1.304   2.615  11.172 -0.6483 -0.8962 -0.1723
 3138SOL     OW21046   2.489   3.610  10.303 -0.2499 -0.4798 -0.6675
 3138SOL    HW121047   2.474   3.683  10.363 -1.5016 -1.9652  0.8345
 3138SOL    HW221048   2.575   3.575  10.328  0.4490  0.7986 -1.2525
 3139SOL     OW21049   2.635   4.082   5.012  0.4186 -0.0158 -0.8745
 3139SOL    HW121050   2.604   4.080   4.921 -0.5807 -0.1265 -0.5267
 3139SOL    HW221051   2.644   3.991   5.039  0.9823  0.6196  1.0338
 3140SOL     OW21052   0.265   2.925   6.121 -0.2425 -0.7610  0.1393
 3140SOL    HW121053   0.322   2.948   6.048  1.3302  2.5996  2.4345
 3140SOL    HW221054   0.291   2.980   6.195 -0.5112 -0.2267 -0.1629
 3141SOL     OW21055   2.208   2.183  11.251  0.2708 -0.4995  0.0746
 3141SOL    HW121056   2.180   2.091  11.253  0.7754 -0.6520  0.1232
 3141SOL    HW221057   2.148   2.229  11.191  1.7020  0.4822 -0.5978
 3142SOL     OW21058   3.440   3.218   6.400  0.1412 -0.3659 -0.1828
 3142SOL    HW121059   3.535   3.224   6.387  0.2032 -3.3093 -1.1351
 3142SOL    HW221060   3.420   3.160   6.474 -0.6724  0.8782  0.5721
 3143SOL     OW21061   4.014   2.479   3.006 -0.6956  0.1529  0.1979
 3143SOL    HW121062   3.943   2.420   2.981 -0.7300  0.4156 -0.3343
 3143SOL    HW221063   4.069   2.482   2.927  0.2650  0.0852  0.8652
 3144SOL     OW21064   0.265   3.931  16.057 -0.6791 -0.2773 -0.0472
 3144SOL    HW121065   0.240   3.848  16.016  0.5011  0.3472 -2.0240
 3144SOL    HW221066   0.195   3.942  16.121  0.1382  0.5336  0.6870
 3145SOL     OW21067   3.427   1.075   5.050 -0.3677  0.4406  0.2442
 3145SOL    HW121068   3.471   1.115   5.125  1.1228 -0.4393 -0.1408
 3145SOL    HW221069   3.384   1.141   4.995  1.0573  0.2782 -1.0869
 3146SOL     OW21070   2.218   0.034   3.805  0.2289  0.4677 -0.0930
 3146SOL    HW121071   2.275   0.090   3.752  0.1760  1.8731  1.3361
 3146SOL    HW221072   2.155   4.732   3.747  0.6786  0.7792 -0.8044
 3147SOL     OW21073   1.689   3.922   3.112  0.5675  0.0233 -0.2662
 3147SOL    HW121074   1.783   3.905   3.106  1.0038  1.8931  1.1684
 3147SOL    HW221075   1.693   4.016   3.131 -2.7786 -0.3240  2.0673
 3148SOL     OW21076   2.487   1.275   4.365  0.6553 -0.8067  0.0091
 3148SOL    HW121077   2.577   1.247   4.352  0.8041 -1.5705  2.7361
 3148SOL    HW221078   2.490   1.368   4.387  1.1726 -0.7702 -0.2229
 3149SOL     OW21079   1.636   4.074   6.757 -0.9257 -0.6270 -0.0238
 3149SOL    HW121080   1.702   4.114   6.701  0.4191 -1.7211  0.7728
 3149SOL    HW221081   1.685   4.068   6.840 -0.6117  0.0281 -0.1658
 3150SOL     OW21082   2.625   0.994   3.535 -0.2228  0.3048  0.0257
 3150SOL    HW121083   2.695   0.979   3.472  0.3722 -0.2482  0.8208
 3150SOL    HW221084   2.631   1.089   3.541 -2.2727  0.6102 -2.5511
 3151SOL     OW21085   3.333   0.451  15.717  0.2236 -0.1587 -0.4430
 3151SOL    HW121086   3.366   0.539  15.696 -2.1561  1.3909  2.3610
 3151SOL    HW221087   3.304   0.424  15.630 -0.0855 -2.7886  0.4716
 3152SOL     OW21088   0.361   4.224   3.229  0.0895 -0.1025  0.5048
 3152SOL    HW121089   0.395   4.163   3.294  1.0128 -1.0599 -0.8505
 3152SOL    HW221090   0.446   4.239   3.188  0.1490 -0.1940  0.5963
 3153SOL     OW21091   2.910   4.718  14.422  0.0487 -0.3154 -0.0450
 3153SOL    HW121092   2.844   4.717  14.352 -0.1069 -0.8811  0.1091
 3153SOL    HW221093   2.930   4.626  14.432 -1.9910 -0.6986  0.6156
 3154SOL     OW21094   0.904   2.406   2.087 -0.0003 -0.0759  0.2190
 3154SOL    HW121095   0.871   2.480   2.138 -2.6917 -1.2165  0.1724
 3154SOL    HW221096   0.887   2.433   1.997  1.8874  0.9521  0.1836
 3155SOL     OW21097   0.903   2.128  12.464 -0.4967 -0.0414 -0.7087
 3155SOL    HW121098   0.837   2.083  12.518 -1.6194  0.6110 -1.5251
 3155SOL    HW221099   0.958   2.064  12.419 -0.2328  0.6795 -1.3998
 3156SOL     OW21100   1.722   1.469   1.827 -0.3812  0.0499  0.0171
 3156SOL    HW121101   1.681   1.481   1.742  0.2426  1.6640 -0.0558
 3156SOL    HW221102   1.698   1.547   1.877  0.9777  1.1998 -1.1597
 3157SOL     OW21103   0.512   3.571  17.520 -0.2853  0.0642 -0.6357
 3157SOL    HW121104   0.560   3.653  17.529 -0.8539  0.2283  0.8722
 3157SOL    HW221105   0.554   3.513  17.584 -0.7587 -1.3672 -1.6117
 3158SOL     OW21106   4.662   0.887   7.854 -0.3523 -0.0320 -0.2286
 3158SOL    HW121107   4.633   0.970   7.816 -2.4295 -0.0324  1.3902
 3158SOL    HW221108   4.704   0.843   7.780 -0.3343  1.4600 -1.1138
 3159SOL     OW21109   2.572   0.252   6.975  0.7984 -0.4031  0.5855
 3159SOL    HW121110   2.633   0.302   6.920 -1.0484  0.5025 -0.6427
 3159SOL    HW221111   2.598   0.280   7.063 -1.2681  2.9387  0.1512
 3160SOL     OW21112   1.407   4.082   3.568 -0.4579  0.1886  0.1276
 3160SOL    HW121113   1.351   4.115   3.638  1.1449 -0.9753  1.9633
 3160SOL    HW221114   1.384   4.136   3.493 -0.1680 -0.3497 -0.3478
 3161SOL     OW21115   0.589   2.828  11.694  0.1817  0.3970 -0.6584
 3161SOL    HW121116   0.533   2.813  11.770 -0.2972  0.7570 -0.9449
 3161SOL    HW221117   0.668   2.827  11.748  0.6967 -2.0672 -1.4431
 3162SOL     OW21118   3.846   2.006   7.298 -0.2917 -0.0560  0.1506
 3162SOL    HW121119   3.765   2.008   7.247  0.0036 -2.5152 -0.4427
 3162SOL    HW221120   3.814   1.973   7.382  1.5999  2.7695  1.9586
 3163SOL     OW21121   3.762   3.429   2.329  0.1219 -0.3805 -0.5976
 3163SOL    HW121122   3.711   3.509   2.339  0.6176 -0.2170  0.6887
 3163SOL    HW221123   3.833   3.459   2.273  0.2476 -0.1443 -0.3131
 3164SOL     OW21124   0.949   3.858   9.030  0.4540 -0.8972  0.1157
 3164SOL    HW121125   0.993   3.865   9.114 -0.4262 -0.4373  0.5423
 3164SOL    HW221126   1.002   3.909   8.969 -0.0345  0.1459  0.5681
 3165SOL     OW21127   0.277   1.544  14.759 -0.2947 -0.3339 -0.1624
 3165SOL    HW121128   0.330   1.529  14.680 -1.2353 -0.7470 -0.7126
 3165SOL    HW221129   0.291   1.637  14.780  0.6071 -0.0595 -1.9031
 3166SOL     OW21130   0.288   1.032  17.409  0.3001  0.0165 -0.0148
 3166SOL    HW121131   0.296   1.121  17.442  0.8863  0.0205 -0.1711
 3166SOL    HW221132   0.311   1.040  17.316  1.5260 -3.5391 -0.0118
 3167SOL     OW21133   3.800   2.171   6.921 -0.0403 -0.5463 -0.6091
 3167SOL    HW121134   3.821   2.078   6.921 -0.8455 -0.7283 -0.4792
 3167SOL    HW221135   3.867   2.196   6.986 -1.7128  3.5180 -0.4449
 3168SOL     OW21136   1.334   2.617  13.108  0.2873  0.0294 -0.3960
 3168SOL    HW121137   1.297   2.658  13.187 -2.1934  1.0798 -2.0869
 3168SOL    HW221138   1.385   2.551  13.154 -1.7446  0.5272  2.6159
 3169SOL     OW21139   1.788   4.375   9.839 -0.0761  0.4181 -0.1421
 3169SOL    HW121140   1.816   4.436   9.770 -0.3117  1.1172  0.3866
 3169SOL    HW221141   1.711   4.362   9.784  0.2067 -0.1056 -0.4087
 3170SOL     OW21142   3.485   3.032  17.051 -0.0993 -0.0426  0.2086
 3170SOL    HW121143   3.485   3.072  17.139 -0.3243  0.4593 -0.0182
 3170SOL    HW221144   3.559   3.080  17.014 -0.8891  0.0562 -1.2157
 3171SOL     OW21145   1.984   0.028  14.553  0.0930  0.7858  0.2864
 3171SOL    HW121146   2.018   4.731  14.472 -0.5576  1.2846 -0.2102
 3171SOL    HW221147   2.059   0.044  14.610  0.3899  0.9424 -0.1501
 3172SOL     OW21148   3.549   4.330   3.603  0.5735 -0.1370 -0.0107
 3172SOL    HW121149   3.539   4.247   3.650 -0.7350 -1.5090 -2.6481
 3172SOL    HW221150   3.468   4.378   3.622 -0.0433 -2.1943  2.4307
 3173SOL     OW21151   1.068   4.504  16.402  0.0370 -0.0162  0.3050
 3173SOL    HW121152   1.113   4.558  16.466  0.9428 -0.4418  0.0315
 3173SOL    HW221153   1.051   4.571  16.335  0.1501 -0.9079 -0.6242
 3174SOL     OW21154   1.339   1.835   8.103  0.4023 -0.1305  0.5417
 3174SOL    HW121155   1.382   1.751   8.118  1.0220  0.4954  2.1802
 3174SOL    HW221156   1.368   1.848   8.012  0.2106 -1.8266  0.2362
 3175SOL     OW21157   4.046   3.082  17.012  0.2419 -0.5111  0.6875
 3175SOL    HW121158   3.985   3.028  17.062 -1.3055  1.1344  0.5854
 3175SOL    HW221159   4.015   3.173  17.005  2.5210  0.2197 -0.2408
 3176SOL     OW21160   0.402   0.221   7.342 -0.2460  0.1443 -0.2173
 3176SOL    HW121161   0.338   0.278   7.300  1.6968  1.0070 -1.9461
 3176SOL    HW221162   0.353   0.139   7.351  0.8033 -0.5095 -0.4624
 3177SOL     OW21163   0.888   2.325  10.885  0.0637  0.0161 -0.3886
 3177SOL    HW121164   0.890   2.402  10.941  0.7188 -1.6273  1.8610
 3177SOL    HW221165   0.933   2.363  10.810 -0.0259 -2.4711 -1.7021
 3178SOL     OW21166   1.716   0.720  10.620 -0.3972 -0.3813  0.0732
 3178SOL    HW121167   1.664   0.744  10.697 -1.5690 -1.1431 -0.4959
 3178SOL    HW221168   1.758   0.644  10.659  2.0074 -0.2605 -2.2809
 3179SOL     OW21169   2.533   2.034   4.739 -0.2021  0.7821 -0.3961
 3179SOL    HW121170   2.526   2.044   4.834  2.1541 -1.4339  0.0277
 3179SOL    HW221171   2.543   2.124   4.710  0.3641  0.9826  0.4180
 3180SOL     OW21172   1.256   4.616  16.603 -0.0073 -0.1930 -0.2152
 3180SOL    HW121173   1.346   4.621  16.636 -0.3598 -1.9282  0.9824
 3180SOL    HW221174   1.211   4.586  16.681  1.0340 -1.6215 -0.1552
 3181SOL     OW21175   0.363   0.248  15.952  0.3706 -0.1566 -0.2128
 3181SOL    HW121176   0.427   0.251  15.881  0.3826  1.3770 -0.1363
 3181SOL    HW221177   0.390   0.328  15.997  0.3158 -0.8869  1.1420
 3182SOL     OW21178   2.018   1.093   4.565 -0.4166  0.1737 -0.5019
 3182SOL    HW121179   2.014   1.005   4.603 -0.4029  1.2075  1.8812
 3182SOL    HW221180   1.989   1.145   4.640  1.6352 -1.4514  1.4265
 3183SOL     OW21181   2.448   2.264   7.112  0.1606  0.1225  0.2280
 3183SOL    HW121182   2.420   2.208   7.185 -0.7230  1.8065  1.1670
 3183SOL    HW221183   2.379   2.329   7.124  0.4867  0.7060 -1.0084
 3184SOL     OW21184   4.031   1.302   6.787  0.2290  0.5727  0.0440
 3184SOL    HW121185   3.981   1.344   6.857  0.6689 -0.5472  1.0336
 3184SOL    HW221186   3.975   1.295   6.710 -0.7884 -3.1499  1.1024
 3185SOL     OW21187   1.922   4.648   6.305 -0.1699  0.4682  0.2534
 3185SOL    HW121188   1.996   4.700   6.337 -0.2606  1.2335 -0.7870
 3185SOL    HW221189   1.878   4.607   6.379 -0.9038 -1.2694 -1.1407
 3186SOL     OW21190   4.648   2.314   4.921 -0.1290 -0.2002 -0.2557
 3186SOL    HW121191   4.671   2.406   4.937  0.9741 -0.5906  0.3721
 3186SOL    HW221192   4.564   2.312   4.968 -0.0345 -0.2883 -0.0927
 3187SOL     OW21193   1.097   1.828   7.461  0.4686  0.3341 -0.3933
 3187SOL    HW121194   1.139   1.775   7.528  0.0247 -1.8227 -1.8426
 3187SOL    HW221195   1.166   1.890   7.436 -0.1003  1.2520  0.3048
 3188SOL     OW21196   2.274   0.025   4.053 -0.6723  0.5339  0.1014
 3188SOL    HW121197   2.182   0.032   4.079 -1.1986 -0.4722 -1.4901
 3188SOL    HW221198   2.269   0.022   3.957 -1.3933  2.1024  0.0918
 3189SOL     OW21199   0.622   4.256  16.339  0.6415 -0.3356 -0.1437
 3189SOL    HW121200   0.671   4.174  16.348  0.4573 -0.4910 -0.5955
 3189SOL    HW221201   0.676   4.286  16.266  0.3328  1.5000  0.3712
 3190SOL     OW21202   4.030   1.698   7.731  0.4217 -0.4258  0.4025
 3190SOL    HW121203   3.942   1.690   7.692 -0.1023  0.7776  1.3358
 3190SOL    HW221204   4.071   1.760   7.670 -0.4351 -2.4260 -2.2354
 3191SOL     OW21205   2.993   2.228   1.912 -0.1667 -0.1371  0.1476
 3191SOL    HW121206   3.078   2.206   1.950  0.1711  0.2410 -0.3846
 3191SOL    HW221207   2.931   2.202   1.980  0.5549 -2.7162 -0.2008
 3192SOL     OW21208   3.758   1.433   3.137  0.2878  0.8317  0.0418
 3192SOL    HW121209   3.840   1.469   3.101  1.2032 -0.6298  0.6957
 3192SOL    HW221210   3.716   1.511   3.173 -2.2193 -0.3426 -0.4086
 3193SOL     OW21211   0.038   2.710   6.284 -0.0950  0.3813 -0.4682
 3193SOL    HW121212   4.701   2.741   6.331 -1.4714 -0.4374 -2.1815
 3193SOL    HW221213   0.097   2.783   6.299  1.1511 -0.8925  0.8809
 3194SOL     OW21214   3.435   1.076  15.189  0.2000 -0.3000  0.1111
 3194SOL    HW121215   3.388   1.113  15.264  3.5614  1.4480  1.3514
 3194SOL    HW221216   3.525   1.103  15.205 -0.1976  2.1656 -1.7693
 3195SOL     OW21217   0.793   2.639  14.758 -0.3747 -0.5366 -0.3432
 3195SOL    HW121218   0.725   2.687  14.805 -1.2822 -0.7355 -1.4480
 3195SOL    HW221219   0.747   2.617  14.677 -1.6049  2.0767 -0.3802
 3196SOL     OW21220   1.640   3.531   7.984 -0.0415  0.3170 -0.5479
 3196SOL    HW121221   1.713   3.587   8.012  0.7022 -0.2512 -1.3896
 3196SOL    HW221222   1.577   3.542   8.055  0.5133 -1.2874  0.1779
 3197SOL     OW21223   0.285   0.939   6.658 -0.0354  0.0882 -0.0749
 3197SOL    HW121224   0.238   0.946   6.575 -1.8141  0.1415  0.9485
 3197SOL    HW221225   0.258   1.021   6.698  1.4641  0.5840 -0.0532
 3198SOL     OW21226   2.457   4.445   6.250  0.1326 -0.2938  0.1934
 3198SOL    HW121227   2.396   4.516   6.268 -1.1956 -1.4360  0.2265
 3198SOL    HW221228   2.477   4.464   6.158  1.1418  2.8109  1.0542
 3199SOL     OW21229   1.234   1.815  11.898 -0.7181 -0.0196  0.1648
 3199SOL    HW121230   1.306   1.873  11.874 -1.4170  0.7844 -0.0057
 3199SOL    HW221231   1.171   1.844  11.831  0.1107 -1.4801 -1.2498
 3200SOL     OW21232   2.559   4.303   6.709 -0.3289 -0.3468 -0.0361
 3200SOL    HW121233   2.644   4.347   6.718 -1.7221  2.0229  1.3183
 3200SOL    HW221234   2.499   4.376   6.721  0.5335  0.2126  0.9171
 3201SOL     OW21235   1.514   1.708  11.726 -0.7965 -0.4998 -0.0333
 3201SOL    HW121236   1.421   1.724  11.710 -0.9038 -0.7822  0.3059
 3201SOL    HW221237   1.508   1.667  11.812  1.6975 -0.6761  0.0615
 3202SOL     OW21238   0.807   1.341  16.912 -0.6962 -0.0743  0.0415
 3202SOL    HW121239   0.728   1.385  16.942  0.2635  0.6446  1.4713
 3202SOL    HW221240   0.821   1.267  16.970  0.0246  0.4637  0.5473
 3203SOL     OW21241   2.210   2.096   6.050  0.2789 -0.6832  0.4672
 3203SOL    HW121242   2.267   2.131   5.982 -0.1027  1.9882  1.5125
 3203SOL    HW221243   2.245   2.129   6.133 -1.3637  2.7508 -0.2201
 3204SOL     OW21244   4.257   2.976  17.528  0.5329 -0.4751  0.0321
 3204SOL    HW121245   4.240   3.069  17.515 -0.4448 -0.6095  0.3513
 3204SOL    HW221246   4.263   2.975  17.624  0.9587 -1.0330  0.0002
 3205SOL     OW21247   0.962   0.704   2.137 -0.8459  0.4129 -0.3553
 3205SOL    HW121248   1.057   0.703   2.129 -0.9058 -1.6919 -0.8565
 3205SOL    HW221249   0.937   0.612   2.125  0.5670 -0.0267  0.0507
 3206SOL     OW21250   1.372   3.425   6.563  0.1825 -0.0092  0.3171
 3206SOL    HW121251   1.377   3.517   6.534 -0.6975 -0.0782 -0.0644
 3206SOL    HW221252   1.366   3.445   6.657 -0.9972  0.3417  0.1716
 3207SOL     OW21253   2.158   3.624  14.980  0.2725 -0.0262 -0.4995
 3207SOL    HW121254   2.143   3.644  15.072 -0.6021  0.7798 -0.8232
 3207SOL    HW221255   2.130   3.702  14.932  0.3667 -0.3647 -1.1186
 3208SOL     OW21256   4.512   1.226   3.715  0.0283 -0.1223  0.2484
 3208SOL    HW121257   4.590   1.281   3.720  0.5975 -1.0337  1.4721
 3208SOL    HW221258   4.543   1.138   3.737 -1.2272 -0.9579 -1.3619
 3209SOL     OW21259   4.635   3.373   3.289 -0.2568  0.1033 -0.0994
 3209SOL    HW121260   4.593   3.392   3.372 -1.7202  0.1654 -0.8460
 3209SOL    HW221261   4.570   3.410   3.229  0.5715  1.5786 -0.0789
 3210SOL     OW21262   1.878   1.973  11.431  0.6396 -0.4176 -0.6665
 3210SOL    HW121263   1.894   2.064  11.408  0.3739  0.2467  1.7802
 3210SOL    HW221264   1.798   1.982  11.483  0.4832 -1.2766 -0.7541
 3211SOL     OW21265   4.108   2.408   8.451  0.4562  0.2647 -0.2050
 3211SOL    HW121266   4.163   2.484   8.429  0.8781 -0.4071 -1.5120
 3211SOL    HW221267   4.077   2.381   8.364 -3.5810 -1.1026  1.6926
 3212SOL     OW21268   3.387   1.183   9.249  0.6656 -0.4097 -0.0448
 3212SOL    HW121269   3.300   1.202   9.285  1.2904 -0.4307  1.4461
 3212SOL    HW221270   3.384   1.234   9.168  1.9388 -1.2052 -0.5935
 3213SOL     OW21271   1.050   1.022   1.486  0.4152  0.0325 -0.8624
 3213SOL    HW121272   0.966   1.057   1.516  0.5283  2.1889 -3.0893
 3213SOL    HW221273   1.011   0.992   1.404 -1.2975  0.5498 -0.2223
 3214SOL     OW21274   2.314   2.192   3.016 -0.6027  0.1236 -0.5135
 3214SOL    HW121275   2.277   2.110   2.982 -1.6840 -0.1030  1.2406
 3214SOL    HW221276   2.238   2.249   3.005 -1.9129 -1.3821  0.8198
 3215SOL     OW21277   2.605   4.128   4.388 -0.1348 -0.1672 -0.3543
 3215SOL    HW121278   2.629   4.203   4.442 -1.7666 -0.0287  0.1783
 3215SOL    HW221279   2.536   4.091   4.443  0.7639  0.6699  1.3628
 3216SOL     OW21280   3.041   3.369   4.068 -0.6135 -0.7507  0.0109
 3216SOL    HW121281   3.033   3.419   3.987 -1.3476 -2.0541 -0.7336
 3216SOL    HW221282   2.983   3.298   4.041  1.6230 -2.2569 -0.8003
 3217SOL     OW21283   0.315   3.693   6.527 -0.1958  0.6240  0.0404
 3217SOL    HW121284   0.358   3.719   6.446  0.7719 -1.3555 -0.0834
 3217SOL    HW221285   0.238   3.750   6.525 -0.1192  0.7365  0.3899
 3218SOL     OW21286   4.463   1.206   4.601  0.3619  0.4752  0.0026
 3218SOL    HW121287   4.500   1.237   4.519  0.2799 -1.1876 -0.6736
 3218SOL    HW221288   4.431   1.287   4.640 -0.1472  0.0787  0.4050
 3219SOL     OW21289   4.136   0.273   3.718  0.0335 -0.4377 -0.0351
 3219SOL    HW121290   4.167   0.193   3.676  0.4797 -0.5201  0.4647
 3219SOL    HW221291   4.172   0.263   3.806 -0.2239 -2.1884 -0.1233
 3220SOL     OW21292   1.911   4.032   8.071  0.0418 -0.4840 -0.1798
 3220SOL    HW121293   1.878   4.027   7.981 -0.6029 -1.6600  0.1171
 3220SOL    HW221294   1.828   4.059   8.110 -0.8099 -3.3870  0.0545
 3221SOL     OW21295   3.195   1.463  12.922  0.0735  0.6685 -0.1160
 3221SOL    HW121296   3.224   1.473  12.831  0.8489  2.7436  0.3736
 3221SOL    HW221297   3.273   1.415  12.952 -0.0160  0.9482  0.5475
 3222SOL     OW21298   1.177   0.071   2.290 -0.5357  0.1411  0.0861
 3222SOL    HW121299   1.265   0.045   2.262 -0.6340  1.4092 -1.4414
 3222SOL    HW221300   1.194   0.104   2.378 -1.6466 -0.5454  0.5661
 3223SOL     OW21301   0.327   3.229   4.067  0.6823 -0.4394  1.3274
 3223SOL    HW121302   0.270   3.155   4.044  1.8437 -0.5279 -1.3713
 3223SOL    HW221303   0.295   3.291   4.002  0.9268  1.6844  3.2738
 3224SOL     OW21304   3.799   2.252  10.613 -0.9691 -0.2178  0.9197
 3224SOL    HW121305   3.894   2.263  10.616 -0.7662 -1.7778  0.0122
 3224SOL    HW221306   3.764   2.335  10.579  0.5362  0.5761  1.3501
 3225SOL     OW21307   2.520   4.724   4.127 -0.0742 -0.5094  0.3807
 3225SOL    HW121308   2.432   0.005   4.099  0.3747  3.1025  1.6551
 3225SOL    HW221309   2.561   0.051   4.072  2.0045 -2.4767 -0.4714
 3226SOL     OW21310   2.117   0.868   8.408  0.1045 -0.4958 -0.1882
 3226SOL    HW121311   2.157   0.906   8.486 -0.2524 -2.0944  0.7598
 3226SOL    HW221312   2.041   0.927   8.405 -0.3935 -1.1212  0.2647
 3227SOL     OW21313   0.324   0.527   5.434 -0.0318 -0.1392 -0.3808
 3227SOL    HW121314   0.374   0.593   5.482  1.3509 -1.1748 -0.3905
 3227SOL    HW221315   0.260   0.494   5.498  1.9119 -0.3959  1.4367
 3228SOL     OW21316   1.382   3.693   4.487 -0.1305  0.8166  0.2691
 3228SOL    HW121317   1.299   3.651   4.507  0.1807 -0.7727 -1.7606
 3228SOL    HW221318   1.387   3.756   4.559 -1.0517  2.5890 -1.2370
 3229SOL     OW21319   3.161   3.209   3.723 -0.2468 -0.1841 -0.0932
 3229SOL    HW121320   3.068   3.214   3.742 -0.8370 -3.5623 -2.0641
 3229SOL    HW221321   3.170   3.174   3.634 -0.3389 -0.3401 -0.0411
 3230SOL     OW21322   1.919   3.055  15.386  0.2802  0.4826 -0.2571
 3230SOL    HW121323   1.894   3.035  15.476 -2.0920  3.8455 -0.1501
 3230SOL    HW221324   1.913   3.151  15.387  1.8747  0.5942 -1.6383
 3231SOL     OW21325   0.120   1.332  17.135  0.2800 -0.2059 -0.1639
 3231SOL    HW121326   0.062   1.384  17.191 -0.3224 -2.0683  0.9488
 3231SOL    HW221327   0.084   1.246  17.158  0.5779  0.4161  2.7048
 3232SOL     OW21328   0.701   2.401   2.631  0.1573  0.4290 -0.1086
 3232SOL    HW121329   0.743   2.486   2.642 -0.2907  0.4468  1.4252
 3232SOL    HW221330   0.621   2.420   2.678  1.2468  2.4027  0.9406
 3233SOL     OW21331   0.443   0.501  16.027  0.1708 -0.2414  0.5385
 3233SOL    HW121332   0.362   0.536  16.066  1.6706  3.2733  0.5202
 3233SOL    HW221333   0.440   0.552  15.946 -0.2975  0.5118  1.0216
 3234SOL     OW21334   0.249   4.316   7.189 -0.3661  0.4652  0.0432
 3234SOL    HW121335   0.172   4.344   7.238  0.7231  0.3419  1.8276
 3234SOL    HW221336   0.298   4.256   7.245  1.4432 -0.0811 -2.1447
 3235SOL     OW21337   0.930   2.976   8.205  0.0632  0.0898  0.2759
 3235SOL    HW121338   0.885   2.931   8.134  1.0604 -0.8444  0.2321
 3235SOL    HW221339   0.902   2.923   8.280 -0.5441  0.7240  0.4907
 3236SOL     OW21340   4.252   1.306  13.147  0.2830  0.0452  0.3171
 3236SOL    HW121341   4.165   1.291  13.185 -0.6718  0.1138 -1.8426
 3236SOL    HW221342   4.223   1.376  13.088 -0.9561  0.3130  1.2316
 3237SOL     OW21343   3.798   1.470   4.937  0.2382  0.3316 -1.0887
 3237SOL    HW121344   3.837   1.386   4.962 -0.1374  0.8308  1.2177
 3237SOL    HW221345   3.843   1.526   5.001  1.0309 -0.7175 -0.7364
 3238SOL     OW21346   0.558   1.730  10.426 -0.4050  0.8590 -0.4466
 3238SOL    HW121347   0.577   1.739  10.520 -1.2442 -0.4420 -0.1492
 3238SOL    HW221348   0.466   1.705  10.432 -0.8200  2.3315 -0.8375
 3239SOL     OW21349   1.277   2.929   6.642  0.3196 -0.6858  0.3791
 3239SOL    HW121350   1.261   2.881   6.561 -0.0085 -0.4573  0.3054
 3239SOL    HW221351   1.280   3.018   6.606  2.1215 -0.3484  1.3788
 3240SOL     OW21352   4.046   4.716   5.442 -0.9295 -0.5293  0.1778
 3240SOL    HW121353   3.996   0.057   5.434  0.5312  0.3877  0.4022
 3240SOL    HW221354   4.066   4.716   5.535 -2.4382 -1.7020  0.5246
 3241SOL     OW21355   4.539   3.136   3.982  0.3399  0.0399  0.0498
 3241SOL    HW121356   4.548   3.165   3.891 -0.4085 -0.1978 -0.1003
 3241SOL    HW221357   4.539   3.041   3.967  0.7793  0.1880 -0.8939
 3242SOL     OW21358   1.940   4.379   7.755  0.8603 -0.1007  0.3915
 3242SOL    HW121359   1.981   4.324   7.822  0.8930 -0.7191 -0.1397
 3242SOL    HW221360   1.851   4.393   7.788 -0.0897 -1.4299 -1.6172
 3243SOL     OW21361   4.672   3.877   8.980 -0.2295  0.2286  0.4032
 3243SOL    HW121362   4.600   3.834   9.026 -0.9306  0.8589 -0.0817
 3243SOL    HW221363   4.692   3.815   8.910 -1.6913  0.4122 -0.1784
 3244SOL     OW21364   4.500   2.845   2.305  0.5139  0.3057 -0.0490
 3244SOL    HW121365   4.528   2.891   2.383 -1.8512  1.2623  0.2469
 3244SOL    HW221366   4.578   2.790   2.300  0.8593  0.7895  0.0887
 3245SOL     OW21367   3.364   4.132  12.190  0.2878  0.0500 -0.1164
 3245SOL    HW121368   3.370   4.062  12.255 -1.6194 -0.5402 -0.5743
 3245SOL    HW221369   3.363   4.203  12.255 -3.4849  0.7736 -0.9923
 3246SOL     OW21370   1.490   0.650   8.513  0.2441 -0.0269  0.2102
 3246SOL    HW121371   1.475   0.588   8.442  0.7112  0.6711 -0.5032
 3246SOL    HW221372   1.483   0.738   8.474 -3.4084 -1.6845 -2.7885
 3247SOL     OW21373   2.426   4.661  16.742 -0.3420 -0.0411  0.0508
 3247SOL    HW121374   2.421   0.002  16.692 -0.5436 -2.0536 -3.2498
 3247SOL    HW221375   2.372   4.605  16.686  1.1901 -1.5004  0.0324
 3248SOL     OW21376   2.769   3.230   3.512 -0.4332  0.2890 -0.0361
 3248SOL    HW121377   2.695   3.172   3.532  0.3108 -0.8627 -0.6186
 3248SOL    HW221378   2.752   3.255   3.421  2.0645 -0.1502 -0.6236
 3249SOL     OW21379   2.691   3.328   3.912 -0.4426  0.3187  0.1653
 3249SOL    HW121380   2.764   3.287   3.867 -1.2261  0.1792 -0.9776
 3249SOL    HW221381   2.729   3.357   3.995  1.2444 -0.2745 -0.4081
 3250SOL     OW21382   1.345   4.364   8.487  0.2825  1.0928 -0.0242
 3250SOL    HW121383   1.394   4.412   8.554 -0.8420  2.7285 -0.3920
 3250SOL    HW221384   1.301   4.304   8.548  2.4710  0.9088  1.3814
 3251SOL     OW21385   3.268   1.776  11.912 -0.1181 -0.1863 -0.0704
 3251SOL    HW121386   3.212   1.852  11.926 -0.4772 -0.1523 -1.6254
 3251SOL    HW221387   3.305   1.771  12.000 -0.9717  1.2119  0.3701
 3252SOL     OW21388   2.458   0.518   0.054  0.0046  0.0885 -0.3875
 3252SOL    HW121389   2.452   0.481   0.142  0.7590 -1.6931 -1.0744
 3252SOL    HW221390   2.370   0.515   0.017  0.9692  1.9714 -2.8783
 3253SOL     OW21391   0.386   0.841  15.315 -0.3946  0.1329 -0.0891
 3253SOL    HW121392   0.376   0.776  15.245  2.6378 -1.1210  0.6565
 3253SOL    HW221393   0.294   0.860  15.334 -0.6074  0.3445 -1.3117
 3254SOL     OW21394   4.296   2.168  16.302  0.3728  0.1204  0.1050
 3254SOL    HW121395   4.287   2.237  16.368 -1.7457 -0.0234 -0.0596
 3254SOL    HW221396   4.314   2.232  16.232  1.5812 -0.4161 -0.0897
 3255SOL     OW21397   4.583   3.558  12.650  0.0450  0.3528 -0.1455
 3255SOL    HW121398   4.519   3.544  12.581  2.4506  0.7083 -2.4674
 3255SOL    HW221399   4.642   3.485  12.629  3.0600  2.0017  2.4924
 3256SOL     OW21400   2.745   2.870   0.225 -0.5108  0.0716 -0.7380
 3256SOL    HW121401   2.661   2.907   0.201 -0.8604 -0.1357  0.1870
 3256SOL    HW221402   2.747   2.877   0.320 -0.5993 -2.8444 -0.5166
 3257SOL     OW21403   3.561   0.739   7.632  0.1168  0.2779 -0.3421
 3257SOL    HW121404   3.646   0.752   7.591  0.4296  1.4276  0.6433
 3257SOL    HW221405   3.572   0.666   7.692  1.3431 -0.5818 -1.6306
 3258SOL     OW21406   1.742   1.972   9.712  0.1064  0.3005  0.1662
 3258SOL    HW121407   1.755   1.942   9.802  0.8337  0.1153 -0.0039
 3258SOL    HW221408   1.820   1.934   9.671  1.5938  2.4480  1.0197
 3259SOL     OW21409   3.529   2.232   1.796 -0.0071  0.2942 -0.1783
 3259SOL    HW121410   3.530   2.301   1.862  0.3599  1.1288 -1.0694
 3259SOL    HW221411   3.503   2.282   1.718  0.1695  0.6235 -0.0243
 3260SOL     OW21412   4.527   0.588  10.849 -0.4249 -0.2536 -0.0772
 3260SOL    HW121413   4.454   0.625  10.899 -0.7699 -1.8212  0.5930
 3260SOL    HW221414   4.551   0.657  10.788 -2.9217 -0.2865 -1.0753
 3261SOL     OW21415   4.470   0.093   5.666 -0.1405  0.4480 -0.3680
 3261SOL    HW121416   4.492   0.037   5.741  0.7787 -0.5602 -1.4100
 3261SOL    HW221417   4.542   0.155   5.681  0.8522 -0.2395 -2.3351
 3262SOL     OW21418   1.547   0.513  17.121 -0.5752  0.8193  0.3482
 3262SOL    HW121419   1.630   0.485  17.161  0.4281  1.0308 -1.5924
 3262SOL    HW221420   1.576   0.581  17.060 -0.5719  0.9360  0.4823
 3263SOL     OW21421   3.718   2.518   8.491 -0.3745 -0.2090  0.5852
 3263SOL    HW121422   3.698   2.438   8.539  0.3905  0.1684  1.5194
 3263SOL    HW221423   3.646   2.574   8.520 -1.1399  0.1034 -1.8918
 3264SOL     OW21424   1.114   1.802  12.145 -0.0614 -0.1644 -0.2371
 3264SOL    HW121425   1.172   1.790  12.070  0.7613 -1.0202  0.5318
 3264SOL    HW221426   1.180   1.784  12.212 -0.5786 -0.4834  0.1931
 3265SOL     OW21427   2.989   3.188   3.084  0.1623  0.1125 -0.0705
 3265SOL    HW121428   2.926   3.116   3.083  0.5199 -0.2018  0.4792
 3265SOL    HW221429   3.058   3.155   3.027  1.5624 -0.5919  2.0902
 3266SOL     OW21430   0.853   1.175   3.113  0.2728 -0.0035 -0.3782
 3266SOL    HW121431   0.835   1.166   3.020 -2.1632  4.4139 -0.3417
 3266SOL    HW221432   0.770   1.199   3.155  0.1725  0.9929 -1.1706
 3267SOL     OW21433   1.259   0.178   5.412 -0.2889  0.4220 -0.4481
 3267SOL    HW121434   1.256   0.222   5.327 -1.3866  2.8660  0.8604
 3267SOL    HW221435   1.232   0.261   5.453  0.0720 -1.1584  2.9585
 3268SOL     OW21436   3.379   3.923   2.704 -0.0371  0.8568  0.3111
 3268SOL    HW121437   3.473   3.935   2.691  0.1645  1.7199  2.6142
 3268SOL    HW221438   3.373   3.925   2.800 -0.1270 -0.2666  0.3314
 3269SOL     OW21439   0.454   3.546   4.755 -0.6045 -0.0739  0.1337
 3269SOL    HW121440   0.489   3.518   4.671 -1.0496  1.6649 -0.6167
 3269SOL    HW221441   0.532   3.544   4.810 -1.8471  2.4074  1.9697
 3270SOL     OW21442   0.390   3.457  17.290 -0.2751 -0.0492  0.3743
 3270SOL    HW121443   0.321   3.517  17.263  1.1262  0.3752 -2.2417
 3270SOL    HW221444   0.428   3.505  17.363 -1.4456 -1.2716  1.7906
 3271SOL     OW21445   4.420   3.635   9.066  0.0614  0.5937  0.1844
 3271SOL    HW121446   4.398   3.591   8.984 -2.2061  1.0791  0.5241
 3271SOL    HW221447   4.422   3.724   9.030 -0.8096 -0.4377 -2.3807
 3272SOL     OW21448   1.623   0.707  12.345  0.9456 -0.6419  0.6431
 3272SOL    HW121449   1.533   0.719  12.314  1.0093 -1.2561  0.2144
 3272SOL    HW221450   1.613   0.729  12.438  0.1221 -0.5107  0.5297
 3273SOL     OW21451   0.131   1.485   6.067 -0.3489 -0.7267 -0.3094
 3273SOL    HW121452   0.133   1.572   6.108 -0.8134 -1.1685  0.6371
 3273SOL    HW221453   0.050   1.449   6.102  0.6529 -1.9172  0.8012
 3274SOL     OW21454   2.535   2.513   3.112  0.5513 -0.1180 -0.6364
 3274SOL    HW121455   2.581   2.597   3.121 -1.1176  0.5440  1.6370
 3274SOL    HW221456   2.603   2.473   3.058  1.3866 -0.2360  0.4841
 3275SOL     OW21457   0.811   2.984   7.375 -0.3992  0.4760  0.0202
 3275SOL    HW121458   0.805   3.034   7.293  1.7310 -0.2833 -0.6019
 3275SOL    HW221459   0.903   2.958   7.368 -0.9280 -1.9531  1.9661
 3276SOL     OW21460   1.750   1.500   3.424  0.0721  0.1632 -0.1436
 3276SOL    HW121461   1.791   1.583   3.401 -2.4093  1.4375 -0.0447
 3276SOL    HW221462   1.772   1.448   3.347  0.5784 -0.0839  0.1702
 3277SOL     OW21463   0.632   1.197   2.427 -0.7253  0.5700  0.4878
 3277SOL    HW121464   0.619   1.152   2.344 -0.1276  4.0007 -1.4503
 3277SOL    HW221465   0.544   1.235   2.427 -1.7871 -1.8895 -1.3681
 3278SOL     OW21466   4.406   3.769   6.812 -0.8956 -0.1354 -0.0359
 3278SOL    HW121467   4.391   3.703   6.744 -1.9059  0.4157 -0.3564
 3278SOL    HW221468   4.431   3.721   6.891 -0.6746 -0.2714 -0.1914
 3279SOL     OW21469   0.947   0.000   3.667 -0.3384 -0.9546 -0.0851
 3279SOL    HW121470   0.908   4.659   3.638 -4.5054  0.7519  0.7986
 3279SOL    HW221471   1.014   0.014   3.599  1.6239 -0.4069  1.9462
 3280SOL     OW21472   1.358   0.400  10.021  0.0185  0.0466 -0.0987
 3280SOL    HW121473   1.382   0.326   9.964 -0.4533  1.1851 -1.7896
 3280SOL    HW221474   1.441   0.439  10.047  0.1262  0.2549 -0.7585
 3281SOL     OW21475   3.150   2.761   5.158  0.5397 -0.2016  0.2241
 3281SOL    HW121476   3.122   2.847   5.188 -0.8554 -0.2583 -0.8828
 3281SOL    HW221477   3.129   2.767   5.065 -1.3569  1.2177  0.7565
 3282SOL     OW21478   1.654   1.183   3.976  0.0426 -0.4013  0.0364
 3282SOL    HW121479   1.658   1.144   4.063  2.6754 -0.3778 -0.0827
 3282SOL    HW221480   1.559   1.189   3.972  0.0033 -2.0059 -1.3465
 3283SOL     OW21481   1.287   3.446   7.249  0.1195  0.7771 -0.4966
 3283SOL    HW121482   1.218   3.503   7.217  1.1878  2.1530 -0.3361
 3283SOL    HW221483   1.357   3.459   7.185  0.7534 -2.2364 -0.4248
 3284SOL     OW21484   0.623   2.995   6.194 -0.3449 -0.0110 -0.0380
 3284SOL    HW121485   0.604   2.934   6.124  1.3184 -0.6171  0.0227
 3284SOL    HW221486   0.540   3.028   6.229 -0.2997 -0.7589  0.7670
 3285SOL     OW21487   3.775   0.334   9.423  0.4443 -0.0011 -0.0533
 3285SOL    HW121488   3.731   0.405   9.469 -0.5186 -1.4798  1.3455
 3285SOL    HW221489   3.820   0.387   9.357  0.1508 -0.4950 -0.6450
 3286SOL     OW21490   2.626   0.882   3.158 -0.2184 -0.2636  0.0864
 3286SOL    HW121491   2.627   0.912   3.249 -3.8144  1.3093 -0.3860
 3286SOL    HW221492   2.699   0.821   3.148  0.4184  0.4912  0.1178
 3287SOL     OW21493   1.304   4.130   2.907 -0.2245  0.0786  0.0443
 3287SOL    HW121494   1.323   4.217   2.874 -0.5202  1.1344  2.5994
 3287SOL    HW221495   1.392   4.094   2.905  0.1141  0.9029  0.2597
 3288SOL     OW21496   3.204   2.473   8.263  0.6165  0.2923 -0.2014
 3288SOL    HW121497   3.299   2.472   8.275  0.4929  0.7446  0.7713
 3288SOL    HW221498   3.172   2.386   8.287  0.8226  0.7659  1.8054
 3289SOL     OW21499   1.427   3.746  15.949  0.6326  0.3514  0.0415
 3289SOL    HW121500   1.474   3.674  15.908  0.6781 -0.5466  1.6776
 3289SOL    HW221501   1.466   3.819  15.901 -0.2962  0.5087 -0.4904
 3290SOL     OW21502   3.408   1.460   4.105  0.2533 -0.1079 -0.1342
 3290SOL    HW121503   3.481   1.408   4.137  1.1866  0.5149 -1.2061
 3290SOL    HW221504   3.451   1.541   4.076  0.7287 -0.3927 -0.2266
 3291SOL     OW21505   0.996   1.287   5.251  0.0315 -0.4806  0.0791
 3291SOL    HW121506   0.945   1.212   5.220 -1.2663  0.7906 -0.9256
 3291SOL    HW221507   1.076   1.247   5.283  0.4538 -0.6027 -1.1194
 3292SOL     OW21508   4.702   4.166   4.938 -0.6053 -0.2881 -0.2453
 3292SOL    HW121509   4.606   4.159   4.932 -0.6398  1.9872 -2.2879
 3292SOL    HW221510   4.732   4.107   4.870 -0.2903  1.3112 -1.4737
 3293SOL     OW21511   3.830   0.503   4.314 -0.3302 -0.3511 -1.0169
 3293SOL    HW121512   3.749   0.522   4.361  1.7608  0.5828  2.1543
 3293SOL    HW221513   3.830   0.580   4.257  1.6671 -0.1919 -0.7914
 3294SOL     OW21514   1.963   4.224   3.675 -0.4354 -0.2854 -0.1558
 3294SOL    HW121515   2.055   4.239   3.694 -0.1349 -1.2719 -0.8173
 3294SOL    HW221516   1.969   4.129   3.667  0.7124 -0.4703  3.1176
 3295SOL     OW21517   1.004   0.640   0.978  0.6069 -0.1310 -0.1082
 3295SOL    HW121518   0.970   0.627   1.067  2.6360  2.1040  0.9832
 3295SOL    HW221519   1.073   0.705   0.987  0.6174  0.1279 -2.1812
 3296SOL     OW21520   1.683   4.714   2.777  0.0612  0.6207 -0.0788
 3296SOL    HW121521   1.598   4.689   2.814 -0.1558  0.4611 -0.6839
 3296SOL    HW221522   1.724   0.007   2.857  2.0596 -1.0560 -0.4206
 3297SOL     OW21523   1.854   3.652   5.856 -0.2927 -0.3810  0.0035
 3297SOL    HW121524   1.911   3.664   5.932  1.2722 -0.6374 -1.1335
 3297SOL    HW221525   1.784   3.603   5.899 -0.1232 -0.6038  0.0222
 3298SOL     OW21526   1.056   0.245   2.842  0.6702  0.1122  0.2243
 3298SOL    HW121527   1.047   0.340   2.849  1.2859  0.2622 -0.9729
 3298SOL    HW221528   0.995   0.228   2.770  0.9377 -0.5413  0.1521
 3299SOL     OW21529   0.353   3.638   3.299  0.1820 -0.7254  0.3709
 3299SOL    HW121530   0.259   3.625   3.310 -0.6045  2.2578 -2.9188
 3299SOL    HW221531   0.381   3.690   3.374  0.1699 -1.9851  1.2498
 3300SOL     OW21532   1.185   2.971   0.003  0.0398 -0.5429  0.2106
 3300SOL    HW121533   1.201   3.003  17.672 -1.9222  0.2981  0.1768
 3300SOL    HW221534   1.100   3.011   0.017  0.2060  0.2291 -0.9127
 3301SOL     OW21535   0.671   0.276  17.575 -0.1691 -0.9706  0.2891
 3301SOL    HW121536   0.737   0.217  17.537  0.4415 -0.1616  0.0984
 3301SOL    HW221537   0.688   0.258  17.667 -0.0836  0.5963  0.5776
 3302SOL     OW21538   1.831   2.416   3.252  0.1320 -0.1870 -0.4930
 3302SOL    HW121539   1.741   2.448   3.260 -0.5086 -2.0278 -0.3035
 3302SOL    HW221540   1.827   2.387   3.161  0.8045 -0.4224 -0.4474
 3303SOL     OW21541   1.325   1.161   3.508  0.0032  0.4753 -0.5214
 3303SOL    HW121542   1.300   1.243   3.465 -2.7234  0.3632  0.8246
 3303SOL    HW221543   1.413   1.148   3.475 -0.7317 -1.7956 -1.5558
 3304SOL     OW21544   1.644   0.919   3.367  0.6461  0.2544  0.2647
 3304SOL    HW121545   1.703   0.880   3.302  0.9568 -0.9896  1.2836
 3304SOL    HW221546   1.703   0.984   3.404 -1.1818  0.3563  2.9784
 3305SOL     OW21547   3.550   1.440  15.031  0.3922 -0.3393 -0.2237
 3305SOL    HW121548   3.545   1.534  15.015 -0.6978 -0.2416  0.6615
 3305SOL    HW221549   3.570   1.441  15.125  1.1249 -1.6798 -0.3584
 3306SOL     OW21550   2.159   4.576   1.895  0.0428  0.0418 -0.0134
 3306SOL    HW121551   2.228   4.514   1.916 -0.2387 -0.6658 -1.1739
 3306SOL    HW221552   2.208   4.658   1.890 -1.6586  1.1937  2.0840
 3307SOL     OW21553   3.043   0.274   9.471  0.2227  0.2442  0.2212
 3307SOL    HW121554   3.041   0.247   9.563  2.1269 -2.4454 -0.5103
 3307SOL    HW221555   3.113   0.220   9.433 -0.3238  0.1309 -0.6175
 3308SOL     OW21556   4.316   4.296  15.692  0.0107 -0.6887  0.1387
 3308SOL    HW121557   4.355   4.383  15.693 -3.1423  0.7134  1.8997
 3308SOL    HW221558   4.305   4.277  15.785  0.3210 -1.3601  0.0330
 3309SOL     OW21559   4.569   0.135   7.215 -0.2343 -0.2981  0.0751
 3309SOL    HW121560   4.597   0.129   7.123  1.7063 -0.0422  0.6374
 3309SOL    HW221561   4.617   0.060   7.250 -0.7194  0.6233  2.7170
 3310SOL     OW21562   4.332   0.103   7.929  0.3795 -0.2439  0.2588
 3310SOL    HW121563   4.387   0.179   7.910  0.0002  0.0316  0.2698
 3310SOL    HW221564   4.373   0.031   7.881  0.9522 -0.5019  1.1403
 3311SOL     OW21565   2.400   3.475  11.825 -0.2698  0.4393 -0.1045
 3311SOL    HW121566   2.340   3.507  11.892 -1.4573  2.7764 -2.2972
 3311SOL    HW221567   2.430   3.386  11.842 -0.1635  0.6925  1.0781
 3312SOL     OW21568   4.490   2.821   8.636  0.1534 -0.2724 -0.1420
 3312SOL    HW121569   4.508   2.911   8.665 -4.3452  0.5369  0.1235
 3312SOL    HW221570   4.508   2.772   8.717 -0.4391 -1.4285 -0.7141
 3313SOL     OW21571   0.275   4.545   2.742  0.3258 -0.5726  0.1810
 3313SOL    HW121572   0.256   4.638   2.738 -0.6543 -0.6131  4.1803
 3313SOL    HW221573   0.243   4.500   2.820  0.4141  1.0314  1.1284
 3314SOL     OW21574   3.479   2.267   0.295  0.2098 -0.8212 -0.1343
 3314SOL    HW121575   3.551   2.278   0.232 -1.0236 -0.3090 -1.4525
 3314SOL    HW221576   3.492   2.183   0.340 -1.3139 -0.2609  1.3490
 3315SOL     OW21577   1.660   2.087   5.520 -0.2991  0.0663  0.3382
 3315SOL    HW121578   1.729   2.084   5.585  1.6424  2.2765 -1.6173
 3315SOL    HW221579   1.625   2.176   5.521  1.1226  0.6229 -0.5464
 3316SOL     OW21580   3.302   0.791   6.147  0.0643 -0.2447 -0.3655
 3316SOL    HW121581   3.374   0.837   6.191  0.7065 -0.1670 -1.4825
 3316SOL    HW221582   3.346   0.754   6.070 -0.4026 -1.6700  0.0659
 3317SOL     OW21583   2.186   1.381   9.678  0.3765  0.1656  0.2299
 3317SOL    HW121584   2.281   1.384   9.694 -0.0268  2.0329  2.2914
 3317SOL    HW221585   2.150   1.350   9.761  1.8956 -0.0687  0.8022
 3318SOL     OW21586   4.456   3.579  12.896  0.9268 -0.5574  0.2187
 3318SOL    HW121587   4.485   3.567  12.806  3.0791  1.3018  0.6936
 3318SOL    HW221588   4.499   3.662  12.915  1.4262 -0.8112  0.2040
 3319SOL     OW21589   3.817   1.655  11.468  0.0313 -0.1879 -0.0982
 3319SOL    HW121590   3.811   1.664  11.564  1.6668 -0.8408  0.0684
 3319SOL    HW221591   3.737   1.608  11.444 -1.3063  2.8338 -1.5614
 3320SOL     OW21592   1.628   4.044   6.224  0.2268 -0.2890 -0.1547
 3320SOL    HW121593   1.645   3.978   6.290 -0.5817  0.5263  0.8738
 3320SOL    HW221594   1.717   4.079   6.227  1.2342 -2.7096 -1.7187
 3321SOL     OW21595   4.126   2.423   8.886 -0.5241 -0.0958 -1.0482
 3321SOL    HW121596   4.100   2.356   8.950 -1.6700  0.4000 -0.9940
 3321SOL    HW221597   4.209   2.448   8.926 -0.5523 -0.3905 -0.8013
 3322SOL     OW21598   3.503   2.758   5.941 -0.4106 -0.6605 -0.2283
 3322SOL    HW121599   3.498   2.674   5.987  1.5929  0.5948  2.2495
 3322SOL    HW221600   3.533   2.821   6.006 -0.9533  0.4809 -1.0757
 3323SOL     OW21601   4.426   4.567   6.906  0.9751  0.5640  0.1412
 3323SOL    HW121602   4.376   4.636   6.949  2.0419  0.6528  1.2286
 3323SOL    HW221603   4.428   4.500   6.974  3.2776 -1.8998 -2.3421
 3324SOL     OW21604   2.982   1.960   6.255  0.1049  0.2648  0.5241
 3324SOL    HW121605   2.956   2.005   6.335  2.1413  0.4108  1.1199
 3324SOL    HW221606   3.040   1.893   6.290  0.0767  0.3413  0.7142
 3325SOL     OW21607   1.355   0.984   5.132 -0.2885 -0.2490  0.1528
 3325SOL    HW121608   1.260   0.988   5.126 -0.2953 -0.1988  0.2821
 3325SOL    HW221609   1.385   1.046   5.066 -1.3777  0.3984  0.2716
 3326SOL     OW21610   4.671   3.528   0.572  0.3611 -0.4475  0.5986
 3326SOL    HW121611   4.686   3.451   0.516 -2.2477  0.3945 -1.2563
 3326SOL    HW221612   4.649   3.477   0.650  0.1189 -1.9772 -0.4664
 3327SOL     OW21613   1.977   2.649   5.594 -0.2532  0.2948 -0.0881
 3327SOL    HW121614   2.032   2.710   5.545  0.1825  0.4440  0.5930
 3327SOL    HW221615   1.888   2.679   5.574 -0.6892 -1.5976 -1.0104
 3328SOL     OW21616   1.609   1.328   2.265  0.1373 -0.3582 -0.0793
 3328SOL    HW121617   1.639   1.296   2.180  0.0515 -2.1768  0.5658
 3328SOL    HW221618   1.524   1.369   2.248 -0.1785 -0.0854  2.2072
 3329SOL     OW21619   1.980   4.613   4.105  0.3992 -0.1671  0.1330
 3329SOL    HW121620   2.020   4.586   4.188  1.5021  0.1000 -0.3196
 3329SOL    HW221621   1.942   4.535   4.066  2.2005 -0.1124 -1.6946
 3330SOL     OW21622   2.208   0.486   2.462 -0.2041 -0.1246 -0.2166
 3330SOL    HW121623   2.176   0.443   2.542  0.7049  1.0150  0.7441
 3330SOL    HW221624   2.129   0.490   2.408  0.1662  0.2669 -0.7289
 3331SOL     OW21625   0.110   1.538  16.255 -0.8075 -0.3511  0.0717
 3331SOL    HW121626   0.056   1.600  16.305  1.5192 -0.3943  2.6268
 3331SOL    HW221627   0.186   1.595  16.260 -0.3611 -1.0332  0.9630
 3332SOL     OW21628   2.701   1.194   9.593  0.3927 -0.0729 -0.1329
 3332SOL    HW121629   2.633   1.261   9.601  1.4724  1.2356 -2.0297
 3332SOL    HW221630   2.656   1.124   9.641  0.9744  0.6186  1.4191
 3333SOL     OW21631   1.145   3.865   0.091 -0.0588  0.5735 -0.2232
 3333SOL    HW121632   1.223   3.838   0.140  0.4055 -0.8949 -1.7609
 3333SOL    HW221633   1.081   3.863   0.162  0.7643 -2.1393  0.4306
 3334SOL     OW21634   4.709   0.991  16.763 -0.3597 -0.2759  0.0702
 3334SOL    HW121635   4.686   1.072  16.808 -0.5938  0.3405 -1.1508
 3334SOL    HW221636   4.661   0.998  16.680  2.9774 -0.7745 -1.9253
 3335SOL     OW21637   1.447   1.206   3.223 -0.0385  0.1346  0.2860
 3335SOL    HW121638   1.517   1.156   3.180 -0.3977  0.0329 -0.1829
 3335SOL    HW221639   1.481   1.206   3.313 -0.3893 -0.7340  0.4140
 3336SOL     OW21640   3.304   2.696   7.973  0.9040 -0.0641 -0.1424
 3336SOL    HW121641   3.290   2.717   7.881  1.8446  0.5357 -0.1522
 3336SOL    HW221642   3.306   2.782   8.014  0.5532 -0.8127  1.4798
 3337SOL     OW21643   2.175   3.395   4.393  0.2587 -0.3280 -0.2275
 3337SOL    HW121644   2.203   3.329   4.329  2.0518  0.6037 -0.4167
 3337SOL    HW221645   2.257   3.444   4.403  0.4492 -1.0266  1.5785
 3338SOL     OW21646   0.918   3.783   1.125 -0.1457 -0.2405 -0.9720
 3338SOL    HW121647   0.887   3.702   1.084 -0.3093  0.1054 -1.5348
 3338SOL    HW221648   0.852   3.849   1.106 -1.1398 -0.4335  1.9104
 3339SOL     OW21649   3.634   3.697   3.957  0.2954  0.2289  0.2959
 3339SOL    HW121650   3.705   3.633   3.963 -0.6721 -0.7715  1.0287
 3339SOL    HW221651   3.687   3.743   3.892  0.0572  0.7159  0.4523
 3340SOL     OW21652   0.786   0.527   8.025 -0.3973 -0.9337  0.6068
 3340SOL    HW121653   0.704   0.521   8.075  0.6177 -1.1506  2.2541
 3340SOL    HW221654   0.840   0.456   8.060 -0.1553 -0.6470  0.8238
 3341SOL     OW21655   2.226   0.339  12.602 -0.0652 -0.4297  0.2290
 3341SOL    HW121656   2.249   0.273  12.536  1.8569  0.3460  0.1449
 3341SOL    HW221657   2.312   0.363  12.635  0.7249 -2.3016 -0.5033
 3342SOL     OW21658   0.081   1.050   2.160 -0.1943 -0.3608 -0.8039
 3342SOL    HW121659   0.110   0.966   2.125 -1.2284 -0.0322 -2.4127
 3342SOL    HW221660   4.727   1.039   2.147 -0.2213 -1.1207  0.0421
 3343SOL     OW21661   3.387   2.226   6.210  0.1620  0.3593 -0.0825
 3343SOL    HW121662   3.368   2.152   6.152 -0.8591 -1.9550  3.1470
 3343SOL    HW221663   3.312   2.284   6.199 -0.1660 -0.0812 -0.1872
 3344SOL     OW21664   1.316   4.572   1.593  0.4476 -0.2984 -0.0755
 3344SOL    HW121665   1.253   4.622   1.542  2.2742  0.2796 -1.7418
 3344SOL    HW221666   1.284   4.484   1.572  0.6790 -0.5639  0.6539
 3345SOL     OW21667   2.799   1.524   1.919  0.4586 -0.5467 -0.2331
 3345SOL    HW121668   2.761   1.563   1.841  1.0207  0.3648 -0.0573
 3345SOL    HW221669   2.720   1.493   1.963  0.1403 -0.1507 -0.5289
 3346SOL     OW21670   0.048   4.616   1.044  0.4396 -0.3607 -0.5396
 3346SOL    HW121671   0.067   4.707   1.069 -0.1352 -0.5227  0.4847
 3346SOL    HW221672   0.058   4.625   0.949 -0.1158  2.0320 -0.3764
 3347SOL     OW21673   3.346   2.465   5.207  0.0490 -0.2486 -0.0030
 3347SOL    HW121674   3.355   2.546   5.157 -1.6800 -0.5100 -0.7249
 3347SOL    HW221675   3.365   2.501   5.293 -0.4670 -0.9450  0.4002
 3348SOL     OW21676   2.920   0.316   7.221  0.1079 -0.6657 -0.0880
 3348SOL    HW121677   2.895   0.308   7.129 -1.0565  0.2698  0.1557
 3348SOL    HW221678   2.849   0.363   7.263  2.0850  1.4633  0.8834
 3349SOL     OW21679   0.636   4.397   6.764 -0.2853  0.3197 -0.6579
 3349SOL    HW121680   0.690   4.397   6.685  0.9945 -0.6320  0.2157
 3349SOL    HW221681   0.561   4.349   6.729  1.6812 -0.5184 -3.6953
 3350SOL     OW21682   0.160   3.222   3.478  0.1582  0.0454 -0.3349
 3350SOL    HW121683   0.249   3.254   3.469 -0.1564 -0.0669 -3.6698
 3350SOL    HW221684   0.160   3.219   3.574  0.0083  0.0022 -0.3359
 3351SOL     OW21685   3.953   2.203   9.564  0.3555  0.3719 -0.4477
 3351SOL    HW121686   3.957   2.110   9.544 -1.8028  0.4971 -1.4495
 3351SOL    HW221687   3.947   2.199   9.660  2.5813  3.1345 -0.1955
 3352SOL     OW21688   4.400   3.723   5.012 -0.0011 -0.2259  0.4176
 3352SOL    HW121689   4.402   3.637   4.971  1.0539 -0.3057  0.6308
 3352SOL    HW221690   4.494   3.739   5.011 -0.0134 -0.3103 -1.9483
 3353SOL     OW21691   3.630   2.184   9.195 -0.6949  0.6091  0.2073
 3353SOL    HW121692   3.576   2.221   9.125  1.0272  1.6847 -0.5569
 3353SOL    HW221693   3.635   2.089   9.180 -1.9687  0.4582  0.7333
 3354SOL     OW21694   1.138   0.402  17.734  0.2400 -0.1371 -0.4712
 3354SOL    HW121695   1.176   0.490  17.743  0.5051 -0.1976 -1.0621
 3354SOL    HW221696   1.123   0.378   0.067 -1.3184  0.6600 -0.4988
 3355SOL     OW21697   3.003   0.160   9.710  0.1174  0.2946  1.0434
 3355SOL    HW121698   3.037   0.091   9.766  0.4658  1.8958  2.8159
 3355SOL    HW221699   3.011   0.233   9.772 -0.7791  0.9822  0.3590
 3356SOL     OW21700   3.802   3.497   9.328  0.0781  0.4081  0.0822
 3356SOL    HW121701   3.842   3.442   9.262 -0.8767  0.0783 -0.2276
 3356SOL    HW221702   3.848   3.580   9.312 -0.5191  0.6810 -0.2479
 3357SOL     OW21703   1.948   2.718   0.819 -0.1246  0.3513 -0.6865
 3357SOL    HW121704   1.923   2.698   0.728  1.8540 -2.1256 -0.7095
 3357SOL    HW221705   1.925   2.637   0.865 -0.4752  0.8950  0.0832
 3358SOL     OW21706   0.475   1.090  14.192 -0.1061  0.1111 -0.0160
 3358SOL    HW121707   0.467   1.185  14.200  0.8336  0.1034  1.1315
 3358SOL    HW221708   0.499   1.076  14.100 -3.6956  2.6990 -1.3586
 3359SOL     OW21709   2.061   1.118   3.968  0.0518 -0.4161  0.4314
 3359SOL    HW121710   2.131   1.109   3.904 -0.4852 -2.2754  0.0943
 3359SOL    HW221711   2.102   1.083   4.047 -0.0446 -1.6380 -0.0631
 3360SOL     OW21712   3.753   0.074  15.814  0.5010  0.4800 -0.1139
 3360SOL    HW121713   3.772   0.129  15.890  0.3845  0.3201  0.0307
 3360SOL    HW221714   3.662   0.091  15.792 -0.2191 -0.8281  1.8908
 3361SOL     OW21715   2.448   0.807   2.830 -0.5259  0.2017  0.6218
 3361SOL    HW121716   2.365   0.793   2.784 -1.0364 -3.5112  2.6833
 3361SOL    HW221717   2.420   0.820   2.920  1.9681 -0.6205  1.5002
 3362SOL     OW21718   3.596   3.081   5.134  0.0074 -0.0904 -0.2769
 3362SOL    HW121719   3.516   3.074   5.186 -0.6725 -0.2141 -1.3427
 3362SOL    HW221720   3.555   3.083   5.048  1.5390 -1.0216 -1.0470
 3363SOL     OW21721   4.442   2.207   8.722 -0.0012  0.2228  0.1310
 3363SOL    HW121722   4.347   2.198   8.730 -0.5060  1.4459 -4.3966
 3363SOL    HW221723   4.443   2.207   8.626 -1.4667 -2.3162  0.1143
 3364SOL     OW21724   0.846   4.558  11.972 -0.3753  0.1286 -0.0301
 3364SOL    HW121725   0.765   4.530  11.929  0.3846  0.1809 -1.5118
 3364SOL    HW221726   0.823   4.534  12.062  1.5475 -0.1407  0.3823
 3365SOL     OW21727   2.237   1.639  11.202 -0.0085  0.8340  0.3373
 3365SOL    HW121728   2.242   1.602  11.290  1.5342 -0.9865 -0.5350
 3365SOL    HW221729   2.143   1.625  11.188  0.3058 -0.7734 -0.1464
 3366SOL     OW21730   1.997   3.015   9.901  0.7926  0.0371 -0.2946
 3366SOL    HW121731   1.948   2.957   9.959  0.9962 -0.1784 -0.3380
 3366SOL    HW221732   1.932   3.036   9.834  3.9050 -0.4331 -3.4712
 3367SOL     OW21733   1.988   3.991   7.085  0.3670 -0.0519  0.0252
 3367SOL    HW121734   2.047   3.923   7.118 -0.3789 -1.4962 -1.6530
 3367SOL    HW221735   2.030   3.989   6.999  0.2553 -1.7634 -0.0025
 3368SOL     OW21736   0.596   2.701   8.087  0.1657  0.0498 -0.1425
 3368SOL    HW121737   0.501   2.689   8.090  0.2651 -0.9535 -1.1024
 3368SOL    HW221738   0.605   2.699   7.992  0.0165 -0.9254 -0.1346
 3369SOL     OW21739   2.499   2.047   6.543 -0.0547  0.1836 -0.3289
 3369SOL    HW121740   2.424   1.997   6.513  0.8443 -1.2404 -0.1865
 3369SOL    HW221741   2.564   1.980   6.565  3.5878  4.1775  1.2183
 3370SOL     OW21742   3.624   3.285   8.042 -0.3386  0.2663  0.2286
 3370SOL    HW121743   3.632   3.350   8.112 -0.0668  0.4820 -0.0021
 3370SOL    HW221744   3.530   3.272   8.049 -0.3242  0.9459  1.5634
 3371SOL     OW21745   4.112   1.528  14.800  0.0083  0.0879  0.0212
 3371SOL    HW121746   4.060   1.448  14.812  0.5087 -0.1657  0.4974
 3371SOL    HW221747   4.198   1.484  14.797  0.0589  0.2083 -0.3923
 3372SOL     OW21748   0.986   0.420   7.677 -0.1436  0.3261 -0.2972
 3372SOL    HW121749   1.046   0.448   7.608  1.2232 -0.0849  0.7187
 3372SOL    HW221750   1.018   0.474   7.749  0.0783  1.9575 -1.6242
 3373SOL     OW21751   2.333   0.883   3.489 -0.1625 -0.6251  0.0281
 3373SOL    HW121752   2.340   0.800   3.536 -0.6653 -0.6370  0.0874
 3373SOL    HW221753   2.422   0.887   3.455  0.3867 -0.1558  1.5326
 3374SOL     OW21754   3.303   0.838   6.563 -0.1281  0.0744  0.2322
 3374SOL    HW121755   3.316   0.866   6.654 -1.3481 -0.3657  0.5461
 3374SOL    HW221756   3.210   0.848   6.543  0.0864  1.4315 -0.0585
 3375SOL     OW21757   0.650   4.022  10.570 -0.2103 -0.3347 -0.3076
 3375SOL    HW121758   0.634   4.077  10.493  0.6417  1.0145  0.4690
 3375SOL    HW221759   0.603   4.086  10.625 -0.9926 -0.0891 -1.2624
 3376SOL     OW21760   4.313   3.580   2.290 -0.2855  0.4360 -0.4485
 3376SOL    HW121761   4.353   3.583   2.203  0.4670  1.0027 -0.0804
 3376SOL    HW221762   4.244   3.645   2.283  0.7622  1.2783 -2.9428
 3377SOL     OW21763   1.862   1.944  16.821 -0.0808 -0.1318 -0.0246
 3377SOL    HW121764   1.849   1.962  16.915 -0.5316  0.4685 -0.2027
 3377SOL    HW221765   1.953   1.963  16.798  0.4108 -3.2815 -0.7212
 3378SOL     OW21766   1.114   3.496   8.185  0.0338  0.3571  0.2545
 3378SOL    HW121767   1.204   3.471   8.168 -0.0465 -0.2592  0.7448
 3378SOL    HW221768   1.111   3.585   8.149  0.2629  0.7813  1.2926
 3379SOL     OW21769   1.199   2.949  11.186  0.6218  0.4065  0.1844
 3379SOL    HW121770   1.171   3.027  11.234 -0.5095 -0.0301  0.2370
 3379SOL    HW221771   1.238   2.900  11.258  1.7976 -0.5992 -1.1358
 3380SOL     OW21772   1.065   2.476   5.438 -0.2448 -0.2664 -0.1234
 3380SOL    HW121773   1.035   2.469   5.347  1.6054 -1.0974 -0.6632
 3380SOL    HW221774   0.994   2.424   5.474 -1.5529  0.3134 -1.8254
 3381SOL     OW21775   2.811   3.802  12.662 -0.1793 -0.5784  0.3647
 3381SOL    HW121776   2.844   3.712  12.665  4.0686  0.9313 -0.9224
 3381SOL    HW221777   2.836   3.835  12.748  1.1288  1.2755 -0.7293
 3382SOL     OW21778   0.730   3.160   8.365 -0.0111  0.0456 -0.3692
 3382SOL    HW121779   0.740   3.167   8.460  2.4687  1.4530 -0.7250
 3382SOL    HW221780   0.815   3.134   8.328 -0.8021 -1.1066 -1.3788
 3383SOL     OW21781   3.745   2.009   6.064  0.3132 -0.3640 -0.3779
 3383SOL    HW121782   3.787   2.023   5.979  0.2659  1.5026 -0.0905
 3383SOL    HW221783   3.742   2.093   6.109 -1.7999 -0.6196 -0.0639
 3384SOL     OW21784   2.263   2.847   4.009 -0.7378  0.1546  0.1149
 3384SOL    HW121785   2.218   2.787   3.949 -2.7730  0.7006  1.1026
 3384SOL    HW221786   2.321   2.779   4.044  0.3001  0.4052 -1.0926
 3385SOL     OW21787   4.223   1.246   3.842  0.2167 -0.2529 -0.6088
 3385SOL    HW121788   4.310   1.258   3.803 -0.4347  0.6537 -1.7539
 3385SOL    HW221789   4.198   1.338   3.831 -1.0019 -0.6375 -0.9997
 3386SOL     OW21790   0.800   3.191   9.271  0.3211  0.5270  0.5245
 3386SOL    HW121791   0.810   3.242   9.190 -0.7342  2.0536  1.3683
 3386SOL    HW221792   0.734   3.239   9.320 -1.4332 -1.6615  0.3155
 3387SOL     OW21793   1.660   2.705   2.901 -0.0537  0.2865 -0.3170
 3387SOL    HW121794   1.753   2.691   2.923  0.0158  0.3233 -0.5810
 3387SOL    HW221795   1.669   2.748   2.816  0.8502 -1.6134 -1.1977
 3388SOL     OW21796   2.110   2.756   7.781  0.4017  0.1989 -0.5275
 3388SOL    HW121797   2.120   2.848   7.756  0.7446  0.4805  0.6425
 3388SOL    HW221798   2.022   2.755   7.820 -0.4251  0.3042 -2.3840
 3389SOL     OW21799   4.037   1.993   1.777  0.3956 -0.0337  0.2045
 3389SOL    HW121800   4.063   2.013   1.687  1.3967  0.5638  0.6269
 3389SOL    HW221801   3.946   2.019   1.766  0.4773  0.3048  0.3270
 3390SOL     OW21802   4.669   3.663   0.332  0.4717 -0.7262  0.1859
 3390SOL    HW121803   4.686   3.605   0.406 -0.1191 -0.4765  0.5190
 3390SOL    HW221804   0.002   3.642   0.274 -0.5745  1.8213 -2.0889
 3391SOL     OW21805   4.092   1.874  12.378 -0.5815 -0.4553  0.1592
 3391SOL    HW121806   4.113   1.823  12.456 -1.7077 -1.5043 -0.2161
 3391SOL    HW221807   4.170   1.926  12.361  1.1270 -3.1117 -0.0508
 3392SOL     OW21808   3.864   3.713   3.701 -0.3352 -0.2285  0.1639
 3392SOL    HW121809   3.907   3.644   3.649 -1.5265 -1.0287  0.2340
 3392SOL    HW221810   3.832   3.768   3.629 -1.0286  1.1624  1.5540
 3393SOL     OW21811   4.547   1.041   9.045  0.1154  0.1237  0.1730
 3393SOL    HW121812   4.501   0.978   9.101  0.8460 -0.2574  0.3389
 3393SOL    HW221813   4.487   1.061   8.974  0.7568 -0.9721 -0.6793
 3394SOL     OW21814   3.429   0.771   4.364 -0.9842 -0.2863  0.0877
 3394SOL    HW121815   3.414   0.774   4.269  0.6206 -0.9675 -0.1774
 3394SOL    HW221816   3.427   0.865   4.381  1.7739 -0.2499  0.2310
 3395SOL     OW21817   1.765   2.133   1.640 -0.3686 -0.6596 -0.6062
 3395SOL    HW121818   1.733   2.057   1.689  0.7493 -1.1459 -0.6250
 3395SOL    HW221819   1.688   2.151   1.588 -1.4447  0.1076  1.2462
 3396SOL     OW21820   4.165   1.816   0.729  0.0900 -0.4191 -0.4361
 3396SOL    HW121821   4.168   1.903   0.689  1.5318  0.2092  1.0507
 3396SOL    HW221822   4.184   1.833   0.821 -0.4352  0.4525 -0.4969
 3397SOL     OW21823   0.597   0.911   5.812  0.4410  0.0389 -0.0129
 3397SOL    HW121824   0.667   0.943   5.870 -0.4444  2.9843 -0.5310
 3397SOL    HW221825   0.639   0.879   5.732 -0.1629  0.9800 -0.7069
 3398SOL     OW21826   0.501   0.260   8.833 -0.2020  0.1454  0.2378
 3398SOL    HW121827   0.563   0.192   8.806 -0.3287  0.0314  0.2327
 3398SOL    HW221828   0.426   0.205   8.855  0.7098 -1.3172 -0.2942
 3399SOL     OW21829   1.092   4.074  15.061 -0.4993 -0.2268  0.1439
 3399SOL    HW121830   1.088   3.999  15.121 -2.2372  1.1350  1.7450
 3399SOL    HW221831   1.102   4.146  15.123 -2.4989  1.0046 -0.9589
 3400SOL     OW21832   2.823   4.451  16.861 -0.1052  0.0305 -0.2200
 3400SOL    HW121833   2.770   4.395  16.916 -0.8043  1.8062  0.9226
 3400SOL    HW221834   2.761   4.524  16.853 -1.3761 -0.7365  3.0899
 3401SOL     OW21835   0.158   1.201   7.116  0.7789 -0.3127 -0.6139
 3401SOL    HW121836   0.234   1.246   7.080 -0.6005  2.0458 -0.5908
 3401SOL    HW221837   0.121   1.265   7.177  2.3095  0.0457 -0.0665
 3402SOL     OW21838   3.876   0.923   1.911 -0.0408  0.4740 -0.0273
 3402SOL    HW121839   3.902   0.934   1.820 -0.5512 -0.4414 -0.2848
 3402SOL    HW221840   3.923   0.996   1.950  0.9588  0.3730 -1.0534
 3403SOL     OW21841   1.818   3.092   7.475 -0.4766  0.0963 -0.3339
 3403SOL    HW121842   1.733   3.116   7.511 -1.3803 -2.0351 -1.0343
 3403SOL    HW221843   1.857   3.067   7.559  1.3307 -0.1308 -1.2310
 3404SOL     OW21844   4.205   1.306   1.824  0.0002  0.1843  0.1722
 3404SOL    HW121845   4.291   1.315   1.784 -0.8477  0.3839 -1.5935
 3404SOL    HW221846   4.210   1.392   1.867  2.0396  1.5272 -2.7722
 3405SOL     OW21847   4.137   3.310   3.036 -0.0451  0.1187 -0.3535
 3405SOL    HW121848   4.123   3.265   2.952 -0.3348  0.2076 -0.3524
 3405SOL    HW221849   4.189   3.242   3.078 -0.7454  2.1710  3.8075
 3406SOL     OW21850   1.345   1.829   6.167 -0.1542 -0.0652  0.3589
 3406SOL    HW121851   1.304   1.912   6.141  0.3961  0.6312  1.6928
 3406SOL    HW221852   1.432   1.839   6.130 -0.6347  0.9247 -0.5120
 3407SOL     OW21853   4.474   4.556   9.314 -0.2667 -0.0901  0.1527
 3407SOL    HW121854   4.436   4.597   9.236 -3.1254 -3.2627 -0.1598
 3407SOL    HW221855   4.411   4.484   9.321 -1.2554  0.9093  1.5121
 3408SOL     OW21856   2.599   1.571  10.886 -1.0537 -0.3569 -0.1927
 3408SOL    HW121857   2.524   1.627  10.863  0.5168  1.4376 -0.9377
 3408SOL    HW221858   2.584   1.565  10.980 -0.3173  0.4413 -0.0260
 3409SOL     OW21859   3.086   3.013   4.812 -0.3991 -0.2607  0.2666
 3409SOL    HW121860   2.995   2.988   4.791 -1.5751  3.5559  0.8008
 3409SOL    HW221861   3.116   2.930   4.846  0.5412 -0.4267 -0.9734
 3410SOL     OW21862   0.709   3.629  12.444  0.3503 -0.1251 -0.1486
 3410SOL    HW121863   0.750   3.709  12.475  0.0592 -0.1933  0.3945
 3410SOL    HW221864   0.625   3.627  12.488  0.2615 -0.1366 -0.3194
 3411SOL     OW21865   1.616   4.714   6.292  0.1775 -0.3321  0.1396
 3411SOL    HW121866   1.653   4.675   6.371  0.4904 -0.0053  0.1558
 3411SOL    HW221867   1.674   0.047   6.270 -0.3253  0.7408  2.4502
 3412SOL     OW21868   3.285   2.132   8.161  0.0771  0.3399  0.4296
 3412SOL    HW121869   3.224   2.144   8.234 -1.0013 -2.2574 -0.0257
 3412SOL    HW221870   3.222   2.147   8.090  2.1584 -2.0325 -1.8818
 3413SOL     OW21871   3.102   0.897   2.265 -0.3519  0.0646 -0.1161
 3413SOL    HW121872   3.026   0.839   2.271 -0.0847 -0.3695 -0.8978
 3413SOL    HW221873   3.169   0.848   2.313  1.6493  1.1323 -1.8432
 3414SOL     OW21874   0.983   4.738   0.054 -0.1614  0.1125 -0.1242
 3414SOL    HW121875   0.978   4.711   0.146 -1.6797  2.4873  0.4745
 3414SOL    HW221876   1.075   4.722   0.034 -0.0295 -1.0309  1.3654
 3415SOL     OW21877   2.361   3.284   6.323  0.6705  0.0550  0.5228
 3415SOL    HW121878   2.438   3.259   6.272  0.7748 -1.1405  1.2687
 3415SOL    HW221879   2.394   3.302   6.411  0.3083  1.4434  0.3803
 3416SOL     OW21880   1.787   1.300   8.580 -0.0079  0.0868 -0.5423
 3416SOL    HW121881   1.864   1.285   8.635  0.9166  2.8404 -1.0979
 3416SOL    HW221882   1.804   1.387   8.546 -0.8221  0.3655 -0.2454
 3417SOL     OW21883   4.660   4.247   2.351 -0.0114  0.5626  0.5275
 3417SOL    HW121884   4.607   4.175   2.386 -0.1295  1.4306  2.1252
 3417SOL    HW221885   4.588   4.296   2.312  2.1914  2.0723 -1.6179
 3418SOL     OW21886   3.793   1.091  11.174 -0.0933 -0.3468  0.1403
 3418SOL    HW121887   3.785   1.070  11.267 -2.0123 -1.1571 -0.2055
 3418SOL    HW221888   3.862   1.030  11.149  0.0048  1.0385 -3.0159
 3419SOL     OW21889   4.464   4.717   7.658 -0.0199  0.4207  0.2720
 3419SOL    HW121890   4.514   4.715   7.739  1.8829  0.5538 -0.8742
 3419SOL    HW221891   4.445   4.625   7.641 -0.9077  0.6784 -0.1483
 3420SOL     OW21892   1.291   0.890  10.075  0.0457 -0.1304 -0.4139
 3420SOL    HW121893   1.263   0.979  10.099 -0.7355 -0.5352  0.1705
 3420SOL    HW221894   1.385   0.892  10.091  0.2294 -0.5681 -1.4448
 3421SOL     OW21895   3.490   3.374  11.939  0.6883 -0.4363 -0.1461
 3421SOL    HW121896   3.562   3.435  11.960 -0.1856  0.9695 -1.2166
 3421SOL    HW221897   3.481   3.389  11.845 -1.7909 -1.9429 -0.1406
 3422SOL     OW21898   1.160   1.227   8.172  0.4992 -0.3476 -0.0757
 3422SOL    HW121899   1.231   1.184   8.124 -0.7033 -1.2101 -1.0640
 3422SOL    HW221900   1.088   1.218   8.110  0.1881 -1.6400  0.4667
 3423SOL     OW21901   4.520   4.673   5.472 -0.1397 -0.4224 -0.0466
 3423SOL    HW121902   4.483   4.725   5.544 -1.0353  2.3421 -2.5282
 3423SOL    HW221903   4.582   4.627   5.529  0.6979  1.6767  0.7487
 3424SOL     OW21904   1.006   0.540  15.865  0.0131  0.1412  0.4326
 3424SOL    HW121905   0.937   0.556  15.801  0.0708  1.2913  0.6586
 3424SOL    HW221906   1.009   0.627  15.905  1.1919 -0.7475  2.3125
 3425SOL     OW21907   0.586   4.734  14.662 -0.4952  1.1678  0.3438
 3425SOL    HW121908   0.631   0.043  14.593 -1.0916  3.2125  1.4138
 3425SOL    HW221909   0.525   4.688  14.604  1.0568 -0.8402  0.3306
 3426SOL     OW21910   3.756   0.902   4.519 -0.2217 -0.4936  0.6633
 3426SOL    HW121911   3.716   0.820   4.488 -0.5996 -0.1465  0.2262
 3426SOL    HW221912   3.678   0.940   4.560 -0.1911 -0.2146  0.4598
 3427SOL     OW21913   0.128   1.264   4.636 -0.3096  1.3124 -0.0672
 3427SOL    HW121914   0.117   1.276   4.542  2.8977 -1.0637 -0.7764
 3427SOL    HW221915   0.215   1.225   4.644  0.1084  2.2726 -0.0110
 3428SOL     OW21916   3.022   1.488   4.425  0.1702 -0.0478  0.1956
 3428SOL    HW121917   3.092   1.442   4.379  0.2280 -1.3770  1.5756
 3428SOL    HW221918   3.005   1.435   4.503  0.3176  0.4961  0.6008
 3429SOL     OW21919   1.621   4.237  15.882  0.0231  0.5728 -0.1504
 3429SOL    HW121920   1.575   4.309  15.926 -0.7159 -0.7789  1.2808
 3429SOL    HW221921   1.707   4.278  15.878 -0.0197  0.3302 -3.8400
 3430SOL     OW21922   1.318   0.402   4.584 -0.0180 -0.6156 -0.2743
 3430SOL    HW121923   1.223   0.409   4.599 -0.0403  0.0105 -0.6655
 3430SOL    HW221924   1.341   0.376   4.673  3.1532  2.0016 -0.3319
 3431SOL     OW21925   1.672   3.260   8.041  0.2288  0.7379 -0.3473
 3431SOL    HW121926   1.664   3.353   8.017 -0.6817  0.2322 -2.0359
 3431SOL    HW221927   1.588   3.228   8.009  1.9068 -0.6187 -3.4461
 3432SOL     OW21928   3.988   3.157   2.586 -0.2729 -0.4025  0.2140
 3432SOL    HW121929   3.952   3.094   2.649  0.3901 -1.6120 -0.6233
 3432SOL    HW221930   3.970   3.237   2.636 -0.3515 -1.3177  1.6391
 3433SOL     OW21931   1.126   1.170   0.352  0.9438  0.6785 -0.1486
 3433SOL    HW121932   1.146   1.210   0.436  0.6942  1.0811 -0.2820
 3433SOL    HW221933   1.212   1.133   0.330  0.8827  1.5556 -1.8792
 3434SOL     OW21934   3.397   2.240  12.795 -0.0545  0.0547  0.1108
 3434SOL    HW121935   3.337   2.184  12.746  1.3686  0.4769 -2.1051
 3434SOL    HW221936   3.344   2.259  12.872  0.6212 -0.1273  0.6325
 3435SOL     OW21937   4.107   4.285   2.442 -0.0577 -0.6687  0.2615
 3435SOL    HW121938   4.109   4.215   2.378 -2.6410 -0.4526 -0.0758
 3435SOL    HW221939   4.074   4.354   2.383  2.4393  0.4876  0.2235
 3436SOL     OW21940   0.704   4.609   2.670  0.5607 -0.1899  0.3001
 3436SOL    HW121941   0.793   4.644   2.673  0.5040 -0.0895  0.8317
 3436SOL    HW221942   0.689   4.580   2.759 -0.6506  0.3974  0.2973
 3437SOL     OW21943   2.435   3.322   8.230  0.0203  0.1124  0.3195
 3437SOL    HW121944   2.400   3.406   8.201  1.0542 -0.7763 -3.5708
 3437SOL    HW221945   2.355   3.270   8.228 -0.3910  0.7401  0.3250
 3438SOL     OW21946   4.590   3.154   3.712  0.6591 -0.5627 -0.3137
 3438SOL    HW121947   4.667   3.209   3.696  0.5593 -0.9515 -2.1459
 3438SOL    HW221948   4.573   3.123   3.622  3.2488 -0.1777 -0.9432
 3439SOL     OW21949   2.486   2.061   2.051 -0.3130  0.0053  0.4865
 3439SOL    HW121950   2.405   2.108   2.034 -0.4056 -0.6283 -0.7654
 3439SOL    HW221951   2.526   2.053   1.965  1.1219  0.7443  1.0830
 3440SOL     OW21952   1.119   0.514  12.595 -0.0810 -0.4325  0.5273
 3440SOL    HW121953   1.048   0.556  12.642 -0.5905 -1.4354  0.6651
 3440SOL    HW221954   1.071   0.448  12.545 -0.9359  2.0222 -1.8712
 3441SOL     OW21955   0.680   0.727   0.065  0.1307  0.0922 -0.0060
 3441SOL    HW121956   0.774   0.736   0.049  0.3252 -3.1333 -0.8389
 3441SOL    HW221957   0.654   0.762  17.738  1.1809  0.6759 -0.0834
 3442SOL     OW21958   2.279   0.399   6.906  0.6400  0.0469 -0.0119
 3442SOL    HW121959   2.302   0.311   6.876  0.6090 -0.1164  0.4431
 3442SOL    HW221960   2.265   0.441   6.821  0.0928 -0.1057  0.0091
 3443SOL     OW21961   1.296   0.134  12.661 -0.1111  0.1622  0.1208
 3443SOL    HW121962   1.331   0.088  12.738  0.1973 -0.1313 -0.1951
 3443SOL    HW221963   1.321   0.224  12.682 -0.2622  0.4640 -0.9871
 3444SOL     OW21964   0.340   2.209   8.366 -0.3840  0.1847 -0.0319
 3444SOL    HW121965   0.246   2.220   8.379 -0.3721  0.4735 -0.1906
 3444SOL    HW221966   0.372   2.295   8.339  0.7222  0.1037  1.0019
 3445SOL     OW21967   0.832   4.029  13.446 -0.3733  0.0320  0.4957
 3445SOL    HW121968   0.890   4.070  13.383 -0.2285 -0.8678  0.0363
 3445SOL    HW221969   0.885   4.036  13.526  3.7614 -0.5321 -2.1614
 3446SOL     OW21970   2.762   2.959   2.591  0.7937  0.4323 -0.7037
 3446SOL    HW121971   2.711   2.983   2.513  2.3141 -1.0469 -2.1434
 3446SOL    HW221972   2.854   2.967   2.564  0.8848 -1.8603 -1.0678
 3447SOL     OW21973   0.172   0.885   4.898  0.3681 -0.1698  0.2746
 3447SOL    HW121974   0.202   0.825   4.967 -2.7088 -0.2189  1.6051
 3447SOL    HW221975   0.172   0.968   4.945  0.6805 -0.4233  0.7305
 3448SOL     OW21976   4.104   1.901   6.419 -0.0485 -0.0215 -0.3762
 3448SOL    HW121977   4.070   1.979   6.376  3.8085  1.8416 -0.1028
 3448SOL    HW221978   4.038   1.872   6.482 -0.1482 -1.2910 -1.0636
 3449SOL     OW21979   0.395   1.202   4.672  0.3143 -0.3631  0.1644
 3449SOL    HW121980   0.407   1.177   4.763 -0.9583  1.2280  0.7806
 3449SOL    HW221981   0.443   1.137   4.621  0.2388  0.0222 -0.3988
 3450SOL     OW21982   0.479   0.005   4.586 -0.1438  0.6396 -0.0806
 3450SOL    HW121983   0.416   4.702   4.644 -0.7476  0.8836 -0.5546
 3450SOL    HW221984   0.520   4.670   4.543  1.8554  0.8014  1.5747
 3451SOL     OW21985   0.405   1.402   5.630 -0.6411  0.3599 -0.0801
 3451SOL    HW121986   0.326   1.423   5.681 -0.5666 -0.6800  0.4778
 3451SOL    HW221987   0.444   1.489   5.624 -1.3411  0.7946  1.5892
 3452SOL     OW21988   3.500   2.542   9.513 -0.2407  0.6072  0.7106
 3452SOL    HW121989   3.504   2.621   9.459 -0.5826 -0.3424 -0.7162
 3452SOL    HW221990   3.595   2.529   9.517 -0.1981  0.8773  0.5606
 3453SOL     OW21991   2.454   3.837   3.405 -0.7306 -0.2291  0.2578
 3453SOL    HW121992   2.487   3.886   3.329  0.8382 -0.0561  1.0448
 3453SOL    HW221993   2.368   3.879   3.405 -0.8337 -0.4524 -1.3021
 3454SOL     OW21994   3.306   2.593  10.242 -0.0632  0.6754  0.4438
 3454SOL    HW121995   3.285   2.685  10.227  2.4447  1.3343  0.9895
 3454SOL    HW221996   3.223   2.563  10.280  0.0452 -0.0505  0.1237
 3455SOL     OW21997   3.068   3.930   6.689 -0.0977 -0.0646  0.3526
 3455SOL    HW121998   3.119   3.875   6.749  1.2391 -0.2949 -0.9950
 3455SOL    HW221999   2.988   3.878   6.698 -0.0993  0.0469  1.0262
 3456SOL     OW22000   4.247   1.347   0.722 -0.6577 -0.8019  0.6414
 3456SOL    HW122001   4.242   1.309   0.634 -1.4395 -0.0107  0.3445
 3456SOL    HW222002   4.315   1.287   0.751 -0.3861 -0.7828  0.0541
 3457SOL     OW22003   1.802   3.244  11.203 -0.0146 -0.4087 -0.1237
 3457SOL    HW122004   1.848   3.264  11.285 -1.3314 -0.4608  0.6142
 3457SOL    HW222005   1.769   3.155  11.212  0.2676 -0.5512 -0.4793
 3458SOL     OW22006   1.954   0.700  10.376 -0.4401 -0.0455  0.2409
 3458SOL    HW122007   1.984   0.668  10.461 -0.9911  1.8445  1.1278
 3458SOL    HW222008   1.861   0.680  10.366  0.0375 -3.0205  1.7478
 3459SOL     OW22009   2.183   3.607  15.263 -0.2905 -0.1404  0.1762
 3459SOL    HW122010   2.150   3.591  15.351 -0.0045  0.6959  0.4424
 3459SOL    HW222011   2.185   3.703  15.264  0.7670 -0.1579  0.2530
 3460SOL     OW22012   1.358   4.177   9.157 -0.2639  0.4946  0.1465
 3460SOL    HW122013   1.418   4.110   9.191  0.7049  0.5486 -1.4401
 3460SOL    HW222014   1.373   4.254   9.211 -1.3979  0.1780  0.9044
 3461SOL     OW22015   2.361   2.289  14.894  0.1682  0.4308  0.0249
 3461SOL    HW122016   2.406   2.360  14.851 -0.1694  0.7769  0.2411
 3461SOL    HW222017   2.287   2.270  14.836 -1.1458  0.6140  1.6086
 3462SOL     OW22018   4.346   3.842  10.711  0.5094 -0.3507 -0.6783
 3462SOL    HW122019   4.421   3.869  10.764  1.3098 -2.3962 -0.7356
 3462SOL    HW222020   4.297   3.923  10.702  0.5862 -0.1326  1.0237
 3463SOL     OW22021   2.622   0.058  12.780  0.5647  0.0314 -0.7076
 3463SOL    HW122022   2.592   0.119  12.847 -2.6827  0.6222 -2.7107
 3463SOL    HW222023   2.538   0.023  12.751 -0.3430  0.9044  0.8382
 3464SOL     OW22024   3.083   2.292   9.752 -0.3415  0.1167  0.1290
 3464SOL    HW122025   3.142   2.217   9.752  1.6796  1.6755 -0.6948
 3464SOL    HW222026   3.139   2.352   9.701 -0.1795 -1.1072 -1.1298
 3465SOL     OW22027   3.963   1.641   8.823  0.1633 -0.2359  0.4212
 3465SOL    HW122028   3.959   1.618   8.915 -3.0666 -4.1971 -0.7178
 3465SOL    HW222029   4.043   1.600   8.790  0.8694 -0.7482  2.7893
 3466SOL     OW22030   2.269   2.116  10.106 -0.4082  0.0697  0.0344
 3466SOL    HW122031   2.261   2.143  10.014 -0.5046 -1.0651 -0.2822
 3466SOL    HW222032   2.178   2.098  10.129 -0.6089 -0.8469 -1.4260
 3467SOL     OW22033   3.441   1.672   5.546  0.4887 -0.1485  0.2516
 3467SOL    HW122034   3.409   1.630   5.466 -2.4089  1.1153  0.7461
 3467SOL    HW222035   3.473   1.599   5.599 -2.5483 -1.7020 -0.0681
 3468SOL     OW22036   3.145   2.152   5.266  0.0710 -0.0686  0.5442
 3468SOL    HW122037   3.220   2.106   5.305  1.1108 -0.6318 -2.0567
 3468SOL    HW222038   3.095   2.157   5.347 -0.2449 -1.2986  0.4323
 3469SOL     OW22039   4.028   0.074   6.473  0.1758 -0.2426  0.6830
 3469SOL    HW122040   4.061   0.163   6.486  1.9353 -0.4597 -2.2179
 3469SOL    HW222041   3.940   0.076   6.510  0.5390 -1.2234  1.6222
 3470SOL     OW22042   3.945   1.513   0.923  1.0015  0.2891  0.0824
 3470SOL    HW122043   3.895   1.547   0.848 -0.8971  0.3742  1.3970
 3470SOL    HW222044   3.973   1.598   0.956  1.2890  0.6133 -0.9758
 3471SOL     OW22045   3.492   2.939   1.237 -0.2168  0.2537  0.0343
 3471SOL    HW122046   3.554   2.939   1.310  2.7512  1.3952 -2.4723
 3471SOL    HW222047   3.472   2.846   1.229  0.3029  0.0718  0.8076
 3472SOL     OW22048   1.896   3.530   4.892 -0.4109  0.4087  0.8871
 3472SOL    HW122049   1.806   3.562   4.879 -1.1688 -2.0578  0.0837
 3472SOL    HW222050   1.928   3.519   4.802 -1.9834 -1.9976  0.6173
 3473SOL     OW22051   1.458   4.642   7.869 -0.5987  0.0216 -0.0930
 3473SOL    HW122052   1.379   4.688   7.842 -0.6353 -0.7211 -1.2788
 3473SOL    HW222053   1.450   4.567   7.810  1.0752 -0.4406  0.2581
 3474SOL     OW22054   0.813   2.843  11.846  0.0424  0.1022  0.0777
 3474SOL    HW122055   0.820   2.936  11.822 -0.8089  0.3784  0.8844
 3474SOL    HW222056   0.903   2.810  11.852  0.6694  1.3285 -2.6811
 3475SOL     OW22057   0.765   0.600   6.503  0.5889  0.0656 -0.4337
 3475SOL    HW122058   0.777   0.591   6.408 -0.9263 -0.8506 -0.5437
 3475SOL    HW222059   0.738   0.511   6.527 -1.1454  0.3693 -1.2195
 3476SOL     OW22060   2.276   4.430   0.362  0.2407  0.1813 -0.5112
 3476SOL    HW122061   2.187   4.401   0.381  0.1861  1.4473  1.1008
 3476SOL    HW222062   2.279   4.440   0.266 -0.1431 -2.0021 -0.7630
 3477SOL     OW22063   3.173   3.109  11.568 -0.6584  0.1035 -0.3047
 3477SOL    HW122064   3.089   3.069  11.549 -0.2494 -0.5677 -0.6987
 3477SOL    HW222065   3.190   3.149  11.482  2.5198  0.4658  0.5032
 3478SOL     OW22066   2.956   0.179  14.620  0.1627 -0.1055 -0.1878
 3478SOL    HW122067   2.922   0.108  14.565  1.2643 -1.6125  1.0744
 3478SOL    HW222068   2.881   0.192  14.679  0.7422  0.0846  0.5086
 3479SOL     OW22069   1.849   4.222   7.017 -0.5713  0.2749 -0.4169
 3479SOL    HW122070   1.934   4.179   7.028 -1.2342 -0.7357  0.6962
 3479SOL    HW222071   1.794   4.192   7.089 -1.6802  0.6866 -1.0987
 3480SOL     OW22072   1.658   0.551   3.897 -0.3154 -0.5389 -0.2847
 3480SOL    HW122073   1.703   0.635   3.909  0.5969 -0.9812 -0.6210
 3480SOL    HW222074   1.710   0.521   3.823 -0.3308 -1.6905  0.1688
 3481SOL     OW22075   2.848   0.512   2.309  0.5901 -0.3310  0.4934
 3481SOL    HW122076   2.861   0.598   2.349  0.0797 -0.4131  0.8350
 3481SOL    HW222077   2.922   0.504   2.249  0.8968 -0.7548  0.9318
 3482SOL     OW22078   2.002   4.710   6.786 -0.8173  0.0351 -0.5310
 3482SOL    HW122079   2.059   0.003   6.856 -0.5446  2.8039 -2.0500
 3482SOL    HW222080   1.920   4.724   6.834 -1.0587 -1.6735 -0.4483
 3483SOL     OW22081   0.122   1.403   2.477  0.4172 -0.2435 -0.0155
 3483SOL    HW122082   0.055   1.464   2.508 -0.6437 -1.8914  0.9421
 3483SOL    HW222083   0.115   1.406   2.382 -0.1200  1.6145  0.0760
 3484SOL     OW22084   3.362   1.886   8.515  0.0285  0.4936  0.2249
 3484SOL    HW122085   3.403   1.811   8.559 -1.9223 -0.3908  0.5435
 3484SOL    HW222086   3.342   1.860   8.425 -0.2528  0.5364  0.2724
 3485SOL     OW22087   0.269   4.295   4.523 -0.0639  0.5726  0.0628
 3485SOL    HW122088   0.208   4.264   4.456  0.0882 -1.4089  0.8465
 3485SOL    HW222089   0.209   4.362   4.555  0.2438  1.2517 -0.7976
 3486SOL     OW22090   1.254   4.691   5.547 -0.2782 -0.3350  0.0412
 3486SOL    HW122091   1.251   0.030   5.494 -0.1823 -0.3056  0.0792
 3486SOL    HW222092   1.226   4.623   5.486  0.5748 -1.7737  1.2685
 3487SOL     OW22093   1.766   3.871   0.261  0.1180  0.4669  0.5585
 3487SOL    HW122094   1.702   3.841   0.196 -0.1146  0.3092  0.8621
 3487SOL    HW222095   1.744   3.801   0.322  1.4656 -0.9251 -0.5597
 3488SOL     OW22096   1.202   0.116   9.168  0.6394 -0.4334 -0.1275
 3488SOL    HW122097   1.145   0.081   9.236  0.7744  2.9740  1.7864
 3488SOL    HW222098   1.176   0.056   9.098 -1.5418 -0.9390  1.1109
 3489SOL     OW22099   0.835   4.270   3.419  0.5354 -0.3105  0.3659
 3489SOL    HW122100   0.822   4.249   3.512 -1.1359 -0.3086  0.1376
 3489SOL    HW222101   0.928   4.294   3.420 -0.0710  2.0541 -2.9847
 3490SOL     OW22102   0.171   0.713   3.444 -0.2047 -0.2040 -0.1587
 3490SOL    HW122103   0.122   0.768   3.383 -1.9401 -0.3568  1.1008
 3490SOL    HW222104   0.237   0.678   3.384  0.5244 -1.5647  1.4224
 3491SOL     OW22105   1.900   2.873  13.127 -0.1183  0.5432 -0.4032
 3491SOL    HW122106   1.823   2.895  13.181 -0.2258  2.8122 -1.4966
 3491SOL    HW222107   1.943   2.957  13.114  3.4493 -1.4769 -1.7476
 3492SOL     OW22108   0.499   2.371   4.577  0.5812  0.1010  0.1493
 3492SOL    HW122109   0.422   2.316   4.566 -0.2521  1.2100  0.4428
 3492SOL    HW222110   0.453   2.452   4.557 -0.8806  0.0456  3.3339
 3493SOL     OW22111   2.446   1.050  14.174 -0.8562 -0.7182 -0.1210
 3493SOL    HW122112   2.508   1.100  14.120  1.2828 -0.1394  2.8637
 3493SOL    HW222113   2.470   1.080  14.262 -1.0501 -0.4641 -0.1534
 3494SOL     OW22114   2.052   0.155   2.322 -0.1146 -0.7986 -1.1612
 3494SOL    HW122115   2.099   0.095   2.263  2.2805 -0.8052  0.7835
 3494SOL    HW222116   1.970   0.106   2.335 -1.3800  1.7522  0.4092
 3495SOL     OW22117   0.359   0.655   7.957  0.0776  0.3980 -0.8630
 3495SOL    HW122118   0.275   0.673   8.000 -0.1238 -1.0507 -0.6349
 3495SOL    HW222119   0.370   0.575   8.009 -3.1885 -0.8729 -2.1176
 3496SOL     OW22120   1.436   2.736   0.485  0.6281 -0.1037 -0.1536
 3496SOL    HW122121   1.478   2.666   0.436 -0.8043 -2.1311  1.5298
 3496SOL    HW222122   1.484   2.732   0.568  0.4907  0.4077 -0.0498
 3497SOL     OW22123   2.494   1.809   9.633  0.1385  0.0012  0.5827
 3497SOL    HW122124   2.523   1.893   9.600  1.0716 -0.5030  0.1397
 3497SOL    HW222125   2.458   1.766   9.555 -1.4923  0.3317  1.1423
 3498SOL     OW22126   2.222   3.098   7.064 -0.2003 -0.4933  0.1651
 3498SOL    HW122127   2.203   3.164   7.131 -1.0547 -2.1733  1.5877
 3498SOL    HW222128   2.151   3.119   7.004  1.6792 -0.0848 -1.9190
 3499SOL     OW22129   2.028   1.817   5.395  0.0642  0.1483 -0.5387
 3499SOL    HW122130   1.945   1.777   5.422  0.4830  2.2699  4.0020
 3499SOL    HW222131   2.058   1.858   5.476 -0.1755 -1.3660  0.3250
 3500SOL     OW22132   2.725   4.432   1.819 -0.4294 -0.2855  0.6169
 3500SOL    HW122133   2.773   4.366   1.869  1.5654  0.6767 -0.0011
 3500SOL    HW222134   2.800   4.492   1.808 -1.6325  1.7725  3.6120
 3501SOL     OW22135   2.637   3.700   9.622  0.4146 -0.0915 -0.1615
 3501SOL    HW122136   2.690   3.704   9.542  2.2307 -1.9743  0.9521
 3501SOL    HW222137   2.652   3.608   9.642 -0.2731 -0.1200  0.2435
 3502SOL     OW22138   2.246   2.690  17.513 -0.1447 -0.0654 -0.0556
 3502SOL    HW122139   2.245   2.774  17.559 -0.9154 -1.5897  2.7011
 3502SOL    HW222140   2.153   2.668  17.511  0.0206 -0.5116 -2.0756
 3503SOL     OW22141   3.750   4.001   1.023 -0.3670 -0.0858  0.0841
 3503SOL    HW122142   3.738   3.984   1.116 -0.7427 -0.6277 -0.0596
 3503SOL    HW222143   3.844   3.991   1.007  0.2615  2.4395  2.3146
 3504SOL     OW22144   4.065   3.971   7.404  0.2177  0.2960 -0.1193
 3504SOL    HW122145   4.121   3.991   7.329 -1.1083 -0.4146 -1.2906
 3504SOL    HW222146   3.979   3.999   7.372 -0.8302 -0.2831  2.2264
 3505SOL     OW22147   0.891   2.393  14.577  0.4712 -0.1921 -0.0185
 3505SOL    HW122148   0.909   2.457  14.646 -1.0555  0.9170 -0.6512
 3505SOL    HW222149   0.972   2.392  14.526  0.7211 -0.7644  0.3928
 3506SOL     OW22150   0.143   4.030   7.593 -0.2051  0.0119  0.0709
 3506SOL    HW122151   0.158   4.112   7.547  1.7512 -0.3810 -0.0008
 3506SOL    HW222152   0.124   3.968   7.522  0.7849  2.5114 -2.3565
 3507SOL     OW22153   1.569   4.588  12.561 -0.6852  0.2563 -0.0318
 3507SOL    HW122154   1.665   4.593  12.562 -0.6913 -0.0723  3.1949
 3507SOL    HW222155   1.554   4.517  12.623  2.6534 -1.6674 -1.4465
 3508SOL     OW22156   0.813   0.485   3.119  0.4773 -0.0237  0.2450
 3508SOL    HW122157   0.824   0.558   3.059  1.7448  1.0496  1.7675
 3508SOL    HW222158   0.870   0.505   3.194  0.6981 -0.7010  0.2565
 3509SOL     OW22159   0.155   0.126   9.142  0.6975 -0.2027  0.2707
 3509SOL    HW122160   0.123   0.044   9.179  0.0529 -0.0732  0.0028
 3509SOL    HW222161   0.085   0.191   9.149 -1.0428 -2.2030  1.0701
 3510SOL     OW22162   0.914   0.877  13.955  0.0197  0.2081  0.3521
 3510SOL    HW122163   0.846   0.899  13.891  0.4654  0.2951 -0.0852
 3510SOL    HW222164   0.948   0.962  13.984 -2.4401  1.8802 -1.7088
 3511SOL     OW22165   4.373   2.733   4.824 -0.2243  0.0924 -0.1115
 3511SOL    HW122166   4.378   2.818   4.781  0.2430  0.7745  1.2857
 3511SOL    HW222167   4.429   2.681   4.766 -1.7332 -0.3423 -1.1672
 3512SOL     OW22168   1.614   0.268  14.973  0.1345 -0.0470  0.0899
 3512SOL    HW122169   1.561   0.290  14.897  0.2891 -0.9214 -0.2717
 3512SOL    HW222170   1.614   0.172  14.977 -1.0088 -0.1266 -1.9126
 3513SOL     OW22171   0.702   0.459   5.320 -0.9662 -0.3711 -0.0810
 3513SOL    HW122172   0.688   0.518   5.394  1.7345  1.4072 -1.0018
 3513SOL    HW222173   0.703   0.372   5.359 -1.9398  0.0498  0.8826
 3514SOL     OW22174   2.794   0.376   5.191 -0.1330 -0.0421  1.0005
 3514SOL    HW122175   2.808   0.469   5.209 -0.2335 -0.0296  1.0135
 3514SOL    HW222176   2.768   0.382   5.099 -0.4944 -1.0937  1.0301
 3515SOL     OW22177   0.492   0.628  14.599  0.2117  0.3967  0.0530
 3515SOL    HW122178   0.439   0.550  14.584 -0.5440  1.1538 -1.1317
 3515SOL    HW222179   0.452   0.679  14.529 -1.6892 -1.6370 -0.3498
 3516SOL     OW22180   3.259   3.341   5.115 -0.4753 -0.2228  0.2298
 3516SOL    HW122181   3.191   3.312   5.055  0.1010  1.6404 -1.3153
 3516SOL    HW222182   3.268   3.258   5.162  0.4384 -0.8479 -1.0813
 3517SOL     OW22183   3.151   1.424   1.750  0.2484  0.2148 -0.7071
 3517SOL    HW122184   3.230   1.476   1.747 -0.3560  1.0803 -1.4728
 3517SOL    HW222185   3.104   1.454   1.672  0.7635 -1.2339 -1.5837
 3518SOL     OW22186   1.122   4.605   4.810  0.0634 -0.5321  0.5212
 3518SOL    HW122187   1.032   4.577   4.826 -0.5922  1.0202 -0.3911
 3518SOL    HW222188   1.111   4.677   4.747  3.8158  0.5385  1.0462
 3519SOL     OW22189   2.183   0.248  13.864 -0.0978  0.4930 -0.7428
 3519SOL    HW122190   2.268   0.258  13.908  0.7753 -0.8660 -2.1128
 3519SOL    HW222191   2.218   0.196  13.791 -1.4267  0.7413 -1.5517
 3520SOL     OW22192   2.992   0.212   8.808 -0.0397  0.5730 -0.3808
 3520SOL    HW122193   3.019   0.137   8.755 -0.8553 -0.5782  0.8359
 3520SOL    HW222194   2.898   0.201   8.820  0.0955 -1.1147 -0.8364
 3521SOL     OW22195   1.272   1.346   8.370  0.6276  0.0958 -0.0866
 3521SOL    HW122196   1.321   1.409   8.317 -1.7326 -0.7037 -3.2544
 3521SOL    HW222197   1.220   1.305   8.300 -2.0576  2.5666  0.4517
 3522SOL     OW22198   3.286   1.235   3.095  0.1800 -0.0489  0.9348
 3522SOL    HW122199   3.302   1.321   3.134  0.2064  0.4270 -0.1302
 3522SOL    HW222200   3.376   1.217   3.068 -0.6763 -1.3587 -1.0245
 3523SOL     OW22201   3.343   0.671  10.564 -0.3094  0.0183  0.2779
 3523SOL    HW122202   3.297   0.590  10.587 -1.5736  0.1947 -1.6488
 3523SOL    HW222203   3.270   0.717  10.522 -0.5030  2.2434  2.9980
 3524SOL     OW22204   2.691   1.152  16.789  0.4029  0.3242 -0.3436
 3524SOL    HW122205   2.775   1.185  16.759 -0.0110  1.2237 -0.5108
 3524SOL    HW222206   2.645   1.142  16.706 -1.8133 -1.1440  1.0385
 3525SOL     OW22207   3.641   0.638   6.250  0.7094 -0.1606 -0.5906
 3525SOL    HW122208   3.617   0.669   6.338  1.5538  4.1113 -1.8510
 3525SOL    HW222209   3.730   0.607   6.268  0.1427 -1.7471 -0.5516
 3526SOL     OW22210   4.444   0.930   5.729 -0.1571  0.1797 -0.0108
 3526SOL    HW122211   4.536   0.957   5.721 -0.2553  0.3012 -0.7408
 3526SOL    HW222212   4.441   0.901   5.820 -0.8499  2.3760  0.6752
 3527SOL     OW22213   3.154   4.043   7.461  0.5383  0.3627 -0.2015
 3527SOL    HW122214   3.168   3.949   7.446 -1.8152 -0.1280  0.6949
 3527SOL    HW222215   3.174   4.057   7.368  1.5599 -2.1297 -0.3518
 3528SOL     OW22216   3.840   4.182   0.616 -0.2591  0.1768  0.1083
 3528SOL    HW122217   3.749   4.212   0.620  0.2992  1.5082  2.4157
 3528SOL    HW222218   3.894   4.258   0.637  0.5106 -0.3612  0.1056
 3529SOL     OW22219   1.033   4.272   2.227  0.2341  1.0075  0.3112
 3529SOL    HW122220   1.100   4.334   2.196  0.6492 -0.0460 -0.8851
 3529SOL    HW222221   1.070   4.245   2.311 -1.4192 -1.2781  0.3006
 3530SOL     OW22222   0.327   3.691   7.466  0.1544 -0.1117  0.7010
 3530SOL    HW122223   0.329   3.595   7.463 -0.3785 -0.1161  0.5670
 3530SOL    HW222224   0.240   3.712   7.498  1.1012  0.2029  3.0585
 3531SOL     OW22225   2.298   0.825  14.991  0.5991  0.3476  0.2388
 3531SOL    HW122226   2.256   0.744  15.021  1.4179  0.0727  0.6307
 3531SOL    HW222227   2.378   0.822  15.042  0.3356 -1.3579  0.5584
 3532SOL     OW22228   4.563   3.096   3.448 -0.3844 -0.2509 -0.1113
 3532SOL    HW122229   4.657   3.085   3.433 -0.2195  1.1265 -0.1092
 3532SOL    HW222230   4.547   3.144   3.367 -1.3275  0.6733  0.6077
 3533SOL     OW22231   2.115   3.966  13.090  0.0164  0.7552 -0.0142
 3533SOL    HW122232   2.154   3.938  13.173 -2.0195  1.3323  1.1359
 3533SOL    HW222233   2.122   3.887  13.035  0.6618 -0.1545  1.3772
 3534SOL     OW22234   3.406   3.606   4.370 -0.2264  0.2862  0.5455
 3534SOL    HW122235   3.387   3.636   4.281 -0.9481 -0.8172  0.3168
 3534SOL    HW222236   3.497   3.634   4.376 -0.6012  1.3789  1.1781
 3535SOL     OW22237   0.210   0.282   4.057  0.3073  0.2329  0.4720
 3535SOL    HW122238   0.161   0.359   4.029  2.2262  0.3544 -2.5479
 3535SOL    HW222239   0.161   0.208   4.023  2.5045  1.2620 -4.8454
 3536SOL     OW22240   1.620   3.413   8.270 -0.2906  0.1088 -0.1335
 3536SOL    HW122241   1.525   3.419   8.268 -0.3661  0.0770  2.4857
 3536SOL    HW222242   1.637   3.323   8.240 -1.2627 -0.7259  1.8445
 3537SOL     OW22243   4.138   3.870   9.279 -0.2804  0.0306  0.1502
 3537SOL    HW122244   4.205   3.815   9.319 -1.7397 -1.5060  0.4826
 3537SOL    HW222245   4.199   3.932   9.239 -3.8860  1.2319 -3.4082
 3538SOL     OW22246   4.160   3.859   4.807 -0.4316  0.3227  0.2059
 3538SOL    HW122247   4.098   3.798   4.767  2.3020 -1.4281 -1.3308
 3538SOL    HW222248   4.238   3.816   4.772 -0.9662 -1.6187  1.4356
 3539SOL     OW22249   2.918   3.112   2.041 -0.2372 -0.1162 -0.7367
 3539SOL    HW122250   2.939   3.202   2.015  2.2459 -0.4810  0.0318
 3539SOL    HW222251   2.955   3.050   1.978  1.4311  2.0867 -1.9304
 3540SOL     OW22252   1.131   3.306   7.804  0.0016  0.6235  0.6570
 3540SOL    HW122253   1.101   3.294   7.895  0.1200  0.6707  0.7023
 3540SOL    HW222254   1.085   3.384   7.772  0.8826  0.6017 -0.6497
 3541SOL     OW22255   3.529   0.172   3.217 -0.0329 -0.0858 -0.0324
 3541SOL    HW122256   3.456   0.226   3.186 -0.7762 -2.3074 -2.1189
 3541SOL    HW222257   3.489   0.089   3.193 -0.6341  0.5355 -1.2053
 3542SOL     OW22258   0.010   1.846  16.329 -0.1790 -0.3478 -0.5105
 3542SOL    HW122259   4.703   1.792  16.392 -0.1094 -0.0295 -0.1869
 3542SOL    HW222260   4.681   1.866  16.266 -1.3319  0.3805  0.9837
 3543SOL     OW22261   0.201   3.671   6.039  0.0922 -0.5727  0.0579
 3543SOL    HW122262   0.195   3.750   5.986 -0.2438 -0.4640  0.2563
 3543SOL    HW222263   0.147   3.702   6.112 -0.6539 -1.5541 -0.0743
 3544SOL     OW22264   0.402   1.279   6.128 -0.6100  0.3279 -0.0961
 3544SOL    HW122265   0.320   1.298   6.174 -0.3939  1.9380 -0.3599
 3544SOL    HW222266   0.414   1.359   6.077  2.3693 -0.2711 -0.3783
 3545SOL     OW22267   3.485   3.917   1.812 -0.8493 -0.7693  0.4194
 3545SOL    HW122268   3.400   3.960   1.806  1.0826  3.1099  1.1038
 3545SOL    HW222269   3.517   3.949   1.896 -0.4033 -2.1121  0.7672
 3546SOL     OW22270   2.492   2.418   8.135  0.0308  0.5934  0.5485
 3546SOL    HW122271   2.551   2.475   8.085  0.4081 -0.3242 -0.0442
 3546SOL    HW222272   2.467   2.356   8.066  3.0874 -0.5050  0.4094
 3547SOL     OW22273   4.121   3.680   2.569  0.0578 -0.3824  0.2736
 3547SOL    HW122274   4.110   3.775   2.577  2.0727 -0.2610  1.8415
 3547SOL    HW222275   4.216   3.668   2.569 -0.0980 -1.5725 -0.5486
 3548SOL     OW22276   2.153   2.163   2.273 -0.2152 -0.1794  0.1438
 3548SOL    HW122277   2.236   2.195   2.308 -0.2694 -1.2322  1.2394
 3548SOL    HW222278   2.133   2.095   2.338 -0.1831 -1.9776 -1.7211
 3549SOL     OW22279   2.025   3.594   2.890 -0.1338 -0.1203  0.0715
 3549SOL    HW122280   1.933   3.590   2.918 -0.6356 -2.0040 -1.8692
 3549SOL    HW222281   2.016   3.552   2.805 -2.0530  1.6705 -0.6073
 3550SOL     OW22282   2.206   1.864   4.969  0.4689  0.5019 -0.1976
 3550SOL    HW122283   2.200   1.924   4.895  1.6509  0.5002 -0.2917
 3550SOL    HW222284   2.124   1.882   5.015  1.4795  0.2965  1.6867
 3551SOL     OW22285   4.686   0.721   5.247 -0.2690  0.6364 -0.0491
 3551SOL    HW122286   0.013   0.737   5.312 -1.8357  0.3431  1.6586
 3551SOL    HW222287   4.619   0.779   5.284 -0.1810  0.0098  1.1117
 3552SOL     OW22288   3.843   0.969   6.862 -0.8777  0.2573 -0.2792
 3552SOL    HW122289   3.818   1.042   6.918 -1.2677  0.9592 -1.3669
 3552SOL    HW222290   3.855   0.912   6.938 -0.2730 -1.5432 -1.7200
 3553SOL     OW22291   1.846   0.977   5.833 -0.4113 -0.7383  0.6185
 3553SOL    HW122292   1.870   0.885   5.835  0.8520 -0.4060  1.0260
 3553SOL    HW222293   1.806   0.983   5.920 -0.9441 -0.3129  0.3412
 3554SOL     OW22294   0.250   0.111   8.883  0.3522 -0.4015 -0.0709
 3554SOL    HW122295   0.168   0.062   8.871 -0.1790  0.2267  0.9846
 3554SOL    HW222296   0.244   0.143   8.973  1.0114 -1.4799  0.3519
 3555SOL     OW22297   1.862   1.739   8.048 -0.0857  0.2185  0.7577
 3555SOL    HW122298   1.820   1.797   8.113  2.1456 -0.4298  2.7727
 3555SOL    HW222299   1.844   1.800   7.976 -0.2585 -0.3819  0.2911
 3556SOL     OW22300   3.548   1.258   3.116 -0.1465  0.3323 -0.0913
 3556SOL    HW122301   3.568   1.287   3.205 -1.5587  3.1711 -0.7174
 3556SOL    HW222302   3.606   1.309   3.060  1.0614 -1.0339 -0.0842
 3557SOL     OW22303   2.767   1.189  11.755 -0.2228 -0.5480 -0.3125
 3557SOL    HW122304   2.861   1.185  11.734  0.1887  2.6501  0.9898
 3557SOL    HW222305   2.747   1.096  11.751 -0.3383 -0.5457  0.2208
 3558SOL     OW22306   0.282   1.365  15.058  0.0682  0.1867  0.0542
 3558SOL    HW122307   0.364   1.413  15.051  1.4708 -1.9083  2.1960
 3558SOL    HW222308   0.270   1.313  14.978 -0.4097 -1.7453  1.3973
 3559SOL     OW22309   3.098   4.639   0.716  0.0719 -0.6867  0.4740
 3559SOL    HW122310   3.027   4.575   0.723 -0.0616 -0.7797 -1.8001
 3559SOL    HW222311   3.165   4.580   0.684  0.9159  0.8084 -0.4990
 3560SOL     OW22312   1.290   4.728   4.217  0.4621 -0.1790 -0.0378
 3560SOL    HW122313   1.324   4.738   4.306 -1.0161 -2.8637  0.8436
 3560SOL    HW222314   1.209   4.678   4.229 -0.1550  1.3452  2.1127
 3561SOL     OW22315   4.192   0.569   8.757  0.3259  0.3309 -0.7699
 3561SOL    HW122316   4.209   0.658   8.786  1.9203 -0.4531  0.7281
 3561SOL    HW222317   4.251   0.557   8.683  1.9691 -0.3130  0.6372
 3562SOL     OW22318   0.811   0.277  16.974 -0.5895  0.2099 -0.1264
 3562SOL    HW122319   0.726   0.247  17.006  0.1754 -1.1593  0.5660
 3562SOL    HW222320   0.866   0.207  17.007  0.8447  0.5993 -1.7171
 3563SOL     OW22321   4.001   3.463  14.784  0.4147 -0.9791 -0.1644
 3563SOL    HW122322   4.069   3.418  14.835  1.3342 -0.4210 -0.9274
 3563SOL    HW222323   4.037   3.551  14.781 -2.6393  0.3696  2.2185
 3564SOL     OW22324   2.029   3.846   7.650 -0.0687 -0.4416  0.0329
 3564SOL    HW122325   2.084   3.796   7.589  1.8362  0.6764  0.8445
 3564SOL    HW222326   1.951   3.855   7.596  1.0471  0.7817 -1.4086
 3565SOL     OW22327   0.887   0.726   6.039 -0.3374 -0.1532 -0.0342
 3565SOL    HW122328   0.966   0.689   6.078 -0.5760 -0.1339  0.4640
 3565SOL    HW222329   0.827   0.676   6.095 -0.8106  0.0108 -0.3915
 3566SOL     OW22330   1.265   1.346  12.838  0.0899  0.1162 -0.1401
 3566SOL    HW122331   1.257   1.293  12.917  2.3565 -3.4455 -2.2929
 3566SOL    HW222332   1.280   1.426  12.888  1.9559  0.7648 -1.7398
 3567SOL     OW22333   4.674   0.137   6.934  0.5091 -0.0968 -0.1110
 3567SOL    HW122334   4.621   0.170   6.862  1.0519  0.2672 -0.3444
 3567SOL    HW222335   4.681   0.049   6.897  3.1875  0.0656 -0.0200
 3568SOL     OW22336   3.144   0.613   1.332 -0.2026 -0.2173  0.6922
 3568SOL    HW122337   3.180   0.699   1.312  0.4915 -0.6520  0.0734
 3568SOL    HW222338   3.068   0.642   1.381 -1.5426 -0.3328 -1.3298
 3569SOL     OW22339   4.637   0.222  11.598 -0.2215  0.3026  0.2735
 3569SOL    HW122340   4.584   0.284  11.548 -2.1553 -1.9552 -0.4540
 3569SOL    HW222341   4.723   0.260  11.576  0.9596 -1.3965  1.9435
 3570SOL     OW22342   0.364   3.397   6.208  0.0970  0.0083  0.2164
 3570SOL    HW122343   0.429   3.402   6.137  0.7776  2.1286  1.0006
 3570SOL    HW222344   0.392   3.481   6.244  0.2774 -1.3258  3.1440
 3571SOL     OW22345   0.344   4.136   7.999 -0.5432  0.2554 -0.1112
 3571SOL    HW122346   0.277   4.100   7.941 -1.7146  0.3907  1.1564
 3571SOL    HW222347   0.289   4.199   8.044 -0.0034 -1.4094  2.8708
 3572SOL     OW22348   2.609   3.152   5.170 -0.1783 -0.0559  0.2955
 3572SOL    HW122349   2.651   3.108   5.244 -0.7772 -1.0659  0.0342
 3572SOL    HW222350   2.566   3.222   5.218 -1.8976  0.6440 -2.2988
 3573SOL     OW22351   0.959   2.184   2.776 -0.5027 -1.3571 -0.3107
 3573SOL    HW122352   1.049   2.213   2.763 -0.7907 -0.6521 -0.7414
 3573SOL    HW222353   0.920   2.208   2.692  0.6083 -0.0478 -0.4610
 3574SOL     OW22354   4.603   4.597   2.765 -0.1672  0.0740  0.1973
 3574SOL    HW122355   4.601   4.528   2.699  0.5485 -0.6503  0.9329
 3574SOL    HW222356   4.615   4.543   2.843  1.3228  1.0859  0.6752
 3575SOL     OW22357   1.575   1.695   7.886  0.0313  0.0812  0.4469
 3575SOL    HW122358   1.637   1.767   7.878 -2.0142  1.6049 -1.5940
 3575SOL    HW222359   1.571   1.660   7.797 -0.6860 -2.2015  1.3868
 3576SOL     OW22360   3.933   0.863   5.802 -0.2677  0.1409 -0.3395
 3576SOL    HW122361   3.981   0.943   5.822  1.2832 -1.0794  0.8438
 3576SOL    HW222362   3.904   0.861   5.711 -0.6692  0.6844 -0.2225
 3577SOL     OW22363   2.319   2.263   4.035  0.1638  0.1313 -0.1666
 3577SOL    HW122364   2.253   2.314   4.082 -0.0398 -0.6079  0.3453
 3577SOL    HW222365   2.399   2.305   4.066  0.4018 -0.6658  0.2866
 3578SOL     OW22366   0.269   2.433   3.884  0.8432 -1.0539 -0.1612
 3578SOL    HW122367   0.230   2.479   3.809 -0.7310  0.1395  1.3765
 3578SOL    HW222368   0.212   2.455   3.957  1.3915 -3.2189  0.9106
 3579SOL     OW22369   0.742   0.164  11.362  0.2172  0.2081  0.2404
 3579SOL    HW122370   0.777   0.079  11.390  0.2699 -0.2485 -1.2415
 3579SOL    HW222371   0.733   0.146  11.269 -2.6512 -1.0351  0.7504
 3580SOL     OW22372   2.382   0.669   1.093 -0.1843 -0.1584  0.4283
 3580SOL    HW122373   2.322   0.656   1.166 -3.0658  0.5485 -1.8159
 3580SOL    HW222374   2.443   0.733   1.131 -1.3248  0.7406  0.7501
 3581SOL     OW22375   3.961   2.912   1.684  1.0259 -0.1162 -0.4748
 3581SOL    HW122376   3.991   2.966   1.757 -0.5606 -1.2992  1.0642
 3581SOL    HW222377   3.870   2.912   1.712  1.1010 -1.2648 -0.2244
 3582SOL     OW22378   1.418   2.602  10.556 -0.6606 -0.1217  0.4949
 3582SOL    HW122379   1.487   2.555  10.602 -1.2513 -0.8544  0.6194
 3582SOL    HW222380   1.431   2.692  10.587  1.7764 -0.4015  0.2336
 3583SOL     OW22381   0.876   3.630   3.791  0.6441  0.2517 -0.6773
 3583SOL    HW122382   0.933   3.554   3.791  1.9418  1.2194  0.2795
 3583SOL    HW222383   0.855   3.638   3.884 -2.1219  2.5430 -1.4762
 3584SOL     OW22384   0.600   2.705   3.969  0.2072  0.7552 -0.0783
 3584SOL    HW122385   0.554   2.653   3.904  0.7823 -0.5369  0.5515
 3584SOL    HW222386   0.644   2.768   3.912  2.1169 -0.7882 -0.3087
 3585SOL     OW22387   3.034   4.172  16.659 -0.1019  0.2655 -0.1279
 3585SOL    HW122388   3.110   4.170  16.718  0.1671  0.0645 -0.4849
 3585SOL    HW222389   2.974   4.117  16.709 -0.0468  2.0726  1.9267
 3586SOL     OW22390   4.729   4.151   5.526 -0.2542  0.1338  0.0912
 3586SOL    HW122391   4.670   4.080   5.502  0.1478 -0.2818  0.3432
 3586SOL    HW222392   4.718   4.202   5.446  2.4560  1.1347  0.3379
 3587SOL     OW22393   3.649   3.503   7.109  0.0389 -0.0887 -0.2584
 3587SOL    HW122394   3.563   3.530   7.142  0.5699 -0.2788  1.2833
 3587SOL    HW222395   3.705   3.576   7.137 -0.6657  0.4931 -0.3642
 3588SOL     OW22396   2.471   0.653   0.835  0.1360  0.5639 -0.3793
 3588SOL    HW122397   2.564   0.674   0.845  0.1190 -0.0574  1.1748
 3588SOL    HW222398   2.435   0.648   0.924 -4.0534  2.3953 -1.9763
 3589SOL     OW22399   0.863   1.026  15.147  0.5487  0.1483  0.3322
 3589SOL    HW122400   0.796   0.972  15.105 -0.0913 -0.0830  1.6244
 3589SOL    HW222401   0.841   1.117  15.126  0.1942  0.8199  3.5799
 3590SOL     OW22402   1.697   2.652   9.753  0.0316 -0.1455  0.5526
 3590SOL    HW122403   1.776   2.599   9.755 -1.2554 -2.0764 -0.1651
 3590SOL    HW222404   1.648   2.607   9.685 -0.3051  1.9633 -0.6188
 3591SOL     OW22405   4.327   2.736  13.281  0.1440  0.0820 -0.6356
 3591SOL    HW122406   4.276   2.794  13.337 -0.6430 -0.5692 -0.6877
 3591SOL    HW222407   4.338   2.653  13.328 -0.5301 -0.5543 -1.6003
 3592SOL     OW22408   1.772   2.328   9.835 -0.5741  0.1774  0.2374
 3592SOL    HW122409   1.701   2.291   9.783  0.3574 -1.9237  0.4624
 3592SOL    HW222410   1.745   2.304   9.924  3.2318 -2.5040  0.6881
 3593SOL     OW22411   0.175   2.039  15.497  0.1011  0.3999  0.3734
 3593SOL    HW122412   0.142   1.993  15.574 -2.2695  1.7191  0.1387
 3593SOL    HW222413   0.146   2.124  15.531  1.3826 -0.1945  2.9836
 3594SOL     OW22414   4.552   1.026   2.126 -0.3013  0.1273  0.0959
 3594SOL    HW122415   4.535   0.935   2.104 -4.7543  0.4124  2.2928
 3594SOL    HW222416   4.523   1.025   2.217  0.5465  0.8846  0.3807
 3595SOL     OW22417   0.866   3.287   0.094 -0.5207  0.0450 -0.3734
 3595SOL    HW122418   0.814   3.290   0.175  0.1464  1.4730  0.0098
 3595SOL    HW222419   0.874   3.194   0.077  1.6018  0.3403 -0.9479
 3596SOL     OW22420   4.262   2.564   9.530  1.2096 -0.4648  0.8618
 3596SOL    HW122421   4.214   2.504   9.473  0.8026 -0.8949  1.6551
 3596SOL    HW222422   4.197   2.621   9.571  1.9120  2.5368 -2.1829
 3597SOL     OW22423   0.814   0.047   7.073  0.1410  0.2436  0.3825
 3597SOL    HW122424   0.754   0.115   7.101 -0.2714  0.3005 -0.6630
 3597SOL    HW222425   0.850   0.103   7.005 -1.4197 -2.1061 -2.3796
 3598SOL     OW22426   0.246   0.837   8.725 -0.1392 -0.2251 -0.2803
 3598SOL    HW122427   0.242   0.759   8.781  0.0157  1.9627  2.8126
 3598SOL    HW222428   0.334   0.868   8.746 -0.5373 -0.6933  2.1110
 3599SOL     OW22429   2.110   2.344  15.254 -0.5019  0.0318  0.0471
 3599SOL    HW122430   2.187   2.287  15.258 -1.0199 -0.8708 -2.8100
 3599SOL    HW222431   2.102   2.369  15.162 -1.8072  1.4226  0.5389
 3600SOL     OW22432   2.459   1.044   9.542  0.3935 -0.1250  0.4751
 3600SOL    HW122433   2.429   1.123   9.588 -0.8598 -0.6520  0.5762
 3600SOL    HW222434   2.375   1.019   9.503  1.7037 -1.3213 -1.5239
 3601SOL     OW22435   0.825   0.889   5.303 -0.4960  0.4367 -0.2611
 3601SOL    HW122436   0.874   0.837   5.241 -0.8735 -0.6324  0.3438
 3601SOL    HW222437   0.895   0.887   5.369  0.6543 -0.2366 -1.5182
 3602SOL     OW22438   3.572   3.481   9.162 -0.4795 -0.1343 -0.8922
 3602SOL    HW122439   3.504   3.548   9.168 -1.5028 -1.4354  2.2839
 3602SOL    HW222440   3.641   3.499   9.226 -0.8922 -1.0650 -0.1913
 3603SOL     OW22441   3.565   2.104  10.511  0.3555 -0.2407  0.0783
 3603SOL    HW122442   3.638   2.153  10.549 -0.4634  1.8439 -1.0355
 3603SOL    HW222443   3.507   2.173  10.479 -0.5214 -1.5713 -1.1617
 3604SOL     OW22444   2.072   4.459  12.061 -0.6434 -0.5652  0.1287
 3604SOL    HW122445   2.055   4.424  12.149 -1.5678  0.4713  0.3558
 3604SOL    HW222446   1.993   4.429  12.017 -0.6361  1.2813 -1.1236
 3605SOL     OW22447   0.852   4.447   4.751  0.2841  0.2807 -0.1366
 3605SOL    HW122448   0.905   4.377   4.787  0.1081  0.5789  0.7145
 3605SOL    HW222449   0.795   4.463   4.827  1.1712 -0.8350  0.7644
 3606SOL     OW22450   2.274   1.689  12.042  0.5553 -0.1676 -0.2028
 3606SOL    HW122451   2.276   1.675  11.948 -0.2172  0.1892 -0.2730
 3606SOL    HW222452   2.179   1.692  12.052  0.6395  1.6430  0.0585
 3607SOL     OW22453   4.421   0.293   1.501 -0.1171 -0.3010  0.0049
 3607SOL    HW122454   4.393   0.384   1.508 -0.2672 -0.3432 -0.0450
 3607SOL    HW222455   4.509   0.307   1.467  0.0851 -0.1562  0.5881
 3608SOL     OW22456   1.098   0.770  11.780  0.6593  0.2632 -0.4354
 3608SOL    HW122457   1.072   0.680  11.798 -1.2985  0.9443  0.2162
 3608SOL    HW222458   1.054   0.810  11.855 -3.5683 -0.2242 -2.6315
 3609SOL     OW22459   3.832   2.873   1.354  0.2060 -0.2348  0.7449
 3609SOL    HW122460   3.848   2.957   1.396  0.9912 -0.6908  1.3591
 3609SOL    HW222461   3.793   2.824   1.427 -1.8164  0.2733  0.0077
 3610SOL     OW22462   1.783   0.541   8.728  0.2188 -0.1442 -0.0425
 3610SOL    HW122463   1.823   0.593   8.659  0.8569 -1.0015 -0.3188
 3610SOL    HW222464   1.700   0.587   8.735  1.1653  1.3193  1.6903
 3611SOL     OW22465   1.701   0.824  14.948  0.5366 -0.2945 -0.6794
 3611SOL    HW122466   1.729   0.856  14.863 -0.2836 -0.1146 -0.8794
 3611SOL    HW222467   1.727   0.897  15.005  0.6212 -0.8452 -0.0062
 3612SOL     OW22468   0.540   4.292   2.077 -0.0662 -0.5091  0.2621
 3612SOL    HW122469   0.477   4.333   2.136 -1.2877 -0.8890 -0.7899
 3612SOL    HW222470   0.613   4.354   2.069  1.9209 -2.9199 -0.0862
 3613SOL     OW22471   3.618   3.461  11.413  0.1073 -0.2191  0.3903
 3613SOL    HW122472   3.670   3.395  11.367 -1.1932 -1.5535  0.8287
 3613SOL    HW222473   3.688   3.488  11.472  1.1566 -1.0640 -0.4780
 3614SOL     OW22474   1.665   2.085   3.764 -0.1432  0.0853 -0.2122
 3614SOL    HW122475   1.725   2.074   3.838  0.1666  1.3389 -0.2926
 3614SOL    HW222476   1.591   2.135   3.800  0.6467 -0.0061  1.5681
 3615SOL     OW22477   1.766   1.046   7.419  0.1975 -0.0539  0.1288
 3615SOL    HW122478   1.836   1.098   7.381 -0.3891 -0.0606 -0.9539
 3615SOL    HW222479   1.708   1.021   7.347 -2.0784  1.7194  1.3299
 3616SOL     OW22480   3.245   4.648   2.188 -0.6077  0.3422  0.3523
 3616SOL    HW122481   3.334   4.675   2.166 -1.7316  1.4992 -2.8438
 3616SOL    HW222482   3.259   4.560   2.224 -1.6636 -0.1456 -0.4256
 3617SOL     OW22483   1.172   3.585  15.490  0.0422  0.3966  0.4416
 3617SOL    HW122484   1.119   3.522  15.442 -0.7624  0.0418  1.8079
 3617SOL    HW222485   1.172   3.545  15.577  1.1251 -0.1617  0.1775
 3618SOL     OW22486   2.386   1.372  13.319  0.0247  0.2432 -0.6041
 3618SOL    HW122487   2.452   1.441  13.331  0.8359 -0.7165  0.5135
 3618SOL    HW222488   2.309   1.412  13.359  1.2215  0.1031  1.8890
 3619SOL     OW22489   1.617   1.598   3.163  0.7980 -0.1919 -0.5835
 3619SOL    HW122490   1.590   1.597   3.071 -0.0279 -1.9575 -0.3228
 3619SOL    HW222491   1.689   1.536   3.156  0.9039 -0.3451  1.8682
 3620SOL     OW22492   1.192   3.545   6.787  0.4055  0.0748  0.7210
 3620SOL    HW122493   1.203   3.633   6.750 -0.4734  0.9655  2.5509
 3620SOL    HW222494   1.097   3.535   6.800  0.9506 -0.1467  4.5414
 3621SOL     OW22495   3.344   3.323   3.170 -0.1327  0.5104  0.4373
 3621SOL    HW122496   3.404   3.388   3.204 -0.3152  0.7514  0.3000
 3621SOL    HW222497   3.380   3.313   3.082  0.6625  1.5028  0.6533
 3622SOL     OW22498   4.464   1.137  10.498  0.3670 -0.6199 -0.5063
 3622SOL    HW122499   4.500   1.052  10.522  1.6759 -0.3531 -1.5318
 3622SOL    HW222500   4.369   1.131  10.505 -0.0557  2.5774 -3.6794
 3623SOL     OW22501   1.000   3.543   9.066 -0.5555  0.2904  0.0930
 3623SOL    HW122502   1.084   3.576   9.035  0.2778 -0.7655  1.2116
 3623SOL    HW222503   1.000   3.578   9.155 -0.5329 -0.2064  0.2927
 3624SOL     OW22504   1.511   3.874  11.864 -0.2084  0.0879 -0.8154
 3624SOL    HW122505   1.526   3.969  11.855  1.4324  0.0023  1.2027
 3624SOL    HW222506   1.529   3.844  11.775  1.0673 -1.4355 -0.0489
 3625SOL     OW22507   2.553   0.290   1.944 -0.0065 -0.2811  0.0948
 3625SOL    HW122508   2.461   0.298   1.966  0.2187 -0.1535  1.0058
 3625SOL    HW222509   2.595   0.359   1.996  0.3659 -0.7850  0.4707
 3626SOL     OW22510   0.083   1.257  16.859  0.0177  0.0522  0.9982
 3626SOL    HW122511   0.071   1.288  16.948  0.6369  4.4379 -0.4745
 3626SOL    HW222512   0.005   1.285  16.810 -0.4843  1.1562  2.4336
 3627SOL     OW22513   2.775   4.192   1.942 -0.0575 -0.5336  0.1326
 3627SOL    HW122514   2.760   4.098   1.930  0.9396 -0.6919  0.0960
 3627SOL    HW222515   2.861   4.192   1.984  0.5170  0.6036 -1.0513
 3628SOL     OW22516   2.473   2.821   9.206 -0.0051 -0.0027  0.3184
 3628SOL    HW122517   2.387   2.861   9.223 -0.5764 -0.8035 -0.6729
 3628SOL    HW222518   2.515   2.883   9.147  0.4499  1.4764  2.1666
 3629SOL     OW22519   0.633   2.388   4.216  0.1349 -0.6127 -0.5167
 3629SOL    HW122520   0.648   2.294   4.207  1.0918 -0.4793 -0.2668
 3629SOL    HW222521   0.539   2.398   4.232 -0.1122 -0.7754 -1.8732
 3630SOL     OW22522   2.595   3.803   6.029  0.6802 -0.1231  0.1878
 3630SOL    HW122523   2.644   3.861   6.087 -1.9257  1.5137  0.7755
 3630SOL    HW222524   2.570   3.736   6.093  0.2469  1.3562  1.5765
 3631SOL     OW22525   1.558   1.831   4.527  0.4390  0.1094  0.1559
 3631SOL    HW122526   1.615   1.877   4.588  0.2956 -2.1288  2.0080
 3631SOL    HW222527   1.492   1.898   4.512  0.9966  0.5030 -0.5239
 3632SOL     OW22528   3.907   3.752   9.261  0.4720  0.6319  0.0151
 3632SOL    HW122529   3.859   3.816   9.313 -0.0873 -1.4816  2.1373
 3632SOL    HW222530   3.996   3.783   9.278  0.5011  0.6816 -0.2384
 3633SOL     OW22531   3.205   1.040   0.021 -0.1354 -0.5839  0.4040
 3633SOL    HW122532   3.173   1.038   0.111  1.8646  1.5900  1.1569
 3633SOL    HW222533   3.147   0.974  17.740 -0.5105 -0.4284  0.6933
 3634SOL     OW22534   2.162   0.729   1.564 -0.2888 -0.0432  0.0702
 3634SOL    HW122535   2.206   0.814   1.563 -0.2011 -0.0982 -0.7364
 3634SOL    HW222536   2.231   0.678   1.521  0.3263 -0.3976  1.4690
 3635SOL     OW22537   2.273   0.177  12.388 -0.5422  0.1707  0.1700
 3635SOL    HW122538   2.276   0.082  12.402  0.2232  0.3641  1.3179
 3635SOL    HW222539   2.339   0.183  12.319 -0.9960  2.0752 -0.1007
 3636SOL     OW22540   1.024   0.577   5.462 -0.1521  0.4842 -0.4533
 3636SOL    HW122541   0.955   0.536   5.514 -0.5208  0.9269 -0.5932
 3636SOL    HW222542   1.013   0.667   5.493 -0.1872 -0.4980  2.4040
 3637SOL     OW22543   0.574   3.961   8.815  0.2366 -0.6243 -0.0934
 3637SOL    HW122544   0.519   4.038   8.826  0.5129 -0.0148 -2.9581
 3637SOL    HW222545   0.521   3.897   8.863 -0.3009  1.1361  1.6427
 3638SOL     OW22546   3.357   4.249  13.330 -0.4208  0.4002  0.1626
 3638SOL    HW122547   3.308   4.261  13.249  1.1827  0.3450 -0.8090
 3638SOL    HW222548   3.418   4.180  13.305 -1.1307  1.0167 -3.2806
 3639SOL     OW22549   4.740   2.870   4.691  0.4417 -0.1427 -0.5117
 3639SOL    HW122550   4.705   2.949   4.732 -1.0174 -2.0697  1.9349
 3639SOL    HW222551   4.664   2.841   4.639  0.0881  0.7628 -0.5044
 3640SOL     OW22552   2.545   0.041   6.229 -0.3878  0.1275 -0.3397
 3640SOL    HW122553   2.582   0.078   6.148 -1.4502  0.8509 -0.4881
 3640SOL    HW222554   2.460   0.082   6.212 -0.6511 -0.8655 -1.4460
 3641SOL     OW22555   3.737   4.680  11.542  0.3569  0.3443  0.0474
 3641SOL    HW122556   3.667   4.671  11.608  0.4876 -2.2308 -0.1796
 3641SOL    HW222557   3.777   4.594  11.547 -0.7048 -0.0972  1.0469
 3642SOL     OW22558   2.243   3.880   4.848  0.2288  0.1846  0.2257
 3642SOL    HW122559   2.163   3.862   4.896 -1.8395  1.0411 -2.9102
 3642SOL    HW222560   2.259   3.969   4.880  3.9081 -0.1640 -0.5788
 3643SOL     OW22561   1.397   1.160   7.329  0.1581  0.5393 -0.0757
 3643SOL    HW122562   1.374   1.110   7.408 -0.8300 -1.1377 -1.4404
 3643SOL    HW222563   1.484   1.127   7.308 -0.5592  0.0288 -2.2177
 3644SOL     OW22564   4.147   0.515   2.966 -0.1975 -0.1776  0.1860
 3644SOL    HW122565   4.078   0.526   2.899 -0.7808  0.2758  0.8640
 3644SOL    HW222566   4.130   0.583   3.031 -0.6974  0.0544 -0.1842
 3645SOL     OW22567   1.648   3.121   3.680 -0.1494 -0.1961  0.0627
 3645SOL    HW122568   1.615   3.159   3.761  0.6883  1.6193 -0.4461
 3645SOL    HW222569   1.686   3.039   3.712 -0.7430 -0.5939 -0.2350
 3646SOL     OW22570   4.351   2.281   4.367  0.2998 -0.1936 -0.1118
 3646SOL    HW122571   4.378   2.215   4.431  0.5645 -0.9738 -1.0299
 3646SOL    HW222572   4.264   2.244   4.351 -1.6988  3.2563  2.9065
 3647SOL     OW22573   2.754   3.415  11.721 -0.2201  0.0407 -0.3524
 3647SOL    HW122574   2.703   3.347  11.767  1.2662 -1.4652 -0.9502
 3647SOL    HW222575   2.772   3.376  11.636 -3.0812  1.2707 -1.5437
 3648SOL     OW22576   3.591   2.749   8.594 -0.5487  0.1562  0.1988
 3648SOL    HW122577   3.547   2.795   8.666  1.0592  3.0070 -0.6249
 3648SOL    HW222578   3.677   2.778   8.626  0.5740 -1.2094 -1.6104
 3649SOL     OW22579   1.261   3.012   3.062  0.4655 -0.2967  0.2572
 3649SOL    HW122580   1.285   3.104   3.051 -0.3882 -0.1373 -0.2825
 3649SOL    HW222581   1.324   2.979   2.998  1.8471  0.0756  1.4367
 3650SOL     OW22582   1.630   2.417   2.842 -0.3059  0.1317  0.2897
 3650SOL    HW122583   1.679   2.483   2.891 -0.9817  1.6599 -1.0851
 3650SOL    HW222584   1.584   2.473   2.779 -1.4337 -0.9399  0.1632
 3651SOL     OW22585   2.274   1.441   8.524 -1.0835  0.3292  0.5435
 3651SOL    HW122586   2.328   1.399   8.457 -2.2569 -4.4679  2.5832
 3651SOL    HW222587   2.227   1.513   8.481  3.8067  2.6285 -0.9209
 3652SOL     OW22588   0.599   0.525  11.733 -0.1234 -0.2723  0.3017
 3652SOL    HW122589   0.581   0.612  11.770  0.3069 -0.0761  0.0394
 3652SOL    HW222590   0.668   0.490  11.790  1.3965  1.5426 -0.4429
 3653SOL     OW22591   3.254   0.227   2.389  0.2291  0.4642 -0.1162
 3653SOL    HW122592   3.230   0.270   2.308 -3.2555 -1.6233 -0.1831
 3653SOL    HW222593   3.346   0.253   2.397  0.2345 -0.3409  2.4427
 3654SOL     OW22594   2.793   4.091   8.062 -0.5834  0.1535 -0.1522
 3654SOL    HW122595   2.773   4.098   8.155 -0.0728 -0.2057 -0.0139
 3654SOL    HW222596   2.847   4.012   8.056 -1.2307 -0.1954 -1.4513
 3655SOL     OW22597   4.201   4.702  17.046  0.3814  0.1350  0.0288
 3655SOL    HW122598   4.164   0.045  17.017 -0.4757 -0.4374 -0.5019
 3655SOL    HW222599   4.239   4.666  16.966 -0.4230 -0.4282 -0.0942
 3656SOL     OW22600   2.089   4.618   5.844 -0.3804 -0.3187  0.6705
 3656SOL    HW122601   2.020   4.638   5.907 -0.2013  0.5137  0.5924
 3656SOL    HW222602   2.089   4.693   5.785 -0.8726 -1.5486 -0.8857
 3657SOL     OW22603   1.420   1.548   6.252 -0.2285  0.5987 -0.6241
 3657SOL    HW122604   1.427   1.509   6.165  0.8124  0.9110 -0.6897
 3657SOL    HW222605   1.362   1.619   6.224 -2.6293 -0.3329  2.0155
 3658SOL     OW22606   3.419   2.523   2.496  0.1717 -0.6775  0.1170
 3658SOL    HW122607   3.346   2.461   2.502  0.0932 -0.6167 -0.1790
 3658SOL    HW222608   3.364   2.599   2.513  0.0871 -1.2521  2.4051
 3659SOL     OW22609   1.321   3.104  16.184  0.7376  0.4994 -0.7673
 3659SOL    HW122610   1.306   3.144  16.098  2.3052  1.5218 -0.5864
 3659SOL    HW222611   1.241   3.140  16.222  0.4887 -1.9097  0.9638
 3660SOL     OW22612   1.009   2.660   8.649  0.3145  0.1415 -0.1482
 3660SOL    HW122613   1.021   2.565   8.660 -1.4498  0.0687  1.1580
 3660SOL    HW222614   0.966   2.684   8.731 -0.7673  0.7930 -0.9055
 3661SOL     OW22615   3.457   2.180  16.965  0.0902  0.5847 -0.1903
 3661SOL    HW122616   3.508   2.211  16.890 -0.4173  1.1193 -0.3193
 3661SOL    HW222617   3.433   2.269  16.990 -2.5226 -0.5819  1.4816
 3662SOL     OW22618   1.475   2.160   7.509  0.2397 -0.0512 -0.2100
 3662SOL    HW122619   1.541   2.174   7.441  0.5374  2.8329  0.6722
 3662SOL    HW222620   1.433   2.245   7.500 -0.5645 -0.4362 -0.1219
 3663SOL     OW22621   2.150   4.031   3.937  0.1196 -0.6023 -0.2173
 3663SOL    HW122622   2.150   4.041   4.032 -1.1777  0.2727 -0.3159
 3663SOL    HW222623   2.155   4.123   3.912 -1.5246 -0.6340 -0.6676
 3664SOL     OW22624   0.357   0.211   1.510  0.0678  0.1781  0.2651
 3664SOL    HW122625   0.376   0.131   1.558  3.0000  1.6010  1.4753
 3664SOL    HW222626   0.438   0.262   1.500  0.9821 -1.2848  0.2945
 3665SOL     OW22627   4.559   1.330  10.300  0.0968 -0.0834 -0.0667
 3665SOL    HW122628   4.479   1.381  10.288  0.2312  0.4409  1.3255
 3665SOL    HW222629   4.540   1.278  10.378  0.0536 -0.4185 -0.3005
 3666SOL     OW22630   4.378   3.365  16.501  0.1562 -0.0581  0.1779
 3666SOL    HW122631   4.297   3.314  16.502  0.5104 -0.5996  0.9961
 3666SOL    HW222632   4.426   3.333  16.424 -0.4761 -2.8336  0.9487
 3667SOL     OW22633   1.287   2.981   9.292 -0.3237  0.1818 -0.3560
 3667SOL    HW122634   1.220   2.920   9.262  0.4531 -0.8224 -0.0427
 3667SOL    HW222635   1.274   3.051   9.228 -0.3464  0.1887 -0.3441
 3668SOL     OW22636   1.349   1.991  12.546 -0.0964 -0.5661  0.1868
 3668SOL    HW122637   1.322   2.077  12.578  2.1592  0.2106 -0.0128
 3668SOL    HW222638   1.305   1.932  12.607 -2.1383 -0.7676 -1.4670
 3669SOL     OW22639   3.461   4.740   2.083 -0.0732  0.3390  0.2214
 3669SOL    HW122640   3.458   0.092   2.058  0.5150 -0.0083 -1.1242
 3669SOL    HW222641   3.554   4.715   2.083 -0.6319 -1.7925  0.5494
 3670SOL     OW22642   2.712   0.254  15.988  0.3212 -0.2947 -0.1225
 3670SOL    HW122643   2.656   0.268  16.065  0.0570 -0.0662 -0.3561
 3670SOL    HW222644   2.774   0.327  15.995  0.5804 -0.4586 -0.7383
 3671SOL     OW22645   2.527   4.326   2.588  0.4076  0.2847 -0.1269
 3671SOL    HW122646   2.499   4.292   2.503 -1.1705  1.1354  0.0385
 3671SOL    HW222647   2.618   4.347   2.567  0.8299  0.1773  1.5999
 3672SOL     OW22648   3.851   0.400   9.721 -0.4756  0.4372 -0.2579
 3672SOL    HW122649   3.815   0.458   9.654  2.6876  1.4466 -1.1091
 3672SOL    HW222650   3.888   0.467   9.779  0.9480  1.7501 -2.7211
 3673SOL     OW22651   3.097   2.258   4.689  0.2007  0.4261 -0.7493
 3673SOL    HW122652   3.094   2.266   4.785  0.8482 -0.4722 -0.6655
 3673SOL    HW222653   3.181   2.296   4.665 -0.0278 -0.1451 -2.3955
 3674SOL     OW22654   3.179   3.689   7.623  0.8538  0.3969 -0.3902
 3674SOL    HW122655   3.097   3.712   7.667  0.7193  1.5424 -1.2353
 3674SOL    HW222656   3.245   3.732   7.676 -0.2158  0.6806  0.6995
 3675SOL     OW22657   1.712   0.741   5.300 -0.0793  0.0886 -0.1402
 3675SOL    HW122658   1.746   0.659   5.263 -2.6946 -1.4160  0.7723
 3675SOL    HW222659   1.788   0.798   5.302 -0.0564  0.0576 -0.1351
 3676SOL     OW22660   0.807   3.718   4.354 -0.1607 -0.2626  0.0533
 3676SOL    HW122661   0.830   3.648   4.415 -2.0062 -0.8482  0.0619
 3676SOL    HW222662   0.726   3.684   4.315  1.0560 -2.1128 -0.8896
 3677SOL     OW22663   4.661   2.926   5.667  0.8155  0.1866 -0.3442
 3677SOL    HW122664   4.729   2.866   5.697  1.5889  0.1067 -2.2408
 3677SOL    HW222665   4.590   2.863   5.656  1.3254 -0.1823 -1.5182
 3678SOL     OW22666   1.921   1.565  16.042 -0.5427 -0.0017  0.5442
 3678SOL    HW122667   1.975   1.635  16.004 -0.3523 -0.8719 -0.7832
 3678SOL    HW222668   1.836   1.609  16.035 -0.4610  0.2361  1.0861
 3679SOL     OW22669   1.917   3.783  15.993  0.1028  0.5783  0.2943
 3679SOL    HW122670   1.844   3.807  15.936 -1.3878  0.3853  2.1316
 3679SOL    HW222671   1.865   3.751  16.066  1.1397 -0.8158  0.4202
 3680SOL     OW22672   2.918   0.225   6.308  0.5538  0.2927  0.8350
 3680SOL    HW122673   2.891   0.303   6.259  0.5630 -0.2423 -0.0266
 3680SOL    HW222674   2.991   0.190   6.256 -0.0455  0.1497  0.1019
 3681SOL     OW22675   3.974   1.179  13.713 -0.8441 -0.1992 -0.1694
 3681SOL    HW122676   3.946   1.233  13.639  0.3392 -1.2151 -1.3577
 3681SOL    HW222677   4.019   1.252  13.757 -0.3166  0.5152 -1.9057
 3682SOL     OW22678   2.883   2.566   3.384 -0.0977  0.3221 -0.0613
 3682SOL    HW122679   2.836   2.515   3.450  1.0341 -0.5342  0.0995
 3682SOL    HW222680   2.847   2.537   3.300  0.7641  0.9994 -0.6683
 3683SOL     OW22681   2.386   3.565   2.700 -0.9350  0.0497 -0.4803
 3683SOL    HW122682   2.393   3.516   2.782 -2.9163  0.1688 -0.2571
 3683SOL    HW222683   2.440   3.639   2.730  0.2512 -1.2352  0.5629
 3684SOL     OW22684   4.077   0.918   3.766 -0.4557  0.2599  0.2888
 3684SOL    HW122685   4.071   0.899   3.672 -0.8913 -3.0740  0.9656
 3684SOL    HW222686   4.024   0.997   3.775  1.1752  1.1183  2.3460
 3685SOL     OW22687   4.498   2.873   3.946  0.2892 -0.0384 -0.2911
 3685SOL    HW122688   4.435   2.837   4.009 -0.4443  2.4828  0.4384
 3685SOL    HW222689   4.570   2.813   3.963  0.6485  0.2551 -0.7942
 3686SOL     OW22690   1.986   4.214   5.274 -0.1142 -0.3308  0.3219
 3686SOL    HW122691   2.029   4.156   5.212 -0.0237 -1.0641  1.0684
 3686SOL    HW222692   1.896   4.183   5.259 -0.3029 -0.0822  0.9296
 3687SOL     OW22693   4.389   0.226   1.152  0.3248 -0.3978 -0.2840
 3687SOL    HW122694   4.328   0.259   1.218  0.8040 -1.6343  0.7782
 3687SOL    HW222695   4.320   0.198   1.092  0.8495  0.6387 -1.3612
 3688SOL     OW22696   2.962   4.270   3.685  0.2159  0.4926  0.0876
 3688SOL    HW122697   2.976   4.301   3.596 -2.0615  0.0700 -0.4169
 3688SOL    HW222698   2.867   4.255   3.681  0.4933 -2.0387  3.2933
 3689SOL     OW22699   1.054   1.531   0.801  0.5628 -0.4368  0.1087
 3689SOL    HW122700   1.112   1.455   0.803 -0.5814 -1.3371 -1.4166
 3689SOL    HW222701   1.053   1.551   0.894 -1.2135  2.9369 -0.6329
 3690SOL     OW22702   4.396   4.350  11.752  0.1023  0.6002 -0.1867
 3690SOL    HW122703   4.318   4.296  11.768 -0.0390  0.8946  0.1211
 3690SOL    HW222704   4.421   4.369  11.842  0.7949 -1.7112  0.0969
 3691SOL     OW22705   3.746   3.725   3.296 -0.6222  0.0051 -0.5593
 3691SOL    HW122706   3.729   3.787   3.367 -0.0889 -0.3977 -0.0779
 3691SOL    HW222707   3.778   3.644   3.337 -0.3239  0.6147  0.4165
 3692SOL     OW22708   1.122   3.254   9.560 -0.2405  0.2155  0.0659
 3692SOL    HW122709   1.203   3.203   9.554 -0.4732 -0.1215 -0.2601
 3692SOL    HW222710   1.069   3.194   9.614  1.6342 -0.6797  0.9090
 3693SOL     OW22711   1.076   2.683   8.006 -0.1274  0.0225 -0.9686
 3693SOL    HW122712   1.062   2.701   7.913  2.3780  1.7940 -1.0040
 3693SOL    HW222713   0.987   2.670   8.038 -0.0668  1.4954 -0.2228
 3694SOL     OW22714   2.965   3.060   5.131  0.0484 -0.4308 -0.3850
 3694SOL    HW122715   2.943   3.002   5.058 -1.7618 -0.0730 -0.1286
 3694SOL    HW222716   2.982   3.140   5.080  0.8129 -0.7951 -0.7029
 3695SOL     OW22717   0.791   1.234  15.387 -0.9403  0.1743 -0.3439
 3695SOL    HW122718   0.791   1.324  15.355 -0.3439  1.1576  2.3811
 3695SOL    HW222719   0.712   1.208  15.342 -0.6692  0.7189 -1.1365
 3696SOL     OW22720   4.132   2.385   1.936  0.1889 -0.2918  0.3010
 3696SOL    HW122721   4.113   2.350   1.849  2.4109 -1.1584  0.1683
 3696SOL    HW222722   4.141   2.478   1.916  2.2611 -0.2093  1.6108
 3697SOL     OW22723   2.436   1.389  17.546  0.7760  0.5166  0.2417
 3697SOL    HW122724   2.494   1.466  17.554 -0.0372  1.2784 -1.1747
 3697SOL    HW222725   2.390   1.403  17.628 -0.5689 -0.0198 -0.4279
 3698SOL     OW22726   0.108   0.826   7.609  0.0275  0.2513 -0.0039
 3698SOL    HW122727   0.192   0.818   7.654 -0.5843  1.8033  1.3973
 3698SOL    HW222728   0.140   0.838   7.519  0.1015 -1.0630 -0.1534
 3699SOL     OW22729   2.049   3.908   8.872  0.0311 -0.3078  0.8047
 3699SOL    HW122730   2.049   3.815   8.850 -1.0022 -0.2816  0.6901
 3699SOL    HW222731   1.981   3.917   8.938  0.3357  0.8684  0.9536
 3700SOL     OW22732   0.622   4.486   4.109 -0.0305  0.3116  0.3433
 3700SOL    HW122733   0.576   4.410   4.073  0.7037 -0.1141  0.3026
 3700SOL    HW222734   0.678   4.437   4.170 -0.9627  0.4154  1.2973
 3701SOL     OW22735   2.676   2.771   3.321  0.0261  0.1723 -0.2063
 3701SOL    HW122736   2.585   2.783   3.295  0.4767 -2.2945 -2.8994
 3701SOL    HW222737   2.657   2.696   3.376 -1.8527  1.8703  1.4824
 3702SOL     OW22738   3.881   0.972   2.348  0.2238  0.0613  0.1503
 3702SOL    HW122739   3.863   1.016   2.431  0.4484 -1.8400  1.2188
 3702SOL    HW222740   3.868   1.040   2.283 -2.2254 -0.7162 -0.1695
 3703SOL     OW22741   0.987   2.360   7.981 -0.5762  0.2324  0.1612
 3703SOL    HW122742   0.954   2.419   8.048 -0.8489  0.9073 -0.5737
 3703SOL    HW222743   0.962   2.412   7.905  0.9562 -1.5806 -1.5623
 3704SOL     OW22744   0.843   0.128   6.025  0.2104 -0.0695 -0.2128
 3704SOL    HW122745   0.827   0.045   5.979 -2.2344  1.9023 -2.9043
 3704SOL    HW222746   0.807   0.187   5.959 -2.3504 -0.0872  1.1373
 3705SOL     OW22747   1.550   2.054   2.196 -0.0888  0.7423  0.5414
 3705SOL    HW122748   1.457   2.037   2.177  0.2816 -0.6254 -0.0957
 3705SOL    HW222749   1.540   2.137   2.242 -0.6846  0.5886  0.6924
 3706SOL     OW22750   0.046   4.267   0.813 -0.6600  0.1240 -0.3605
 3706SOL    HW122751   0.062   4.179   0.780  1.4389  1.0915 -2.0065
 3706SOL    HW222752   0.104   4.280   0.888  1.4415  2.5335 -2.3567
 3707SOL     OW22753   1.947   0.055   8.924  0.4883 -0.1491 -0.5421
 3707SOL    HW122754   1.891   0.051   9.002  1.4216  0.9063  0.1759
 3707SOL    HW222755   1.970   0.147   8.939 -2.6901  0.6887 -0.7923
 3708SOL     OW22756   1.420   1.480   7.374  0.1363  0.1886 -0.4556
 3708SOL    HW122757   1.432   1.499   7.467 -1.5785 -0.6038 -0.0754
 3708SOL    HW222758   1.438   1.386   7.372 -1.0564 -0.0800  1.7618
 3709SOL     OW22759   2.735   0.673   1.154  0.9470 -0.2163  0.1754
 3709SOL    HW122760   2.705   0.718   1.075  0.9457  0.1539  0.3842
 3709SOL    HW222761   2.795   0.736   1.193  0.0345  0.9266 -0.2529
 3710SOL     OW22762   0.932   1.616   2.445 -0.0460  0.0599 -0.6607
 3710SOL    HW122763   0.840   1.639   2.456 -0.0962  0.0771 -1.1056
 3710SOL    HW222764   0.929   1.525   2.417 -0.1449 -0.3889  0.7956
 3711SOL     OW22765   0.442   3.639   9.116  0.8565 -0.5368  0.1500
 3711SOL    HW122766   0.537   3.648   9.103  0.8003 -0.4280 -0.1624
 3711SOL    HW222767   0.411   3.688   9.041 -0.1014 -1.5709 -0.1324
 3712SOL     OW22768   2.366   2.914   8.041  0.1987 -0.1832  0.3362
 3712SOL    HW122769   2.399   2.884   8.126 -2.6859 -0.7307  1.2735
 3712SOL    HW222770   2.285   2.961   8.064  0.5372 -0.1128  1.4035
 3713SOL     OW22771   3.588   1.298  12.422  0.1495  1.0185 -0.3820
 3713SOL    HW122772   3.572   1.240  12.496  1.0751  1.6815  0.3381
 3713SOL    HW222773   3.626   1.380  12.454  0.0628  0.2486  1.6785
 3714SOL     OW22774   0.455   0.933   8.003  0.1760 -0.1506 -0.1114
 3714SOL    HW122775   0.518   0.947   7.933  1.2947 -0.8317  0.7584
 3714SOL    HW222776   0.414   0.850   7.978  0.4789 -0.2735 -0.2081
 3715SOL     OW22777   3.214   3.669   8.080  0.2180  0.3214  0.5325
 3715SOL    HW122778   3.233   3.579   8.106 -0.1505  0.4792  1.3608
 3715SOL    HW222779   3.266   3.712   8.148  3.3810 -1.2722 -0.8898
 3716SOL     OW22780   4.114   4.086   4.156  0.0389 -0.3239  0.3007
 3716SOL    HW122781   4.187   4.116   4.101 -0.5737  0.8956  0.1596
 3716SOL    HW222782   4.151   4.004   4.189  1.2231  0.1371  0.1355
 3717SOL     OW22783   4.733   3.020  14.643  0.4013  0.6442 -0.0897
 3717SOL    HW122784   0.039   3.082  14.699 -0.1109 -0.0409  1.0896
 3717SOL    HW222785   0.066   2.970  14.606  1.4175  0.7610  1.7595
 3718SOL     OW22786   2.505   0.051   1.602  0.0192 -0.1285  0.4817
 3718SOL    HW122787   2.554   0.001   1.536 -2.1544  0.1978 -1.4097
 3718SOL    HW222788   2.504   4.731   1.677  1.8343 -1.4694 -0.5566
 3719SOL     OW22789   4.466   0.283   4.944 -0.4259  0.6117 -0.5037
 3719SOL    HW122790   4.445   0.328   5.025  2.3360  1.4729 -0.2709
 3719SOL    HW222791   4.411   0.205   4.954 -0.0709  0.2860 -1.0474
 3720SOL     OW22792   2.800   2.744   0.901  0.3007 -0.0125  0.1901
 3720SOL    HW122793   2.741   2.694   0.958 -1.5860  2.8418  0.8148
 3720SOL    HW222794   2.835   2.686   0.834 -0.4715  2.2521 -2.2087
 3721SOL     OW22795   0.767   3.265   1.908  0.1787 -0.1995  0.3355
 3721SOL    HW122796   0.707   3.302   1.973 -0.3052  0.1600 -0.3039
 3721SOL    HW222797   0.808   3.350   1.889 -3.5574  1.0186 -2.2609
 3722SOL     OW22798   0.076   3.144   5.960 -0.0848 -0.2643 -0.4748
 3722SOL    HW122799   0.040   3.225   5.996 -0.3199 -0.7366  0.3429
 3722SOL    HW222800   0.171   3.156   5.961  0.0900 -1.4412 -2.5993
 3723SOL     OW22801   2.622   1.965   3.197 -0.8029 -0.8214  0.6473
 3723SOL    HW122802   2.561   1.965   3.271  0.0326 -1.6352  1.3239
 3723SOL    HW222803   2.671   1.891   3.233  3.7321  2.6555  1.6476
 3724SOL     OW22804   0.893   0.554   1.743  0.5247 -0.1744 -0.3259
 3724SOL    HW122805   0.964   0.607   1.708  2.0255 -1.2633  1.0597
 3724SOL    HW222806   0.937   0.500   1.809  1.0023 -0.2195 -0.6867
 3725SOL     OW22807   0.036   3.827   7.386 -0.7035  0.0607 -0.0293
 3725SOL    HW122808   0.012   3.768   7.315  0.5224  0.7102 -0.9740
 3725SOL    HW222809   4.723   3.900   7.353 -2.5206 -2.5380 -2.8784
 3726SOL     OW22810   2.443   2.512  17.559  0.1881  0.2483  0.7029
 3726SOL    HW122811   2.470   2.553  17.641 -2.9082  1.0651  1.2958
 3726SOL    HW222812   2.371   2.566  17.527  0.0285 -0.8623 -0.7968
 3727SOL     OW22813   3.952   1.374   2.409  0.0157  0.0200  1.0226
 3727SOL    HW122814   3.984   1.439   2.347  0.9194 -1.5571 -0.1437
 3727SOL    HW222815   3.883   1.328   2.361 -0.3759  0.5306  1.0897
 3728SOL     OW22816   2.445   3.483   6.716 -0.1644 -0.0731  0.0002
 3728SOL    HW122817   2.451   3.437   6.632  0.6532  0.6588 -0.3471
 3728SOL    HW222818   2.531   3.472   6.757  0.1679  0.8389 -0.4549
 3729SOL     OW22819   1.699   0.027   4.287 -0.6105  0.1075  0.4097
 3729SOL    HW122820   1.675   4.685   4.329 -2.2157  0.6955  0.6161
 3729SOL    HW222821   1.766   0.065   4.344 -0.8634  0.2075  0.6352
 3730SOL     OW22822   1.795   4.213   5.546 -0.3779  0.2934  0.1585
 3730SOL    HW122823   1.770   4.304   5.534  2.1539  0.9942  0.2610
 3730SOL    HW222824   1.718   4.182   5.595  0.3962  0.7797  1.7002
 3731SOL     OW22825   0.760   0.721  13.515  0.4421  1.0620  0.4281
 3731SOL    HW122826   0.785   0.706  13.606  4.1826 -2.4265 -1.2167
 3731SOL    HW222827   0.705   0.643  13.505 -0.2488  1.3736  1.6373
 3732SOL     OW22828   4.338   2.957  15.951  0.0288 -0.1263 -0.0487
 3732SOL    HW122829   4.322   3.014  15.876 -2.1664  0.9114  1.1790
 3732SOL    HW222830   4.394   2.894  15.906 -0.8329  0.3742 -1.8039
 3733SOL     OW22831   3.099   1.597   3.422  0.0766 -0.1442 -0.2832
 3733SOL    HW122832   3.012   1.620   3.454  0.1152 -1.1003  0.5322
 3733SOL    HW222833   3.155   1.577   3.498  2.0813  2.4803 -1.0598
 3734SOL     OW22834   2.715   2.678   4.622 -0.4622  0.6894 -0.4270
 3734SOL    HW122835   2.723   2.772   4.633  2.7528  0.3807  0.0208
 3734SOL    HW222836   2.775   2.649   4.553 -1.8599 -0.9468 -0.9750
 3735SOL     OW22837   2.767   3.328  11.201 -0.0527  0.0083  0.2518
 3735SOL    HW122838   2.724   3.266  11.141 -1.0571  0.5514  0.4151
 3735SOL    HW222839   2.718   3.409  11.186  1.7917  1.0855  0.1182
 3736SOL     OW22840   1.864   0.821  12.324 -0.0293 -0.8681  0.3619
 3736SOL    HW122841   1.811   0.876  12.265 -0.1436  0.4344  1.6862
 3736SOL    HW222842   1.800   0.752  12.342 -2.7157  1.7730  1.0192
 3737SOL     OW22843   1.945   3.161   5.115 -0.4750  0.2730  0.1423
 3737SOL    HW122844   1.859   3.195   5.088 -0.3059  1.1186  0.6757
 3737SOL    HW222845   1.992   3.244   5.114 -0.7139  0.3896 -2.2773
 3738SOL     OW22846   1.010   0.414  13.983 -0.1876  0.0104  0.2291
 3738SOL    HW122847   0.959   0.333  13.994 -2.4885  1.7923  2.7260
 3738SOL    HW222848   1.099   0.384  13.998  0.1863  1.2760  0.5135
 3739SOL     OW22849   3.905   1.827   2.148 -0.0378 -0.1073 -0.3904
 3739SOL    HW122850   3.873   1.916   2.131  0.1175  0.2154  0.9893
 3739SOL    HW222851   3.996   1.848   2.127 -0.5101  1.1535 -1.2120
 3740SOL     OW22852   0.726   4.627  17.736 -0.2790  0.6846  0.5700
 3740SOL    HW122853   0.744   4.574   0.054  0.8460 -1.1629 -0.9573
 3740SOL    HW222854   0.811   4.668  17.722 -0.2440  0.2445 -0.5036
 3741SOL     OW22855   4.664   3.781   5.041  0.5339  0.8251 -0.1846
 3741SOL    HW122856   0.007   3.733   5.038 -1.8429 -3.3266 -0.2268
 3741SOL    HW222857   4.702   3.868   5.032 -1.1715  1.6216  0.3589
 3742SOL     OW22858   1.421   2.195  10.357  0.0510 -0.1582  0.1934
 3742SOL    HW122859   1.505   2.154  10.336  0.8648  3.2768 -3.3757
 3742SOL    HW222860   1.428   2.211  10.451 -0.5179 -3.6331  0.8096
 3743SOL     OW22861   3.524   2.236  12.553  0.1272 -0.0959 -0.2938
 3743SOL    HW122862   3.465   2.266  12.622  1.0144  1.3950 -0.1766
 3743SOL    HW222863   3.605   2.287  12.561  0.0807 -0.3686  2.0838
 3744SOL     OW22864   2.243   3.025   9.345  0.2009 -0.1827 -0.1078
 3744SOL    HW122865   2.184   3.030   9.421  0.1493  0.4892 -0.1950
 3744SOL    HW222866   2.305   3.097   9.355  0.0963 -0.5532  3.1350
 3745SOL     OW22867   0.993   3.964   7.275  0.5096  0.2691 -0.0939
 3745SOL    HW122868   1.023   3.914   7.351 -1.7109 -0.8995  0.0082
 3745SOL    HW222869   0.914   3.915   7.252  0.8045 -0.2448  0.0061
 3746SOL     OW22870   1.188   2.186  10.703  0.5765  0.4998  0.4491
 3746SOL    HW122871   1.137   2.111  10.672 -0.9184  1.6666  0.0904
 3746SOL    HW222872   1.135   2.265  10.692  4.1133  2.2283 -4.0973
 3747SOL     OW22873   1.237   0.078   3.011  0.1329 -0.4573  0.7547
 3747SOL    HW122874   1.216   0.094   3.104 -1.2152  1.9969  0.0272
 3747SOL    HW222875   1.185   0.147   2.969 -2.0814 -2.8189 -0.3956
 3748SOL     OW22876   1.542   4.288   5.054  0.4706 -0.6470  0.0146
 3748SOL    HW122877   1.455   4.323   5.077  1.4195  0.5389  1.8200
 3748SOL    HW222878   1.593   4.368   5.039 -0.8499  0.4651  1.4954
 3749SOL     OW22879   1.223   1.660   7.645 -0.5269 -0.7022 -0.0684
 3749SOL    HW122880   1.240   1.712   7.723 -0.4623  2.1358 -1.9762
 3749SOL    HW222881   1.309   1.623   7.626  1.5303  3.2841  1.4278
 3750SOL     OW22882   4.532   1.093  12.927 -0.4383 -0.3758 -0.0689
 3750SOL    HW122883   4.517   1.185  12.903  0.0688 -0.9181 -2.4365
 3750SOL    HW222884   4.627   1.087  12.914 -0.2157  0.7654  0.9743
 3751SOL     OW22885   2.621   3.870   4.263  0.1825  0.4975  0.5386
 3751SOL    HW122886   2.583   3.950   4.300  0.3809  0.7415  0.2188
 3751SOL    HW222887   2.710   3.900   4.281  0.7912 -0.9606 -0.0136
 3752SOL     OW22888   0.951   0.085  17.119  0.2075  0.3247 -0.5249
 3752SOL    HW122889   0.980   4.737  17.095 -0.5894  0.1818 -0.9810
 3752SOL    HW222890   0.884   0.062  17.184 -0.3507 -1.0177 -1.5835
 3753SOL     OW22891   1.766   2.200   7.729 -0.0735 -0.3712  0.2503
 3753SOL    HW122892   1.850   2.162   7.754  0.1007 -1.6838 -2.4323
 3753SOL    HW222893   1.774   2.284   7.775  2.5858 -0.4439 -0.0849
 3754SOL     OW22894   0.868   2.187  15.932 -0.1506  0.2169  0.0028
 3754SOL    HW122895   0.778   2.163  15.951 -0.1105 -0.3069 -0.4459
 3754SOL    HW222896   0.906   2.163  16.017 -2.0760 -1.3692  0.4204
 3755SOL     OW22897   0.818   0.083   5.139  0.0531  0.2975  0.0326
 3755SOL    HW122898   0.723   0.069   5.142 -0.0725  1.1930  0.2450
 3755SOL    HW222899   0.838   0.126   5.222 -1.1169  0.3040  0.3194
 3756SOL     OW22900   2.103   0.883  14.823  0.0519  0.4232  0.3578
 3756SOL    HW122901   2.055   0.909  14.902  2.2087 -0.8214  2.0744
 3756SOL    HW222902   2.185   0.859  14.866  1.1416  0.2103 -1.8208
 3757SOL     OW22903   2.766   3.058   8.816  0.1509  0.0676 -0.1358
 3757SOL    HW122904   2.811   2.986   8.772  2.8123  1.1170  0.8802
 3757SOL    HW222905   2.721   3.096   8.741  0.4823 -2.6613 -1.7114
 3758SOL     OW22906   3.749   1.552   1.622 -0.3630 -0.1067  0.2227
 3758SOL    HW122907   3.729   1.535   1.530 -0.2189 -0.0987  0.1907
 3758SOL    HW222908   3.844   1.565   1.625 -0.4543  0.8678 -0.8991
 3759SOL     OW22909   3.639   0.150   5.354 -0.3417 -0.2834 -0.0868
 3759SOL    HW122910   3.656   0.129   5.262  0.5729  0.1592 -0.0195
 3759SOL    HW222911   3.561   0.097   5.370 -0.3303 -0.3773 -0.3416
 3760SOL     OW22912   3.280   0.941   3.105 -0.3924 -0.0469  0.2766
 3760SOL    HW122913   3.266   0.915   3.014 -1.4920  0.4185  0.3189
 3760SOL    HW222914   3.274   1.036   3.096 -0.2376 -0.0947 -0.3428
 3761SOL     OW22915   2.752   4.092   6.926 -0.1190  0.2720  0.1148
 3761SOL    HW122916   2.691   4.123   6.992 -1.3371  0.9926 -1.3394
 3761SOL    HW222917   2.691   4.056   6.861 -1.2544  1.2057  0.6642
 3762SOL     OW22918   3.655   2.318   2.266  0.3299 -0.2593 -0.4832
 3762SOL    HW122919   3.641   2.410   2.289  0.6192  0.0609 -1.5645
 3762SOL    HW222920   3.669   2.282   2.353  3.7388 -0.7315 -1.2373
 3763SOL     OW22921   1.123   3.379  14.771 -0.2749 -0.1420  0.1319
 3763SOL    HW122922   1.135   3.329  14.690  2.2931  0.0702  0.3604
 3763SOL    HW222923   1.148   3.315  14.837 -1.8737 -0.9105 -0.0108
 3764SOL     OW22924   2.587   1.050   7.765  0.7064 -0.0994 -0.0487
 3764SOL    HW122925   2.541   1.001   7.832 -0.5072  2.8062  1.2512
 3764SOL    HW222926   2.579   0.992   7.690 -0.7117  2.9335 -2.2265
 3765SOL     OW22927   4.384   0.568  11.778  0.4895 -0.0086 -0.3651
 3765SOL    HW122928   4.345   0.498  11.725 -2.0351  1.9197 -1.0385
 3765SOL    HW222929   4.439   0.517  11.838 -1.0540 -1.4672 -0.1866
 3766SOL     OW22930   2.593   3.021   3.486  0.7496 -0.1001  0.5934
 3766SOL    HW122931   2.513   3.065   3.515  0.4261  0.6285 -1.4028
 3766SOL    HW222932   2.561   2.951   3.429 -2.3110  1.7855  0.0295
 3767SOL     OW22933   4.425   3.911   2.949 -0.2074 -0.4554  0.7670
 3767SOL    HW122934   4.507   3.958   2.966  0.0471 -0.5619 -0.1641
 3767SOL    HW222935   4.401   3.898   3.041  0.9030  1.2927  1.3229
 3768SOL     OW22936   1.856   2.666   8.409 -0.8536 -0.6532  0.2563
 3768SOL    HW122937   1.801   2.589   8.424  1.4412 -2.7210 -1.7101
 3768SOL    HW222938   1.885   2.649   8.319 -1.3961 -1.0691  0.1586
 3769SOL     OW22939   3.763   3.340   5.655  0.7874  0.2552 -0.2934
 3769SOL    HW122940   3.702   3.389   5.710 -0.5915 -0.8092 -0.8520
 3769SOL    HW222941   3.699   3.283   5.612 -0.2199  0.6056  0.7264
 3770SOL     OW22942   2.914   2.617   7.650  0.2374 -0.0349 -0.6856
 3770SOL    HW122943   2.876   2.560   7.583  0.0553 -0.7392  0.0205
 3770SOL    HW222944   2.949   2.694   7.604 -2.3556  1.4852 -0.0943
 3771SOL     OW22945   1.566   2.291   0.963  0.5191 -0.1269  0.2271
 3771SOL    HW122946   1.613   2.327   1.038  0.4735 -0.5138  0.4457
 3771SOL    HW222947   1.597   2.201   0.960 -1.6211 -0.8288 -0.9372
 3772SOL     OW22948   4.544   1.131   7.791  0.9110  0.2226 -0.1669
 3772SOL    HW122949   4.507   1.085   7.867 -0.6709  2.9182  0.6727
 3772SOL    HW222950   4.461   1.143   7.745  1.4735  0.4602 -1.1209
 3773SOL     OW22951   2.889   1.945   4.864 -0.1640 -0.1954  0.2613
 3773SOL    HW122952   2.868   2.031   4.900  0.1946  0.3305 -0.7629
 3773SOL    HW222953   2.976   1.916   4.894 -0.4539 -0.4288  0.8683
 3774SOL     OW22954   4.507   3.196   6.503  0.5886 -0.3335  0.0458
 3774SOL    HW122955   4.447   3.176   6.575 -1.0585  2.7423 -0.4781
 3774SOL    HW222956   4.525   3.289   6.519 -0.6333 -0.3377  1.4776
 3775SOL     OW22957   3.660   1.165   5.794  0.3241  0.1148  0.1314
 3775SOL    HW122958   3.623   1.160   5.882 -0.8594  1.9240 -0.2498
 3775SOL    HW222959   3.741   1.115   5.803 -0.3173 -1.2732 -1.8291
 3776SOL     OW22960   3.922   1.764   5.123  0.5803 -0.0586 -0.1852
 3776SOL    HW122961   3.974   1.828   5.172 -0.4996  1.7468 -1.4102
 3776SOL    HW222962   3.941   1.691   5.182 -1.5812 -0.7039 -0.2728
 3777SOL     OW22963   0.448   1.496   3.758  0.0185  0.4847 -0.0488
 3777SOL    HW122964   0.497   1.461   3.683  0.3372  0.7146  0.0505
 3777SOL    HW222965   0.471   1.442   3.833  1.0373 -0.2118 -0.8618
 3778SOL     OW22966   1.831   4.136   1.800  0.3030 -0.1662 -0.6726
 3778SOL    HW122967   1.778   4.216   1.790 -0.2792 -0.3373  1.0801
 3778SOL    HW222968   1.770   4.070   1.767  0.0545 -0.2667 -0.0065
 3779SOL     OW22969   2.184   4.343  16.370  0.7982 -0.1266 -0.2944
 3779SOL    HW122970   2.160   4.394  16.293  1.2567 -1.1445 -1.1134
 3779SOL    HW222971   2.218   4.261  16.334 -0.2321 -0.3559 -0.7326
 3780SOL     OW22972   1.468   0.521   2.640 -0.1752 -0.2218  0.2208
 3780SOL    HW122973   1.420   0.439   2.653  1.2146 -0.8951  1.1977
 3780SOL    HW222974   1.547   0.483   2.601 -0.4283 -0.7091  0.1809
 3781SOL     OW22975   3.794   0.868  10.654 -0.5061  0.1167 -0.3683
 3781SOL    HW122976   3.751   0.859  10.739 -0.5896 -1.8376 -0.6171
 3781SOL    HW222977   3.729   0.868  10.583  1.0960  2.3336 -1.8254
 3782SOL     OW22978   4.613   2.342  15.767 -0.2388 -0.5600  0.3674
 3782SOL    HW122979   4.669   2.309  15.697 -2.7763  0.5322 -2.1356
 3782SOL    HW222980   4.678   2.365  15.833  1.4018  0.3962 -1.5805
 3783SOL     OW22981   3.743   2.918   9.516 -0.1597 -1.0795 -0.1367
 3783SOL    HW122982   3.744   2.967   9.598 -0.4905  0.7323 -1.1966
 3783SOL    HW222983   3.774   2.836   9.553 -0.1075 -0.8449  0.3400
 3784SOL     OW22984   4.314   1.443  10.257 -0.0055  0.1856 -0.4091
 3784SOL    HW122985   4.264   1.395  10.190 -1.3060 -0.2981  0.9263
 3784SOL    HW222986   4.248   1.456  10.324  1.3921  0.8568  0.8217
 3785SOL     OW22987   0.531   2.237   5.627  0.4293  0.2126  1.1352
 3785SOL    HW122988   0.525   2.256   5.533 -1.6582  1.3536  1.4970
 3785SOL    HW222989   0.481   2.155   5.637 -0.5428  0.3074 -2.9799
 3786SOL     OW22990   3.772   3.395   2.638 -0.1375 -0.5548 -0.0314
 3786SOL    HW122991   3.799   3.409   2.547 -1.1375 -3.1123 -0.7412
 3786SOL    HW222992   3.840   3.432   2.693 -2.6043  1.2526  1.7818
 3787SOL     OW22993   1.307   0.951  11.783  0.1763 -0.6567 -1.0951
 3787SOL    HW122994   1.221   0.907  11.781  0.6348 -1.5400 -1.5584
 3787SOL    HW222995   1.345   0.891  11.718  0.3432  1.0851 -2.5936
 3788SOL     OW22996   3.542   4.469  16.725  0.0869  0.3714 -0.0845
 3788SOL    HW122997   3.586   4.553  16.739 -3.7322  2.3445 -0.0680
 3788SOL    HW222998   3.455   4.503  16.706  0.7356  1.7117 -0.6823
 3789SOL     OW22999   4.031   2.428   7.668  0.2718 -0.3009 -0.0173
 3789SOL    HW123000   4.012   2.521   7.655  1.3551 -0.0865 -0.0551
 3789SOL    HW223001   4.018   2.410   7.761  2.7662 -1.0770  0.2009
 3790SOL     OW23002   2.561   0.483  17.290  0.0938  0.7401 -0.3312
 3790SOL    HW123003   2.521   0.530  17.217 -2.5330 -0.6057  0.2242
 3790SOL    HW223004   2.639   0.451  17.244  1.0236  0.9309  1.1088
 3791SOL     OW23005   1.454   0.240  10.430 -0.4207 -0.1725  0.3387
 3791SOL    HW123006   1.390   0.285  10.374 -0.5243  1.4938  1.8046
 3791SOL    HW223007   1.442   0.149  10.404  4.2595 -0.9363  0.8513
 3792SOL     OW23008   3.224   0.359   8.706  0.5889  0.1890 -0.2717
 3792SOL    HW123009   3.142   0.315   8.731  0.8864 -0.2674 -0.1049
 3792SOL    HW223010   3.259   0.396   8.787  0.4191  2.3368 -1.1795
 3793SOL     OW23011   1.150   0.222   7.543 -0.3499  0.1021 -0.8937
 3793SOL    HW123012   1.206   0.239   7.467  1.2703  0.7899  0.4720
 3793SOL    HW223013   1.067   0.270   7.542 -0.3789  0.0802  0.5501
 3794SOL     OW23014   0.370   4.642   8.723  1.0902 -0.3888 -0.3651
 3794SOL    HW123015   0.314   4.695   8.780 -1.1295 -0.8616 -2.1624
 3794SOL    HW223016   0.457   4.664   8.758  1.9257 -2.9865 -0.8057
 3795SOL     OW23017   2.467   2.524   7.725 -0.5344 -0.9366 -0.2331
 3795SOL    HW123018   2.427   2.561   7.804 -3.1419  0.0144 -1.9833
 3795SOL    HW223019   2.519   2.455   7.767 -2.3859 -0.6037  2.6411
 3796SOL     OW23020   0.800   0.454   5.591 -0.1373  0.5628  0.3183
 3796SOL    HW123021   0.809   0.533   5.643  1.7588  0.4918  0.1155
 3796SOL    HW223022   0.830   0.385   5.651 -3.8736 -2.3547 -1.1265
 3797SOL     OW23023   3.105   3.563  12.108  0.0842 -0.6013 -0.4855
 3797SOL    HW123024   3.033   3.534  12.052 -0.5846 -0.1439  0.1298
 3797SOL    HW223025   3.158   3.484  12.115 -1.0411 -1.1446  2.1256
 3798SOL     OW23026   1.944   4.008   7.437  0.1061 -0.0939  0.3928
 3798SOL    HW123027   1.876   4.073   7.419  2.0181  1.8597  0.3329
 3798SOL    HW223028   1.888   3.930   7.438  0.1612 -0.1422 -0.0378
 3799SOL     OW23029   3.388   2.104   9.017 -0.4073 -0.4368  0.2595
 3799SOL    HW123030   3.322   2.160   8.976  0.6618 -1.1926 -2.4483
 3799SOL    HW223031   3.425   2.054   8.944  0.0496  0.5337 -0.1734
 3800SOL     OW23032   2.427   2.184  16.018  0.1175 -0.4716  0.2738
 3800SOL    HW123033   2.389   2.236  15.947 -1.6615 -0.1083  1.4991
 3800SOL    HW223034   2.377   2.212  16.094 -2.2066 -2.5617 -0.4590
 3801SOL     OW23035   2.308   4.620  10.637 -0.0017  0.2335 -0.0806
 3801SOL    HW123036   2.375   4.560  10.669 -0.2531 -0.7009 -1.2890
 3801SOL    HW223037   2.231   4.564  10.634 -0.6457  1.0665  0.9784
 3802SOL     OW23038   1.118   2.108  12.903  0.0635  0.0580  0.2258
 3802SOL    HW123039   1.077   2.132  12.986 -0.1381 -0.6069  0.3202
 3802SOL    HW223040   1.092   2.187  12.856  2.2422  0.3091 -0.5251
 3803SOL     OW23041   2.003   2.366  10.598 -0.3974  0.5721  0.0678
 3803SOL    HW123042   2.091   2.356  10.634 -0.7251 -0.8724  0.4889
 3803SOL    HW223043   1.990   2.306  10.525  1.7160  0.6967 -0.3996
 3804SOL     OW23044   1.798   3.619   6.331 -0.7354  0.6016  0.0834
 3804SOL    HW123045   1.774   3.694   6.385  2.3671  1.2498  0.5355
 3804SOL    HW223046   1.888   3.644   6.310 -1.0079  2.1592  0.8341
 3805SOL     OW23047   3.274   0.734   2.735  0.2578  0.6771  0.2954
 3805SOL    HW123048   3.336   0.660   2.734 -1.2250 -0.5812  1.3661
 3805SOL    HW223049   3.329   0.803   2.698  0.3212  0.3411 -0.2342
 3806SOL     OW23050   1.579   3.514  15.557  0.7067 -0.1203 -0.5171
 3806SOL    HW123051   1.638   3.460  15.505  2.2683  0.3690  0.7284
 3806SOL    HW223052   1.596   3.595  15.509  0.6191  0.4004  0.3310
 3807SOL     OW23053   1.606   1.830   3.662  0.3605  0.5364  0.0778
 3807SOL    HW123054   1.642   1.917   3.682 -0.8841  1.5146 -1.9006
 3807SOL    HW223055   1.635   1.780   3.738  0.8400 -0.1998 -0.5873
 3808SOL     OW23056   2.588   0.022  17.287  0.4266  0.0878 -0.1633
 3808SOL    HW123057   2.546   4.723  17.363  1.1576  0.7045  0.5656
 3808SOL    HW223058   2.674   4.736  17.319  0.9848  0.1003 -1.6621
 3809SOL     OW23059   4.596   0.266   4.116  0.1931 -0.6239  0.0340
 3809SOL    HW123060   4.607   0.179   4.079  0.9247 -0.1181 -0.9507
 3809SOL    HW223061   4.667   0.269   4.181 -0.1473 -0.2438  0.3873
 3810SOL     OW23062   0.233   0.762   5.989 -0.5703 -0.4880 -0.0257
 3810SOL    HW123063   0.192   0.738   6.073 -0.4890  3.3468  1.1392
 3810SOL    HW223064   0.245   0.855   6.007  0.5288 -0.6621  0.1332
 3811SOL     OW23065   4.332   1.074   4.020  0.1855 -0.0657  0.1763
 3811SOL    HW123066   4.286   1.127   3.953  1.4558  0.9871  0.1460
 3811SOL    HW223067   4.323   0.986   3.983 -0.2310 -0.2089  0.6212
 3812SOL     OW23068   3.367   3.055   8.980  0.3540  0.5506  0.1023
 3812SOL    HW123069   3.444   3.106   9.006  0.7103  0.7991 -1.4189
 3812SOL    HW223070   3.403   2.968   8.966  0.4460  0.5304  0.4680
 3813SOL     OW23071   3.787   4.632   7.696  0.3413  0.1884  0.1336
 3813SOL    HW123072   3.841   4.690   7.750 -2.0381 -1.8618  4.6476
 3813SOL    HW223073   3.717   4.693   7.674  0.0724  0.1071  0.7846
 3814SOL     OW23074   2.198   3.592   5.725 -0.1209 -0.0074 -0.1379
 3814SOL    HW123075   2.229   3.509   5.689  3.3881 -0.7626  4.6119
 3814SOL    HW223076   2.253   3.655   5.678 -1.2218  1.3590  0.3975
 3815SOL     OW23077   0.347   1.240   2.421 -0.0661  0.0055  0.6411
 3815SOL    HW123078   0.315   1.196   2.499  0.7574  0.0110  0.9912
 3815SOL    HW223079   0.312   1.327   2.440 -1.2583 -0.5647  1.0302
 3816SOL     OW23080   3.632   3.458   8.239  0.0667 -0.4658 -0.0550
 3816SOL    HW123081   3.581   3.413   8.306  0.6127  0.4557  0.9654
 3816SOL    HW223082   3.701   3.492   8.296  1.0513 -1.8577 -0.4020
 3817SOL     OW23083   0.663   0.648   1.112  0.5001 -0.3109 -0.3634
 3817SOL    HW123084   0.758   0.659   1.107  0.1282  2.4415 -1.4193
 3817SOL    HW223085   0.637   0.740   1.116  0.9528 -0.2470  1.1285
 3818SOL     OW23086   1.397   1.038   8.630  0.2368  0.3755  0.3466
 3818SOL    HW123087   1.479   1.054   8.583 -0.9259 -0.1079 -1.8786
 3818SOL    HW223088   1.374   1.129   8.646 -0.9603  0.1810 -0.2621
 3819SOL     OW23089   0.770   3.247  15.485  0.0254 -0.1827  0.2775
 3819SOL    HW123090   0.818   3.312  15.536  1.1713 -0.4109 -0.5261
 3819SOL    HW223091   0.835   3.178  15.485  0.0935 -0.1152 -1.2122
 3820SOL     OW23092   4.321   1.455  15.693  0.6076  0.0453 -0.0468
 3820SOL    HW123093   4.394   1.447  15.754  0.6357 -1.5976 -0.3086
 3820SOL    HW223094   4.371   1.479  15.615  0.5069 -1.2917 -0.5120
 3821SOL     OW23095   3.547   3.442  11.150  0.1216 -0.4258  0.8274
 3821SOL    HW123096   3.478   3.377  11.137  0.6291 -0.7266 -0.2890
 3821SOL    HW223097   3.535   3.455  11.244  0.9195 -3.4691  1.3402
 3822SOL     OW23098   2.798   1.854  13.061  0.5376 -0.5445  0.0814
 3822SOL    HW123099   2.829   1.810  12.981  1.3856 -0.9359  0.6299
 3822SOL    HW223100   2.714   1.889  13.031  2.1247  1.6804 -1.7499
 3823SOL     OW23101   1.170   0.028   5.805  0.2771 -0.3150 -0.1567
 3823SOL    HW123102   1.194   0.000   5.716  0.5721  0.1343 -0.2196
 3823SOL    HW223103   1.239   0.092   5.824 -2.0541  2.3068 -0.6047
 3824SOL     OW23104   0.377   4.495   4.782 -0.0216  0.5188  0.1882
 3824SOL    HW123105   0.410   4.413   4.819 -2.0369 -0.3388  0.0866
 3824SOL    HW223106   0.283   4.479   4.780  0.0601  0.2398 -1.4195
 3825SOL     OW23107   2.968   4.290   8.425  0.1157  0.3928 -0.4670
 3825SOL    HW123108   3.008   4.236   8.357  2.7671  0.9419  0.6375
 3825SOL    HW223109   3.018   4.369   8.401  2.7050 -1.1450 -0.1875
 3826SOL     OW23110   0.342   2.430  16.976 -0.1769  0.7779  0.0024
 3826SOL    HW123111   0.261   2.467  16.942  0.4637  1.4910 -0.7381
 3826SOL    HW223112   0.315   2.350  17.022 -0.1205 -0.2441 -1.7349
 3827SOL     OW23113   0.695   2.111   8.205  0.5331  0.2496 -0.4366
 3827SOL    HW123114   0.684   2.206   8.206 -0.9839  0.0590 -0.4768
 3827SOL    HW223115   0.606   2.077   8.198  0.5586  0.3033 -1.0381
 3828SOL     OW23116   4.421   2.759   9.403 -0.1518  0.1351 -0.3688
 3828SOL    HW123117   4.489   2.693   9.388 -1.7161 -1.3022 -1.0685
 3828SOL    HW223118   4.366   2.713   9.466 -0.0604 -0.6584 -0.8686
 3829SOL     OW23119   2.641   3.113   8.582 -0.6520 -0.4686 -0.1528
 3829SOL    HW123120   2.689   3.076   8.508  0.1615  0.1351  0.0786
 3829SOL    HW223121   2.621   3.200   8.549 -2.4628 -0.6379  0.4826
 3830SOL     OW23122   3.960   3.161   8.533  0.2019 -0.0866  0.2215
 3830SOL    HW123123   4.017   3.086   8.554 -0.1241 -0.6732 -0.9876
 3830SOL    HW223124   4.006   3.191   8.454  3.3721 -1.9355  1.3482
 3831SOL     OW23125   0.648   0.536   5.902 -0.8707 -0.1338  0.5651
 3831SOL    HW123126   0.645   0.599   5.975 -1.2895 -2.6317  2.7136
 3831SOL    HW223127   0.594   0.588   5.842 -1.8877  1.8814  3.2241
 3832SOL     OW23128   2.717   0.660   7.627 -0.2015 -0.5702  0.6676
 3832SOL    HW123129   2.796   0.680   7.677  0.0459 -0.1109  0.0869
 3832SOL    HW223130   2.678   0.742   7.598  0.9808 -0.4576 -0.5713
 3833SOL     OW23131   3.379   2.896  14.418  0.2242  0.0024 -0.1650
 3833SOL    HW123132   3.317   2.851  14.476 -0.6861 -0.8851 -1.8088
 3833SOL    HW223133   3.363   2.838  14.343 -1.8338  0.2508  0.0694
 3834SOL     OW23134   3.809   4.702   5.610  0.8210  0.4647 -0.3682
 3834SOL    HW123135   3.839   4.683   5.521  0.7056 -1.3575 -0.0284
 3834SOL    HW223136   3.723   4.659   5.613  0.2989  1.5900  0.8702
 3835SOL     OW23137   4.160   0.501   4.114 -0.4621  0.0979  0.3394
 3835SOL    HW123138   4.142   0.582   4.066  2.4671  0.6076  0.0982
 3835SOL    HW223139   4.235   0.523   4.169 -1.2833  0.7406  1.1993
 3836SOL     OW23140   3.345   0.827   7.509  0.1603 -0.1016 -0.0227
 3836SOL    HW123141   3.417   0.786   7.556  2.2706  2.3362 -1.1231
 3836SOL    HW223142   3.304   0.867   7.585  1.2937 -0.3978  0.7454
 3837SOL     OW23143   1.786   1.717   4.431 -0.3153 -0.2583 -0.5293
 3837SOL    HW123144   1.824   1.728   4.519 -4.4257 -0.6883  1.2655
 3837SOL    HW223145   1.711   1.775   4.446 -0.0249 -0.0660  0.1963
 3838SOL     OW23146   0.224   1.838   6.048  0.2447 -0.2808  0.0859
 3838SOL    HW123147   0.201   1.791   6.129 -1.8858 -0.1799 -0.4654
 3838SOL    HW223148   0.266   1.919   6.077  1.6424 -0.0527 -2.5743
 3839SOL     OW23149   3.420   1.246   9.594  0.0477 -0.2104 -0.2574
 3839SOL    HW123150   3.378   1.303   9.659 -1.6616 -0.1143 -1.4291
 3839SOL    HW223151   3.383   1.286   9.515 -1.3123  2.1393  1.5703
 3840SOL     OW23152   0.037   4.496   8.748 -0.4271  0.1626  0.2551
 3840SOL    HW123153   4.713   4.461   8.808 -2.0212  2.0636 -0.3434
 3840SOL    HW223154   0.119   4.487   8.798 -1.0797 -1.5152  1.0036
 3841SOL     OW23155   2.205   0.874   4.123 -0.2519 -0.2035  0.7358
 3841SOL    HW123156   2.251   0.859   4.206 -0.2335  2.0087  1.1177
 3841SOL    HW223157   2.121   0.907   4.156 -0.9822 -0.2833 -1.0851
 3842SOL     OW23158   0.910   0.743   7.612  1.1388 -0.0779 -0.6869
 3842SOL    HW123159   0.953   0.753   7.527  3.1176 -0.8442  0.2253
 3842SOL    HW223160   0.959   0.674   7.654 -1.8007 -0.9298  1.3181
 3843SOL     OW23161   2.229   3.479   3.079  0.3642  0.3071 -0.2408
 3843SOL    HW123162   2.175   3.505   3.154  1.1829  1.2505  0.0224
 3843SOL    HW223163   2.184   3.513   3.002  0.0272  1.6703  0.5532
 3844SOL     OW23164   1.875   0.268   1.259 -0.2149 -0.1492 -0.2878
 3844SOL    HW123165   1.950   0.311   1.299 -0.3004  0.6862 -1.0287
 3844SOL    HW223166   1.858   0.201   1.325  3.1551 -0.7058  0.0020
 3845SOL     OW23167   4.363   0.026   3.322 -0.0961  0.2424  0.3879
 3845SOL    HW123168   4.383   0.119   3.312  1.2586  0.0109  0.9321
 3845SOL    HW223169   4.451   4.736   3.342 -0.4550 -0.7285  0.4711
 3846SOL     OW23170   3.587   2.534   6.657 -0.6893  0.1100 -0.1792
 3846SOL    HW123171   3.493   2.549   6.656 -0.5549  0.9639 -0.0210
 3846SOL    HW223172   3.604   2.508   6.566  0.3618 -1.5394  0.4964
 3847SOL     OW23173   3.579   4.439  11.643 -0.3630 -0.7582  0.1441
 3847SOL    HW123174   3.528   4.457  11.564 -0.6296  0.8984  0.6941
 3847SOL    HW223175   3.522   4.473  11.712  0.5384  0.6596  0.1860
 3848SOL     OW23176   4.227   0.125  13.650  0.2480  0.1017 -0.0350
 3848SOL    HW123177   4.239   0.030  13.644 -0.0065  0.2544 -3.0631
 3848SOL    HW223178   4.276   0.145  13.730  0.1218  1.5136 -0.3032
 3849SOL     OW23179   2.121   3.031   7.690  0.3287 -0.5162  0.2146
 3849SOL    HW123180   2.121   3.038   7.594 -1.1500  4.6352  0.5641
 3849SOL    HW223181   2.215   3.032   7.708  0.1887 -2.0611  0.9272
 3850SOL     OW23182   2.343   2.803   5.793  0.2423  0.2059 -0.4534
 3850SOL    HW123183   2.370   2.882   5.841 -1.9214  0.6123  0.1113
 3850SOL    HW223184   2.258   2.833   5.762 -0.6584 -1.4437  0.4051
 3851SOL     OW23185   1.100   3.980   5.666  0.3386 -0.3089  0.1516
 3851SOL    HW123186   1.098   3.886   5.683  0.7047 -0.1339  1.1492
 3851SOL    HW223187   1.020   4.015   5.705  0.5394  0.8995 -0.5483
 3852SOL     OW23188   2.225   1.353   6.844 -0.8513  0.1901 -0.4285
 3852SOL    HW123189   2.153   1.294   6.869 -0.5466 -0.4198 -1.0141
 3852SOL    HW223190   2.208   1.368   6.751  1.1174  1.2887 -0.6096
 3853SOL     OW23191   2.378   1.944  11.012  0.0485  0.3249  0.2590
 3853SOL    HW123192   2.300   1.978  11.056 -0.7336 -0.9318 -0.1524
 3853SOL    HW223193   2.446   2.003  11.045  2.1160 -1.3282 -1.0757
 3854SOL     OW23194   1.867   3.697  17.407 -0.3528  0.2236 -0.2748
 3854SOL    HW123195   1.932   3.757  17.443 -1.5339  1.3232  0.0085
 3854SOL    HW223196   1.815   3.764  17.365 -0.3508  0.7700  0.5957
 3855SOL     OW23197   3.699   1.839  11.195 -0.2725  1.0670  0.5801
 3855SOL    HW123198   3.748   1.762  11.165  1.0703  1.8554  0.7205
 3855SOL    HW223199   3.749   1.905  11.147 -0.7837  0.3422 -0.9530
 3856SOL     OW23200   3.485   3.599  10.717 -0.0247  0.3868  0.3939
 3856SOL    HW123201   3.467   3.630  10.805 -0.4307  0.2991  0.3426
 3856SOL    HW223202   3.575   3.629  10.723  0.1315 -0.4793  2.2370
 3857SOL     OW23203   1.788   0.097  17.036 -0.4080 -0.3882 -0.7284
 3857SOL    HW123204   1.839   0.176  17.025 -1.2905  0.6601  2.5664
 3857SOL    HW223205   1.814   0.069  17.124  1.2704 -1.2224 -1.4911
 3858SOL     OW23206   3.892   2.513   8.728  0.2833 -0.3512 -0.7505
 3858SOL    HW123207   3.852   2.494   8.643 -1.7134  1.1024 -0.1267
 3858SOL    HW223208   3.967   2.568   8.705  0.8311  0.3175  2.6090
 3859SOL     OW23209   4.465   1.172  13.194 -0.0996  0.7914  0.0797
 3859SOL    HW123210   4.385   1.221  13.172  0.1746  1.1237 -0.1899
 3859SOL    HW223211   4.486   1.136  13.108 -1.6603 -0.1677  0.0969
 3860SOL     OW23212   2.768   0.742   3.602  0.1729 -0.4815 -0.3843
 3860SOL    HW123213   2.697   0.805   3.587  0.2292  0.3753  3.0227
 3860SOL    HW223214   2.721   0.659   3.603  1.6446 -1.3143  0.1983
 3861SOL     OW23215   2.483   3.652  15.364  0.5099 -0.2095 -0.6909
 3861SOL    HW123216   2.521   3.709  15.431 -1.2301  0.2531 -0.0805
 3861SOL    HW223217   2.415   3.714  15.339 -0.6252 -0.0200  2.8359
 3862SOL     OW23218   4.710   4.634   2.049  0.7489  0.5461 -0.1886
 3862SOL    HW123219   4.738   4.628   1.957  1.8409  0.8149  0.1299
 3862SOL    HW223220   0.042   4.689   2.080  1.7665 -1.4872  1.0829
 3863SOL     OW23221   4.638   0.006   6.073  0.0957 -0.5579 -0.6117
 3863SOL    HW123222   4.544   0.024   6.064  0.1227 -0.2366 -0.2660
 3863SOL    HW223223   4.651   0.060   6.152  1.2116  0.9700 -1.8477
 3864SOL     OW23224   3.106   3.108   9.058  0.2895  0.2838 -0.0534
 3864SOL    HW123225   3.199   3.111   9.037 -0.2095 -1.0066 -2.4531
 3864SOL    HW223226   3.110   3.054   9.137  0.2464  1.9296  1.0964
 3865SOL     OW23227   3.761   3.599   8.048 -0.2325  0.0518  0.0156
 3865SOL    HW123228   3.716   3.683   8.038 -1.0710 -0.5323 -1.2192
 3865SOL    HW223229   3.696   3.550   8.098  0.2934 -0.6579  0.0048
 3866SOL     OW23230   1.095   2.698   5.946 -0.0816 -0.0081  0.1190
 3866SOL    HW123231   1.039   2.774   5.930  0.5012  0.5009  0.4891
 3866SOL    HW223232   1.102   2.699   6.041  0.1304 -0.9644  0.1140
 3867SOL     OW23233   3.283   2.129  12.174  0.0476  0.0286 -0.8322
 3867SOL    HW123234   3.325   2.176  12.246 -1.8936 -1.2941  1.1793
 3867SOL    HW223235   3.322   2.181  12.104  0.0583 -0.5143 -1.2233
 3868SOL     OW23236   1.090   2.188  16.192 -0.3430  0.0286  0.1208
 3868SOL    HW123237   1.098   2.266  16.137  0.0606  2.3677  3.5520
 3868SOL    HW223238   1.145   2.206  16.268  0.5194 -3.1496  0.2671
 3869SOL     OW23239   4.227   1.271   8.318 -0.1924 -0.3259  0.0339
 3869SOL    HW123240   4.193   1.332   8.253 -4.3516 -2.0457  0.5955
 3869SOL    HW223241   4.294   1.235   8.259 -0.0217  0.3548 -0.1873
 3870SOL     OW23242   2.989   1.225   9.597  0.4502  0.6276  0.5765
 3870SOL    HW123243   2.994   1.277   9.677 -0.8473  2.0627 -0.2641
 3870SOL    HW223244   2.895   1.237   9.580  0.7133  2.6290  0.5450
 3871SOL     OW23245   0.835   1.143   7.433 -0.5925 -0.4320 -0.4815
 3871SOL    HW123246   0.763   1.172   7.489  0.0035  2.3614 -1.1456
 3871SOL    HW223247   0.896   1.100   7.492  0.7819  0.9052 -0.9518
 3872SOL     OW23248   3.957   3.345   9.181  0.3019 -0.1118  0.2550
 3872SOL    HW123249   4.044   3.384   9.193  0.1920  0.0332  0.5774
 3872SOL    HW223250   3.967   3.258   9.219 -0.3762 -0.6625 -0.8268
 3873SOL     OW23251   1.250   3.131   8.830  0.0772 -0.0434  0.2950
 3873SOL    HW123252   1.198   3.055   8.857  1.2555 -1.7521 -2.4000
 3873SOL    HW223253   1.178   3.188   8.802  1.2647  0.4289 -1.7417
 3874SOL     OW23254   2.541   1.270  11.895 -0.3207  0.2035  0.0306
 3874SOL    HW123255   2.615   1.258  11.835 -0.6607  1.3211 -0.6252
 3874SOL    HW223256   2.501   1.184  11.909 -0.2894  0.1716 -0.0725
 3875SOL     OW23257   4.287   3.977   0.830  0.2964 -0.2227  0.2951
 3875SOL    HW123258   4.334   4.057   0.856  0.3777 -0.6691  1.5229
 3875SOL    HW223259   4.205   3.979   0.880  0.3501 -2.5323  0.4820
 3876SOL     OW23260   3.050   4.144  17.353  0.2352  0.3709  0.7531
 3876SOL    HW123261   2.983   4.075  17.354  0.0390  0.5421 -1.3431
 3876SOL    HW223262   3.089   4.146  17.266  3.4122  0.8223  2.1825
 3877SOL     OW23263   0.149   3.239   7.332 -0.6335 -0.5492  0.4989
 3877SOL    HW123264   0.202   3.161   7.346  1.1260  1.0547  2.8208
 3877SOL    HW223265   0.061   3.202   7.336 -0.9055  0.1406  0.8542
 3878SOL     OW23266   1.164   0.640   6.417  0.1423  0.0668  0.0007
 3878SOL    HW123267   1.089   0.697   6.435 -0.8025 -1.1989  0.1204
 3878SOL    HW223268   1.169   0.639   6.322 -0.7332 -0.3676 -0.0477
 3879SOL     OW23269   1.015   0.498  11.748 -0.2756  0.0165 -0.0960
 3879SOL    HW123270   0.953   0.543  11.806 -0.9802 -0.0128 -0.8302
 3879SOL    HW223271   0.957   0.449  11.690 -2.3438  2.3038  0.0281
 3880SOL     OW23272   0.776   3.688   2.407  0.1323 -0.2555 -0.2912
 3880SOL    HW123273   0.871   3.677   2.410  0.5883  3.2666 -2.0581
 3880SOL    HW223274   0.746   3.721   2.492 -2.0228  1.3542 -1.6776
 3881SOL     OW23275   4.740   3.233  15.068  0.2329  0.1726 -0.0655
 3881SOL    HW123276   4.718   3.175  14.995  0.9502 -0.1583 -0.0174
 3881SOL    HW223277   0.076   3.275  15.027  0.7046  2.7932  3.4884
 3882SOL     OW23278   0.509   0.740   6.350  0.6243 -0.2628 -0.1139
 3882SOL    HW123279   0.553   0.824   6.363 -1.4895  0.3705  2.9781
 3882SOL    HW223280   0.556   0.690   6.417 -0.5726  0.1643  1.0645
 3883SOL     OW23281   4.332   3.350  17.600 -0.8597 -0.0277 -0.6062
 3883SOL    HW123282   4.316   3.336  17.693 -0.4249  3.3677 -0.0159
 3883SOL    HW223283   4.399   3.285  17.576 -0.7593 -0.3496  0.5522
 3884SOL     OW23284   2.323   0.673   6.522  0.5037 -0.1970  0.3482
 3884SOL    HW123285   2.307   0.602   6.583  1.1220 -0.5791  0.0755
 3884SOL    HW223286   2.325   0.636   6.433  2.6343  2.4097 -0.7070
 3885SOL     OW23287   4.657   2.038   7.946 -0.5261 -0.2674  0.6150
 3885SOL    HW123288   4.612   1.984   7.881 -3.8067  1.8700  1.0859
 3885SOL    HW223289   0.007   2.007   7.941 -0.0852  0.9735  0.8963
 3886SOL     OW23290   2.500   3.427   3.783 -0.8717 -0.0836 -0.0473
 3886SOL    HW123291   2.496   3.508   3.834 -2.8407 -0.9242  1.1263
 3886SOL    HW223292   2.565   3.385   3.840  0.5405  0.7670 -1.0289
 3887SOL     OW23293   2.443   4.292   5.633  0.1103 -0.2263  0.0807
 3887SOL    HW123294   2.397   4.245   5.563  2.7396 -0.7784 -1.2930
 3887SOL    HW223295   2.392   4.257   5.706 -1.8102  0.5635 -0.8737
 3888SOL     OW23296   4.231   3.496  10.353 -0.1053 -0.4062 -0.2391
 3888SOL    HW123297   4.191   3.556  10.416 -1.5327 -0.7519 -0.8140
 3888SOL    HW223298   4.186   3.522  10.272  0.2388 -0.7267 -0.5355
 3889SOL     OW23299   1.400   2.734   3.956 -0.1461 -0.0892  0.2613
 3889SOL    HW123300   1.320   2.776   3.985 -0.4729  1.2847 -2.6715
 3889SOL    HW223301   1.454   2.759   4.031  0.6757  1.0722 -0.7070
 3890SOL     OW23302   2.540   1.042  15.223  0.6735  0.2218  0.0043
 3890SOL    HW123303   2.567   0.968  15.277  3.3067  1.7843  0.8218
 3890SOL    HW223304   2.520   1.004  15.138 -1.7175  0.7105  0.3240
 3891SOL     OW23305   2.558   1.557   5.773  0.3933 -0.4103  0.4214
 3891SOL    HW123306   2.603   1.635   5.742 -0.3120  0.4108  1.4425
 3891SOL    HW223307   2.528   1.587   5.859 -0.9028  0.7511 -0.4450
 3892SOL     OW23308   3.596   1.720   1.761  0.0234  0.3518 -0.3125
 3892SOL    HW123309   3.650   1.709   1.839 -0.2902 -1.5012 -0.3457
 3892SOL    HW223310   3.625   1.644   1.711  0.9941 -1.1784  2.5647
 3893SOL     OW23311   4.469   2.642  16.372  0.1430  0.1147  0.2864
 3893SOL    HW123312   4.501   2.568  16.423  0.2478 -0.3071 -0.3868
 3893SOL    HW223313   4.374   2.634  16.377  0.3019 -1.0643  1.4050
 3894SOL     OW23314   1.199   1.286   2.013  0.5311  0.0153 -0.0364
 3894SOL    HW123315   1.135   1.357   2.004 -0.2157 -0.2591  3.0421
 3894SOL    HW223316   1.278   1.330   1.982  1.2251 -0.3776  1.1599
 3895SOL     OW23317   3.357   3.498   2.103  0.4445 -0.1817 -0.4591
 3895SOL    HW123318   3.304   3.437   2.154  4.0039 -0.3650  2.9931
 3895SOL    HW223319   3.360   3.574   2.161 -1.4602  0.5444 -1.2929
 3896SOL     OW23320   4.375   4.167   0.359 -0.3126  0.1395 -0.0655
 3896SOL    HW123321   4.313   4.161   0.432 -1.5745 -0.5824 -1.1954
 3896SOL    HW223322   4.364   4.077   0.327  0.4074  0.4900 -1.3130
 3897SOL     OW23323   0.270   4.171  15.249  0.2138 -0.4814 -0.3991
 3897SOL    HW123324   0.264   4.266  15.243 -0.4125 -0.6336 -2.3664
 3897SOL    HW223325   0.234   4.140  15.166  0.7672  1.9100 -1.5265
 3898SOL     OW23326   2.470   1.264   6.094 -0.0217 -0.2864 -0.4960
 3898SOL    HW123327   2.432   1.299   6.013 -2.1543 -0.1814  0.5286
 3898SOL    HW223328   2.524   1.190   6.067 -0.6660 -1.3444  1.0825
 3899SOL     OW23329   2.623   0.658   5.570  0.3299  0.2641  0.1010
 3899SOL    HW123330   2.692   0.704   5.619  0.7876 -1.3412  0.9482
 3899SOL    HW223331   2.578   0.722   5.514 -1.7802 -0.5023  0.8898
 3900SOL     OW23332   3.588   4.311   0.547  0.5173  0.0629  0.1259
 3900SOL    HW123333   3.522   4.380   0.557  1.1054  0.7926 -1.0105
 3900SOL    HW223334   3.647   4.354   0.485  0.2259 -1.2608 -1.0679
 3901SOL     OW23335   1.906   2.879  10.494  0.3547 -0.8267 -0.2562
 3901SOL    HW123336   1.916   2.800  10.546 -0.6886 -0.3483  0.6590
 3901SOL    HW223337   1.963   2.851  10.423  2.2177  0.0871  0.8970
 3902SOL     OW23338   4.630   4.267   7.823  0.3785  0.0955  0.2177
 3902SOL    HW123339   4.553   4.248   7.769  0.5983  0.4564 -0.2223
 3902SOL    HW223340   4.585   4.310   7.896  0.5592 -0.9990  0.9748
 3903SOL     OW23341   1.015   2.082   4.024 -0.9030 -0.1583 -0.1150
 3903SOL    HW123342   0.926   2.055   4.002 -0.1673 -1.3423 -1.5899
 3903SOL    HW223343   1.049   2.102   3.937 -1.5272  2.0982  0.1551
 3904SOL     OW23344   0.917   2.259   6.169  0.0778  0.3848 -0.4407
 3904SOL    HW123345   0.963   2.224   6.246 -0.4032 -0.9119 -0.7446
 3904SOL    HW223346   0.899   2.351   6.189  2.2251  0.8244 -0.4186
 3905SOL     OW23347   3.295   0.605   6.770  1.0174  0.2843 -0.0137
 3905SOL    HW123348   3.325   0.635   6.856 -2.5321 -1.6716  1.9032
 3905SOL    HW223349   3.228   0.672   6.757 -1.4815 -2.3161 -0.5114
 3906SOL     OW23350   2.055   3.270   9.731 -0.2285  0.4491 -0.8257
 3906SOL    HW123351   2.004   3.279   9.811 -0.4541  2.0504 -1.1595
 3906SOL    HW223352   2.034   3.349   9.681  3.5965  2.0075  0.0317
 3907SOL     OW23353   2.551   1.830  16.050 -0.0025  0.5082  0.0603
 3907SOL    HW123354   2.600   1.909  16.074 -1.0202  1.8254 -2.1277
 3907SOL    HW223355   2.526   1.793  16.134 -2.1065 -0.2162 -0.8563
 3908SOL     OW23356   4.288   0.300  16.188 -0.3884  0.4323 -0.5565
 3908SOL    HW123357   4.296   0.388  16.150 -0.5888  0.5740 -0.2718
 3908SOL    HW223358   4.342   0.308  16.267  0.9021  1.0539 -1.4871
 3909SOL     OW23359   3.715   4.086  15.257 -0.6341  0.0578 -0.2157
 3909SOL    HW123360   3.626   4.075  15.225 -0.9571 -1.9759  1.3864
 3909SOL    HW223361   3.722   4.011  15.316 -0.4922  2.0560  2.3377
 3910SOL     OW23362   3.687   2.278   9.523 -0.3428  0.0578  0.0672
 3910SOL    HW123363   3.678   2.243   9.434 -0.1046 -0.5089  0.2698
 3910SOL    HW223364   3.776   2.253   9.549  0.2057 -1.0050 -2.7410
 3911SOL     OW23365   2.215   4.738  11.561  0.1695  0.9541 -0.3509
 3911SOL    HW123366   2.155   0.072  11.563 -0.8094  0.1396  0.6767
 3911SOL    HW223367   2.244   0.000  11.652 -0.7974 -0.0206 -0.0028
 3912SOL     OW23368   1.600   4.414   6.647  0.0468 -0.2020  0.9474
 3912SOL    HW123369   1.637   4.326   6.647  0.7597  0.0971  0.5832
 3912SOL    HW223370   1.591   4.432   6.740  2.8019 -1.1252  1.3853
 3913SOL     OW23371   2.814   1.535  11.493  0.2581  0.0612 -0.5430
 3913SOL    HW123372   2.788   1.616  11.449  0.1874  0.8147  0.9015
 3913SOL    HW223373   2.739   1.498  11.540 -0.0766  0.2724 -0.9096
 3914SOL     OW23374   3.756   2.352   5.342 -0.2406 -0.2099 -0.2129
 3914SOL    HW123375   3.709   2.270   5.359 -1.7078  0.9431  1.2691
 3914SOL    HW223376   3.814   2.356   5.418 -0.8601  0.3060  0.2385
 3915SOL     OW23377   1.613   0.238  12.555 -0.3151 -0.1075 -0.2435
 3915SOL    HW123378   1.683   0.301  12.540 -0.5472  0.2783  0.2567
 3915SOL    HW223379   1.626   0.211  12.646  0.7330 -0.2821 -0.4521
 3916SOL     OW23380   1.685   2.891   9.462 -0.3873 -0.0792 -0.1727
 3916SOL    HW123381   1.664   2.936   9.380  0.1138  0.7084  0.1346
 3916SOL    HW223382   1.605   2.847   9.492  1.2770 -1.9850  1.4792
 3917SOL     OW23383   1.243   4.065   4.678 -0.6503 -0.2150  0.5186
 3917SOL    HW123384   1.178   4.115   4.726 -0.3898  0.4420  0.1948
 3917SOL    HW223385   1.249   4.128   4.606 -0.6101  0.1579  0.8487
 3918SOL     OW23386   2.322   0.894   0.786 -0.0938 -0.5112 -0.7997
 3918SOL    HW123387   2.343   0.801   0.794 -2.1913 -1.0247 -1.1024
 3918SOL    HW223388   2.399   0.932   0.829 -0.5268  2.6712 -2.8336
 3919SOL     OW23389   1.474   1.474   0.668 -0.3249 -0.3514  0.3083
 3919SOL    HW123390   1.380   1.468   0.684  0.0967  1.4309  3.4006
 3919SOL    HW223391   1.472   1.568   0.649  1.6992  0.0237  2.0033
 3920SOL     OW23392   0.386   3.727   2.935  0.3175  0.0608 -0.0024
 3920SOL    HW123393   0.437   3.710   2.856  0.3411  0.5265 -0.0871
 3920SOL    HW223394   0.361   3.637   2.955 -0.0073  0.8716  3.1543
 3921SOL     OW23395   2.878   2.604   7.327 -0.2989  0.3198  0.3725
 3921SOL    HW123396   2.784   2.621   7.322 -0.8051 -2.0800  2.0581
 3921SOL    HW223397   2.906   2.666   7.259  0.8823 -0.0624  0.5080
 3922SOL     OW23398   1.081   3.403   5.224  0.2843 -0.1431 -0.3787
 3922SOL    HW123399   1.024   3.477   5.245  1.3996  0.5788  0.0657
 3922SOL    HW223400   1.035   3.365   5.149  1.8056 -1.7387 -0.4968
 3923SOL     OW23401   0.887   2.550   8.396 -0.1509 -0.0027  0.0068
 3923SOL    HW123402   0.914   2.597   8.475 -3.6667 -1.1063  1.8674
 3923SOL    HW223403   0.953   2.482   8.383 -0.8927 -0.5236 -1.0341
 3924SOL     OW23404   0.120   3.317   2.534  0.2595 -0.3170 -0.7033
 3924SOL    HW123405   0.080   3.402   2.556 -1.1959 -1.3742  0.7315
 3924SOL    HW223406   0.137   3.318   2.440 -2.2370 -0.0024 -1.1661
 3925SOL     OW23407   0.891   2.928   7.689 -0.2315 -0.2382  0.8228
 3925SOL    HW123408   0.907   3.021   7.672  1.2060 -0.5551  0.3642
 3925SOL    HW223409   0.839   2.905   7.612 -0.6517  1.6133  0.5466
 3926SOL     OW23410   4.460   0.303   0.794 -0.1095 -0.2985  0.0767
 3926SOL    HW123411   4.530   0.255   0.839 -0.2295  0.5588  1.1914
 3926SOL    HW223412   4.392   0.310   0.861 -0.4617  0.0298 -0.3210
 3927SOL     OW23413   3.758   4.092  13.437 -0.1763  0.1140 -0.0130
 3927SOL    HW123414   3.789   4.175  13.402 -1.5992 -0.2365 -2.1020
 3927SOL    HW223415   3.700   4.056  13.370 -0.8696  1.8239 -0.3201
 3928SOL     OW23416   0.446   3.711   6.767 -0.1396  0.2067 -0.0245
 3928SOL    HW123417   0.475   3.623   6.792  1.0058  1.8123  4.2237
 3928SOL    HW223418   0.420   3.711   6.675 -0.7619  0.0169  0.1540
 3929SOL     OW23419   3.978   0.692   2.850  0.0053 -0.2133 -0.0409
 3929SOL    HW123420   3.964   0.781   2.883 -0.7573 -0.0367 -0.8489
 3929SOL    HW223421   3.918   0.639   2.902 -1.6553  1.5563 -0.1692
 3930SOL     OW23422   4.542   3.249  16.319  0.3890  0.1334  0.1333
 3930SOL    HW123423   4.607   3.190  16.356  1.3658  1.2715  0.2273
 3930SOL    HW223424   4.516   3.204  16.238  0.5962 -1.2785  0.8506
 3931SOL     OW23425   4.488   3.844   4.059  0.0655  0.3649 -0.4269
 3931SOL    HW123426   4.452   3.869   3.974 -0.8907 -1.1731 -0.4760
 3931SOL    HW223427   4.580   3.866   4.046  1.7709 -4.9600  2.8393
 3932SOL     OW23428   0.682   1.552  11.306 -0.2203 -0.1450 -0.4869
 3932SOL    HW123429   0.768   1.539  11.347 -1.2895  0.3160  1.8397
 3932SOL    HW223430   0.651   1.611  11.374  1.5255  1.6766 -1.2557
 3933SOL     OW23431   1.969   3.649   0.711  0.4891  0.3814  0.0666
 3933SOL    HW123432   1.900   3.709   0.685 -0.5703 -0.4726  0.9164
 3933SOL    HW223433   2.039   3.714   0.720  0.8556 -0.2079  1.5212
 3934SOL     OW23434   2.896   1.494   7.321  0.0424 -0.2130  0.2772
 3934SOL    HW123435   2.896   1.457   7.410 -0.7470 -0.3145  0.2384
 3934SOL    HW223436   2.960   1.563   7.338  1.0682 -1.2066  0.4711
 3935SOL     OW23437   1.875   2.765   2.469 -0.2076  0.3061 -0.9346
 3935SOL    HW123438   1.908   2.692   2.520  1.3865  1.4583 -0.3105
 3935SOL    HW223439   1.954   2.804   2.430 -1.2385  0.0489 -3.2694
 3936SOL     OW23440   1.937   0.905   5.328  0.0178  0.8846 -0.2702
 3936SOL    HW123441   1.988   0.946   5.259 -0.6530  0.4058 -1.0489
 3936SOL    HW223442   1.930   0.971   5.397 -3.1964  1.1960 -0.9005
 3937SOL     OW23443   2.923   2.026   8.249  0.0894 -0.2478  0.0808
 3937SOL    HW123444   2.840   2.049   8.290 -1.8570 -1.9869 -2.9473
 3937SOL    HW223445   2.937   1.935   8.278 -2.9332 -0.9773 -0.7197
 3938SOL     OW23446   1.860   3.791   7.260 -0.2814 -0.9145 -0.2662
 3938SOL    HW123447   1.798   3.793   7.333  0.9758 -0.1934  0.7738
 3938SOL    HW223448   1.857   3.874   7.213  0.0997 -0.5434  0.3630
 3939SOL     OW23449   4.615   3.416   5.224  0.1725  0.7422  0.3074
 3939SOL    HW123450   4.542   3.428   5.285  0.1544  0.5236  0.3280
 3939SOL    HW223451   4.568   3.433   5.142 -0.1937  0.5748  0.4870
 3940SOL     OW23452   2.386   4.286   2.325 -0.1684  0.1879  0.3167
 3940SOL    HW123453   2.346   4.368   2.355  2.5994  1.0979  1.5725
 3940SOL    HW223454   2.423   4.295   2.237 -1.3747  2.0583  0.0086
 3941SOL     OW23455   2.030   2.893  17.339  0.1382 -0.2250  0.2298
 3941SOL    HW123456   2.107   2.910  17.284 -0.4604  0.9210 -0.2441
 3941SOL    HW223457   2.071   2.902  17.425  0.6217 -2.0446  0.2022
 3942SOL     OW23458   2.527   1.232   3.298 -0.0280  0.1545 -0.8062
 3942SOL    HW123459   2.615   1.265   3.319 -0.3798 -0.4173  1.5098
 3942SOL    HW223460   2.472   1.299   3.337 -1.8489 -1.2303 -1.0097
 3943SOL     OW23461   2.649   4.441   7.036  0.1352 -0.0594 -0.5883
 3943SOL    HW123462   2.627   4.348   7.042  3.0217 -0.4718  3.7179
 3943SOL    HW223463   2.697   4.448   6.954 -3.3500 -1.0424 -2.7112
 3944SOL     OW23464   3.467   2.765   1.563  0.4082  0.1276 -0.0791
 3944SOL    HW123465   3.424   2.745   1.480  0.2838 -0.8284  0.2178
 3944SOL    HW223466   3.403   2.726   1.623  0.5419 -1.9825 -1.3204
 3945SOL     OW23467   3.656   0.674  12.202 -0.3933 -0.3383  0.3144
 3945SOL    HW123468   3.681   0.667  12.294 -0.0103  2.4029  0.4247
 3945SOL    HW223469   3.653   0.581  12.180  0.3739 -1.2472  4.1444
 3946SOL     OW23470   3.862   3.551   3.936  0.1798 -0.2063  0.4548
 3946SOL    HW123471   3.879   3.457   3.940 -1.8590 -0.6018 -0.3133
 3946SOL    HW223472   3.849   3.573   3.844  1.5994 -1.5526 -0.0562
 3947SOL     OW23473   3.300   3.190   2.542  0.2480 -0.1732  0.4978
 3947SOL    HW123474   3.352   3.110   2.537  2.1959  1.0372  1.3503
 3947SOL    HW223475   3.357   3.253   2.497 -1.1342  1.0420  0.4264
 3948SOL     OW23476   2.756   1.345   4.314 -0.3647 -0.3140 -0.4560
 3948SOL    HW123477   2.828   1.286   4.293  0.3582  0.6286 -0.6250
 3948SOL    HW223478   2.752   1.410   4.244  0.6520 -0.2036 -0.4098
 3949SOL     OW23479   1.479   4.580  12.216  0.3644 -0.4108  0.2555
 3949SOL    HW123480   1.409   4.603  12.155  1.6164  0.1518 -0.9478
 3949SOL    HW223481   1.434   4.624  12.288 -0.6942  1.0316 -1.2929
 3950SOL     OW23482   1.901   2.541   4.945 -0.0829  0.3554 -0.3909
 3950SOL    HW123483   1.944   2.476   5.001 -0.5784  0.2914 -0.0885
 3950SOL    HW223484   1.832   2.480   4.917 -3.4397  3.3044  1.4663
 3951SOL     OW23485   3.676   3.784   0.680 -0.3668  0.5245  0.4355
 3951SOL    HW123486   3.729   3.859   0.706 -0.8521  0.5086  1.4414
 3951SOL    HW223487   3.642   3.758   0.765 -2.6864  1.1806 -0.2783
 3952SOL     OW23488   4.676   2.081   5.444 -0.3811  0.2205  0.0523
 3952SOL    HW123489   4.683   2.157   5.386 -0.5127 -1.0177 -1.5695
 3952SOL    HW223490   4.585   2.096   5.468  0.5990  3.6707  1.6419
 3953SOL     OW23491   0.185   1.818   6.661 -0.1233  0.3825  0.1137
 3953SOL    HW123492   0.161   1.910   6.648 -2.4950 -0.2326  0.2242
 3953SOL    HW223493   0.100   1.774   6.668 -0.0529  0.0081 -1.3649
 3954SOL     OW23494   4.176   1.372   2.741  0.2219  0.1013  0.0914
 3954SOL    HW123495   4.206   1.294   2.788  0.8353 -0.2331 -0.8524
 3954SOL    HW223496   4.181   1.441   2.807 -2.1888  1.4958 -1.2013
 3955SOL     OW23497   3.951   1.658   5.782  0.2971 -0.2307  0.1284
 3955SOL    HW123498   3.929   1.737   5.830 -1.7499 -1.8377  1.8671
 3955SOL    HW223499   4.033   1.684   5.741  0.3604 -0.8477 -0.1487
 3956SOL     OW23500   3.297   1.172   2.479  0.4678  0.2601  0.1302
 3956SOL    HW123501   3.372   1.120   2.452  1.5634  1.6099  0.5843
 3956SOL    HW223502   3.238   1.106   2.516  0.9193 -0.0315  0.3238
 3957SOL     OW23503   2.615   0.152   5.414  0.2113  0.3400  0.4161
 3957SOL    HW123504   2.707   0.177   5.405  0.3403  0.5961  2.5310
 3957SOL    HW223505   2.570   0.235   5.428  1.2835  1.3101 -1.8686
 3958SOL     OW23506   0.645   1.817   2.303 -0.3913  0.3875  0.1186
 3958SOL    HW123507   0.552   1.825   2.281  0.1696  2.5570 -1.4441
 3958SOL    HW223508   0.656   1.873   2.380 -0.1356 -0.0184  0.3729
 3959SOL     OW23509   0.763   4.514   5.268  0.2603  0.2006 -0.0327
 3959SOL    HW123510   0.753   4.428   5.227 -0.9412  0.4575 -0.2964
 3959SOL    HW223511   0.752   4.563   5.186 -0.3951  1.1684  0.6194
 3960SOL     OW23512   2.805   2.880   3.655  0.7065 -0.6189  0.4846
 3960SOL    HW123513   2.852   2.862   3.574 -0.1171  0.6118 -0.2526
 3960SOL    HW223514   2.724   2.918   3.620  0.5784 -1.0375  0.3229
 3961SOL     OW23515   2.292   2.393   0.292 -0.2098 -0.1253 -0.0930
 3961SOL    HW123516   2.336   2.470   0.329  0.1810 -0.8381  0.9348
 3961SOL    HW223517   2.364   2.330   0.281 -0.1780  0.1357 -1.3114
 3962SOL     OW23518   2.864   2.440  10.637 -0.1373 -0.5671  0.4608
 3962SOL    HW123519   2.888   2.403  10.552 -0.0504 -2.3525  1.2645
 3962SOL    HW223520   2.771   2.458  10.624 -0.4119 -1.3150  1.4387
 3963SOL     OW23521   4.343   2.364  11.069  0.0832 -0.3821 -0.3214
 3963SOL    HW123522   4.302   2.448  11.047  0.2330  0.4328  2.5156
 3963SOL    HW223523   4.393   2.340  10.991  1.0067 -0.3683  0.2764
 3964SOL     OW23524   3.727   2.839   5.086 -0.0579  0.1852  0.1353
 3964SOL    HW123525   3.695   2.917   5.130  1.1974  1.9660 -2.1175
 3964SOL    HW223526   3.821   2.856   5.085  0.0099 -0.1156  3.2022
 3965SOL     OW23527   3.240   3.783   5.500  0.2478 -0.2314  0.5099
 3965SOL    HW123528   3.209   3.697   5.470  1.7043 -1.1633  1.6504
 3965SOL    HW223529   3.270   3.826   5.419  1.1254 -1.1240  0.3612
 3966SOL     OW23530   0.264   0.421   2.711 -0.3234  0.3983 -0.2551
 3966SOL    HW123531   0.297   0.376   2.633  1.5341  0.1248  0.6986
 3966SOL    HW223532   0.239   0.347   2.766  2.1309 -1.3154 -1.4370
 3967SOL     OW23533   3.674   4.513   6.587  0.1639  0.0394 -0.6690
 3967SOL    HW123534   3.699   4.516   6.494 -5.4943  0.2158 -2.1873
 3967SOL    HW223535   3.663   4.605   6.612 -0.8351 -0.2462 -0.0762
 3968SOL     OW23536   4.542   0.427  15.402  0.5825  0.0372 -0.1137
 3968SOL    HW123537   4.500   0.342  15.410  2.3659 -0.8525 -0.2728
 3968SOL    HW223538   4.598   0.422  15.480  0.5745 -0.7355 -0.1621
 3969SOL     OW23539   2.977   0.569   5.753 -0.2248 -0.3167 -0.0378
 3969SOL    HW123540   3.045   0.560   5.686 -0.4568  0.8662 -0.4407
 3969SOL    HW223541   2.905   0.547   5.694 -0.5241 -0.9049  0.5396
 3970SOL     OW23542   3.550   1.313  12.173 -0.1700  0.1391 -0.8946
 3970SOL    HW123543   3.627   1.359  12.140  0.1458  0.9997  1.0638
 3970SOL    HW223544   3.574   1.315  12.266 -1.7175 -0.1989 -0.4818
 3971SOL     OW23545   4.195   2.534   6.242 -0.1028  0.3216 -0.1443
 3971SOL    HW123546   4.175   2.558   6.333  2.5527  0.4195  0.4145
 3971SOL    HW223547   4.276   2.484   6.252 -1.4990 -1.2329  3.1785
 3972SOL     OW23548   3.959   0.626   9.878  0.0807 -0.1437  0.0902
 3972SOL    HW123549   4.032   0.619   9.939  1.8250 -0.3797 -2.0422
 3972SOL    HW223550   3.911   0.693   9.926  0.8920 -0.5567  1.4845
 3973SOL     OW23551   3.338   1.048   1.843  0.1981  0.3244  0.7117
 3973SOL    HW123552   3.420   1.011   1.811  0.0616  3.0289 -2.7075
 3973SOL    HW223553   3.330   0.999   1.925 -1.6264 -0.5057  0.0331
 3974SOL     OW23554   4.122   2.672   1.898  0.3417 -0.5174 -0.3437
 3974SOL    HW123555   4.172   2.748   1.868 -1.4628  0.1370 -1.7175
 3974SOL    HW223556   4.086   2.643   1.814 -0.8351 -0.2479  0.0597
 3975SOL     OW23557   1.954   4.573   8.045 -0.3684 -0.1727  0.1399
 3975SOL    HW123558   1.941   4.657   8.002 -2.1410 -0.8085 -0.5896
 3975SOL    HW223559   2.013   4.598   8.116 -0.5347  0.1637  0.1579
 3976SOL     OW23560   3.226   2.574   3.435  0.5883 -0.2369 -0.5432
 3976SOL    HW123561   3.259   2.558   3.523  0.0828  1.3098 -0.0772
 3976SOL    HW223562   3.130   2.570   3.436  0.5568  0.0277 -1.7754
 3977SOL     OW23563   2.142   2.329   5.333 -0.4485  0.5275  0.2622
 3977SOL    HW123564   2.184   2.391   5.392  0.7101 -0.7359  0.7623
 3977SOL    HW223565   2.066   2.302   5.385 -0.2940  0.0421  0.2358
 3978SOL     OW23566   2.734   3.869  10.069  0.7512  0.1199 -0.1963
 3978SOL    HW123567   2.729   3.929   9.994  0.2430  1.3312  0.7940
 3978SOL    HW223568   2.671   3.804  10.039 -1.0592  2.1486 -0.8609
 3979SOL     OW23569   4.451   0.995   2.361  0.2871  0.2481 -0.1674
 3979SOL    HW123570   4.390   0.974   2.432  0.8849  2.0506  0.8902
 3979SOL    HW223571   4.507   1.056   2.409 -0.4722  0.8093 -0.0024
 3980SOL     OW23572   1.544   3.102  17.602  0.1331 -0.2950 -0.3625
 3980SOL    HW123573   1.551   3.143  17.688 -2.0423 -0.6733  0.0014
 3980SOL    HW223574   1.540   3.007  17.604  1.5290 -0.3457 -0.3221
 3981SOL     OW23575   3.442   0.234  17.555  0.1961  0.6098 -0.3771
 3981SOL    HW123576   3.389   0.275  17.623 -1.0749  1.0268 -1.6101
 3981SOL    HW223577   3.465   0.149  17.592  1.3588  0.0370 -2.3983
 3982SOL     OW23578   2.267   1.699  15.383 -0.2961 -0.0513 -0.4241
 3982SOL    HW123579   2.216   1.719  15.462  0.9333  1.7522 -0.1070
 3982SOL    HW223580   2.199   1.671  15.322 -0.7934  0.7563 -0.2366
 3983SOL     OW23581   1.578   3.256   0.087  0.4269 -0.1656 -0.2718
 3983SOL    HW123582   1.525   3.190   0.131 -0.4837  0.7561  0.0383
 3983SOL    HW223583   1.656   3.242   0.141  0.3962 -2.5618 -0.8845
 3984SOL     OW23584   3.656   1.527   2.781  0.0215 -0.1802 -0.3593
 3984SOL    HW123585   3.733   1.509   2.727 -1.4445 -2.8779 -1.5432
 3984SOL    HW223586   3.619   1.441   2.760 -0.8771  0.6116 -1.9733
 3985SOL     OW23587   1.813   3.232   4.474  0.2091  0.2044  0.1453
 3985SOL    HW123588   1.720   3.221   4.494  0.2862 -0.4203  0.1464
 3985SOL    HW223589   1.823   3.187   4.390  1.9216 -2.0287  1.5375
 3986SOL     OW23590   2.020   0.647   6.325 -0.5326 -0.0463  0.1856
 3986SOL    HW123591   1.959   0.689   6.386 -1.4256 -1.3475  0.1763
 3986SOL    HW223592   2.018   0.704   6.248  0.8365 -0.6252 -0.2727
 3987SOL     OW23593   1.973   0.392  14.558 -0.0201  0.0316  0.6152
 3987SOL    HW123594   1.931   0.474  14.582 -1.6390 -0.7274  0.4515
 3987SOL    HW223595   1.968   0.348  14.643 -0.2896 -0.6424  0.2588
 3988SOL     OW23596   1.533   2.811   1.791  0.5105  0.2138 -0.0523
 3988SOL    HW123597   1.496   2.876   1.851  1.5959  0.6095  0.1891
 3988SOL    HW223598   1.499   2.736   1.839 -0.6754  0.5454 -0.3799
 3989SOL     OW23599   2.780   0.213   2.611 -0.4245 -0.1038 -0.0174
 3989SOL    HW123600   2.797   0.237   2.702 -0.2023 -1.8952  0.4206
 3989SOL    HW223601   2.707   0.153   2.624 -0.9575  0.2902 -1.2056
 3990SOL     OW23602   4.221   3.430   1.677 -0.0761  0.0906  0.0407
 3990SOL    HW123603   4.169   3.364   1.722  0.5700  0.5665  1.5052
 3990SOL    HW223604   4.290   3.381   1.633  0.3535  1.4783 -0.8592
 3991SOL     OW23605   1.983   0.629   1.222  0.1323 -0.2586  0.0970
 3991SOL    HW123606   1.984   0.686   1.145 -0.8895 -1.1303 -0.5380
 3991SOL    HW223607   2.064   0.578   1.219 -0.2394 -0.8718  0.5071
 3992SOL     OW23608   2.917   0.175   2.340  0.0843  0.2848 -0.3677
 3992SOL    HW123609   2.887   0.171   2.431 -0.3248 -0.4668 -0.5417
 3992SOL    HW223610   2.839   0.215   2.303 -0.4303 -0.6276 -0.2641
 3993SOL     OW23611   1.062   1.932   5.526  0.3034  0.2137 -0.4525
 3993SOL    HW123612   1.027   1.850   5.491 -3.1706  2.1292 -1.4794
 3993SOL    HW223613   1.118   1.904   5.599 -0.6726 -1.6267 -0.4090
 3994SOL     OW23614   1.938   1.341   5.383 -0.3136 -0.4276  0.0181
 3994SOL    HW123615   2.017   1.349   5.330  0.6081  1.5383  1.6707
 3994SOL    HW223616   1.973   1.330   5.471 -2.0298  0.3762  0.8036
 3995SOL     OW23617   3.731   2.307   8.251 -0.0855 -0.2649  0.3414
 3995SOL    HW123618   3.755   2.281   8.340 -1.4812  0.8936  1.0534
 3995SOL    HW223619   3.658   2.248   8.234 -0.4454  0.5047 -0.7647
 3996SOL     OW23620   0.567   3.896  17.124  0.5064  0.3695 -0.5371
 3996SOL    HW123621   0.542   3.821  17.070  1.1771 -0.3350  0.1319
 3996SOL    HW223622   0.559   3.979  17.077  3.2412  1.0525  0.2110
 3997SOL     OW23623   1.913   2.442   4.571  0.0230  0.1905  0.3063
 3997SOL    HW123624   1.932   2.513   4.633 -0.3383  2.1137 -1.8137
 3997SOL    HW223625   1.824   2.473   4.552 -0.5158 -0.4048  1.8215
 3998SOL     OW23626   0.189   3.752   4.308  0.2420 -0.6454  0.5686
 3998SOL    HW123627   0.205   3.665   4.345  0.0032 -0.3114  1.4759
 3998SOL    HW223628   0.279   3.782   4.304  0.0836 -1.0693 -5.2706
 3999SOL     OW23629   0.186   3.806   5.282 -0.1004  0.6611 -0.3477
 3999SOL    HW123630   0.147   3.719   5.271 -0.5940  0.3899  3.4828
 3999SOL    HW223631   0.120   3.867   5.250 -0.4120  1.3920  1.6593
 4000SOL     OW23632   3.311   0.916  12.593  0.3556  0.1321 -0.0910
 4000SOL    HW123633   3.325   0.840  12.651  0.2867  2.1450  2.5789
 4000SOL    HW223634   3.255   0.884  12.522  0.7206  1.9366 -1.1728
 4001SOL     OW23635   1.545   2.270   3.077  1.2154 -0.4649 -0.4084
 4001SOL    HW123636   1.576   2.273   2.986 -0.4384  1.0423 -0.9088
 4001SOL    HW223637   1.570   2.179   3.095 -3.0767 -1.0698  2.3730
 4002SOL     OW23638   0.521   2.856   6.985  0.0939  0.0043 -0.2262
 4002SOL    HW123639   0.551   2.902   7.063 -1.0789  1.7011 -0.7693
 4002SOL    HW223640   0.518   2.916   6.910  0.9194  1.0727  0.6094
 4003SOL     OW23641   3.509   1.146   5.306 -0.3593 -0.2435  0.8688
 4003SOL    HW123642   3.429   1.195   5.327 -0.0621  0.4729  0.2945
 4003SOL    HW223643   3.504   1.070   5.365 -1.0301 -0.4457  0.5506
 4004SOL     OW23644   1.464   2.257   9.722  0.3477  0.2991  0.1277
 4004SOL    HW123645   1.477   2.278   9.630 -0.2031  1.9205  0.4111
 4004SOL    HW223646   1.475   2.163   9.711 -2.4856 -0.0298  0.0166
 4005SOL     OW23647   3.380   4.683   6.302  0.3846 -0.4336 -0.3660
 4005SOL    HW123648   3.352   4.729   6.381  0.2239 -1.5756  0.2502
 4005SOL    HW223649   3.302   4.636   6.274  0.1873 -0.6219  0.5086
 4006SOL     OW23650   2.176   2.812   6.107  0.1495 -0.1172 -0.3983
 4006SOL    HW123651   2.260   2.849   6.083 -0.5438  0.8794 -1.2618
 4006SOL    HW223652   2.182   2.799   6.202  0.7342 -0.1922 -0.4486
 4007SOL     OW23653   2.200   3.666   0.473 -0.1994  0.0365 -0.1821
 4007SOL    HW123654   2.197   3.726   0.547 -0.5607  0.4346 -0.5220
 4007SOL    HW223655   2.118   3.685   0.429  0.3356 -0.7625 -1.5400
 4008SOL     OW23656   0.797   0.754  15.409 -0.4251 -0.6313 -0.1194
 4008SOL    HW123657   0.844   0.837  15.398  0.5651 -0.9118  2.0234
 4008SOL    HW223658   0.772   0.730  15.319 -1.4496  2.5646 -0.6716
 4009SOL     OW23659   4.693   3.730   8.152 -1.0619  0.3103  0.0925
 4009SOL    HW123660   0.023   3.789   8.128 -0.9963  0.8624  1.6352
 4009SOL    HW223661   4.663   3.766   8.236 -0.0720  0.9366  0.1769
 4010SOL     OW23662   1.306   3.648   9.555  0.5740 -0.3603 -0.4758
 4010SOL    HW123663   1.294   3.733   9.512 -0.2150  0.3042  1.0855
 4010SOL    HW223664   1.221   3.607   9.543  0.4489  0.0167 -0.9229
 4011SOL     OW23665   4.605   0.050   0.021 -0.2851  0.2108 -0.2088
 4011SOL    HW123666   4.601   4.719   0.085 -0.0369 -0.7844 -1.3086
 4011SOL    HW223667   4.621   0.006  17.696 -0.6173  0.6412 -0.4966
 4012SOL     OW23668   3.014   1.290   3.153  0.0518  0.2389 -0.0579
 4012SOL    HW123669   3.049   1.372   3.119  1.1428 -0.1452  0.1192
 4012SOL    HW223670   3.098   1.245   3.165 -0.0966 -0.1544 -0.5262
 4013SOL     OW23671   1.570   3.073   5.231  0.6030 -0.6483 -0.4666
 4013SOL    HW123672   1.519   3.044   5.156 -0.7461  0.1745  0.1280
 4013SOL    HW223673   1.632   3.132   5.190  0.0390 -0.0821 -0.5161
 4014SOL     OW23674   4.355   0.474   2.486  0.0350 -0.1599  0.2797
 4014SOL    HW123675   4.407   0.554   2.488  0.8730 -0.7031 -0.1975
 4014SOL    HW223676   4.280   0.472   2.546  0.6373  0.7810  1.0721
 4015SOL     OW23677   2.286   2.988   2.632 -0.6369 -0.4273 -0.2938
 4015SOL    HW123678   2.364   2.964   2.682  0.6625  3.2095 -0.5420
 4015SOL    HW223679   2.272   3.080   2.653 -0.3931 -0.0163 -1.9426
 4016SOL     OW23680   2.965   2.851   5.727  0.0644  0.4095 -0.0546
 4016SOL    HW123681   2.874   2.865   5.753 -0.7289 -3.5342 -0.6950
 4016SOL    HW223682   2.951   2.799   5.649 -0.4133 -3.0047  2.3169
 4017SOL     OW23683   3.798   0.929   1.304  0.0111  0.4402 -0.0064
 4017SOL    HW123684   3.704   0.919   1.321  0.1473  1.9808  1.5587
 4017SOL    HW223685   3.787   0.990   1.231  2.4732 -0.5047 -1.1646
 4018SOL     OW23686   2.172   3.401   3.852 -0.2628  0.5542  0.3046
 4018SOL    HW123687   2.188   3.435   3.764 -0.6380 -1.0688 -0.3829
 4018SOL    HW223688   2.089   3.444   3.871 -1.0957 -1.5454  1.4442
 4019SOL     OW23689   1.074   3.837   4.238 -0.6922  0.4368  0.7684
 4019SOL    HW123690   1.001   3.788   4.277  0.0337 -1.4456 -0.2509
 4019SOL    HW223691   1.096   3.781   4.163 -2.2410  1.6771 -0.6158
 4020SOL     OW23692   3.955   0.148   3.049  0.7056 -0.2003  0.1559
 4020SOL    HW123693   3.925   0.061   3.075  0.4306 -0.6648 -1.6854
 4020SOL    HW223694   3.869   0.189   3.042  0.8311  0.0260 -0.0678
 4021SOL     OW23695   4.629   2.805   7.301 -0.8167 -0.5569 -0.5693
 4021SOL    HW123696   4.711   2.799   7.351 -1.0188  0.8436 -0.0899
 4021SOL    HW223697   4.618   2.717   7.265 -0.8480 -0.2219 -1.3896
 4022SOL     OW23698   1.636   1.267   7.216 -0.2709  0.1172 -0.2641
 4022SOL    HW123699   1.639   1.171   7.215 -2.9273  0.0385 -0.8850
 4022SOL    HW223700   1.702   1.286   7.150  0.3897 -2.6135 -0.4105
 4023SOL     OW23701   3.865   0.829   9.073 -0.2401  0.1416  0.4191
 4023SOL    HW123702   3.770   0.821   9.063 -0.1470 -0.7278  0.2425
 4023SOL    HW223703   3.876   0.907   9.127  1.6257  1.2843 -1.6017
 4024SOL     OW23704   0.457   0.459   4.007 -0.4389 -0.1897  0.0567
 4024SOL    HW123705   0.429   0.510   4.082  1.7425 -0.3967  1.0039
 4024SOL    HW223706   0.383   0.402   3.985  0.0539 -0.8362  0.0729
 4025SOL     OW23707   1.027   4.191   5.264 -0.2023  0.4330  0.0696
 4025SOL    HW123708   0.933   4.184   5.278 -0.0025 -0.8371  0.7221
 4025SOL    HW223709   1.041   4.118   5.203  2.1495  3.3509 -2.8835
 4026SOL     OW23710   3.375   1.292  13.017 -0.4189  0.1971  0.0596
 4026SOL    HW123711   3.465   1.273  12.992 -0.6220 -0.4928 -0.1521
 4026SOL    HW223712   3.336   1.206  13.035 -0.1646 -0.3634 -2.0935
 4027SOL     OW23713   4.039   0.658   0.920  0.0200 -0.3094 -0.1547
 4027SOL    HW123714   4.065   0.615   0.839  1.0199 -1.1151  0.5840
 4027SOL    HW223715   4.102   0.729   0.934  0.4356 -0.6984 -0.0325
 4028SOL     OW23716   2.783   3.951   4.564 -0.4293  0.1384  0.3499
 4028SOL    HW123717   2.875   3.973   4.580 -0.6524  0.2613  1.4637
 4028SOL    HW223718   2.792   3.889   4.492 -1.8486 -0.8861  1.0579
 4029SOL     OW23719   3.187   0.349   4.859  0.2054 -0.0384 -0.0278
 4029SOL    HW123720   3.181   0.308   4.945  2.8136  0.4858  0.3967
 4029SOL    HW223721   3.191   0.279   4.794  0.9688  1.0134 -1.1071
 4030SOL     OW23722   3.328   3.972   4.400  0.2562 -0.2469  0.6602
 4030SOL    HW123723   3.420   3.990   4.383  0.3169 -2.6369 -1.5787
 4030SOL    HW223724   3.297   4.043   4.456  0.0906 -0.3367  0.6858
 4031SOL     OW23725   2.300   4.460   0.629  0.3327 -0.1953  0.4111
 4031SOL    HW123726   2.290   4.470   0.534 -2.7022 -1.3280  0.6326
 4031SOL    HW223727   2.325   4.371   0.654  3.7911  0.5178 -0.4357
 4032SOL     OW23728   3.604   0.776   5.798  0.3175 -0.2917 -0.2284
 4032SOL    HW123729   3.660   0.786   5.875 -0.7346  0.9579  0.3807
 4032SOL    HW223730   3.667   0.747   5.732  0.9224  1.8399 -0.5931
 4033SOL     OW23731   1.077   1.503  15.278  0.6791 -0.1192 -0.1286
 4033SOL    HW123732   1.009   1.568  15.259 -1.3728 -2.0878  0.5406
 4033SOL    HW223733   1.152   1.538  15.229  0.8474 -0.5800 -0.1989
 4034SOL     OW23734   3.410   2.485   3.946  0.6203 -0.0313 -0.5786
 4034SOL    HW123735   3.500   2.452   3.954 -0.0419 -0.8193  3.8140
 4034SOL    HW223736   3.393   2.474   4.039  0.8153 -1.1310 -0.6679
 4035SOL     OW23737   3.484   1.323   7.478 -0.1212  0.8021  0.1019
 4035SOL    HW123738   3.560   1.366   7.438  0.4626 -2.4522 -2.2835
 4035SOL    HW223739   3.515   1.233   7.464 -0.7519  0.5370  0.4012
 4036SOL     OW23740   0.613   4.432  14.229 -0.5809 -0.0905 -0.3163
 4036SOL    HW123741   0.695   4.478  14.210 -1.2489  1.2001 -0.0774
 4036SOL    HW223742   0.636   4.343  14.202 -1.4488 -0.6473  0.7755
 4037SOL     OW23743   1.569   4.682   7.577  0.3289  0.7798 -0.2546
 4037SOL    HW123744   1.581   4.620   7.505 -1.5483  1.2209 -0.9486
 4037SOL    HW223745   1.490   4.726   7.546 -0.1011 -0.3826 -0.7944
 4038SOL     OW23746   4.226   2.984   3.757  0.6703 -0.0724 -0.2798
 4038SOL    HW123747   4.252   2.973   3.665  1.2792 -0.4781 -0.0611
 4038SOL    HW223748   4.311   2.968   3.799  0.4304 -0.4177  0.0680
 4039SOL     OW23749   3.970   2.744   3.615 -0.2748  0.4706  0.6122
 4039SOL    HW123750   3.970   2.768   3.522  1.3905 -0.9447  0.2457
 4039SOL    HW223751   3.937   2.654   3.606  1.2362 -0.0386  0.1046
 4040SOL     OW23752   4.129   1.890   3.791 -0.3531 -0.3136 -0.1205
 4040SOL    HW123753   4.217   1.908   3.823  0.6070 -1.5663 -2.0371
 4040SOL    HW223754   4.148   1.809   3.743 -0.3529 -0.1567 -0.3839
 4041SOL     OW23755   2.929   0.591  14.858 -0.4039  0.1202 -0.3289
 4041SOL    HW123756   2.930   0.502  14.892 -2.9432 -0.0870 -0.7915
 4041SOL    HW223757   2.838   0.593  14.829 -0.5866 -0.6672  0.1883
 4042SOL     OW23758   2.772   3.506   8.332 -0.0080 -0.5158  0.0308
 4042SOL    HW123759   2.818   3.564   8.271  0.3626 -2.1594 -1.2541
 4042SOL    HW223760   2.757   3.573   8.399  0.8143  0.0166 -0.3154
 4043SOL     OW23761   2.377   3.684   9.594 -0.5305 -0.1825 -0.0301
 4043SOL    HW123762   2.469   3.700   9.619 -0.1650 -0.7738 -1.0066
 4043SOL    HW223763   2.381   3.666   9.500  1.3880  2.2839 -0.4249
 4044SOL     OW23764   0.181   2.574   3.659 -0.1309 -0.1548  0.4508
 4044SOL    HW123765   0.126   2.497   3.643  0.6123 -0.2672 -1.6087
 4044SOL    HW223766   0.192   2.587   3.565 -0.0126  0.8566  0.6036
 4045SOL     OW23767   1.169   0.604   2.974  0.1318 -0.0072  0.1422
 4045SOL    HW123768   1.136   0.662   3.042  0.7073  0.5918 -0.0949
 4045SOL    HW223769   1.262   0.595   2.993 -0.0821 -0.4254  1.0370
 4046SOL     OW23770   1.887   2.618  13.051 -0.0368 -0.2831 -0.0629
 4046SOL    HW123771   1.860   2.561  13.123  1.1578 -0.2754  0.3931
 4046SOL    HW223772   1.885   2.707  13.086 -2.3181 -0.9081  1.3225
 4047SOL     OW23773   4.246   0.278   3.953 -0.0276 -0.5457  0.3193
 4047SOL    HW123774   4.265   0.341   4.023  1.5268 -2.5155  1.6623
 4047SOL    HW223775   4.193   0.229   4.016 -0.8682 -1.2864 -0.9651
 4048SOL     OW23776   1.343   1.662   1.944  0.4766  0.1453  0.3998
 4048SOL    HW123777   1.254   1.631   1.960  0.0652  1.3699  0.4894
 4048SOL    HW223778   1.330   1.757   1.935 -0.1231  0.3831  3.8942
 4049SOL     OW23779   2.957   1.534   7.952 -0.3975  0.1359 -0.6475
 4049SOL    HW123780   2.887   1.491   8.001  0.6011 -1.7979 -0.9157
 4049SOL    HW223781   3.017   1.462   7.934 -0.1868 -0.2873  1.7687
 4050SOL     OW23782   0.107   0.660   0.029 -0.3561  0.1334  0.3363
 4050SOL    HW123783   0.161   0.602   0.082  1.5482 -0.0680 -1.8202
 4050SOL    HW223784   0.177   0.717  17.756 -0.5488  0.2231  0.0685
 4051SOL     OW23785   2.734   3.963   8.710 -0.2571  0.6065 -0.1482
 4051SOL    HW123786   2.639   3.974   8.701 -0.5227 -1.2827  0.4564
 4051SOL    HW223787   2.726   3.869   8.697  0.5252  0.5814 -0.4254
 4052SOL     OW23788   3.879   2.519   8.262 -0.4868 -0.2906  0.0665
 4052SOL    HW123789   3.866   2.518   8.356 -0.3682  2.2558  0.1031
 4052SOL    HW223790   3.813   2.452   8.242 -1.5572  0.7725  0.0354
 4053SOL     OW23791   0.277   2.414  11.536  0.1510  0.4373 -0.2010
 4053SOL    HW123792   0.256   2.485  11.596  0.2032 -0.2304  0.6182
 4053SOL    HW223793   0.313   2.342  11.589  1.3885  2.2478  1.4052
 4054SOL     OW23794   1.044   0.922   1.163 -0.0859 -0.6191  0.1845
 4054SOL    HW123795   0.970   0.952   1.111 -0.1503 -0.5575  0.3116
 4054SOL    HW223796   1.022   0.831   1.183  2.2915 -1.1214  0.5250
 4055SOL     OW23797   0.534   2.915   7.282  0.4940 -0.3300 -0.7524
 4055SOL    HW123798   0.543   2.823   7.256  2.6216 -1.3066  3.3435
 4055SOL    HW223799   0.621   2.931   7.319  0.6785 -0.2626 -1.2237
 4056SOL     OW23800   1.863   0.772   7.548 -0.8696 -0.0545  0.4610
 4056SOL    HW123801   1.874   0.849   7.492 -1.2619 -1.0515 -0.9859
 4056SOL    HW223802   1.778   0.784   7.590  0.4416  0.6301  2.8753
 4057SOL     OW23803   3.444   0.030   2.757 -0.1362  0.4896  0.4375
 4057SOL    HW123804   3.529   4.734   2.782  0.2362 -0.2161 -1.7806
 4057SOL    HW223805   3.430   4.715   2.679 -1.1421  1.1641  0.1405
 4058SOL     OW23806   2.215   0.046   5.641 -0.4772  0.2299 -0.2041
 4058SOL    HW123807   2.260   0.065   5.559 -0.6116  0.3563 -0.2469
 4058SOL    HW223808   2.150   4.724   5.609  0.7118 -0.1394 -1.9056
 4059SOL     OW23809   2.246   1.160   4.349 -0.1292  0.6026  0.6919
 4059SOL    HW123810   2.340   1.176   4.344  0.1307 -0.8517  0.9523
 4059SOL    HW223811   2.229   1.232   4.410 -0.9793  1.4253 -0.5095
 4060SOL     OW23812   3.048   1.601   6.160  0.4795  0.1341  0.0332
 4060SOL    HW123813   3.102   1.546   6.216  1.1642  1.9713  1.1761
 4060SOL    HW223814   2.977   1.538   6.147  0.8121 -0.4042  0.8280
 4061SOL     OW23815   3.992   0.404   1.076  0.2148  0.1993  0.0573
 4061SOL    HW123816   4.017   0.496   1.066 -2.8996  1.1386  0.9118
 4061SOL    HW223817   4.025   0.389   1.165 -2.5518  0.8714  1.2112
 4062SOL     OW23818   3.749   3.749   4.913  0.0782 -0.4472  0.9622
 4062SOL    HW123819   3.787   3.824   4.867 -0.4391 -1.3075 -0.8512
 4062SOL    HW223820   3.771   3.672   4.861  0.7716 -0.5041  1.3316
 4063SOL     OW23821   1.558   2.033   5.161 -0.6455  0.4535 -0.1493
 4063SOL    HW123822   1.465   2.054   5.166 -0.3986  1.7862 -1.3148
 4063SOL    HW223823   1.548   1.940   5.183 -0.5174  0.6241  0.6561
 4064SOL     OW23824   1.945   0.429  17.479  0.4349 -0.8942  0.4647
 4064SOL    HW123825   1.883   0.494  17.513  1.7795  0.6204  0.0088
 4064SOL    HW223826   1.976   0.395  17.563 -3.0928 -0.8632  1.7691
 4065SOL     OW23827   0.427   2.039   7.114  0.3531 -0.3303  0.2266
 4065SOL    HW123828   0.510   1.992   7.107  1.4146  1.4291  1.0941
 4065SOL    HW223829   0.432   2.055   7.209  0.3845  0.5538  0.0717
 4066SOL     OW23830   3.361   2.671   2.915 -0.3479  0.2256  0.4530
 4066SOL    HW123831   3.325   2.592   2.875  0.0393  0.1541  0.2467
 4066SOL    HW223832   3.350   2.657   3.010  2.1008  0.4862  0.7671
 4067SOL     OW23833   3.651   0.335   6.964  0.1599  0.2585  0.6640
 4067SOL    HW123834   3.585   0.376   7.020 -1.6848 -0.4288 -1.0343
 4067SOL    HW223835   3.734   0.342   7.012  0.5722  1.1561 -0.1995
 4068SOL     OW23836   1.960   2.382   9.040  0.2572 -0.2408  0.0462
 4068SOL    HW123837   1.988   2.338   8.960  1.0125  0.5102 -0.0949
 4068SOL    HW223838   1.933   2.465   9.001  2.4194 -0.1238 -1.1954
 4069SOL     OW23839   0.310   1.406   3.424  0.0233  0.0713  0.7173
 4069SOL    HW123840   0.398   1.420   3.459 -1.0327 -1.8741  4.0556
 4069SOL    HW223841   0.281   1.350   3.495 -0.8606 -0.7347 -0.2773
 4070SOL     OW23842   0.739   1.096  17.082 -0.0022 -0.7144 -0.4000
 4070SOL    HW123843   0.812   1.034  17.086  0.8370  0.4425  1.8782
 4070SOL    HW223844   0.684   1.055  17.015 -2.7657  1.2674  0.6571
 4071SOL     OW23845   2.858   1.193   9.955  0.3293  0.3140  0.3454
 4071SOL    HW123846   2.857   1.167  10.048  0.6882 -0.1047  0.2325
 4071SOL    HW223847   2.952   1.202   9.936  0.1132  0.2627 -0.6947
 4072SOL     OW23848   4.022   4.512   2.278 -0.2321  0.0529  0.1686
 4072SOL    HW123849   4.085   4.572   2.237  1.4825 -1.2418  0.9324
 4072SOL    HW223850   3.965   4.511   2.201 -0.3936 -0.5651  0.2963
 4073SOL     OW23851   1.066   1.138   8.786 -0.4934  0.0868 -0.5467
 4073SOL    HW123852   1.146   1.163   8.740 -0.9948 -0.1519 -1.5511
 4073SOL    HW223853   0.991   1.148   8.728  2.3615  0.0578 -4.2168
 4074SOL     OW23854   1.064   2.462   3.449 -0.2418  0.2184 -0.0452
 4074SOL    HW123855   1.111   2.458   3.366  0.2091 -3.0844  0.3444
 4074SOL    HW223856   1.077   2.369   3.470 -1.9767 -0.0449 -0.1794
 4075SOL     OW23857   1.391   1.777   5.540 -0.0936  0.3031 -0.1897
 4075SOL    HW123858   1.296   1.767   5.534  0.1454  0.2279 -3.9240
 4075SOL    HW223859   1.409   1.760   5.633 -1.1167 -0.0691 -0.0620
 4076SOL     OW23860   1.582   1.262   6.784  0.1327 -0.4362 -0.2675
 4076SOL    HW123861   1.605   1.218   6.866  1.5753 -2.1928 -1.6194
 4076SOL    HW223862   1.602   1.352   6.809 -0.0005 -0.0064 -1.7467
 4077SOL     OW23863   1.005   3.369   6.460  0.3453 -0.8581 -0.2299
 4077SOL    HW123864   1.003   3.323   6.377  0.2425  0.5336 -0.9985
 4077SOL    HW223865   1.062   3.442   6.435  0.5854 -0.7224  0.7069
 4078SOL     OW23866   3.252   3.009   2.061  0.1930  0.2991  0.0761
 4078SOL    HW123867   3.188   3.033   2.128 -0.4214 -2.3379  0.4183
 4078SOL    HW223868   3.197   3.004   1.982 -3.3253  1.8421  2.4046
 4079SOL     OW23869   3.535   0.967   4.707  0.5398  0.3574  0.0758
 4079SOL    HW123870   3.507   1.057   4.693  0.2495 -0.1570 -2.6161
 4079SOL    HW223871   3.448   0.932   4.725 -1.4559  2.1671 -6.2692
 4080SOL     OW23872   0.758   3.902  13.011  0.1037  0.5592 -0.0985
 4080SOL    HW123873   0.830   3.959  12.982  0.6962  0.7753  1.7655
 4080SOL    HW223874   0.703   3.962  13.061 -0.1488  0.2232  0.0246
 4081SOL     OW23875   4.595   0.349   7.411  0.4113 -0.2810  0.4387
 4081SOL    HW123876   4.612   0.278   7.350 -0.3541 -1.4280  1.5598
 4081SOL    HW223877   4.651   0.323   7.484  1.1725  0.0184 -0.0434
 4082SOL     OW23878   3.063   3.396   8.423 -0.7464  0.4173  0.1825
 4082SOL    HW123879   3.137   3.420   8.368  1.1759 -1.9661  1.6842
 4082SOL    HW223880   2.985   3.423   8.376 -0.2288 -0.8207 -1.3777
 4083SOL     OW23881   4.387   0.670   0.260  0.4577  0.2632 -0.0929
 4083SOL    HW123882   4.407   0.591   0.208  2.6393  0.4024  0.5218
 4083SOL    HW223883   4.466   0.723   0.248  0.2792  0.3677 -0.8023
 4084SOL     OW23884   3.664   0.274   2.554 -0.2262  0.4700 -0.4020
 4084SOL    HW123885   3.689   0.188   2.590 -1.8933  0.6174  1.1307
 4084SOL    HW223886   3.714   0.283   2.473  0.2061 -1.3117 -0.3344
 4085SOL     OW23887   0.198   0.377   1.658 -0.4810 -0.1796  0.4032
 4085SOL    HW123888   0.244   0.414   1.734 -0.3649 -0.5236  0.5027
 4085SOL    HW223889   0.270   0.323   1.625 -0.5435 -0.7724  1.2199
 4086SOL     OW23890   1.267   0.439   4.179  0.3235  0.3310 -0.7727
 4086SOL    HW123891   1.323   0.508   4.143  0.9869 -0.5673 -1.4545
 4086SOL    HW223892   1.226   0.419   4.095 -1.8807 -1.7933  0.8204
 4087SOL     OW23893   3.339   3.633   0.740  0.4422 -0.1805 -0.1058
 4087SOL    HW123894   3.323   3.702   0.805  0.6755  1.1987 -1.4972
 4087SOL    HW223895   3.407   3.584   0.786 -0.2814 -0.8501  0.2432
 4088SOL     OW23896   0.155   3.829  10.239  0.0900 -0.1335 -0.5156
 4088SOL    HW123897   0.070   3.809  10.201  0.5562 -1.3112 -0.9461
 4088SOL    HW223898   0.188   3.739  10.233 -1.7027 -0.9079  1.0589
 4089SOL     OW23899   1.032   3.149  15.438  0.2407 -0.2176 -1.0233
 4089SOL    HW123900   1.104   3.203  15.469 -0.5692  1.2924 -1.7273
 4089SOL    HW223901   1.048   3.168  15.345 -1.8810  1.1325 -1.1250
 4090SOL     OW23902   2.391   1.499   3.651  0.1996  0.3163 -0.8179
 4090SOL    HW123903   2.389   1.464   3.562 -1.3068  1.5868 -1.2800
 4090SOL    HW223904   2.301   1.530   3.663 -0.2136 -1.5126  0.7598
 4091SOL     OW23905   0.090   1.123   2.972 -0.5981 -0.5511  0.4411
 4091SOL    HW123906   0.153   1.106   3.042  0.2459  2.6898  0.4390
 4091SOL    HW223907   0.018   1.070   3.005 -1.8096  1.8969  1.6517
 4092SOL     OW23908   3.231   0.321   7.465  0.5533  0.2607 -0.5018
 4092SOL    HW123909   3.284   0.273   7.529  0.9994 -1.3520 -2.0622
 4092SOL    HW223910   3.175   0.245   7.448  0.0166  0.3290  0.9202
 4093SOL     OW23911   3.404   3.131   5.691  0.4894  0.0613 -0.0156
 4093SOL    HW123912   3.328   3.083   5.725 -0.4267 -0.0928 -2.2507
 4093SOL    HW223913   3.410   3.200   5.757  1.0567 -0.3531  0.3580
 4094SOL     OW23914   0.084   2.551  16.984 -0.3415 -0.4701  0.7129
 4094SOL    HW123915   0.091   2.512  17.072 -2.5508 -1.1162  0.6205
 4094SOL    HW223916   0.037   2.632  16.999 -0.0219 -0.4212  1.4433
 4095SOL     OW23917   3.359   4.345   5.740  0.3683  0.4313  0.0476
 4095SOL    HW123918   3.296   4.408   5.705  0.5532  1.0029  0.7401
 4095SOL    HW223919   3.403   4.300   5.668  1.1078 -0.5771  1.1320
 4096SOL     OW23920   0.442   4.359  16.500 -0.2801 -0.4608  0.2864
 4096SOL    HW123921   0.513   4.338  16.439 -0.8069  0.0420 -0.4921
 4096SOL    HW223922   0.370   4.358  16.437  0.2343 -0.4935 -0.3066
 4097SOL     OW23923   1.060   3.433   4.015 -0.0186  0.1944 -0.6644
 4097SOL    HW123924   1.127   3.431   4.083  0.4385 -2.2403 -1.2017
 4097SOL    HW223925   1.005   3.358   4.036 -0.1185  0.8643  1.3846
 4098SOL     OW23926   0.827   4.526   3.586 -0.5423 -0.1050  0.9513
 4098SOL    HW123927   0.808   4.444   3.632 -1.8624 -1.0872 -1.3306
 4098SOL    HW223928   0.848   4.479   3.505 -0.0839 -1.7588  2.0141
 4099SOL     OW23929   0.685   3.794   2.645 -0.5168  0.0983 -0.1596
 4099SOL    HW123930   0.731   3.859   2.699 -0.4678  0.2153 -0.3421
 4099SOL    HW223931   0.617   3.848   2.604 -0.4796  0.2344 -0.0452
 4100SOL     OW23932   0.119   3.519   5.216  0.1307  0.3119 -0.0110
 4100SOL    HW123933   0.028   3.489   5.223  0.0882  0.6739  1.0793
 4100SOL    HW223934   0.160   3.435   5.199 -0.9500 -0.4519  1.1588
 4101SOL     OW23935   0.113   4.254   3.340  0.1483  0.0923 -0.1708
 4101SOL    HW123936   0.199   4.239   3.302  1.1488  0.2482  2.0068
 4101SOL    HW223937   0.142   4.310   3.413  0.3833 -0.7854  0.4091
 4102SOL     OW23938   4.022   0.963   7.894  0.0299  0.5102 -0.2215
 4102SOL    HW123939   3.959   0.939   7.961  0.2717 -0.2650 -0.2780
 4102SOL    HW223940   4.027   0.875   7.857  2.2260  0.6578 -0.3205
 4103SOL     OW23941   3.709   1.008   3.105  0.0882 -0.6746  0.0546
 4103SOL    HW123942   3.640   1.074   3.092  0.4442 -0.7333 -2.0759
 4103SOL    HW223943   3.664   0.928   3.078  0.7791 -1.3869  1.0032
 4104SOL     OW23944   4.335   4.572  16.840 -0.7622  0.0766  0.5422
 4104SOL    HW123945   4.391   4.650  16.843 -0.9762  0.3107 -1.2832
 4104SOL    HW223946   4.357   4.540  16.753 -1.9015 -3.1573  1.4690
 4105SOL     OW23947   3.181   1.254   3.684 -0.0835  0.0613  0.1773
 4105SOL    HW123948   3.267   1.297   3.686  0.5281 -1.2906  2.8944
 4105SOL    HW223949   3.161   1.262   3.778 -0.6408  2.3572 -0.1285
 4106SOL     OW23950   4.428   1.753  14.848 -0.3874  0.0898 -0.1036
 4106SOL    HW123951   4.358   1.703  14.890 -2.1438  0.0878 -3.0608
 4106SOL    HW223952   4.494   1.709  14.901 -1.9789 -1.4716  0.5843
 4107SOL     OW23953   3.040   4.637   3.217 -0.2313  0.3196 -0.2020
 4107SOL    HW123954   3.050   4.731   3.208 -1.4132  0.2841 -1.8155
 4107SOL    HW223955   2.949   4.622   3.245 -0.2148 -1.0283 -0.8322
 4108SOL     OW23956   1.187   2.732  11.038 -0.2092  0.4495 -0.7020
 4108SOL    HW123957   1.191   2.826  11.059  0.8138  0.4061 -0.7154
 4108SOL    HW223958   1.116   2.698  11.093  1.0216  1.0029  1.2528
 4109SOL     OW23959   2.854   2.331  10.365  0.0743  0.0467 -0.1518
 4109SOL    HW123960   2.777   2.281  10.337  0.5072 -1.6268  1.6736
 4109SOL    HW223961   2.900   2.267  10.419  2.7124  2.6085  0.6129
 4110SOL     OW23962   0.754   0.390   3.412 -0.1359 -0.2841 -0.2061
 4110SOL    HW123963   0.734   0.300   3.438 -2.1127  0.3063  0.2673
 4110SOL    HW223964   0.843   0.377   3.380  0.3901  1.4986  0.5208
 4111SOL     OW23965   3.887   1.356  16.010  0.1182 -0.1460 -0.7228
 4111SOL    HW123966   3.860   1.268  15.986 -0.1894 -0.3277  0.2889
 4111SOL    HW223967   3.977   1.371  15.982 -0.2260  2.4885 -0.4970
 4112SOL     OW23968   2.658   0.014   8.085 -0.0663  0.0490  0.5039
 4112SOL    HW123969   2.622   4.666   8.092 -0.3055  0.1698  0.7674
 4112SOL    HW223970   2.600   0.058   8.023  0.8582  0.7085  0.1044
 4113SOL     OW23971   0.084   0.603   2.763 -0.3080  0.0598  0.3068
 4113SOL    HW123972   0.152   0.541   2.737 -0.6868 -1.0086  1.8114
 4113SOL    HW223973   0.142   0.679   2.764  0.7055 -0.6819 -2.9860
 4114SOL     OW23974   3.035   0.751   6.819 -0.0987 -0.6471 -0.2675
 4114SOL    HW123975   2.964   0.689   6.834 -0.6250 -0.1425 -0.6881
 4114SOL    HW223976   3.060   0.772   6.909 -0.5401  1.6089 -0.6721
 4115SOL     OW23977   4.637   0.779   1.010 -0.1624  0.1527 -0.0586
 4115SOL    HW123978   4.641   0.761   0.916 -1.7562 -1.5337  0.2000
 4115SOL    HW223979   4.710   0.839   1.024  1.4542 -2.2947  1.9445
 4116SOL     OW23980   2.972   2.096  11.363  0.3690  0.3507  0.7804
 4116SOL    HW123981   2.959   2.178  11.410 -0.1677  0.7687 -0.1008
 4116SOL    HW223982   2.964   2.045  11.443 -2.5784 -1.7484 -0.8669
 4117SOL     OW23983   2.444   0.364   4.312  0.4365 -0.0806  0.7270
 4117SOL    HW123984   2.488   0.300   4.367 -0.0083  0.5012  1.7722
 4117SOL    HW223985   2.444   0.426   4.385 -1.3445 -1.8688  2.2620
 4118SOL     OW23986   4.608   3.863   9.408 -0.1804 -0.3194 -0.3199
 4118SOL    HW123987   4.530   3.808   9.399  0.4891 -1.3000 -0.1423
 4118SOL    HW223988   4.671   3.803   9.448  2.1772  2.1277 -0.3232
 4119SOL     OW23989   0.444   4.669   0.224 -0.5628 -0.3203  0.2620
 4119SOL    HW123990   0.358   4.627   0.226 -1.2439  0.9898 -1.3141
 4119SOL    HW223991   0.438   4.723   0.145  1.1445 -0.4224  0.0594
 4120SOL     OW23992   4.432   0.003   8.410  0.3017  0.1872  0.1853
 4120SOL    HW123993   4.365   4.702   8.465 -0.1261  1.6486  0.7613
 4120SOL    HW223994   4.418   0.091   8.446 -4.8235  0.1241 -1.6023
 4121SOL     OW23995   4.710   3.561   2.532  0.2276  0.4737  0.3053
 4121SOL    HW123996   0.030   3.596   2.466  0.6692 -0.3826  0.2607
 4121SOL    HW223997   4.649   3.511   2.477 -3.6455  2.0193  3.2177
 4122SOL     OW23998   3.014   0.660   8.249 -0.0059  0.5057  0.1188
 4122SOL    HW123999   3.088   0.624   8.201  0.6290  3.3975 -1.1011
 4122SOL    HW224000   2.997   0.586   8.307  1.6995  0.9335  1.1370
 4123SOL     OW24001   2.993   0.598   8.711 -0.4569 -0.2946  0.5265
 4123SOL    HW124002   2.904   0.630   8.726  0.0120  0.6584  1.2864
 4123SOL    HW224003   3.022   0.614   8.801 -1.9923  0.3363  0.8988
 4124SOL     OW24004   1.821   1.437   3.169  0.2665 -0.0195 -0.0850
 4124SOL    HW124005   1.915   1.444   3.186 -0.0071 -0.4639  1.6474
 4124SOL    HW224006   1.819   1.370   3.101  2.0222  0.0460 -0.1905
 4125SOL     OW24007   1.880   2.461   7.075 -0.2056  0.2330 -0.2343
 4125SOL    HW124008   1.886   2.504   7.160 -2.1797 -2.2086  1.1413
 4125SOL    HW224009   1.939   2.389   7.097 -1.8328 -0.2375  2.6880
 4126SOL     OW24010   0.730   0.093  10.887 -0.1417 -0.4911 -0.2220
 4126SOL    HW124011   0.642   0.064  10.863 -0.8714  1.1802  0.4408
 4126SOL    HW224012   0.790   0.034  10.841 -2.2256 -1.9239 -1.1060
 4127SOL     OW24013   0.193   3.302   1.667  0.0965 -0.1843 -0.0694
 4127SOL    HW124014   0.121   3.239   1.665  1.3187 -1.5634 -1.8153
 4127SOL    HW224015   0.161   3.357   1.739 -0.2250 -0.0525 -0.3140
 4128SOL     OW24016   1.009   2.201   9.037  0.1383  0.0319  0.8148
 4128SOL    HW124017   0.979   2.175   9.124  0.3308  0.5660  1.0381
 4128SOL    HW224018   1.014   2.112   9.002  1.4128  0.2671  0.3907
 4129SOL     OW24019   3.863   2.163   1.317 -0.2210 -0.4636  0.0599
 4129SOL    HW124020   3.904   2.156   1.231 -1.2514 -3.3508 -0.1997
 4129SOL    HW224021   3.829   2.075   1.333  0.0563 -0.4178  0.8878
 4130SOL     OW24022   3.713   1.175  14.601 -0.3725  0.4526 -0.2608
 4130SOL    HW124023   3.684   1.091  14.638 -0.2180 -0.2858 -1.8077
 4130SOL    HW224024   3.695   1.158  14.508  2.0491  1.2719 -0.8988
 4131SOL     OW24025   1.054   4.458   8.957  0.2750 -0.8486 -0.2339
 4131SOL    HW124026   1.067   4.504   9.040 -0.9046 -0.1727 -0.4117
 4131SOL    HW224027   1.040   4.369   8.989 -0.0005 -2.1009 -3.8717
 4132SOL     OW24028   3.578   1.370   2.478  0.3483  0.7907 -0.3067
 4132SOL    HW124029   3.582   1.278   2.450 -0.4019  1.0250 -1.1663
 4132SOL    HW224030   3.494   1.380   2.524  0.4164 -2.2167  0.4589
 4133SOL     OW24031   3.484   1.648   8.650  0.3779 -0.2674 -0.1097
 4133SOL    HW124032   3.544   1.593   8.598 -0.8194 -0.0082 -1.7746
 4133SOL    HW224033   3.544   1.667   8.722  0.5056 -2.2076  0.3013
 4134SOL     OW24034   2.114   0.303  17.309  0.2200  0.3275 -0.5801
 4134SOL    HW124035   2.052   0.346  17.368 -0.0443  0.1170 -0.7051
 4134SOL    HW224036   2.194   0.322  17.359 -0.8072 -0.0763  1.2138
 4135SOL     OW24037   0.585   3.885   8.534  0.0736  0.0985  0.4255
 4135SOL    HW124038   0.570   3.916   8.623 -0.5477 -0.1605  0.4108
 4135SOL    HW224039   0.505   3.916   8.491  1.3613  0.0522 -2.0097
 4136SOL     OW24040   1.682   1.245   7.967  0.3289 -0.4552 -0.5205
 4136SOL    HW124041   1.676   1.174   7.903 -1.0618  0.5831 -1.5619
 4136SOL    HW224042   1.726   1.322   7.930 -2.1868  1.7579  1.0939
 4137SOL     OW24043   0.540   1.548   7.066  0.1282 -0.8128  1.0128
 4137SOL    HW124044   0.562   1.524   6.976 -1.2651  0.9690  0.1959
 4137SOL    HW224045   0.458   1.597   7.068 -0.8239 -2.4320  1.5106
 4138SOL     OW24046   4.434   1.649   6.290  0.0193  0.2278 -0.7347
 4138SOL    HW124047   4.415   1.721   6.351  0.4012  0.3997 -0.8155
 4138SOL    HW224048   4.430   1.692   6.204  2.6633  1.3256 -0.2993
 4139SOL     OW24049   4.456   0.273   8.966  0.5191 -0.2684 -0.2963
 4139SOL    HW124050   4.388   0.310   9.023  2.4931  1.8873  0.6694
 4139SOL    HW224051   4.470   0.190   9.011  4.6177  1.1417  1.0771
 4140SOL     OW24052   1.833   1.561   9.082 -0.5549 -0.0806  0.5172
 4140SOL    HW124053   1.900   1.570   9.150  0.3075 -1.0932 -0.2077
 4140SOL    HW224054   1.831   1.466   9.081  2.8123 -0.1333 -2.4011
 4141SOL     OW24055   3.403   1.167  13.388  0.3963 -0.0126 -0.1644
 4141SOL    HW124056   3.359   1.158  13.304  2.2411 -2.4520 -0.8645
 4141SOL    HW224057   3.423   1.075  13.402 -2.0259 -0.3409  1.1473
 4142SOL     OW24058   2.058   1.248   3.442  0.2854  0.4852  0.4741
 4142SOL    HW124059   2.143   1.277   3.475  1.2510 -0.8412 -0.8329
 4142SOL    HW224060   2.027   1.332   3.408  1.7627  0.4504 -0.9739
 4143SOL     OW24061   0.168   0.534   7.813  0.5311 -0.6110  0.1682
 4143SOL    HW124062   0.135   0.608   7.863 -0.9893 -0.6504 -0.7656
 4143SOL    HW224063   0.262   0.538   7.831  0.7906 -0.0724 -1.2615
 4144SOL     OW24064   0.199   0.331  17.683 -0.0164 -0.5651 -0.2288
 4144SOL    HW124065   0.197   0.235  17.688  0.8110 -0.5935 -0.3926
 4144SOL    HW224066   0.182   0.346  17.590  1.2904 -0.3395 -0.4260
 4145SOL     OW24067   0.891   2.116   7.319  0.5859 -0.4220  0.3372
 4145SOL    HW124068   0.906   2.083   7.408  0.6468  0.6404  0.7224
 4145SOL    HW224069   0.936   2.045   7.274  0.5830  0.1844 -0.6170
 4146SOL     OW24070   4.114   3.793   5.076  0.2870  0.5915 -0.1704
 4146SOL    HW124071   4.204   3.771   5.102 -0.1083 -0.2845  0.4520
 4146SOL    HW224072   4.139   3.835   4.994  1.1688  0.8407  0.2171
 4147SOL     OW24073   0.344   4.452   6.709 -0.5790  0.1362  0.1075
 4147SOL    HW124074   0.413   4.463   6.643 -1.1511 -0.1582 -0.5371
 4147SOL    HW224075   0.392   4.467   6.790  0.8964 -1.8805 -0.4087
 4148SOL     OW24076   0.384   0.247   8.049  0.2183 -0.4317  0.5924
 4148SOL    HW124077   0.428   0.296   7.979 -3.0694 -0.3685 -1.4289
 4148SOL    HW224078   0.445   0.272   8.118  0.9630  1.5420 -0.7583
 4149SOL     OW24079   0.695   1.895  15.184 -0.5769  0.3670 -0.0934
 4149SOL    HW124080   0.696   1.953  15.260 -0.9675  0.9722 -0.5452
 4149SOL    HW224081   0.641   1.824  15.218 -0.1404  0.7752  1.4383
 4150SOL     OW24082   4.342   0.442   7.400  0.2976  0.4987 -0.1083
 4150SOL    HW124083   4.326   0.380   7.472  3.1847  0.6854  0.6786
 4150SOL    HW224084   4.432   0.427   7.372 -0.0668 -2.5755  0.3254
 4151SOL     OW24085   3.116   0.567   6.243  0.5190 -0.2193 -0.1437
 4151SOL    HW124086   3.149   0.657   6.242  1.4366 -0.5595 -0.5724
 4151SOL    HW224087   3.185   0.527   6.190  0.7602 -0.5152  0.3861
 4152SOL     OW24088   3.488   4.700   3.578 -0.0991 -0.1520 -0.0018
 4152SOL    HW124089   3.413   4.707   3.636  1.3304  0.9307  1.7251
 4152SOL    HW224090   3.488   0.050   3.545 -0.2738 -0.3187 -0.4641
 4153SOL     OW24091   1.288   4.244   0.530  0.7587 -0.0058 -0.4554
 4153SOL    HW124092   1.219   4.300   0.496 -0.2650 -1.4564 -0.7418
 4153SOL    HW224093   1.366   4.266   0.479  2.5743  0.0077  2.2919
 4154SOL     OW24094   4.618   2.488   6.167 -0.8332  0.3555  0.0431
 4154SOL    HW124095   4.581   2.535   6.092  0.1505  1.8144  0.4897
 4154SOL    HW224096   4.676   2.548   6.214 -0.8028  0.0104  0.4421
 4155SOL     OW24097   4.065   4.166  17.634  0.5822 -0.4214  0.3811
 4155SOL    HW124098   4.050   4.206  17.548 -0.1855 -0.7604  0.3532
 4155SOL    HW224099   4.137   4.113  17.599 -0.5639 -1.9638  0.3595
 4156SOL     OW24100   3.276   2.722   5.792 -0.2382 -0.4388 -0.2932
 4156SOL    HW124101   3.243   2.811   5.775 -0.9590 -0.5380  0.5644
 4156SOL    HW224102   3.345   2.743   5.856 -1.5415 -0.3579  1.1049
 4157SOL     OW24103   2.628   1.237  13.480 -0.2313  0.0592 -0.0483
 4157SOL    HW124104   2.655   1.263  13.392 -1.3988  0.6526 -0.2317
 4157SOL    HW224105   2.589   1.320  13.507  0.2386  0.6441 -1.1808
 4158SOL     OW24106   1.979   2.674   5.974 -0.0701 -0.0098  0.3722
 4158SOL    HW124107   2.049   2.721   6.020  1.3492  1.1139 -2.9011
 4158SOL    HW224108   1.930   2.746   5.932 -0.3338 -1.1431 -1.2480
 4159SOL     OW24109   3.742   2.672  11.271  0.8738  0.0242 -0.0813
 4159SOL    HW124110   3.698   2.587  11.269 -0.7118  0.8927 -1.8973
 4159SOL    HW224111   3.786   2.681  11.356 -1.3448  0.1369  1.0567
 4160SOL     OW24112   0.200   2.901   9.239  0.3340  0.4057  0.2871
 4160SOL    HW124113   0.211   2.963   9.167  1.5567 -0.3283 -0.1504
 4160SOL    HW224114   0.112   2.865   9.236  0.3021  0.6252 -1.4573
 4161SOL     OW24115   2.680   1.254   2.898 -0.3559 -0.1649 -0.0125
 4161SOL    HW124116   2.663   1.313   2.824  0.2197  1.8222  1.4319
 4161SOL    HW224117   2.605   1.279   2.952 -0.3033  0.3856 -0.1932
 4162SOL     OW24118   2.604   1.757   4.440  0.7133 -0.5264 -0.2726
 4162SOL    HW124119   2.663   1.792   4.506  1.1973 -0.7783 -0.5747
 4162SOL    HW224120   2.623   1.813   4.365  0.6439  1.0214  0.8707
 4163SOL     OW24121   1.409   4.137   6.890 -0.2438 -0.8633 -0.5231
 4163SOL    HW124122   1.490   4.118   6.842 -1.2356 -2.2689 -1.6115
 4163SOL    HW224123   1.411   4.072   6.960 -0.7605 -0.2629  0.0548
 4164SOL     OW24124   0.853   3.586  14.741 -0.1914 -0.5259 -0.3253
 4164SOL    HW124125   0.910   3.533  14.797 -0.4294  1.3852  1.7252
 4164SOL    HW224126   0.918   3.640  14.695  0.7462  1.8154  3.7149
 4165SOL     OW24127   0.833   2.375   0.078 -0.3332 -0.2880  0.1539
 4165SOL    HW124128   0.918   2.417   0.087 -0.5181  0.2717 -0.6669
 4165SOL    HW224129   0.810   2.366   0.170  1.1767 -1.1237  0.4400
 4166SOL     OW24130   3.432   3.450  14.631 -0.2314 -0.1935 -0.3241
 4166SOL    HW124131   3.420   3.374  14.687  2.7713 -0.4013  0.0408
 4166SOL    HW224132   3.526   3.466  14.641 -0.8450  2.5696  1.0152
 4167SOL     OW24133   1.767   1.291   6.293  0.2063  0.3551  0.4850
 4167SOL    HW124134   1.712   1.281   6.216 -1.6140 -1.3744  2.0205
 4167SOL    HW224135   1.708   1.260   6.363 -0.8585  3.2679  0.8689
 4168SOL     OW24136   3.268   1.911  12.904 -0.5069  0.2796  0.6134
 4168SOL    HW124137   3.194   1.878  12.956 -0.8618 -1.3417 -0.9357
 4168SOL    HW224138   3.343   1.864  12.938  1.1539  2.4464 -0.0152
 4169SOL     OW24139   1.873   4.645   6.031 -0.6708 -0.4490  0.0325
 4169SOL    HW124140   1.819   4.573   6.063  0.3183 -0.1344  2.4559
 4169SOL    HW224141   1.914   4.667   6.115  0.9443 -1.0322 -0.6171
 4170SOL     OW24142   1.393   3.130  13.541 -0.7500 -0.5414  0.4837
 4170SOL    HW124143   1.438   3.208  13.507 -1.5540 -0.4871 -0.4644
 4170SOL    HW224144   1.434   3.110  13.624 -0.8190  1.4519  1.0104
 4171SOL     OW24145   2.533   1.103   1.764  0.3580  0.8558 -0.8095
 4171SOL    HW124146   2.459   1.113   1.823  0.6540  0.1554 -0.3203
 4171SOL    HW224147   2.608   1.077   1.818  0.2236  0.2094 -0.9277
 4172SOL     OW24148   2.167   1.026   1.598  0.6796  0.1236 -0.0617
 4172SOL    HW124149   2.188   1.119   1.584 -1.9346  0.8671  0.8877
 4172SOL    HW224150   2.258   0.999   1.604  1.2219  1.9048 -0.3271
 4173SOL     OW24151   4.232   1.447  11.440 -0.4838 -0.4136  0.1799
 4173SOL    HW124152   4.319   1.485  11.450 -0.3760 -0.0984 -1.9437
 4173SOL    HW224153   4.185   1.515  11.488 -1.3920 -0.8493 -0.0876
 4174SOL     OW24154   2.265   2.896   0.161 -0.2688 -0.8504  0.5024
 4174SOL    HW124155   2.183   2.937   0.188  0.7187  0.9584  0.8137
 4174SOL    HW224156   2.241   2.803   0.158  0.4608 -1.0353  0.3137
 4175SOL     OW24157   3.820   4.413   7.855 -0.2969  0.2449 -0.2372
 4175SOL    HW124158   3.783   4.482   7.799 -1.1427  1.3188  1.6419
 4175SOL    HW224159   3.738   4.364   7.854  0.7410 -1.5033 -0.4630
 4176SOL     OW24160   3.814   4.067   1.953  0.3697  0.1334 -0.1071
 4176SOL    HW124161   3.794   4.110   1.870 -0.5124  1.6766  0.9104
 4176SOL    HW224162   3.725   4.045   1.978  0.3035  0.3971 -0.1093
 4177SOL     OW24163   3.113   3.884   8.548 -0.5546  0.4395 -0.0131
 4177SOL    HW124164   3.069   3.924   8.623 -0.1858 -3.7812  2.4390
 4177SOL    HW224165   3.109   3.789   8.560 -0.9447  0.2441 -1.6096
 4178SOL     OW24166   4.483   4.480   3.503 -0.0888 -0.5973 -0.2643
 4178SOL    HW124167   4.419   4.552   3.503 -0.8726 -1.2957  2.0966
 4178SOL    HW224168   4.549   4.499   3.436  1.1350 -0.0851  1.0938
 4179SOL     OW24169   2.817   1.777   3.220 -0.1586  0.6064 -0.5098
 4179SOL    HW124170   2.878   1.828   3.166  0.7136  2.4496  2.2610
 4179SOL    HW224171   2.873   1.765   3.296  0.0241  0.2266 -0.7038
 4180SOL     OW24172   3.697   0.530  11.007  0.0667 -0.2010 -0.3967
 4180SOL    HW124173   3.776   0.564  10.963 -1.5307  1.8588 -1.6744
 4180SOL    HW224174   3.728   0.467  11.072 -3.1071 -0.2011  1.1030
 4181SOL     OW24175   3.691   3.406   6.852  0.1414 -0.0883  0.0674
 4181SOL    HW124176   3.630   3.438   6.918  0.8703  1.8993 -0.2362
 4181SOL    HW224177   3.771   3.442   6.891  0.5459  2.2947 -2.9937
 4182SOL     OW24178   3.966   0.918  17.737  0.0919 -0.0466 -0.4780
 4182SOL    HW124179   4.021   0.995  17.742 -1.4280  1.0439 -0.6033
 4182SOL    HW224180   4.017   0.866  17.675 -2.3072 -1.7760 -1.0187
 4183SOL     OW24181   1.289   0.820   9.123 -0.1037 -0.0215  0.5023
 4183SOL    HW124182   1.248   0.810   9.037  0.7007 -0.3229  0.1552
 4183SOL    HW224183   1.334   0.903   9.110  0.2236 -0.1428  0.8320
 4184SOL     OW24184   2.356   3.085   7.369 -0.0651 -0.6009 -0.2218
 4184SOL    HW124185   2.262   3.104   7.364  0.5964  2.4802 -0.4055
 4184SOL    HW224186   2.390   3.174   7.376 -0.6661 -0.3866  0.0021
 4185SOL     OW24187   1.325   2.376   2.959 -0.2554  0.0150  0.2544
 4185SOL    HW124188   1.345   2.469   2.944 -1.1923 -0.2226 -2.4610
 4185SOL    HW224189   1.405   2.348   3.004  0.3807 -1.0262 -1.5564
 4186SOL     OW24190   0.451   2.154  16.881 -0.0274 -0.0608  0.4756
 4186SOL    HW124191   0.373   2.172  16.933 -2.5711 -1.1951 -2.9464
 4186SOL    HW224192   0.491   2.241  16.879 -1.9383  0.8018 -0.4564
 4187SOL     OW24193   2.354   1.158   1.956  0.0085 -0.1484  0.6406
 4187SOL    HW124194   2.410   1.235   1.941 -3.3142  1.5176 -3.2633
 4187SOL    HW224195   2.352   1.166   2.052 -2.0053 -0.9587  0.6444
 4188SOL     OW24196   1.632   4.330   4.071 -0.2205  0.0486 -0.4014
 4188SOL    HW124197   1.583   4.371   4.142 -0.0310  2.1289 -1.4869
 4188SOL    HW224198   1.608   4.392   4.002 -0.0559 -0.0866 -0.5786
 4189SOL     OW24199   4.557   1.647   2.804 -0.3853 -0.3153  0.4571
 4189SOL    HW124200   4.613   1.682   2.873 -0.9972  1.1703  0.2154
 4189SOL    HW224201   4.559   1.552   2.812 -0.4422 -0.3087  0.5462
 4190SOL     OW24202   1.778   0.716  17.240 -0.2313  0.4044 -1.0458
 4190SOL    HW124203   1.806   0.734  17.330  1.0426  1.8421 -1.7303
 4190SOL    HW224204   1.746   0.626  17.248 -1.4453  0.8210 -1.3894
 4191SOL     OW24205   4.359   2.357   4.674  0.1334 -0.1923 -0.7285
 4191SOL    HW124206   4.394   2.277   4.634  1.0904  1.3629 -2.9884
 4191SOL    HW224207   4.295   2.319   4.734  0.7931 -0.5895 -0.2680
 4192SOL     OW24208   3.617   2.587   2.308  0.7319 -0.3889  0.3710
 4192SOL    HW124209   3.561   2.572   2.384 -2.0518  1.6192 -1.2455
 4192SOL    HW224210   3.563   2.637   2.246  0.2922 -1.3362 -0.0217
 4193SOL     OW24211   1.130   1.571   4.961  0.0729 -0.5850  0.5250
 4193SOL    HW124212   1.163   1.557   5.050  2.3740 -0.2561 -0.2853
 4193SOL    HW224213   1.064   1.502   4.959 -1.2332  0.6899 -0.6379
 4194SOL     OW24214   2.896   3.083   7.133  0.8811 -0.2977  0.1904
 4194SOL    HW124215   2.968   3.060   7.193 -1.4158  1.1720  3.5233
 4194SOL    HW224216   2.823   3.098   7.193 -1.9583  0.5591 -3.5342
 4195SOL     OW24217   2.289   3.686   4.288 -0.5035 -0.1998  0.1141
 4195SOL    HW124218   2.230   3.733   4.230 -0.5025 -1.1755 -0.6786
 4195SOL    HW224219   2.300   3.602   4.242 -0.1800 -0.2149  0.2167
 4196SOL     OW24220   2.882   2.059   6.475  0.6266 -0.1290  0.4793
 4196SOL    HW124221   2.839   1.974   6.463  0.7379 -0.1471  0.2118
 4196SOL    HW224222   2.853   2.075   6.565 -1.2546  0.4009 -0.2192
 4197SOL     OW24223   0.016   2.336   5.916 -0.4583 -0.1807 -0.2463
 4197SOL    HW124224   4.675   2.293   5.891 -2.2821  2.4879  1.1153
 4197SOL    HW224225   4.739   2.426   5.888 -3.0366 -0.7973 -0.5893
 4198SOL     OW24226   0.575   2.776   3.210  0.0379  0.2617  0.0057
 4198SOL    HW124227   0.558   2.796   3.303  0.1150 -2.5172  0.6206
 4198SOL    HW224228   0.528   2.848   3.168 -3.2889 -1.5291  0.6712
 4199SOL     OW24229   1.917   4.552   3.765  0.1906  0.3457 -0.2540
 4199SOL    HW124230   1.833   4.542   3.719  0.1606 -1.3376  0.1442
 4199SOL    HW224231   1.918   4.471   3.817 -0.8455  0.2866 -0.3170
 4200SOL     OW24232   2.687   3.260   2.119 -0.0087 -0.3547 -0.6726
 4200SOL    HW124233   2.746   3.186   2.106  0.0005 -0.3594 -0.6010
 4200SOL    HW224234   2.733   3.303   2.190 -0.0026 -1.4058 -0.0375
 4201SOL     OW24235   0.306   1.754   7.414 -0.5987  0.2801  0.8805
 4201SOL    HW124236   0.279   1.734   7.325 -1.8483 -1.3384  1.6258
 4201SOL    HW224237   0.306   1.661   7.437 -1.9833 -0.0983 -0.7396
 4202SOL     OW24238   3.297   0.893  16.373  0.6181 -0.8022  0.2446
 4202SOL    HW124239   3.227   0.959  16.373  1.1538 -0.2273  1.8457
 4202SOL    HW224240   3.337   0.937  16.298 -0.3938 -0.9473 -0.3805
 4203SOL     OW24241   4.411   3.968   0.128 -0.2486 -0.8714  0.4855
 4203SOL    HW124242   4.478   4.034   0.145  0.4661 -1.0959 -1.4521
 4203SOL    HW224243   4.427   3.911   0.203 -0.0562 -2.0240 -0.4273
 4204SOL     OW24244   0.577   2.073   1.921 -0.3415 -0.6641  0.5452
 4204SOL    HW124245   0.572   1.979   1.939 -0.1233 -0.0967  3.5700
 4204SOL    HW224246   0.623   2.108   1.998 -0.8507  0.5102  0.3077
 4205SOL     OW24247   3.887   1.820   9.131 -0.4576  0.4086 -0.3129
 4205SOL    HW124248   3.873   1.727   9.115 -1.7002  0.5428  0.0385
 4205SOL    HW224249   3.794   1.843   9.132 -0.3908  0.8036 -1.9470
 4206SOL     OW24250   3.802   2.085   2.152  0.6807 -0.5956  0.4857
 4206SOL    HW124251   3.886   2.130   2.163  0.7189 -0.9601  1.6312
 4206SOL    HW224252   3.745   2.158   2.180  0.3109 -0.4681 -0.6056
 4207SOL     OW24253   1.143   1.291   7.675 -0.3616 -0.3370 -0.2678
 4207SOL    HW124254   1.073   1.230   7.655  1.1893 -2.0235 -0.6044
 4207SOL    HW224255   1.100   1.368   7.639  0.2922  0.1565  0.0129
 4208SOL     OW24256   1.511   1.389   8.762 -0.4086  0.3198  0.2878
 4208SOL    HW124257   1.534   1.439   8.684  1.0840  0.8261  1.0606
 4208SOL    HW224258   1.542   1.435   8.840 -0.7741  0.0792  0.5771
 4209SOL     OW24259   1.683   2.747   6.805  0.0445  0.3880 -0.4515
 4209SOL    HW124260   1.757   2.761   6.864 -0.1875  3.8601 -0.9673
 4209SOL    HW224261   1.628   2.820   6.833 -1.2664 -0.6316 -0.3776
 4210SOL     OW24262   2.156   2.805   3.424  0.4589 -0.0514  0.4351
 4210SOL    HW124263   2.090   2.747   3.385  0.5165  0.6458 -0.6816
 4210SOL    HW224264   2.126   2.821   3.514 -0.3879  0.0505  0.1385
 4211SOL     OW24265   3.331   2.216   6.926  0.5322  0.4846  0.1633
 4211SOL    HW124266   3.415   2.261   6.912  0.2935  0.8825  0.0345
 4211SOL    HW224267   3.330   2.157   6.850  2.2540 -0.1152  0.6072
 4212SOL     OW24268   0.392   3.134   6.290 -0.2333  0.5447 -0.2854
 4212SOL    HW124269   0.443   3.169   6.363  3.8666 -1.3341 -2.2134
 4212SOL    HW224270   0.355   3.216   6.257  0.8739  1.1557 -0.0380
 4213SOL     OW24271   1.903   2.561  11.018 -0.0813 -0.0886  0.1664
 4213SOL    HW124272   1.887   2.623  11.089 -0.3421 -0.9215  0.8425
 4213SOL    HW224273   1.979   2.506  11.038 -0.2643 -0.3354  0.1803
 4214SOL     OW24274   3.939   4.640   5.180 -0.0966  0.3276 -0.4350
 4214SOL    HW124275   3.980   4.642   5.266 -1.3851  1.2655  0.1517
 4214SOL    HW224276   3.998   4.576   5.139  3.1172  1.9734  1.5951
 4215SOL     OW24277   2.572   3.532   1.978  0.1733  0.1400 -0.7095
 4215SOL    HW124278   2.538   3.538   1.889 -1.4262  2.6583  0.0595
 4215SOL    HW224279   2.490   3.536   2.027  1.9661 -3.0332  2.5410
 4216SOL     OW24280   3.013   4.313  17.121  0.0961 -0.4659  0.2178
 4216SOL    HW124281   3.005   4.362  17.203  1.1476  0.9280 -0.5217
 4216SOL    HW224282   2.924   4.312  17.087 -0.9905 -0.0747  3.0072
 4217SOL     OW24283   3.373   3.285   2.899  0.4026 -0.0244  0.2647
 4217SOL    HW124284   3.436   3.234   2.849  1.0007  0.0799  0.9016
 4217SOL    HW224285   3.309   3.218   2.923 -2.6638  2.2821 -1.4718
 4218SOL     OW24286   2.786   1.307   4.783  0.3701 -0.0775  0.3177
 4218SOL    HW124287   2.711   1.360   4.809  1.1467 -0.0572  2.5119
 4218SOL    HW224288   2.784   1.341   4.694 -0.7629 -0.4931  0.1821
 4219SOL     OW24289   0.066   1.674  15.189 -0.1004 -0.1535  0.2225
 4219SOL    HW124290   0.103   1.673  15.277 -0.8315  0.1264  0.5369
 4219SOL    HW224291   0.145   1.678  15.136  0.7917 -1.2311  1.4761
 4220SOL     OW24292   3.434   0.003   3.034 -0.1748  0.8421  0.6940
 4220SOL    HW124293   3.393   0.004   2.947 -0.0563  0.8168  0.6383
 4220SOL    HW224294   3.439   4.648   3.033  1.5575  0.9380 -0.0531
 4221SOL     OW24295   2.873   1.872   7.220  0.1623  0.7338 -0.1244
 4221SOL    HW124296   2.917   1.954   7.241 -1.2860  1.7878 -1.1823
 4221SOL    HW224297   2.934   1.804   7.248  0.0060 -0.0702 -1.7056
 4222SOL     OW24298   4.075   3.921   8.881 -0.0220 -0.3257  0.4035
 4222SOL    HW124299   4.012   3.908   8.810 -0.0474  4.0099 -0.3723
 4222SOL    HW224300   4.061   3.842   8.934  1.2211 -1.7823 -1.4810
 4223SOL     OW24301   2.335   0.602   5.452  0.1922 -0.4480 -0.3592
 4223SOL    HW124302   2.242   0.578   5.458 -0.2718  1.2891 -0.4705
 4223SOL    HW224303   2.347   0.650   5.370  1.0368 -0.1242 -0.0371
 4224SOL     OW24304   4.462   1.569   0.345  0.6124  0.7156 -0.2207
 4224SOL    HW124305   4.377   1.612   0.351 -0.1207 -0.6283 -1.0136
 4224SOL    HW224306   4.447   1.478   0.369  0.7406  0.3342 -1.5889
 4225SOL     OW24307   4.014   4.175   0.304  0.9210 -0.3008  0.0223
 4225SOL    HW124308   4.071   4.138   0.237  1.7163 -0.9235  1.0470
 4225SOL    HW224309   4.058   4.148   0.384  0.6329  3.7641  1.5223
 4226SOL     OW24310   0.391   2.862   4.082 -0.4582  0.0256 -0.0352
 4226SOL    HW124311   0.444   2.922   4.135  1.0460  0.3840 -1.9462
 4226SOL    HW224312   0.457   2.831   4.020 -0.6399 -0.4910  0.0332
 4227SOL     OW24313   0.775   3.155   1.213  0.1172 -0.0482  0.6641
 4227SOL    HW124314   0.691   3.140   1.255 -0.2439 -1.2461 -0.4915
 4227SOL    HW224315   0.801   3.233   1.262 -0.3025 -0.5680  1.7050
 4228SOL     OW24316   2.449   1.597   6.290 -0.1284  0.1583  0.0694
 4228SOL    HW124317   2.381   1.659   6.265  0.8900  0.7480 -1.2312
 4228SOL    HW224318   2.400   1.555   6.361  1.3975 -0.6768  0.6362
 4229SOL     OW24319   3.562   2.019  17.168  0.3365 -0.0286  0.1763
 4229SOL    HW124320   3.594   1.951  17.108  1.2732 -0.3724  1.0514
 4229SOL    HW224321   3.518   2.074  17.103  1.4785  3.4806  2.3587
 4230SOL     OW24322   4.369   0.956   7.929 -0.0396 -0.6204 -0.3431
 4230SOL    HW124323   4.385   0.869   7.963  0.7925 -0.5131 -0.4789
 4230SOL    HW224324   4.325   0.941   7.845 -1.6925  0.5304  0.2905
 4231SOL     OW24325   0.494   1.313  16.228 -0.6595 -0.3559 -0.5369
 4231SOL    HW124326   0.459   1.272  16.306 -0.6036  1.2596  0.3413
 4231SOL    HW224327   0.580   1.276  16.207 -0.3980  0.4900 -1.0077
 4232SOL     OW24328   3.030   1.524   3.005 -0.1323  0.1409  0.5297
 4232SOL    HW124329   2.990   1.608   3.024 -0.1047  0.4931 -1.0306
 4232SOL    HW224330   3.090   1.552   2.936  1.3151 -1.0009  1.2977
 4233SOL     OW24331   1.868   0.330  12.520 -0.2610 -0.4681 -0.5428
 4233SOL    HW124332   1.898   0.239  12.522 -0.3218 -0.4243  2.3292
 4233SOL    HW224333   1.932   0.357  12.455 -2.3039  0.8882 -1.9566
 4234SOL     OW24334   4.656   0.949   2.696 -0.1445  0.4089 -0.2614
 4234SOL    HW124335   4.727   0.930   2.634 -1.2148 -1.5810 -0.8736
 4234SOL    HW224336   4.601   0.872   2.681 -0.8499  0.7984  0.3427
 4235SOL     OW24337   4.063   0.720   0.198 -0.1273 -0.2312 -0.2456
 4235SOL    HW124338   4.062   0.799   0.144  0.3522 -0.2215 -0.2408
 4235SOL    HW224339   4.153   0.731   0.229 -0.7473  1.9044  0.7785
 4236SOL     OW24340   4.401   1.457   6.025 -0.0241  0.6353 -0.2369
 4236SOL    HW124341   4.323   1.507   6.046  0.7392  1.2775  1.0246
 4236SOL    HW224342   4.413   1.477   5.932  0.8120  0.7704 -0.0986
 4237SOL     OW24343   2.362   3.737   6.700  0.2024  0.0137 -0.2898
 4237SOL    HW124344   2.386   3.646   6.683  2.4554  0.7157 -0.8272
 4237SOL    HW224345   2.361   3.738   6.796  0.6305 -1.0976 -0.2799
 4238SOL     OW24346   1.972   4.372  15.948  0.1138 -0.1773 -0.2792
 4238SOL    HW124347   1.950   4.338  15.860 -1.2668 -1.5864  0.6011
 4238SOL    HW224348   1.886   4.393  15.985 -0.4989 -0.8553 -1.3073
 4239SOL     OW24349   1.153   1.918   0.661  0.0928  0.2939 -0.1110
 4239SOL    HW124350   1.062   1.938   0.641  0.7003  1.3861 -1.8154
 4239SOL    HW224351   1.200   1.991   0.620  0.3711 -0.0325 -0.3761
 4240SOL     OW24352   3.773   1.986   2.824 -0.0233  0.5789  0.0298
 4240SOL    HW124353   3.814   2.048   2.884 -0.8772 -0.1132  1.3348
 4240SOL    HW224354   3.842   1.927   2.794 -0.5261  1.2432 -2.4638
 4241SOL     OW24355   3.223   2.412  13.748 -0.1617 -0.2124 -0.1524
 4241SOL    HW124356   3.201   2.326  13.711 -2.3556 -0.1916  1.0614
 4241SOL    HW224357   3.173   2.474  13.695 -1.0252  0.3261  1.2839
 4242SOL     OW24358   2.324   0.626   6.185  0.3005 -0.7600 -0.4204
 4242SOL    HW124359   2.254   0.687   6.208 -1.2491 -2.0811 -1.6438
 4242SOL    HW224360   2.392   0.692   6.171 -1.5359  1.2484  0.1693
 4243SOL     OW24361   3.822   4.357   0.312 -0.5396  0.2439 -0.1211
 4243SOL    HW124362   3.793   4.363   0.221  0.1215  0.5335 -0.3120
 4243SOL    HW224363   3.884   4.284   0.311 -0.5091  0.2431  1.3769
 4244SOL     OW24364   3.951   4.097   8.301 -0.1454  0.3122  0.2049
 4244SOL    HW124365   3.866   4.107   8.346 -1.1797  2.3789 -2.1815
 4244SOL    HW224366   4.013   4.071   8.369  1.9290 -0.4185 -1.9671
 4245SOL     OW24367   0.376   2.714   2.877  0.3213  0.0744  0.4822
 4245SOL    HW124368   0.369   2.676   2.965 -0.0420  1.8886  1.2400
 4245SOL    HW224369   0.422   2.645   2.829 -0.5210 -1.5480  1.9921
 4246SOL     OW24370   0.928   3.420   0.494  0.3068 -0.3826 -0.0068
 4246SOL    HW124371   0.932   3.492   0.431 -1.3107  0.0160  0.3396
 4246SOL    HW224372   1.019   3.403   0.518  0.2152 -0.7146  0.1062
 4247SOL     OW24373   4.444   4.237   2.805 -0.3191 -0.2563 -0.2320
 4247SOL    HW124374   4.386   4.253   2.731 -3.4452  0.3480  2.3338
 4247SOL    HW224375   4.524   4.214   2.758 -0.2011  1.1063 -0.6971
 4248SOL     OW24376   1.929   1.349   4.092  0.5662 -0.6579  0.0989
 4248SOL    HW124377   2.000   1.407   4.063  0.1812  0.5544  1.5756
 4248SOL    HW224378   1.950   1.273   4.037  0.2745 -1.5164  1.1852
 4249SOL     OW24379   1.408   1.591   4.559  0.3193  0.3800  0.7379
 4249SOL    HW124380   1.427   1.584   4.465 -0.1541 -0.6685  0.7110
 4249SOL    HW224381   1.464   1.667   4.572  0.0790  0.6236  0.3687
 4250SOL     OW24382   3.468   2.954   2.539  0.8316  0.3514  0.2534
 4250SOL    HW124383   3.553   2.972   2.499  1.9876 -1.5460  1.8393
 4250SOL    HW224384   3.499   2.901   2.613 -2.4807 -3.4859 -1.0300
 4251SOL     OW24385   1.699   4.429   7.853  0.1802 -0.4203 -0.3133
 4251SOL    HW124386   1.614   4.391   7.878  0.3292  0.7205  1.9753
 4251SOL    HW224387   1.659   4.508   7.815 -1.0501 -0.8992 -0.0237
 4252SOL     OW24388   2.973   1.585   9.914 -0.6610  0.1140  0.2533
 4252SOL    HW124389   2.998   1.506   9.963 -1.1966 -0.2104  0.0032
 4252SOL    HW224390   2.878   1.586   9.922 -0.7236 -1.5782 -0.1660
 4253SOL     OW24391   0.957   0.752  17.741 -0.0491  0.0284 -0.0296
 4253SOL    HW124392   0.948   0.782  17.650  1.7185  3.1516  0.8263
 4253SOL    HW224393   1.049   0.728  17.752  0.0118 -0.6946 -2.0765
 4254SOL     OW24394   1.145   2.766   9.164  0.2280 -0.2940  0.4726
 4254SOL    HW124395   1.192   2.730   9.089 -0.3962  1.1487 -0.5984
 4254SOL    HW224396   1.067   2.711   9.174  0.5780 -0.6870  1.0181
 4255SOL     OW24397   0.353   3.227   0.758 -0.6153 -0.4940 -0.3214
 4255SOL    HW124398   0.419   3.267   0.815  0.7424  1.2081 -3.0721
 4255SOL    HW224399   0.323   3.307   0.715 -3.2708 -0.8127  0.9583
 4256SOL     OW24400   2.723   1.887   4.638  0.6058 -0.1447 -0.0100
 4256SOL    HW124401   2.789   1.901   4.706  0.0379  1.4199  0.2137
 4256SOL    HW224402   2.649   1.936   4.674  1.0847  0.4521  0.1627
 4257SOL     OW24403   3.791   1.885   3.489  0.7975  0.0804  0.4928
 4257SOL    HW124404   3.802   1.802   3.442 -0.2103  0.3293 -0.1863
 4257SOL    HW224405   3.722   1.928   3.438  2.7647  0.7480 -1.6193
 4258SOL     OW24406   2.249   0.722   2.667 -0.3204  0.0893 -1.0570
 4258SOL    HW124407   2.248   0.633   2.631 -0.5679 -0.3107 -0.0474
 4258SOL    HW224408   2.191   0.768   2.605 -0.5421  1.8823  0.4787
 4259SOL     OW24409   1.951   4.585  16.471  1.0605  0.2257  0.0747
 4259SOL    HW124410   1.945   4.677  16.499  2.1746 -0.2171  1.7344
 4259SOL    HW224411   1.920   4.536  16.547  0.5401 -0.4679 -0.5894
 4260SOL     OW24412   1.421   1.999   5.409  0.5046 -0.4546  0.4705
 4260SOL    HW124413   1.404   1.915   5.452 -0.8888 -1.7376 -2.5252
 4260SOL    HW224414   1.497   2.027   5.459 -0.1146 -0.1673  1.2451
 4261SOL     OW24415   3.501   4.341   8.899 -0.6001 -0.0161 -0.3155
 4261SOL    HW124416   3.432   4.325   8.964 -0.7467 -0.2090 -0.5190
 4261SOL    HW224417   3.521   4.254   8.863  0.4483  0.6339 -1.2799
 4262SOL     OW24418   4.086   0.670   5.502 -0.1452  1.0530  0.5863
 4262SOL    HW124419   4.181   0.681   5.507 -0.3869  3.2250  0.5311
 4262SOL    HW224420   4.069   0.667   5.408 -0.5791  0.0245  0.7043
 4263SOL     OW24421   3.819   2.740   6.818 -0.2978 -0.4817 -0.1330
 4263SOL    HW124422   3.907   2.717   6.848 -0.1352 -1.2814 -1.2531
 4263SOL    HW224423   3.831   2.782   6.733 -0.6430  0.4811  0.2948
 4264SOL     OW24424   1.703   2.162   4.382  0.2787  0.0923  0.2915
 4264SOL    HW124425   1.715   2.205   4.466  2.6724  0.7806 -0.3911
 4264SOL    HW224426   1.613   2.182   4.359  0.2890 -2.2571 -1.8109
 4265SOL     OW24427   2.372   2.330   6.027 -0.3819  0.1669  0.9965
 4265SOL    HW124428   2.453   2.378   6.041  0.3086 -0.2203 -1.6366
 4265SOL    HW224429   2.365   2.283   6.110  1.5842 -0.7585  0.6289
 4266SOL     OW24430   3.521   1.457   5.731 -0.8637 -0.6289 -0.3295
 4266SOL    HW124431   3.536   1.362   5.725  0.3239 -0.3595 -1.4801
 4266SOL    HW224432   3.493   1.465   5.823 -0.9426 -0.2292 -0.3902
 4267SOL     OW24433   1.002   1.658   6.869  0.1832  0.0445  0.0530
 4267SOL    HW124434   0.925   1.640   6.816 -1.1125 -0.8609  2.2325
 4267SOL    HW224435   0.999   1.753   6.880  0.3745 -0.1918  2.1215
 4268SOL     OW24436   2.324   1.804   8.290  0.0573 -0.1210 -0.5889
 4268SOL    HW124437   2.285   1.759   8.215 -2.3686 -0.1688  0.6834
 4268SOL    HW224438   2.279   1.763   8.365  0.8602  0.7668  0.3751
 4269SOL     OW24439   2.283   4.487   5.465 -0.3009  0.3548 -0.3478
 4269SOL    HW124440   2.278   4.580   5.486 -1.4202  0.1524  0.2362
 4269SOL    HW224441   2.345   4.465   5.535 -0.8963  2.4217  0.8092
 4270SOL     OW24442   1.039   1.102   2.650  0.1246  0.4602  0.1753
 4270SOL    HW124443   1.121   1.062   2.680 -0.4550  1.1689  2.7013
 4270SOL    HW224444   1.082   1.165   2.592 -0.0539  1.1825  0.8200
 4271SOL     OW24445   0.483   4.429   3.821 -0.4778 -0.8284  0.3288
 4271SOL    HW124446   0.459   4.380   3.899  1.2445  1.0495  2.0195
 4271SOL    HW224447   0.462   4.380   3.742  0.8603 -0.9806  0.0633
 4272SOL     OW24448   3.161   1.870   9.090  0.2562  0.1223 -0.0749
 4272SOL    HW124449   3.143   1.964   9.086 -0.6985 -0.0325  0.5218
 4272SOL    HW224450   3.076   1.827   9.085 -0.6946  1.5772  3.1525
 4273SOL     OW24451   0.793   1.270   3.783  0.0862 -0.0845  0.4885
 4273SOL    HW124452   0.806   1.191   3.835  1.8003  0.9260  1.5812
 4273SOL    HW224453   0.844   1.246   3.706  0.1518 -1.6407  1.0254
 4274SOL     OW24454   2.123   0.269   8.741  0.4650  0.3134  0.2528
 4274SOL    HW124455   2.035   0.287   8.707 -0.1805  1.3884  2.4958
 4274SOL    HW224456   2.142   0.355   8.777 -0.0989  0.4054  0.3276
 4275SOL     OW24457   1.333   0.887   7.563 -0.0786 -0.4947 -0.2343
 4275SOL    HW124458   1.371   0.817   7.509 -0.7761 -0.2916 -1.0007
 4275SOL    HW224459   1.337   0.846   7.649 -0.9444  0.7146  0.3679
 4276SOL     OW24460   2.379   1.115   8.896  0.5651  0.1875  0.1737
 4276SOL    HW124461   2.404   1.043   8.954  2.1640  0.9381  0.4137
 4276SOL    HW224462   2.355   1.186   8.957  1.8725 -0.1470  1.0789
 4277SOL     OW24463   4.036   0.032   8.400 -0.4103  0.5466  0.2674
 4277SOL    HW124464   4.066   4.717   8.327  0.2421 -0.6258  1.4288
 4277SOL    HW224465   4.114   0.028   8.454  0.9179  0.3317 -1.6666
 4278SOL     OW24466   0.393   1.995   4.774  0.2734 -0.2671  0.7073
 4278SOL    HW124467   0.317   2.050   4.795 -0.8264 -1.4327 -0.1908
 4278SOL    HW224468   0.428   1.964   4.857 -1.0835 -2.7321  0.3554
 4279SOL     OW24469   3.135   0.674   4.101 -0.6026  0.8149 -0.4785
 4279SOL    HW124470   3.175   0.656   4.016 -2.4437 -0.2575 -1.1110
 4279SOL    HW224471   3.050   0.632   4.091 -0.9556  1.2594  0.5827
 4280SOL     OW24472   3.514   0.307   2.237 -0.7058 -0.1412  0.3051
 4280SOL    HW124473   3.506   0.300   2.142  0.5325  2.7934 -0.0226
 4280SOL    HW224474   3.604   0.275   2.243 -0.7388 -0.6482 -1.9465
 4281SOL     OW24475   3.866   1.377  14.090  0.3312  0.2274  0.1416
 4281SOL    HW124476   3.885   1.362  14.183  0.0452  0.8035  0.2962
 4281SOL    HW224477   3.936   1.325  14.051 -2.9447 -3.8281 -0.2200
 4282SOL     OW24478   1.604   2.613  11.317  0.6698  0.3168  0.1289
 4282SOL    HW124479   1.515   2.600  11.285  0.6709 -1.5868  0.9177
 4282SOL    HW224480   1.631   2.683  11.258  0.8628 -0.3248 -0.5507
 4283SOL     OW24481   0.608   1.875   4.373 -0.5687 -0.4050  0.1028
 4283SOL    HW124482   0.637   1.908   4.458  0.1607 -2.6413  0.7425
 4283SOL    HW224483   0.589   1.955   4.324  1.2145 -1.4184 -2.2287
 4284SOL     OW24484   1.405   0.354  12.418 -0.1346 -0.5891 -0.1407
 4284SOL    HW124485   1.343   0.300  12.370 -3.0447  1.0652  1.7221
 4284SOL    HW224486   1.460   0.298  12.472 -0.0398  0.3791  0.7865
 4285SOL     OW24487   1.701   2.768   0.257  0.5314 -0.4396  0.2440
 4285SOL    HW124488   1.784   2.750   0.212  0.1489 -0.0598 -0.6070
 4285SOL    HW224489   1.684   2.856   0.225 -1.6702 -1.0890 -0.3612
 4286SOL     OW24490   3.580   2.378   2.913 -0.4042 -0.1489  0.3511
 4286SOL    HW124491   3.672   2.353   2.903 -1.0817 -2.4934 -0.0627
 4286SOL    HW224492   3.547   2.333   2.836  0.7376 -0.2870 -0.0644
 4287SOL     OW24493   3.319   0.525   4.412  0.8788 -0.3518  0.2996
 4287SOL    HW124494   3.368   0.604   4.387 -0.8173  0.6925  0.2659
 4287SOL    HW224495   3.319   0.529   4.508 -0.5281 -1.9118  0.3687
 4288SOL     OW24496   3.598   4.087  13.226  0.3154 -0.0319  0.3882
 4288SOL    HW124497   3.586   4.035  13.147  1.1081 -1.3253  1.1302
 4288SOL    HW224498   3.585   4.179  13.203 -0.7962 -0.3362 -0.2121
 4289SOL     OW24499   0.533   1.882   4.976 -0.1498  0.3451  0.3389
 4289SOL    HW124500   0.622   1.853   4.953 -0.4909  0.1506 -0.7419
 4289SOL    HW224501   0.476   1.806   4.984  1.1226 -0.5108  1.3514
 4290SOL     OW24502   3.956   4.615  13.555  0.1497  0.1830 -0.3410
 4290SOL    HW124503   3.886   4.551  13.544 -0.7968  1.0207  0.8764
 4290SOL    HW224504   4.003   4.593  13.636 -0.1999 -0.4033 -0.3038
 4291SOL     OW24505   1.177   0.587   3.407 -0.1262 -0.2997  0.3431
 4291SOL    HW124506   1.204   0.668   3.450  1.0793 -0.6372  0.2211
 4291SOL    HW224507   1.254   0.532   3.422 -0.7409 -0.1172  4.0569
 4292SOL     OW24508   0.996   3.301  11.560 -0.8158  0.1997 -0.2279
 4292SOL    HW124509   1.007   3.370  11.494  1.4147 -0.2100 -0.2718
 4292SOL    HW224510   1.045   3.344  11.630 -0.2505 -1.4689  0.3846
 4293SOL     OW24511   2.667   4.125  14.832  0.4755  0.3538 -0.3377
 4293SOL    HW124512   2.670   4.215  14.865  0.8850  0.5650 -0.9579
 4293SOL    HW224513   2.730   4.126  14.760  0.2362  2.1450 -0.5176
 4294SOL     OW24514   4.070   4.641   1.754 -0.1118 -0.1600 -0.1220
 4294SOL    HW124515   4.118   4.583   1.695  1.3121  2.0536 -1.1366
 4294SOL    HW224516   4.088   4.725   1.712 -0.0348 -1.4488 -2.6736
 4295SOL     OW24517   1.556   3.182  17.326 -0.0338  0.9964  0.2288
 4295SOL    HW124518   1.545   3.162  17.419  0.5991  1.4975  0.4114
 4295SOL    HW224519   1.647   3.157  17.313 -0.1583  0.1060  1.0392
 4296SOL     OW24520   3.043   1.553  10.792  0.2560  0.1684  0.0658
 4296SOL    HW124521   2.982   1.618  10.826  0.7942  0.5770  0.2468
 4296SOL    HW224522   2.979   1.493  10.753 -0.8017  0.9218  0.6750
 4297SOL     OW24523   4.340   0.686   6.922 -0.4344  0.3150 -0.7694
 4297SOL    HW124524   4.387   0.656   6.844 -0.3711 -0.4764 -0.4299
 4297SOL    HW224525   4.351   0.613   6.984 -0.8986  0.5821 -0.3760
 4298SOL     OW24526   2.627   0.501   3.610  0.2507  0.4202 -0.2446
 4298SOL    HW124527   2.696   0.444   3.646 -0.8434 -1.1338 -0.5923
 4298SOL    HW224528   2.569   0.506   3.686  1.5045 -0.5590  0.7945
 4299SOL     OW24529   4.400   4.046   4.265 -0.4694 -0.2243  0.1101
 4299SOL    HW124530   4.435   3.995   4.192 -1.4331 -1.1738  0.3129
 4299SOL    HW224531   4.360   3.973   4.313 -0.7136  0.8705  1.5791
 4300SOL     OW24532   4.304   2.062   7.448  0.8640 -0.4900  0.2190
 4300SOL    HW124533   4.342   2.053   7.535  0.1054 -1.5805  0.4349
 4300SOL    HW224534   4.290   2.157   7.446  0.6301 -0.4722  2.3338
 4301SOL     OW24535   3.402   0.244   9.194 -0.2340 -0.5107  0.6985
 4301SOL    HW124536   3.354   0.169   9.230 -2.0309 -0.0086 -0.6141
 4301SOL    HW224537   3.489   0.205   9.189 -0.4196 -0.6552 -1.5830
 4302SOL     OW24538   0.669   0.561   4.729 -0.2289  0.4094 -0.6936
 4302SOL    HW124539   0.657   0.474   4.768 -1.2060  0.8157 -0.0678
 4302SOL    HW224540   0.672   0.540   4.636 -0.0572  1.7484 -0.9991
 4303SOL     OW24541   3.746   0.639  15.316 -0.5220  0.5078 -0.5771
 4303SOL    HW124542   3.719   0.555  15.355  0.1932 -0.0944 -1.3853
 4303SOL    HW224543   3.686   0.701  15.357 -0.8105  0.9870 -1.7183
 4304SOL     OW24544   1.148   3.468   3.112  0.4515  0.0669 -0.1814
 4304SOL    HW124545   1.104   3.500   3.034 -1.1155 -0.6756  0.3843
 4304SOL    HW224546   1.161   3.547   3.165  0.7319  0.7219 -1.2267
 4305SOL     OW24547   3.271   1.044  13.176 -0.0074  0.0472 -0.3091
 4305SOL    HW124548   3.328   1.015  13.106  0.2064 -0.8575  0.2329
 4305SOL    HW224549   3.194   0.987  13.168  0.8456 -1.3973  1.7586
 4306SOL     OW24550   0.186   4.448  12.940 -0.8217 -0.6086 -0.1203
 4306SOL    HW124551   0.169   4.462  12.847  2.7138  0.3910 -0.6084
 4306SOL    HW224552   0.243   4.524  12.951 -2.2280  0.0760  2.4687
 4307SOL     OW24553   2.731   2.046   5.291 -0.0862  0.3860  0.1453
 4307SOL    HW124554   2.677   2.070   5.366 -0.4328 -2.0518  0.6849
 4307SOL    HW224555   2.766   1.959   5.312 -1.5140 -0.2554 -0.1071
 4308SOL     OW24556   1.645   2.234   7.295  0.0186 -0.1324 -0.3179
 4308SOL    HW124557   1.664   2.326   7.314 -2.4567 -0.1813  2.3926
 4308SOL    HW224558   1.728   2.189   7.310 -0.2508 -0.7266 -0.6033
 4309SOL     OW24559   2.263   0.962   8.647 -0.2915 -0.0664  0.1497
 4309SOL    HW124560   2.244   0.877   8.687 -2.4001  0.2468 -0.1840
 4309SOL    HW224561   2.271   1.017   8.725  0.7483  1.6524 -1.1787
 4310SOL     OW24562   0.300   4.139  13.303 -0.0504 -0.3720 -0.4346
 4310SOL    HW124563   0.278   4.222  13.261 -0.3101  0.1679  0.7567
 4310SOL    HW224564   0.377   4.173  13.348 -0.2919  0.5526 -0.7253
 4311SOL     OW24565   4.263   3.731   8.316 -0.3230 -0.0362  0.3355
 4311SOL    HW124566   4.245   3.683   8.235 -2.5451  0.8875  0.2892
 4311SOL    HW224567   4.316   3.802   8.279  2.6707 -1.8763  1.1017
 4312SOL     OW24568   3.969   0.023   4.347  0.0920 -0.0423 -0.1293
 4312SOL    HW124569   3.948   0.071   4.427 -0.9782  0.4234 -0.6863
 4312SOL    HW224570   4.056   0.061   4.339  1.0002 -2.1834 -0.5718
 4313SOL     OW24571   0.720   1.756  17.300 -0.5757  0.3467  0.0280
 4313SOL    HW124572   0.756   1.826  17.355  0.0322 -0.1318  0.2306
 4313SOL    HW224573   0.791   1.739  17.239 -0.9955 -1.0234 -0.0737
 4314SOL     OW24574   4.368   3.032  13.622 -0.1812  0.3149  0.1568
 4314SOL    HW124575   4.336   3.050  13.711  4.3563  1.7202  1.4847
 4314SOL    HW224576   4.454   3.074  13.619  0.9299 -2.1268 -1.6278
 4315SOL     OW24577   3.264   4.214   5.968  0.0682  0.1219  0.7503
 4315SOL    HW124578   3.302   4.239   5.883  0.2605 -0.4469  0.6689
 4315SOL    HW224579   3.274   4.296   6.017 -1.0861  0.5964  0.1951
 4316SOL     OW24580   4.507   3.169   8.074 -0.7428  0.2238 -0.2274
 4316SOL    HW124581   4.507   3.257   8.037  1.7622  0.6961  0.8838
 4316SOL    HW224582   4.414   3.146   8.069 -1.2526  1.9669  1.1621
 4317SOL     OW24583   0.233   3.401   3.884  0.2411  0.1445  0.4365
 4317SOL    HW124584   0.154   3.445   3.854  0.6172  0.1805 -0.5363
 4317SOL    HW224585   0.300   3.446   3.832 -1.0839  1.2452 -0.2927
 4318SOL     OW24586   0.271   1.715  12.677  0.7040  0.0726 -0.2749
 4318SOL    HW124587   0.207   1.721  12.748  2.6062  0.0328  1.4475
 4318SOL    HW224588   0.296   1.807  12.670  0.4858  0.1961  0.6741
 4319SOL     OW24589   0.785   4.380   2.088 -0.5116 -0.2570  0.3756
 4319SOL    HW124590   0.857   4.436   2.059  1.1624 -3.1846 -1.1246
 4319SOL    HW224591   0.835   4.310   2.131 -0.8550  0.2059  1.5446
 4320SOL     OW24592   3.290   1.735   4.376  0.0393  0.3919  0.2995
 4320SOL    HW124593   3.365   1.795   4.375  1.5245 -1.4627  0.5548
 4320SOL    HW224594   3.311   1.690   4.458 -1.4125 -2.5392 -0.9316
 4321SOL     OW24595   0.884   2.538  11.075 -0.3457  0.0685  0.1940
 4321SOL    HW124596   0.952   2.496  11.127 -1.3846 -0.0416  1.4782
 4321SOL    HW224597   0.843   2.591  11.143  0.7619  0.3134  0.6676
 4322SOL     OW24598   0.046   4.026  11.076 -0.3535 -0.3176  0.3825
 4322SOL    HW124599   0.011   3.999  11.161 -0.2532 -0.3136  0.4242
 4322SOL    HW224600   0.063   4.119  11.084 -1.1075 -0.3605  2.4961
 4323SOL     OW24601   2.234   3.376  10.019 -0.3522 -0.7942  0.0259
 4323SOL    HW124602   2.222   3.282  10.038  1.8160 -1.0766  0.0289
 4323SOL    HW224603   2.269   3.404  10.103 -3.0704  0.6831  0.6552
 4324SOL     OW24604   1.392   4.362   2.800  0.2181 -0.3889  0.6589
 4324SOL    HW124605   1.371   4.455   2.809  0.6613  0.0675 -2.8453
 4324SOL    HW224606   1.400   4.349   2.705 -0.0839 -1.2995  0.7647
 4325SOL     OW24607   4.230   1.774   8.735  0.2080  0.0442  0.4662
 4325SOL    HW124608   4.210   1.689   8.694 -2.6140  1.4135 -0.9950
 4325SOL    HW224609   4.248   1.744   8.824  1.0596 -1.0557 -0.0753
 4326SOL     OW24610   1.584   4.122  11.823 -0.3681  0.5700  0.2366
 4326SOL    HW124611   1.552   4.212  11.833 -1.4760  0.0135  1.6117
 4326SOL    HW224612   1.678   4.138  11.827  0.1865 -3.3277  2.1376
 4327SOL     OW24613   2.901   4.073   7.590 -0.0442 -0.3327  0.6144
 4327SOL    HW124614   2.994   4.057   7.576  0.1691  0.4457  1.1368
 4327SOL    HW224615   2.859   4.078   7.504  1.2492  0.3041  0.0079
 4328SOL     OW24616   1.988   1.421   2.481 -0.1179 -0.2378  0.4557
 4328SOL    HW124617   2.057   1.375   2.529  0.4635 -0.3300 -0.4842
 4328SOL    HW224618   2.042   1.469   2.417 -1.6806  0.6093 -0.2217
 4329SOL     OW24619   1.943   1.839  17.185  0.3213  0.5966  0.5635
 4329SOL    HW124620   1.868   1.782  17.167 -0.3858  0.9670  2.3270
 4329SOL    HW224621   1.910   1.921  17.150  1.5604  0.6333 -0.4981
 4330SOL     OW24622   3.211   4.072   7.200 -0.0680 -0.9928 -0.2193
 4330SOL    HW124623   3.186   4.010   7.132 -1.6741  0.6830 -1.1190
 4330SOL    HW224624   3.254   4.146   7.158 -0.7646  0.0982  0.9878
 4331SOL     OW24625   2.181   1.680   6.227 -0.2032  0.0537  0.5875
 4331SOL    HW124626   2.097   1.634   6.231  0.3184 -1.0235 -0.7123
 4331SOL    HW224627   2.157   1.754   6.171  0.8319 -1.3880 -1.7813
 4332SOL     OW24628   2.667   0.077   7.214 -0.0227 -0.1655  0.1652
 4332SOL    HW124629   2.734   0.065   7.147 -0.1641 -0.3957  0.0636
 4332SOL    HW224630   2.629   4.730   7.204  1.7037 -1.0015  0.8702
 4333SOL     OW24631   0.438   3.218   3.498  0.1462  0.1055  0.2894
 4333SOL    HW124632   0.434   3.132   3.541  1.6664  0.3979  1.0194
 4333SOL    HW224633   0.498   3.268   3.553  0.0507  1.9928 -1.3222
 4334SOL     OW24634   2.079   3.349  17.492 -0.1008  0.1812  0.3626
 4334SOL    HW124635   2.158   3.381  17.448 -0.5825 -1.1128 -1.4458
 4334SOL    HW224636   2.076   3.389  17.579 -1.5676 -0.4178  0.5880
 4335SOL     OW24637   1.343   2.941  14.872  0.0345  0.1113  0.3989
 4335SOL    HW124638   1.343   3.011  14.807 -1.5523 -1.5114 -1.3478
 4335SOL    HW224639   1.256   2.902  14.863 -0.9184  1.9125  1.8179
 4336SOL     OW24640   1.750   2.794   4.682 -0.2320  0.7459  0.2220
 4336SOL    HW124641   1.686   2.725   4.699 -1.0491  1.6352  0.7347
 4336SOL    HW224642   1.832   2.745   4.691  0.1197  1.1219 -0.8442
 4337SOL     OW24643   2.031   0.715  16.458 -0.6203  0.1714  0.0095
 4337SOL    HW124644   1.982   0.647  16.410 -0.9698  0.7077 -0.3922
 4337SOL    HW224645   1.961   0.780  16.472  0.8604  2.2290 -2.2635
 4338SOL     OW24646   3.589   0.751   8.768 -0.1995  0.1119  0.1390
 4338SOL    HW124647   3.514   0.726   8.715 -0.0479  1.3172 -0.6344
 4338SOL    HW224648   3.618   0.665   8.799  1.5024  0.5887 -0.0939
 4339SOL     OW24649   3.303   2.935  14.799 -0.0604 -0.4828  0.3093
 4339SOL    HW124650   3.303   2.861  14.738  2.7188 -0.3953  0.2012
 4339SOL    HW224651   3.280   2.896  14.884  1.0189 -1.0115  0.3600
 4340SOL     OW24652   0.298   3.472   2.932  0.2398  0.1081  0.2800
 4340SOL    HW124653   0.285   3.399   2.992 -3.9004  1.6469  1.2317
 4340SOL    HW224654   0.354   3.426   2.869  0.9915 -0.9453  1.7250
 4341SOL     OW24655   4.580   3.611   5.923 -0.0277 -0.1092 -0.2234
 4341SOL    HW124656   4.502   3.666   5.911  1.3328  1.8350 -0.2646
 4341SOL    HW224657   4.542   3.527   5.899 -0.0174  0.3914 -1.9913
 4342SOL     OW24658   3.079   2.427   7.731 -0.1328 -0.7383 -0.0532
 4342SOL    HW124659   3.012   2.487   7.698 -2.0926 -2.6322  0.4462
 4342SOL    HW224660   3.061   2.425   7.825  0.7987  0.6331  0.1505
 4343SOL     OW24661   3.397   2.242  14.847  0.4463 -0.3797  0.1201
 4343SOL    HW124662   3.306   2.272  14.843  0.4670 -0.4982 -1.5607
 4343SOL    HW224663   3.394   2.174  14.779 -1.6525  1.6200 -1.7821
 4344SOL     OW24664   1.275   2.812  12.387 -0.0840 -0.0265 -0.0531
 4344SOL    HW124665   1.349   2.752  12.385 -0.5037 -0.4992 -2.2375
 4344SOL    HW224666   1.317   2.880  12.440 -0.3629  0.3441 -0.3017
 4345SOL     OW24667   3.952   4.396   5.403 -0.2248  0.3881  0.1437
 4345SOL    HW124668   3.976   4.353   5.321 -2.9886 -0.9527  0.0384
 4345SOL    HW224669   4.041   4.419   5.429 -0.2134  0.3741  0.1168
 4346SOL     OW24670   1.121   1.586   7.092  0.7421 -0.2657  0.1753
 4346SOL    HW124671   1.083   1.615   7.009 -0.5171 -0.6766  0.6093
 4346SOL    HW224672   1.199   1.641   7.095  0.8480 -0.4760  1.0589
 4347SOL     OW24673   4.328   3.379   7.426  0.3143  0.0862  0.1357
 4347SOL    HW124674   4.389   3.348   7.493  1.4139  1.5965 -0.1695
 4347SOL    HW224675   4.254   3.400   7.482 -0.4903 -0.0325 -0.8931
 4348SOL     OW24676   1.273   4.495  10.335 -0.2254 -0.3689 -0.0901
 4348SOL    HW124677   1.179   4.505  10.345  0.0366 -1.2454  2.9940
 4348SOL    HW224678   1.295   4.404  10.318 -0.0084 -0.1267 -1.1394
 4349SOL     OW24679   2.069   3.490   6.690  0.0295 -0.8780 -0.3127
 4349SOL    HW124680   2.149   3.467   6.737  0.2725  1.3075  0.3189
 4349SOL    HW224681   2.095   3.500   6.598  2.9051  0.9235  0.7062
 4350SOL     OW24682   4.302   0.427  12.550  0.0111  0.0583 -0.2018
 4350SOL    HW124683   4.323   0.335  12.564 -0.3010  0.0009 -0.1113
 4350SOL    HW224684   4.358   0.459  12.479  1.8025 -0.8022  0.8130
 4351SOL     OW24685   3.933   2.554  15.869  0.1874  0.6518 -0.5887
 4351SOL    HW124686   3.876   2.573  15.943  1.9458 -1.2288  1.2186
 4351SOL    HW224687   4.012   2.594  15.905  0.0905  0.1179  0.2176
 4352SOL     OW24688   2.525   3.765  17.617  0.4036 -0.3679 -0.0348
 4352SOL    HW124689   2.545   3.836  17.556  0.8161 -0.4511 -0.0005
 4352SOL    HW224690   2.592   3.699  17.598  1.0925  0.4771 -0.5599
 4353SOL     OW24691   4.711   2.672   2.365 -0.1439  0.4201  0.2216
 4353SOL    HW124692   0.044   2.730   2.386  0.7794 -0.2015 -1.2715
 4353SOL    HW224693   0.010   2.632   2.287 -0.3514 -2.6091  1.6512
 4354SOL     OW24694   3.058   4.174  16.395  0.3424 -0.6096 -0.0042
 4354SOL    HW124695   3.050   4.191  16.488 -2.8478 -2.2840  0.0271
 4354SOL    HW224696   3.018   4.251  16.353  0.3946 -0.4836  0.1785
 4355SOL     OW24697   1.898   2.312   3.567  0.7735  0.1846  0.2612
 4355SOL    HW124698   1.905   2.250   3.640  1.3161 -0.4086 -0.2926
 4355SOL    HW224699   1.827   2.370   3.593  0.2781  0.2792 -1.3105
 4356SOL     OW24700   2.348   0.995   7.333 -0.3610 -0.3175  0.4762
 4356SOL    HW124701   2.418   0.978   7.270 -0.6202 -0.0589  0.1234
 4356SOL    HW224702   2.351   0.913   7.383 -1.7623 -0.5308  0.2093
 4357SOL     OW24703   4.711   1.463   4.758  0.0487  0.1716  0.3391
 4357SOL    HW124704   0.020   1.394   4.715 -0.4727  0.6495 -1.0224
 4357SOL    HW224705   0.007   1.449   4.846  3.8178  2.3245 -0.8824
 4358SOL     OW24706   4.328   3.537  11.096 -0.1748 -0.0646 -0.0857
 4358SOL    HW124707   4.415   3.552  11.060  0.4668 -0.1246  1.4728
 4358SOL    HW224708   4.345   3.457  11.144 -0.8143  0.1030  0.4291
 4359SOL     OW24709   1.336   4.444  13.883 -0.2551 -0.0329 -0.3657
 4359SOL    HW124710   1.364   4.355  13.905 -0.2141 -0.0222 -0.3761
 4359SOL    HW224711   1.240   4.441  13.888 -0.1445 -1.6574  0.7063
 4360SOL     OW24712   0.694   0.777   3.246  0.1588  0.2717  0.4648
 4360SOL    HW124713   0.615   0.742   3.288 -0.1174  1.4671  0.9705
 4360SOL    HW224714   0.764   0.729   3.289  0.9020  0.4995 -0.5007
 4361SOL     OW24715   2.594   3.856  11.346  0.6853 -0.1071 -0.5839
 4361SOL    HW124716   2.687   3.843  11.364  0.3212  0.2784  1.6364
 4361SOL    HW224717   2.599   3.940  11.301 -0.6675 -0.7196 -1.8936
 4362SOL     OW24718   3.869   2.082   4.152  0.3659  0.2068 -0.0084
 4362SOL    HW124719   3.863   2.091   4.057 -1.6013  0.7869  0.1744
 4362SOL    HW224720   3.789   2.130   4.174 -0.5661 -0.9205 -0.9221
 4363SOL     OW24721   1.920   0.120   4.727 -0.6543 -0.2919  0.1989
 4363SOL    HW124722   1.957   0.122   4.815 -1.4750 -1.4951  0.5692
 4363SOL    HW224723   1.829   0.147   4.741 -0.7071 -0.7814  0.8001
 4364SOL     OW24724   0.759   3.972   4.460 -0.2270  0.0479 -0.3025
 4364SOL    HW124725   0.771   3.880   4.437 -0.4680  0.3045 -1.4512
 4364SOL    HW224726   0.825   4.000   4.397 -0.3929 -0.9706 -0.9314
 4365SOL     OW24727   3.800   2.369  12.686  0.3232  0.1162 -0.4288
 4365SOL    HW124728   3.859   2.429  12.732  3.1841 -1.4532 -2.1127
 4365SOL    HW224729   3.855   2.341  12.613 -0.8974 -2.0809 -0.5217
 4366SOL     OW24730   4.619   0.415   0.224  0.1084 -0.0047 -0.2922
 4366SOL    HW124731   4.668   0.379   0.298 -0.3603  0.2133  0.1233
 4366SOL    HW224732   4.571   0.335   0.206 -0.0834 -0.8371  3.7736
 4367SOL     OW24733   0.803   1.017   3.956 -0.1698 -0.3526 -0.0044
 4367SOL    HW124734   0.711   1.020   3.982  0.3216 -0.2321  1.6679
 4367SOL    HW224735   0.779   0.975   3.873 -0.6817 -1.3243  0.6374
 4368SOL     OW24736   0.801   0.907   1.564  0.2550  0.1033  0.0710
 4368SOL    HW124737   0.708   0.907   1.541  0.1740  3.3266  0.4174
 4368SOL    HW224738   0.802   0.870   1.652 -4.0306 -1.3200 -0.4835
 4369SOL     OW24739   2.190   1.530   9.440 -0.6016  0.2554 -0.1811
 4369SOL    HW124740   2.280   1.565   9.440 -0.1572 -0.9020  1.4036
 4369SOL    HW224741   2.190   1.482   9.522  2.6573 -0.1270 -0.4115
 4370SOL     OW24742   0.472   2.460   8.260  0.0779  0.6446  0.4042
 4370SOL    HW124743   0.429   2.542   8.283 -1.8870  0.1475 -1.4728
 4370SOL    HW224744   0.463   2.467   8.165  1.2662 -1.3637  0.1566
 4371SOL     OW24745   0.394   2.787   5.626  0.2925 -0.1621 -0.2987
 4371SOL    HW124746   0.383   2.835   5.544 -0.1835  0.0319 -0.1197
 4371SOL    HW224747   0.364   2.700   5.601  0.7655 -0.1052 -1.0685
 4372SOL     OW24748   1.190   3.026   2.684  0.3004 -0.0953  0.1172
 4372SOL    HW124749   1.273   3.073   2.689  0.8259 -1.0057 -0.0335
 4372SOL    HW224750   1.216   2.936   2.667 -1.2658  0.0057 -2.7272
 4373SOL     OW24751   2.102   4.463   4.314 -0.0267  0.0816 -0.6500
 4373SOL    HW124752   2.174   4.524   4.329 -0.7529  0.9132 -0.5577
 4373SOL    HW224753   2.098   4.421   4.400  0.0516 -2.3277 -1.8341
 4374SOL     OW24754   2.557   2.595   4.847  0.5541  0.3600 -0.4860
 4374SOL    HW124755   2.588   2.626   4.762 -2.4390 -1.2193 -2.1651
 4374SOL    HW224756   2.638   2.605   4.897 -0.3089  1.8790  0.6199
 4375SOL     OW24757   4.657   2.725  16.183 -0.0272 -0.0295  0.4636
 4375SOL    HW124758   4.642   2.797  16.121  0.1244 -0.6357 -0.2685
 4375SOL    HW224759   4.571   2.715  16.223  0.0385 -1.1259  0.3171
 4376SOL     OW24760   2.520   0.366  16.135  0.3113 -0.3404  0.3052
 4376SOL    HW124761   2.552   0.348  16.224 -1.9372 -0.0808  1.1608
 4376SOL    HW224762   2.494   0.458  16.146 -2.2522 -0.9279 -0.9094
 4377SOL     OW24763   1.278   0.864   1.648  0.5887 -0.1384 -0.1611
 4377SOL    HW124764   1.276   0.931   1.580  0.3439 -0.1316 -0.1479
 4377SOL    HW224765   1.361   0.882   1.692 -0.1895 -0.6406  1.5559
 4378SOL     OW24766   1.141   0.146   4.616  0.1491  0.4139 -0.3321
 4378SOL    HW124767   1.055   0.174   4.584  0.1499 -0.9867 -1.5331
 4378SOL    HW224768   1.183   0.232   4.620  2.0398 -0.5491  0.3415
 4379SOL     OW24769   0.237   0.861   2.778 -0.1967 -0.0254  0.2909
 4379SOL    HW124770   0.207   0.947   2.748 -0.2177 -0.4185 -0.8057
 4379SOL    HW224771   0.324   0.886   2.810  0.1375 -0.4987 -0.2765
 4380SOL     OW24772   4.184   2.838  15.569  0.0940 -0.5052 -0.1526
 4380SOL    HW124773   4.140   2.889  15.637  1.7169  1.7251 -0.7469
 4380SOL    HW224774   4.166   2.891  15.492 -0.6533  2.0534  1.7937
 4381SOL     OW24775   3.088   1.063   3.511  0.4145 -0.0711 -0.3738
 4381SOL    HW124776   3.130   1.134   3.559 -0.9524  1.1803 -1.0387
 4381SOL    HW224777   3.145   1.067   3.434  1.2904 -0.3138  0.2628
 4382SOL     OW24778   1.385   0.456   8.706  0.5227  0.2394 -0.5123
 4382SOL    HW124779   1.416   0.523   8.644 -0.1687 -1.6198 -2.8720
 4382SOL    HW224780   1.459   0.455   8.766 -0.7048  0.4128  1.0038
 4383SOL     OW24781   4.704   3.449  10.763 -0.0079 -0.4915 -0.4198
 4383SOL    HW124782   4.695   3.486  10.676 -0.0051 -1.8468 -1.0000
 4383SOL    HW224783   0.031   3.380  10.760 -0.6111 -1.0033 -2.1428
 4384SOL     OW24784   3.006   2.071  15.064  0.1978 -0.8879  0.0277
 4384SOL    HW124785   2.963   1.987  15.046  0.0607 -0.6868 -0.5833
 4384SOL    HW224786   3.082   2.056  15.009  1.1827  1.4230  0.7915
 4385SOL     OW24787   0.822   0.038   4.506 -0.5843  0.6057  0.2260
 4385SOL    HW124788   0.769   0.047   4.427 -1.4055 -0.6179  0.6329
 4385SOL    HW224789   0.844   0.128   4.529 -1.5344  0.9459 -0.2060
 4386SOL     OW24790   1.289   2.145  10.994 -0.2295  0.1765  0.6830
 4386SOL    HW124791   1.248   2.157  10.908  1.0276  1.2885  0.2304
 4386SOL    HW224792   1.320   2.234  11.014 -0.8688  0.1143  1.9350
 4387SOL     OW24793   3.866   3.458  17.225  0.0477  0.5124  0.2052
 4387SOL    HW124794   3.900   3.509  17.152 -1.1294  1.2173  0.1546
 4387SOL    HW224795   3.826   3.523  17.282 -0.9039  1.5274 -1.6211
 4388SOL     OW24796   0.738   0.245   4.303 -0.1689  0.3509 -0.3070
 4388SOL    HW124797   0.644   0.261   4.309 -0.3622 -0.5238 -0.9279
 4388SOL    HW224798   0.752   0.304   4.229 -2.5198  1.8776  0.4666
 4389SOL     OW24799   3.689   1.769   6.456  0.0245 -0.0749  0.9862
 4389SOL    HW124800   3.596   1.780   6.437 -0.2649 -2.1198  1.2307
 4389SOL    HW224801   3.706   1.686   6.411  0.7267  0.2661  0.6243
 4390SOL     OW24802   2.275   4.169  11.893  0.3280  0.4533  0.4667
 4390SOL    HW124803   2.306   4.259  11.900 -2.3481  1.5479 -1.4401
 4390SOL    HW224804   2.356   4.120  11.881  1.1795  1.7012  1.1375
 4391SOL     OW24805   1.879   3.082  17.610  0.3804 -0.3560  0.5881
 4391SOL    HW124806   1.933   3.159  17.594 -0.4095  0.2106  0.7126
 4391SOL    HW224807   1.845   3.094  17.698  0.0692 -2.8365  0.8005
 4392SOL     OW24808   2.809   1.101   1.471 -0.0199 -0.0534  0.4935
 4392SOL    HW124809   2.857   1.137   1.545  0.5234 -1.0048  0.5969
 4392SOL    HW224810   2.721   1.136   1.484  0.5509  0.6537  2.4341
 4393SOL     OW24811   0.514   4.278  17.207 -0.4359  0.3212 -0.7965
 4393SOL    HW124812   0.462   4.319  17.276 -0.1126  0.0480 -0.3869
 4393SOL    HW224813   0.471   4.194  17.196 -0.3828  0.6540 -3.6076
 4394SOL     OW24814   1.932   1.333   1.670 -0.2600  0.3647 -0.1116
 4394SOL    HW124815   1.970   1.410   1.627  1.9069 -1.4651 -1.4761
 4394SOL    HW224816   1.871   1.369   1.734  0.2403 -1.2036  1.2430
 4395SOL     OW24817   3.407   2.429  17.125 -0.0284 -0.1690  0.8005
 4395SOL    HW124818   3.435   2.520  17.121 -2.0896  0.4096 -0.4025
 4395SOL    HW224819   3.443   2.399  17.208  0.6644  0.8123  0.8423
 4396SOL     OW24820   0.788   4.320   5.552  0.1779 -0.6782 -0.1628
 4396SOL    HW124821   0.841   4.313   5.472  0.7971  1.3950  0.0809
 4396SOL    HW224822   0.777   4.225   5.560  1.8867 -0.9512 -0.8852
 4397SOL     OW24823   2.472   0.871   6.199 -0.3265  0.3195  0.7729
 4397SOL    HW124824   2.402   0.924   6.238  0.1312  1.4920  0.0168
 4397SOL    HW224825   2.532   0.936   6.163 -0.1037 -0.0208  0.5294
 4398SOL     OW24826   3.089   1.818   3.148  0.0465 -0.1120 -0.5011
 4398SOL    HW124827   3.122   1.908   3.159  0.0029 -0.3116  1.2822
 4398SOL    HW224828   3.161   1.778   3.100  0.6494  0.5772 -0.1840
 4399SOL     OW24829   3.731   4.413   2.414  0.3965 -0.4232  0.4421
 4399SOL    HW124830   3.646   4.372   2.402  0.9636 -1.6716  0.7522
 4399SOL    HW224831   3.788   4.385   2.342  0.5387  0.0942  0.3502
 4400SOL     OW24832   0.992   2.490   5.731 -0.3856  0.6344 -0.3455
 4400SOL    HW124833   1.027   2.542   5.803  2.2642 -0.6786 -0.6674
 4400SOL    HW224834   0.904   2.521   5.711 -0.1265  1.3712 -0.3148
 4401SOL     OW24835   3.032   1.614   1.961 -0.6150  0.3235 -0.3254
 4401SOL    HW124836   3.072   1.527   1.959  0.3712  0.7861 -0.7326
 4401SOL    HW224837   2.944   1.581   1.943 -1.0442  1.3115 -0.0514
 4402SOL     OW24838   4.021   0.759   1.334 -0.3778  0.1787  0.6242
 4402SOL    HW124839   3.932   0.786   1.310  0.1427  0.5838 -0.8574
 4402SOL    HW224840   4.074   0.821   1.284 -0.9381 -1.1741 -1.6611
 4403SOL     OW24841   1.870   3.178   4.215  0.0875  0.1857  0.0927
 4403SOL    HW124842   1.844   3.230   4.139 -4.1226 -0.7270  0.9118
 4403SOL    HW224843   1.944   3.125   4.184  2.6336  2.3107  2.6569
 4404SOL     OW24844   2.137   1.915   1.956  0.1710 -0.4564  0.2130
 4404SOL    HW124845   2.140   1.859   2.033  0.7009 -0.9910 -0.1955
 4404SOL    HW224846   2.084   1.865   1.894 -1.4563  0.3684  0.9412
 4405SOL     OW24847   2.791   1.265  12.061  0.2862  0.7335 -0.0259
 4405SOL    HW124848   2.729   1.275  11.989  1.3101 -1.6700 -1.2446
 4405SOL    HW224849   2.733   1.263  12.137 -0.5798 -2.0494 -0.7504
 4406SOL     OW24850   4.545   0.593   4.178 -0.3016  0.6275 -0.1355
 4406SOL    HW124851   4.630   0.564   4.211 -0.8049 -2.0466 -1.2271
 4406SOL    HW224852   4.497   0.595   4.261  2.3481  0.9818  1.4016
 4407SOL     OW24853   0.833   1.521   7.759 -0.1380  0.4577  0.1555
 4407SOL    HW124854   0.743   1.540   7.734 -0.4781 -1.9239 -0.4220
 4407SOL    HW224855   0.870   1.505   7.672 -1.6980  2.3686 -0.8407
 4408SOL     OW24856   2.226   3.877  10.304 -0.3278  0.2067 -0.3293
 4408SOL    HW124857   2.239   3.798  10.252  2.8278  1.2382 -1.1084
 4408SOL    HW224858   2.289   3.867  10.374  0.6674  0.1148 -1.2454
 4409SOL     OW24859   0.766   4.573   4.993  0.6270  0.2360  0.1488
 4409SOL    HW124860   0.676   4.579   4.961  1.0400 -0.4178 -1.1343
 4409SOL    HW224861   0.796   4.654   4.951 -0.7579  2.2328  2.9669
 4410SOL     OW24862   0.605   3.100   4.516  0.3339 -0.0801 -0.1661
 4410SOL    HW124863   0.698   3.080   4.525  0.5528  1.8838  2.1230
 4410SOL    HW224864   0.577   3.052   4.594  1.5212  2.2030  1.6630
 4411SOL     OW24865   1.430   0.012   3.400  0.4716 -0.0758  0.5337
 4411SOL    HW124866   1.392   4.682   3.347 -3.3264  1.5123  1.2323
 4411SOL    HW224867   1.520   0.006   3.368  0.5642  0.2675  0.7316
 4412SOL     OW24868   1.285   2.109   7.746 -0.0101  0.1943  0.3166
 4412SOL    HW124869   1.247   2.162   7.677 -0.6631 -0.8676 -0.1489
 4412SOL    HW224870   1.365   2.158   7.765  0.4743 -1.2945  2.2014
 4413SOL     OW24871   3.490   2.890   8.207  0.1864 -0.2467  0.6654
 4413SOL    HW124872   3.462   2.954   8.273 -0.1079  1.2562 -0.9183
 4413SOL    HW224873   3.455   2.813   8.253  1.1839 -0.5441  0.9246
 4414SOL     OW24874   1.488   1.756  13.162 -0.2148 -0.3041  0.1367
 4414SOL    HW124875   1.466   1.663  13.150  0.4739 -0.2837 -1.3003
 4414SOL    HW224876   1.583   1.751  13.161 -0.1163  1.9150 -0.3850
 4415SOL     OW24877   2.043   2.807  14.518 -0.5495  0.3732 -0.2191
 4415SOL    HW124878   2.030   2.714  14.496 -0.8517 -0.0145  1.5720
 4415SOL    HW224879   1.974   2.823  14.583  0.8225  0.4691  1.2079
 4416SOL     OW24880   0.954   0.069   8.230  0.1667  0.4301  0.2656
 4416SOL    HW124881   0.946   0.009   8.305  0.4721 -2.2193 -1.8028
 4416SOL    HW224882   0.988   0.009   8.163 -0.2253 -2.0349  2.2452
 4417SOL     OW24883   3.158   2.002   2.513  0.3573  0.3338 -0.3144
 4417SOL    HW124884   3.231   2.015   2.574 -0.1395 -0.1279  0.3797
 4417SOL    HW224885   3.165   1.911   2.484  1.6135 -0.2589  1.8134
 4418SOL     OW24886   0.325   1.531   7.717 -0.6571 -0.7165 -0.2574
 4418SOL    HW124887   0.252   1.560   7.773  0.0294 -0.2754  0.4172
 4418SOL    HW224888   0.289   1.544   7.629 -0.4431  1.9712  0.0349
 4419SOL     OW24889   1.601   3.890   5.086 -0.0868  0.3350  0.2340
 4419SOL    HW124890   1.574   3.890   4.995 -1.3342  2.3580  0.6061
 4419SOL    HW224891   1.520   3.875   5.134  1.4396 -0.3323  2.6173
 4420SOL     OW24892   2.860   1.397   6.089 -0.0720 -0.1227 -0.2331
 4420SOL    HW124893   2.822   1.335   6.026  0.1288 -2.5264  2.0225
 4420SOL    HW224894   2.828   1.358   6.170 -1.0160 -1.5479 -1.2934
 4421SOL     OW24895   1.717   3.945   3.902 -0.4507 -0.4870  0.4498
 4421SOL    HW124896   1.702   3.940   3.808  0.5991 -1.0414  0.3038
 4421SOL    HW224897   1.808   3.914   3.904 -0.0922  0.6365  1.6570
 4422SOL     OW24898   2.713   0.156   8.784  0.7223  0.5679 -0.1353
 4422SOL    HW124899   2.760   0.076   8.757  0.0492  0.4368 -0.9082
 4422SOL    HW224900   2.620   0.150   8.762  0.7373 -0.8878  0.1752
 4423SOL     OW24901   0.699   3.143  12.907  0.6071  0.5717 -0.2377
 4423SOL    HW124902   0.615   3.184  12.928  0.3445  0.3222 -0.8233
 4423SOL    HW224903   0.679   3.058  12.947  2.6519  1.2177  2.1744
 4424SOL     OW24904   2.736   0.712   4.575  0.0618 -0.6057 -0.0346
 4424SOL    HW124905   2.731   0.688   4.667 -1.8117 -1.4752 -0.3550
 4424SOL    HW224906   2.778   0.798   4.573 -2.1637  0.4309 -2.9189
 4425SOL     OW24907   2.790   4.089   6.019  0.6146  0.1886 -0.0370
 4425SOL    HW124908   2.883   4.068   6.032  0.2364 -1.9994 -0.8366
 4425SOL    HW224909   2.784   4.060   5.928  1.2911 -2.7816  0.8586
 4426SOL     OW24910   4.643   4.278   7.008 -0.2716  0.2681 -0.7975
 4426SOL    HW124911   4.636   4.322   7.093 -2.2966 -0.4316 -0.6033
 4426SOL    HW224912   4.718   4.318   6.963 -0.4723 -0.5854 -1.9016
 4427SOL     OW24913   1.948   3.719   6.774  0.2289 -0.0918 -0.4159
 4427SOL    HW124914   1.999   3.647   6.737 -0.8215 -1.1822  0.2309
 4427SOL    HW224915   2.014   3.787   6.788  1.8669 -1.6256 -0.7054
 4428SOL     OW24916   4.012   4.088   5.486  0.1657  0.1254  0.2805
 4428SOL    HW124917   3.927   4.131   5.500 -0.9970 -1.9137 -0.5564
 4428SOL    HW224918   4.004   4.007   5.537 -0.5177 -0.1835 -0.3227
 4429SOL     OW24919   0.471   0.525   5.183 -0.1371 -0.8707 -0.3178
 4429SOL    HW124920   0.428   0.519   5.269  0.3790  2.5609  0.1774
 4429SOL    HW224921   0.555   0.559   5.214 -0.0637 -1.6877  0.3580
 4430SOL     OW24922   3.939   1.531   5.255 -0.0534  0.3307  0.4513
 4430SOL    HW124923   3.916   1.470   5.325  0.9509 -1.6058 -0.8747
 4430SOL    HW224924   3.964   1.478   5.179  0.4171  1.1322  0.0448
 4431SOL     OW24925   1.783   1.911   9.274 -0.2423  0.1484 -0.2114
 4431SOL    HW124926   1.785   2.005   9.291 -0.1416  0.0539  0.2984
 4431SOL    HW224927   1.873   1.888   9.294 -0.8135  0.2493  2.5115
 4432SOL     OW24928   1.015   0.688   5.205 -0.1911 -0.1843  0.0300
 4432SOL    HW124929   1.001   0.625   5.276  2.0500 -0.5577  0.1148
 4432SOL    HW224930   1.056   0.637   5.135 -0.1101 -0.9051  0.6059
 4433SOL     OW24931   0.228   4.511   1.785  0.2179 -0.3082 -0.1936
 4433SOL    HW124932   0.142   4.550   1.767  0.4755  0.0843 -0.5587
 4433SOL    HW224933   0.209   4.489   1.876  0.7295  1.8875  0.4208
 4434SOL     OW24934   3.429   4.238   5.494 -0.3294  0.3965 -0.1007
 4434SOL    HW124935   3.511   4.218   5.450  1.7184 -0.4788  4.1404
 4434SOL    HW224936   3.375   4.262   5.419 -0.1528  0.1142 -0.3188
 4435SOL     OW24937   1.644   2.619   8.725 -0.7408 -0.0870  0.9089
 4435SOL    HW124938   1.669   2.675   8.799  1.4277 -1.6742  1.3700
 4435SOL    HW224939   1.550   2.637   8.717 -0.9826 -0.9825  1.7077
 4436SOL     OW24940   0.295   2.869   7.908 -0.2478 -0.6336 -1.0255
 4436SOL    HW124941   0.335   2.791   7.948  0.4382  0.8895  1.3027
 4436SOL    HW224942   0.369   2.919   7.874 -0.4406 -0.1107 -0.6772
 4437SOL     OW24943   3.644   2.473  16.885 -0.6085 -0.7305 -0.4912
 4437SOL    HW124944   3.698   2.464  16.963 -0.2294 -1.0899 -0.7975
 4437SOL    HW224945   3.590   2.548  16.912 -1.0151 -0.5820 -1.6839
 4438SOL     OW24946   4.249   3.689  16.418  0.1219  0.6824 -0.4182
 4438SOL    HW124947   4.163   3.651  16.434 -0.3015  2.7741  2.3637
 4438SOL    HW224948   4.268   3.669  16.327  1.3332 -0.9651  0.1938
 4439SOL     OW24949   0.029   3.152   1.802 -0.0761  0.3191 -0.0894
 4439SOL    HW124950   4.674   3.148   1.813  0.2272 -0.8523  2.1558
 4439SOL    HW224951   0.054   3.213   1.872  0.5075  0.3225 -0.3041
 4440SOL     OW24952   1.856   3.460   4.624  0.5574  0.1109 -0.2622
 4440SOL    HW124953   1.865   3.392   4.558 -1.0950  0.3169 -0.7177
 4440SOL    HW224954   1.761   3.473   4.619  0.3702 -1.2333 -0.1811
 4441SOL     OW24955   0.478   0.925   2.442 -0.4551 -0.3969  0.0532
 4441SOL    HW124956   0.415   0.914   2.370  1.2738 -1.8103 -1.2450
 4441SOL    HW224957   0.425   0.969   2.508  2.4477  0.9801  1.4274
 4442SOL     OW24958   2.554   3.391  12.801 -0.2166 -0.5487  0.1530
 4442SOL    HW124959   2.539   3.356  12.889 -1.1080  2.3086  1.1361
 4442SOL    HW224960   2.465   3.366  12.775  0.2872 -0.2965 -1.8015
 4443SOL     OW24961   3.222   4.634   7.425 -0.5106  0.7818 -0.2182
 4443SOL    HW124962   3.150   4.694   7.443 -1.3271  1.2125 -5.0203
 4443SOL    HW224963   3.235   4.642   7.331  0.9097 -0.9652 -0.1831
 4444SOL     OW24964   1.937   1.399  17.004 -0.1122  0.6024  0.2682
 4444SOL    HW124965   1.965   1.307  17.008  2.4257  1.3793  0.2127
 4444SOL    HW224966   1.917   1.423  17.095 -0.3433  0.6992  0.1909
 4445SOL     OW24967   2.071   0.279   2.917 -0.1480  0.2600 -0.0522
 4445SOL    HW124968   2.114   0.237   2.843 -1.6089 -1.0473 -0.1684
 4445SOL    HW224969   2.146   0.275   2.977 -0.0304 -3.0704 -0.4378
 4446SOL     OW24970   2.174   2.915   9.089  1.2137  0.3163 -0.3745
 4446SOL    HW124971   2.205   2.975   9.021 -2.2433 -0.0529 -2.2885
 4446SOL    HW224972   2.174   2.972   9.166  0.4217 -2.1833  1.4422
 4447SOL     OW24973   1.168   3.542   6.336  0.1457  0.6836  0.3722
 4447SOL    HW124974   1.234   3.486   6.295 -0.8471  1.0413 -1.7246
 4447SOL    HW224975   1.218   3.618   6.366  1.2896 -0.3691  1.1340
 4448SOL     OW24976   3.184   3.334  15.893  0.5961  0.1533  0.6589
 4448SOL    HW124977   3.128   3.294  15.960  0.6729 -0.4765  0.3532
 4448SOL    HW224978   3.188   3.255  15.839 -0.4235  1.2294 -0.9890
 4449SOL     OW24979   1.676   4.473   2.285 -0.0522  0.7012 -0.1856
 4449SOL    HW124980   1.638   4.466   2.373  0.2852  0.1412 -0.0817
 4449SOL    HW224981   1.762   4.501   2.315  0.2715 -1.5256  0.9802
 4450SOL     OW24982   3.894   1.207  10.120  0.1700 -0.1163  0.0770
 4450SOL    HW124983   3.843   1.160  10.186 -0.2606  0.1953 -0.0330
 4450SOL    HW224984   3.834   1.221  10.047 -0.2118 -1.6299  0.1051
 4451SOL     OW24985   4.352   0.580   8.519  0.6658  0.2719 -0.0651
 4451SOL    HW124986   4.301   0.516   8.469  3.4091 -0.4162 -1.9970
 4451SOL    HW224987   4.443   0.565   8.491  0.5160 -0.5441 -0.1169
 4452SOL     OW24988   4.277   3.968  12.246 -0.1894 -0.0629 -0.1528
 4452SOL    HW124989   4.305   3.879  12.267  0.8184  0.5101  0.9450
 4452SOL    HW224990   4.303   4.010  12.328  0.9457  0.7306 -0.9157
 4453SOL     OW24991   2.934   1.322  11.210 -0.3922  0.0321 -0.1134
 4453SOL    HW124992   2.988   1.339  11.133 -1.6948  1.5740 -0.6984
 4453SOL    HW224993   2.973   1.377  11.279 -1.5255 -0.7232  1.1391
 4454SOL     OW24994   3.554   2.385   2.007 -0.2405  0.3243  0.6261
 4454SOL    HW124995   3.591   2.472   1.990  0.8850 -0.4950 -1.0760
 4454SOL    HW224996   3.589   2.356   2.091 -0.3896  0.6391  0.7955
 4455SOL     OW24997   3.802   0.551   5.364 -0.1274  0.1697 -0.4951
 4455SOL    HW124998   3.873   0.569   5.302  0.6367  0.5770  0.5078
 4455SOL    HW224999   3.743   0.503   5.304  1.1364 -2.8280  0.6519
 4456SOL     OW25000   2.070   0.052   6.536  0.2806  0.1607 -0.0503
 4456SOL    HW125001   2.165   0.063   6.535  0.6502 -2.6270  2.1331
 4456SOL    HW225002   2.058   0.016   6.624 -1.6394 -2.5489 -1.3947
 4457SOL     OW25003   4.088   2.124   4.341  0.4737  0.1885  0.4314
 4457SOL    HW125004   4.025   2.115   4.270  2.0329 -1.9829 -0.6670
 4457SOL    HW225005   4.111   2.032   4.353 -4.7504 -0.9080  2.1097
 4458SOL     OW25006   1.402   2.379   3.270  0.6308  0.6060  0.6055
 4458SOL    HW125007   1.470   2.440   3.297  0.6517  0.2293  1.3997
 4458SOL    HW225008   1.444   2.336   3.195 -1.3013  1.2875 -0.8631
 4459SOL     OW25009   0.623   2.658   7.265 -0.5744  0.0597 -0.1333
 4459SOL    HW125010   0.686   2.669   7.194 -0.8501  4.1118  0.2283
 4459SOL    HW225011   0.666   2.590   7.317 -1.0323  0.8632  1.2869
 4460SOL     OW25012   3.559   3.481   3.271 -0.1055  0.0514 -0.3552
 4460SOL    HW125013   3.612   3.522   3.203  0.4713  0.7025  0.4768
 4460SOL    HW225014   3.595   3.508   3.356 -0.7041 -1.2629  0.3198
 4461SOL     OW25015   2.792   1.447  10.710 -0.0022  0.7231 -0.3523
 4461SOL    HW125016   2.769   1.355  10.717  0.2989  0.4896 -2.6540
 4461SOL    HW225017   2.732   1.479  10.778 -0.3635  0.5378 -0.5848
 4462SOL     OW25018   3.346   0.874  11.007  0.1379 -0.0748  0.0859
 4462SOL    HW125019   3.343   0.819  10.928  0.3607 -0.0458  0.0579
 4462SOL    HW225020   3.428   0.923  10.998  0.2282 -0.0268  1.2127
 4463SOL     OW25021   2.084   4.316   7.988 -0.7283 -0.1952 -0.3146
 4463SOL    HW125022   2.056   4.276   8.071 -0.3230 -0.4715 -0.3105
 4463SOL    HW225023   2.046   4.401   8.008  0.2450  0.2314 -0.3223
 4464SOL     OW25024   2.857   2.742  13.248 -0.1260  0.4674  0.2665
 4464SOL    HW125025   2.779   2.694  13.220  1.2639 -0.4452 -2.0524
 4464SOL    HW225026   2.823   2.820  13.293  1.0065  0.2172  1.5672
 4465SOL     OW25027   2.400   0.676   4.719 -0.3416  0.8228  0.8083
 4465SOL    HW125028   2.319   0.626   4.729 -0.0077  0.4614  1.6690
 4465SOL    HW225029   2.381   0.751   4.776 -0.6086  1.9943 -0.8229
 4466SOL     OW25030   2.999   4.443  16.641  0.5892  0.3162  0.4918
 4466SOL    HW125031   2.927   4.453  16.704 -1.5636  0.9911 -2.0567
 4466SOL    HW225032   3.011   4.348  16.649  0.8653  0.4357  1.4033
 4467SOL     OW25033   1.830   1.118  13.472 -0.6114 -0.7149 -0.2619
 4467SOL    HW125034   1.912   1.138  13.427 -0.0863  2.0518  1.9339
 4467SOL    HW225035   1.843   1.024  13.486  1.0507 -0.5370 -0.6463
 4468SOL     OW25036   0.180   2.039   3.933  0.3741  0.0625  0.2805
 4468SOL    HW125037   0.141   2.006   4.014  2.4404 -1.2123  0.7621
 4468SOL    HW225038   0.171   1.961   3.878  1.2315 -0.2864  0.6269
 4469SOL     OW25039   1.208   3.306   5.438 -0.4176  0.2863  0.5070
 4469SOL    HW125040   1.287   3.358   5.449  0.2538 -0.9927  1.6936
 4469SOL    HW225041   1.168   3.350   5.363 -1.0563  0.5292  0.9936
 4470SOL     OW25042   3.565   3.250   2.695 -0.2609 -0.4535  0.8264
 4470SOL    HW125043   3.628   3.322   2.684 -2.4620  0.8508 -3.0345
 4470SOL    HW225044   3.531   3.237   2.607  3.0260 -0.0075 -0.5153
 4471SOL     OW25045   0.805   2.321  16.265  0.3108 -0.0345  0.1672
 4471SOL    HW125046   0.887   2.314  16.216  0.5625  0.1700  0.5696
 4471SOL    HW225047   0.827   2.305  16.357  0.3797 -0.4057  0.0876
 4472SOL     OW25048   0.292   3.392  11.843 -0.7035  0.3043  0.5597
 4472SOL    HW125049   0.293   3.303  11.880 -0.8855  0.2187  0.3543
 4472SOL    HW225050   0.259   3.433  11.923 -0.8264 -1.4217  1.4030
 4473SOL     OW25051   3.880   2.895   4.361 -0.3215  0.7822  1.0813
 4473SOL    HW125052   3.880   2.937   4.447  1.1586  1.3849  0.7901
 4473SOL    HW225053   3.818   2.949   4.312  0.2450  1.7005  1.3760
 4474SOL     OW25054   4.284   4.606   3.021  0.4471  0.0407 -0.6858
 4474SOL    HW125055   4.230   4.626   3.098  0.4042 -0.8756 -0.4820
 4474SOL    HW225056   4.353   4.672   3.034 -1.3400  2.0182 -1.2154
 4475SOL     OW25057   3.926   3.228   5.835 -0.5899 -0.2583  0.1103
 4475SOL    HW125058   3.876   3.198   5.912 -1.5692  0.8416 -0.1079
 4475SOL    HW225059   3.861   3.248   5.768 -0.5367  1.9512  0.7130
 4476SOL     OW25060   4.361   2.668   2.682  0.6269  0.2697 -0.6162
 4476SOL    HW125061   4.436   2.628   2.639  0.4843  0.3843 -0.9643
 4476SOL    HW225062   4.356   2.755   2.643 -0.8965  0.3545 -0.2440
 4477SOL     OW25063   3.352   3.257   8.065 -0.2026  0.1145  0.2567
 4477SOL    HW125064   3.293   3.203   8.118 -0.0885  0.0663  0.3349
 4477SOL    HW225065   3.334   3.222   7.977 -1.0674  0.7928  0.1605
 4478SOL     OW25066   4.539   3.272   8.456 -0.2030  0.5055  0.4437
 4478SOL    HW125067   4.464   3.221   8.426  0.2134  0.9975 -1.4341
 4478SOL    HW225068   4.495   3.356   8.464  0.9996  1.0550  1.2421
 4479SOL     OW25069   0.976   1.414   4.515  0.5700  0.6360 -0.4726
 4479SOL    HW125070   1.045   1.455   4.568  0.7601  0.0291 -0.2528
 4479SOL    HW225071   0.990   1.321   4.534  2.0248  0.6793 -1.3262
 4480SOL     OW25072   4.279   4.172   3.023  0.4027 -0.2897  0.0497
 4480SOL    HW125073   4.324   4.089   3.010 -0.7310 -1.0388  0.9965
 4480SOL    HW225074   4.268   4.198   2.931 -1.4769 -0.5387  0.2147
 4481SOL     OW25075   3.524   3.847   7.479  0.4978 -0.6701 -0.3537
 4481SOL    HW125076   3.481   3.929   7.505  2.7656 -0.7874  3.6373
 4481SOL    HW225077   3.451   3.795   7.446  1.6787 -2.1166 -0.6813
 4482SOL     OW25078   0.511   2.992   4.306  0.7860 -0.0789  0.3317
 4482SOL    HW125079   0.548   2.904   4.305 -0.8027 -0.7306 -0.6622
 4482SOL    HW225080   0.559   3.036   4.376  1.0082  1.0135 -0.5003
 4483SOL     OW25081   4.725   1.514   0.694  0.2377 -0.0424  0.2666
 4483SOL    HW125082   4.705   1.569   0.618  0.0281 -0.6378 -0.1003
 4483SOL    HW225083   4.672   1.436   0.684  3.2418 -2.1731  0.9047
 4484SOL     OW25084   1.537   0.776   8.863  0.0272 -0.8866  0.2333
 4484SOL    HW125085   1.448   0.805   8.841  1.2478  2.5705 -0.2341
 4484SOL    HW225086   1.525   0.687   8.895 -1.3520 -0.9955 -0.5974
 4485SOL     OW25087   2.281   3.244   6.735  0.2447  0.1253 -0.0120
 4485SOL    HW125088   2.325   3.212   6.814  0.8107 -0.4393 -0.5523
 4485SOL    HW225089   2.349   3.282   6.679  0.2262  0.2628  0.0604
 4486SOL     OW25090   3.046   3.973   4.650  0.3118 -0.1050 -0.2809
 4486SOL    HW125091   3.096   3.903   4.608 -3.1801 -2.5013 -0.4301
 4486SOL    HW225092   3.035   3.936   4.737 -1.7035  3.1398  0.8425
 4487SOL     OW25093   0.683   4.182  12.078  0.3765  0.6587  0.4984
 4487SOL    HW125094   0.601   4.231  12.075  0.6694  1.1322  0.2676
 4487SOL    HW225095   0.740   4.251  12.110  1.2921 -0.7960  2.0404
 4488SOL     OW25096   1.862   0.278  12.016 -0.5732  0.3853  0.7083
 4488SOL    HW125097   1.769   0.296  12.030 -0.5216  0.9375  0.3350
 4488SOL    HW225098   1.903   0.292  12.102 -1.8892  2.7073  0.9616
 4489SOL     OW25099   2.704   3.813   5.092  0.0054 -0.2350  0.6385
 4489SOL    HW125100   2.618   3.779   5.117  0.8409 -1.8812  1.2511
 4489SOL    HW225101   2.703   3.806   4.996 -2.4357 -1.4211  0.7497
 4490SOL     OW25102   3.463   0.482   7.876  0.5040  0.2291  0.8435
 4490SOL    HW125103   3.551   0.520   7.871  0.9329 -0.8803 -0.0886
 4490SOL    HW225104   3.414   0.559   7.903 -1.0867 -0.2182 -0.7787
 4491SOL     OW25105   4.426   0.391   5.886 -0.6069  0.7109 -0.0018
 4491SOL    HW125106   4.450   0.375   5.978 -2.1616  0.8606  0.4247
 4491SOL    HW225107   4.337   0.355   5.889  0.4383 -2.0387 -1.8512
 4492SOL     OW25108   2.836   0.484   1.935  0.3993  0.5080 -0.0480
 4492SOL    HW125109   2.779   0.487   2.012 -0.1934  0.6482 -0.4941
 4492SOL    HW225110   2.827   0.389   1.922  1.1101  0.3114  0.9107
 4493SOL     OW25111   0.267   2.318   8.906 -0.3609  0.0240 -0.3728
 4493SOL    HW125112   0.191   2.271   8.940 -0.0436  0.1014  0.4492
 4493SOL    HW225113   0.346   2.287   8.951 -0.2383 -2.4338 -2.3075
 4494SOL     OW25114   3.663   0.812   2.478  0.1317  0.2057 -0.2065
 4494SOL    HW125115   3.682   0.753   2.551  0.7514  0.9004  0.1987
 4494SOL    HW225116   3.746   0.808   2.429  0.6367  0.0322  0.6565
 4495SOL     OW25117   0.685   3.202   6.481 -0.0299 -0.3482  0.4111
 4495SOL    HW125118   0.766   3.203   6.431 -0.1780 -0.5401  0.1596
 4495SOL    HW225119   0.723   3.171   6.563 -0.3348 -0.5079  0.4943
 4496SOL     OW25120   3.995   4.418   0.633 -0.0451  0.6248 -0.1484
 4496SOL    HW125121   4.089   4.426   0.617  0.4085 -0.4601  1.9599
 4496SOL    HW225122   3.963   4.396   0.546 -1.5947  1.7019  0.1474
 4497SOL     OW25123   1.465   2.170   8.098  0.3957  0.0892 -0.2230
 4497SOL    HW125124   1.401   2.198   8.032 -0.6665 -3.0976 -0.5433
 4497SOL    HW225125   1.408   2.129   8.164 -0.5331 -2.2439 -2.4883
 4498SOL     OW25126   3.230   3.502  15.695 -0.1007 -0.4945  0.0823
 4498SOL    HW125127   3.217   3.455  15.777  0.8057  1.8786  1.6029
 4498SOL    HW225128   3.261   3.587  15.729 -2.0130  1.2881 -2.6380
 4499SOL     OW25129   0.374   2.137   2.422  0.2743  0.3797 -0.1992
 4499SOL    HW125130   0.306   2.085   2.466  1.8359 -0.8742  0.7428
 4499SOL    HW225131   0.356   2.130   2.328  0.1953  2.4999 -0.3357
 4500SOL     OW25132   0.628   0.033   7.713  0.1285 -0.7533 -0.2316
 4500SOL    HW125133   0.646   0.073   7.627 -1.2740  1.0279  0.3046
 4500SOL    HW225134   0.718   0.033   7.746  0.5294 -5.5067 -1.3651
 4501SOL     OW25135   2.608   2.153   8.693 -0.9052  0.4239  0.5858
 4501SOL    HW125136   2.573   2.211   8.625  1.5392 -0.9677 -1.8939
 4501SOL    HW225137   2.691   2.123   8.655 -1.3732  2.1811 -1.8243
 4502SOL     OW25138   1.403   3.080  11.450 -0.0984 -0.4357 -0.6380
 4502SOL    HW125139   1.313   3.058  11.474 -0.8918 -0.0337 -3.2054
 4502SOL    HW225140   1.404   3.175  11.448 -1.2850 -0.3919  1.3613
 4503SOL     OW25141   0.841   0.393  15.463 -0.4904 -0.2456 -0.0668
 4503SOL    HW125142   0.856   0.311  15.416  0.1341  0.4811 -1.1299
 4503SOL    HW225143   0.760   0.416  15.417  0.1504 -1.4396 -1.8509
 4504SOL     OW25144   3.159   1.167   1.529  0.4145 -0.0028 -0.4458
 4504SOL    HW125145   3.214   1.210   1.595 -0.9327  1.3169 -0.2067
 4504SOL    HW225146   3.071   1.172   1.566  0.3483 -1.8623 -0.3198
 4505SOL     OW25147   2.503   3.718   3.635  0.6007 -0.3714  0.5844
 4505SOL    HW125148   2.490   3.761   3.551 -3.1016 -0.3657  1.1789
 4505SOL    HW225149   2.584   3.764   3.657  0.2491  0.0339  1.0226
 4506SOL     OW25150   2.980   0.811   9.275 -0.4742 -0.0140  0.3745
 4506SOL    HW125151   2.891   0.812   9.309  0.3109 -2.1059  2.4707
 4506SOL    HW225152   2.991   0.906   9.277 -0.1195 -0.0470  0.0469
 4507SOL     OW25153   3.811   2.403   4.169  0.7703  0.1688  0.0974
 4507SOL    HW125154   3.896   2.427   4.205  0.8929  0.3178 -0.2851
 4507SOL    HW225155   3.761   2.484   4.161  0.3530 -0.1588 -0.6055
 4508SOL     OW25156   3.825   1.202   3.254 -0.0172 -0.3703 -0.5951
 4508SOL    HW125157   3.827   1.272   3.189 -1.0632  1.5437  1.4310
 4508SOL    HW225158   3.822   1.118   3.208 -1.4809 -1.0231  0.7016
 4509SOL     OW25159   2.335   3.587   2.064 -0.3537  0.0663 -0.5837
 4509SOL    HW125160   2.307   3.497   2.044  0.7070 -0.6064  0.9560
 4509SOL    HW225161   2.269   3.645   2.025 -1.1048  0.6801  1.5870
 4510SOL     OW25162   2.542   0.002   4.904  0.1574  0.4481  0.3060
 4510SOL    HW125163   2.449   0.023   4.915 -0.5692 -0.3209 -4.3457
 4510SOL    HW225164   2.577   0.038   4.986  0.0883  1.3902 -0.0770
 4511SOL     OW25165   3.708   4.679   3.368  0.5960 -0.1530 -0.2941
 4511SOL    HW125166   3.728   4.603   3.422 -0.7556  0.4393  1.0519
 4511SOL    HW225167   3.619   4.696   3.399  0.2615  0.5750 -1.6808
 4512SOL     OW25168   0.214   3.134  14.779  0.6230  0.1520 -0.0486
 4512SOL    HW125169   0.261   3.055  14.749 -1.5126 -0.5841 -1.4388
 4512SOL    HW225170   0.278   3.169  14.841  0.0212  0.3156  0.4721
 4513SOL     OW25171   2.283   3.925   9.236  0.2715 -0.3657 -0.1969
 4513SOL    HW125172   2.374   3.949   9.253 -0.7464  2.5260  1.3178
 4513SOL    HW225173   2.284   3.907   9.142  2.2797  0.1095 -0.2717
 4514SOL     OW25174   2.700   1.287   7.732 -0.3138  0.5507 -0.3629
 4514SOL    HW125175   2.663   1.331   7.809 -2.6995 -1.4034 -0.3850
 4514SOL    HW225176   2.650   1.205   7.739 -0.0090  0.2141 -2.2449
 4515SOL     OW25177   2.949   1.721   2.695 -0.4417 -0.0494 -0.5701
 4515SOL    HW125178   2.952   1.806   2.739 -2.1271 -0.2419 -0.0809
 4515SOL    HW225179   3.021   1.674   2.737 -2.1846 -2.5649 -0.3641
 4516SOL     OW25180   3.487   1.975  12.480 -0.2373  0.0310  0.1856
 4516SOL    HW125181   3.489   2.070  12.484  1.5965  0.0918 -1.9831
 4516SOL    HW225182   3.409   1.944  12.524 -0.6717  0.0533 -0.5601
 4517SOL     OW25183   3.328   0.312  10.726 -0.2764  0.1964 -0.6107
 4517SOL    HW125184   3.266   0.360  10.671 -0.7688  0.6028  0.2765
 4517SOL    HW225185   3.377   0.261  10.662 -1.2809 -1.0091 -0.4160
 4518SOL     OW25186   0.048   0.215   0.327  0.1647  0.6231  0.0464
 4518SOL    HW125187   0.080   0.167   0.251  1.0529  1.7376 -0.2803
 4518SOL    HW225188   0.127   0.211   0.381  0.7206  1.4332 -0.7131
 4519SOL     OW25189   1.909   3.998   8.506 -0.4757 -0.1745 -0.4424
 4519SOL    HW125190   1.856   3.992   8.586 -0.5141 -0.5341 -0.4958
 4519SOL    HW225191   1.892   4.086   8.472 -0.7635 -0.1927 -0.3465
 4520SOL     OW25192   2.649   2.860  10.663 -0.0291  0.1077  0.0611
 4520SOL    HW125193   2.660   2.952  10.640 -1.4638  0.6147  1.3772
 4520SOL    HW225194   2.566   2.845  10.618 -0.5487  1.0574  0.6961
 4521SOL     OW25195   4.578   0.733   1.822  0.1436  0.0043 -0.0616
 4521SOL    HW125196   4.548   0.697   1.906  1.0032  0.8375  0.6051
 4521SOL    HW225197   4.502   0.777   1.786  0.5121 -0.0726 -0.9234
 4522SOL     OW25198   3.083   2.538   3.916 -0.1672  0.0405 -0.3404
 4522SOL    HW125199   3.007   2.545   3.859  0.2237  1.7676 -0.6520
 4522SOL    HW225200   3.048   2.505   3.998 -2.3141 -0.9171 -1.6392
 4523SOL     OW25201   3.431   1.194   7.081 -0.0630 -0.1141  0.5050
 4523SOL    HW125202   3.349   1.231   7.115 -0.3584 -0.7081  0.4320
 4523SOL    HW225203   3.419   1.216   6.988 -0.9573  0.7741  0.8267
 4524SOL     OW25204   2.630   2.176   6.307 -0.2411  0.0470  0.0559
 4524SOL    HW125205   2.693   2.165   6.235  1.6366  1.1274  1.5402
 4524SOL    HW225206   2.655   2.113   6.374 -1.5643  0.2130  0.7097
 4525SOL     OW25207   2.278   2.631   6.962 -0.2331 -0.2340  0.4559
 4525SOL    HW125208   2.259   2.552   6.912  0.6468 -1.3610  1.9425
 4525SOL    HW225209   2.350   2.597   7.016 -2.2016 -2.3323  1.7372
 4526SOL     OW25210   1.813   0.736  12.005  0.2905 -0.6364 -0.2386
 4526SOL    HW125211   1.808   0.645  12.037 -2.4946 -0.2354  0.4111
 4526SOL    HW225212   1.861   0.779  12.076 -0.6351 -0.0501  0.0275
 4527SOL     OW25213   4.086   0.414  11.087 -0.1932 -0.4808 -0.2899
 4527SOL    HW125214   4.147   0.379  11.021 -0.0867  1.7506 -1.3868
 4527SOL    HW225215   4.070   0.331  11.133  1.1873 -1.2149 -1.1300
 4528SOL     OW25216   4.365   3.559  13.897  0.9084  0.1208  0.6114
 4528SOL    HW125217   4.416   3.481  13.874  1.9476  0.3223  2.1670
 4528SOL    HW225218   4.281   3.518  13.917  0.8389 -0.6420 -1.2942
 4529SOL     OW25219   0.709   3.160   1.472 -0.6483 -0.4190 -0.4457
 4529SOL    HW125220   0.658   3.213   1.533 -0.4526  0.2492 -0.8604
 4529SOL    HW225221   0.781   3.133   1.528 -2.1115  0.2493  1.7517
 4530SOL     OW25222   4.009   0.327   0.789  0.1267 -0.4848  0.7296
 4530SOL    HW125223   4.013   0.398   0.726 -1.0712 -1.8294 -0.8599
 4530SOL    HW225224   4.003   0.374   0.872 -1.4377  1.7217 -0.6546
 4531SOL     OW25225   4.729   2.071   5.067 -0.0352  0.1538  0.3118
 4531SOL    HW125226   0.071   2.061   5.018  0.8115 -0.0033  1.7529
 4531SOL    HW225227   4.726   2.166   5.059 -0.0858 -0.0996 -2.6911
 4532SOL     OW25228   2.097   1.718  16.966 -0.1143  0.6022  0.2417
 4532SOL    HW125229   2.084   1.794  17.023 -0.8835  0.8668 -0.2990
 4532SOL    HW225230   2.151   1.661  17.021  0.9441  1.8886  0.5430
 4533SOL     OW25231   3.869   3.908   7.744 -0.2129 -0.0835  0.4763
 4533SOL    HW125232   3.848   3.949   7.828 -0.8118 -0.8829  0.7214
 4533SOL    HW225233   3.844   3.982   7.687  0.1679 -0.4485 -0.1674
 4534SOL     OW25234   0.719   0.204   8.012  0.1675 -0.0087 -0.0557
 4534SOL    HW125235   0.675   0.264   7.952 -0.1971  0.5560  0.7562
 4534SOL    HW225236   0.800   0.180   7.967 -0.4132 -1.8051 -0.1515
 4535SOL     OW25237   1.845   4.300   8.771 -0.3366 -0.5617 -0.4337
 4535SOL    HW125238   1.875   4.387   8.748 -0.9158 -0.4111 -0.6119
 4535SOL    HW225239   1.877   4.292   8.861 -0.8159 -2.3195 -0.4158
 4536SOL     OW25240   0.153   3.656   9.159 -0.1872 -0.1520 -0.0318
 4536SOL    HW125241   0.081   3.596   9.180  1.1852 -2.2433 -1.3068
 4536SOL    HW225242   0.227   3.598   9.177 -1.1135 -1.4755 -0.4587
 4537SOL     OW25243   0.241   3.050   6.966  0.6192 -0.3966  0.4243
 4537SOL    HW125244   0.233   2.960   6.997 -2.8623  0.6554  2.4897
 4537SOL    HW225245   0.162   3.087   7.005  0.6226 -1.2264  1.2170
 4538SOL     OW25246   0.219   2.641   4.134 -0.0055 -0.3068  0.1123
 4538SOL    HW125247   0.265   2.619   4.215  0.3124  2.3499  0.6484
 4538SOL    HW225248   0.283   2.699   4.093 -1.2573 -0.6910 -2.4019
 4539SOL     OW25249   2.207   2.304   3.620  0.4528 -0.1748 -1.1152
 4539SOL    HW125250   2.164   2.378   3.577  0.6732  0.1798 -0.7237
 4539SOL    HW225251   2.140   2.236   3.612  0.1486  0.0048  0.0235
 4540SOL     OW25252   0.078   1.497   3.888 -0.1842 -0.0565  0.9764
 4540SOL    HW125253   0.124   1.543   3.817 -0.8868 -1.8645 -0.6677
 4540SOL    HW225254   0.023   1.448   3.826  1.9392 -2.2303  0.7851
 4541SOL     OW25255   3.379   1.242   8.880  0.0463  0.2371  0.7239
 4541SOL    HW125256   3.350   1.319   8.930  0.2651 -0.4710  1.9544
 4541SOL    HW225257   3.314   1.181   8.915 -0.6196 -0.3694 -1.6286
 4542SOL     OW25258   3.393   4.507  11.464 -0.0096 -0.2890  0.5348
 4542SOL    HW125259   3.403   4.461  11.381  1.0905  2.3170 -0.7730
 4542SOL    HW225260   3.332   4.445  11.505 -2.6395  3.3868  2.1613
 4543SOL     OW25261   3.668   4.736  12.443  0.3904 -0.0572  0.2371
 4543SOL    HW125262   3.704   4.672  12.382 -1.0392  1.2173 -1.9200
 4543SOL    HW225263   3.736   0.062  12.428 -1.0519  0.7750 -2.5606
 4544SOL     OW25264   2.709   2.759  10.186  0.6019 -0.0641 -0.0583
 4544SOL    HW125265   2.707   2.727  10.276 -2.2305  1.6382  0.4682
 4544SOL    HW225266   2.763   2.837  10.198  4.3038 -2.2921 -2.4505
 4545SOL     OW25267   1.891   0.247   3.310  0.1410  0.1295 -0.2328
 4545SOL    HW125268   1.960   0.190   3.276  0.7687  0.3449  0.6535
 4545SOL    HW225269   1.944   0.299   3.371 -1.5517  1.6146 -0.0189
 4546SOL     OW25270   4.543   4.423   8.038 -0.1250 -0.4638 -0.0290
 4546SOL    HW125271   4.538   4.518   8.049 -1.6514 -0.3207 -1.8728
 4546SOL    HW225272   4.566   4.398   8.127 -0.3345 -1.0527 -0.1417
 4547SOL     OW25273   1.240   2.655   4.542  0.1368  0.4631 -0.3031
 4547SOL    HW125274   1.171   2.590   4.554 -0.1100  0.8431  0.3435
 4547SOL    HW225275   1.300   2.627   4.612  0.8816  0.2669 -1.0162
 4548SOL     OW25276   0.763   4.676   2.978  0.1151 -0.4885  0.3485
 4548SOL    HW125277   0.687   4.617   2.983  0.0143 -0.2531  1.6730
 4548SOL    HW225278   0.722   0.009   3.025  1.2023  0.1702  0.2751
 4549SOL     OW25279   2.987   3.099   4.257  0.0498  0.7260  0.1675
 4549SOL    HW125280   2.982   3.038   4.330  2.3031  0.6760  0.2741
 4549SOL    HW225281   3.011   3.035   4.190 -2.1175  0.4770 -0.3542
 4550SOL     OW25282   1.763   1.807   3.244 -0.0152  0.8493 -0.4242
 4550SOL    HW125283   1.719   1.734   3.202 -0.4445  1.0120 -0.2584
 4550SOL    HW225284   1.693   1.836   3.303 -0.3087  0.6301 -0.6679
 4551SOL     OW25285   0.591   3.339   8.160  0.0600  0.3059  0.1832
 4551SOL    HW125286   0.683   3.345   8.133  0.2681 -0.7692  0.6257
 4551SOL    HW225287   0.600   3.269   8.226 -2.1498  0.2041  0.3799
 4552SOL     OW25288   3.745   1.275  14.927  0.2816 -0.1002 -0.0686
 4552SOL    HW125289   3.698   1.352  14.957  2.1592  0.0132  2.5778
 4552SOL    HW225290   3.678   1.234  14.872  0.4772 -0.2930 -0.1634
 4553SOL     OW25291   1.234   3.033   5.345 -0.5914  0.0984 -0.0946
 4553SOL    HW125292   1.299   3.021   5.414 -0.1138 -0.5837 -0.6590
 4553SOL    HW225293   1.216   3.125   5.364 -0.1075  0.5972 -1.9597
 4554SOL     OW25294   2.633   3.749  15.616 -0.4522 -0.6917 -0.0001
 4554SOL    HW125295   2.725   3.724  15.626 -0.3152 -0.7472 -1.4533
 4554SOL    HW225296   2.611   3.779  15.704 -0.0768  0.4615 -0.2988
 4555SOL     OW25297   4.436   0.131   3.013 -0.2728 -0.0034  0.0775
 4555SOL    HW125298   4.364   0.186   3.043  1.1433  1.0300  1.5357
 4555SOL    HW225299   4.418   0.109   2.921  0.5571 -0.2177 -0.0309
 4556SOL     OW25300   2.030   4.153  12.904 -0.2047  0.1278  0.6123
 4556SOL    HW125301   2.091   4.092  12.861 -0.3410  0.7557 -0.4749
 4556SOL    HW225302   2.055   4.121  12.991  0.5019 -1.3134 -0.1207
 4557SOL     OW25303   1.762   3.774  11.945  0.0275 -0.0469  0.2155
 4557SOL    HW125304   1.768   3.826  12.025  1.9001 -1.8310  1.2242
 4557SOL    HW225305   1.670   3.787  11.922  0.2519 -1.1212 -1.2989
 4558SOL     OW25306   0.057   1.697   2.584  0.3328  0.4113 -0.2792
 4558SOL    HW125307   0.111   1.654   2.649 -0.3533 -0.1477 -0.0821
 4558SOL    HW225308   0.019   1.765   2.640 -1.6299 -2.8270  2.2855
 4559SOL     OW25309   1.994   2.220   7.912 -0.5141  0.0401 -0.0236
 4559SOL    HW125310   2.074   2.252   7.954 -2.1096 -0.4429  3.4412
 4559SOL    HW225311   2.005   2.127   7.934 -0.9162 -0.2296 -0.9703
 4560SOL     OW25312   2.157   0.486   0.154  0.1343 -0.2568  0.4804
 4560SOL    HW125313   2.190   0.447   0.235  0.4277 -0.6205  0.1806
 4560SOL    HW225314   2.168   0.580   0.168 -1.1602 -0.3670  2.2923
 4561SOL     OW25315   1.463   2.487   1.627 -0.5247 -0.0697 -0.2104
 4561SOL    HW125316   1.517   2.501   1.705 -2.7943  1.7155  1.0420
 4561SOL    HW225317   1.382   2.534   1.647 -0.8465 -0.6436 -0.1700
 4562SOL     OW25318   1.019   0.493   2.779 -0.2039  0.1412 -0.0053
 4562SOL    HW125319   1.050   0.538   2.857 -0.2427  1.5786 -0.7993
 4562SOL    HW225320   0.981   0.568   2.733 -1.4194 -0.3691  0.1578
 4563SOL     OW25321   1.812   3.065  17.261 -0.1753 -0.3631 -0.4021
 4563SOL    HW125322   1.870   2.992  17.285 -0.5481 -0.9913 -1.4188
 4563SOL    HW225323   1.835   3.123  17.334 -1.8877  0.0028 -0.1560
 4564SOL     OW25324   2.751   0.768   6.231 -0.2298 -0.0298  0.1644
 4564SOL    HW125325   2.655   0.764   6.231 -0.2076 -0.9427 -0.8599
 4564SOL    HW225326   2.762   0.759   6.136  1.5909  0.8935  0.3005
 4565SOL     OW25327   0.773   3.073   9.929 -0.0473  0.5903  0.2833
 4565SOL    HW125328   0.726   2.999   9.891  1.5970 -0.6370  0.6417
 4565SOL    HW225329   0.819   3.042  10.007  0.0332 -0.6347 -0.2536
 4566SOL     OW25330   3.400   4.455   3.134 -0.4847  0.4270 -0.0497
 4566SOL    HW125331   3.492   4.431   3.147 -1.0538 -0.3375  2.5178
 4566SOL    HW225332   3.378   4.365   3.108  2.3291  0.5356 -2.8862
 4567SOL     OW25333   2.338   4.573  12.410 -0.1410 -0.1930  0.1317
 4567SOL    HW125334   2.390   4.579  12.330  0.8032 -0.3826  0.7342
 4567SOL    HW225335   2.252   4.574  12.366 -0.3930  0.4464  0.6397
 4568SOL     OW25336   3.642   1.473   8.506  0.2349  0.2103 -0.0318
 4568SOL    HW125337   3.593   1.409   8.557  0.0500 -0.9492 -1.6644
 4568SOL    HW225338   3.608   1.460   8.417  2.6105 -2.4350 -0.5252
 4569SOL     OW25339   1.310   3.276   3.018 -0.0507 -0.4257 -0.1805
 4569SOL    HW125340   1.245   3.342   3.043  1.9729  1.0537  1.2020
 4569SOL    HW225341   1.391   3.316   3.048 -0.1750 -0.4842  0.2333
 4570SOL     OW25342   4.417   3.473   6.928  0.6077 -0.2130 -0.6043
 4570SOL    HW125343   4.427   3.381   6.950  0.1822 -0.1242 -0.0478
 4570SOL    HW225344   4.500   3.506   6.964  0.9419 -2.4446  0.6571
 4571SOL     OW25345   1.471   0.042   7.323 -0.4913 -0.2312 -0.3944
 4571SOL    HW125346   1.503   0.119   7.370 -1.1256 -0.7876  0.9583
 4571SOL    HW225347   1.540   0.043   7.257 -0.3682  1.8373 -0.2377
 4572SOL     OW25348   1.152   1.339   6.047 -0.0978  0.1039  0.6039
 4572SOL    HW125349   1.097   1.282   6.100 -0.6329 -0.0128 -0.0827
 4572SOL    HW225350   1.088   1.410   6.042 -1.2842 -0.8037  2.9672
 4573SOL     OW25351   2.705   4.705  14.257  0.2032  0.1696 -0.2379
 4573SOL    HW125352   2.646   4.641  14.216 -2.0874 -0.3017  3.8849
 4573SOL    HW225353   2.678   0.037  14.200  0.0760 -0.6207 -1.1889
 4574SOL     OW25354   1.903   1.465   4.439 -0.2210  0.2588 -0.4709
 4574SOL    HW125355   1.871   1.465   4.530 -1.8288  0.0233 -1.0408
 4574SOL    HW225356   1.880   1.553   4.408 -0.8121  0.0519 -0.6282
 4575SOL     OW25357   2.262   4.131   1.947  0.2081 -0.0972  0.1885
 4575SOL    HW125358   2.170   4.109   1.957  0.0891 -0.1185 -0.9742
 4575SOL    HW225359   2.284   4.096   1.861  0.1428 -0.3960  0.2928
 4576SOL     OW25360   0.397   1.300   1.261 -0.3465  0.0046  0.4642
 4576SOL    HW125361   0.337   1.270   1.193  2.1900  0.0912 -1.7911
 4576SOL    HW225362   0.357   1.385   1.278  1.5826  0.7481  1.3504
 4577SOL     OW25363   0.880   0.144   8.938  0.3329 -0.1859 -0.0070
 4577SOL    HW125364   0.918   0.070   8.891  0.5396 -0.9286  1.3513
 4577SOL    HW225365   0.878   0.106   9.026 -0.0106 -1.3333 -0.5148
 4578SOL     OW25366   4.627   1.055   1.224 -0.3237 -0.1492  0.1391
 4578SOL    HW125367   4.531   1.054   1.229 -0.3199 -0.8896  0.0366
 4578SOL    HW225368   4.650   1.066   1.131 -0.3309  0.6265  0.2239
 4579SOL     OW25369   3.704   4.513   8.954  0.4686 -0.5082  0.0934
 4579SOL    HW125370   3.629   4.460   8.926 -0.5631  1.1792 -0.3340
 4579SOL    HW225371   3.779   4.465   8.918  0.4730 -1.0510  0.8423
 4580SOL     OW25372   1.786   4.334   2.694 -0.9997  0.7383 -0.2085
 4580SOL    HW125373   1.755   4.246   2.712  0.0094  0.0111 -1.9658
 4580SOL    HW225374   1.706   4.379   2.664  0.1037  2.9052  0.0798
 4581SOL     OW25375   1.965   1.235   5.897 -0.5366 -0.3531  0.3564
 4581SOL    HW125376   2.005   1.148   5.889 -3.5596 -1.5380 -1.9480
 4581SOL    HW225377   1.884   1.244   5.847  1.2701  1.3976 -2.2430
 4582SOL     OW25378   2.127   4.690  14.350  0.8326  0.1525  0.2745
 4582SOL    HW125379   2.190   0.019  14.331 -0.0289  0.6886 -0.6172
 4582SOL    HW225380   2.170   4.609  14.324  2.3203  0.6315  1.2665
 4583SOL     OW25381   4.472   1.718   2.560 -0.1980  0.0259 -0.7068
 4583SOL    HW125382   4.497   1.703   2.652  1.8145 -1.1112 -1.4334
 4583SOL    HW225383   4.444   1.627   2.550 -0.5508  0.1561 -0.9058
 4584SOL     OW25384   1.209   4.644  11.665 -0.2886  0.3826 -0.0792
 4584SOL    HW125385   1.161   4.677  11.741 -5.7481 -1.1916 -2.7881
 4584SOL    HW225386   1.273   4.713  11.653 -0.6700  1.0355  1.5906
 4585SOL     OW25387   4.625   1.195  14.954 -0.2263  0.3432  0.1640
 4585SOL    HW125388   4.612   1.288  14.935  1.3360  0.7214  0.9591
 4585SOL    HW225389   4.573   1.160  14.882  2.3527 -0.4909 -1.2763
 4586SOL     OW25390   4.056   1.631  16.234 -0.2906  0.6887  0.5599
 4586SOL    HW125391   4.089   1.545  16.210 -1.5284  0.9436 -1.9808
 4586SOL    HW225392   4.032   1.656  16.145 -0.7796  0.6922  0.6924
 4587SOL     OW25393   1.203   1.238  15.288  0.0567 -0.3911  0.5094
 4587SOL    HW125394   1.141   1.295  15.242  0.3438  0.5370  1.2641
 4587SOL    HW225395   1.270   1.236  15.219  0.2888 -0.3173  0.7334
 4588SOL     OW25396   2.156   4.084   9.470  0.1101 -0.3740  0.3638
 4588SOL    HW125397   2.227   4.121   9.522 -0.9937 -0.9494  2.2709
 4588SOL    HW225398   2.203   4.012   9.427  1.4946 -0.3848  1.8759
 4589SOL     OW25399   0.883   0.201  15.285  0.0551 -0.0063  0.3424
 4589SOL    HW125400   0.838   0.156  15.213  0.1437  1.7721 -0.8204
 4589SOL    HW225401   0.971   0.209  15.249 -0.2753  2.8507  0.1964
 4590SOL     OW25402   0.339   0.706  15.099 -0.4364 -0.3236 -0.1210
 4590SOL    HW125403   0.408   0.674  15.040  1.6492  0.6690  1.8127
 4590SOL    HW225404   0.276   0.642  15.066  0.4967 -0.9166 -0.7811
 4591SOL     OW25405   1.283   3.610   5.891  0.2273 -0.1234  0.2615
 4591SOL    HW125406   1.275   3.629   5.797 -0.1418  1.4575  0.6133
 4591SOL    HW225407   1.196   3.632   5.925  0.3919 -0.1910  0.7211
 4592SOL     OW25408   2.146   4.582  12.700  0.2942 -0.0153 -0.4141
 4592SOL    HW125409   2.058   4.571  12.737  1.0190 -1.2964  0.9660
 4592SOL    HW225410   2.129   4.533  12.620  1.8805  0.3139 -0.9425
 4593SOL     OW25411   0.872   1.083   8.621 -0.5639  0.6929  0.2930
 4593SOL    HW125412   0.790   1.098   8.574 -0.9300  0.8477  0.9875
 4593SOL    HW225413   0.853   1.002   8.668 -0.1896  0.3003 -0.2225
 4594SOL     OW25414   2.065   2.355   4.379 -0.0227  0.7241  0.5519
 4594SOL    HW125415   2.010   2.391   4.448 -1.7251  0.9494 -0.9450
 4594SOL    HW225416   2.146   2.330   4.425  0.5051 -1.0552 -1.3180
 4595SOL     OW25417   1.530   3.666   7.159 -0.2230 -0.3559 -0.2083
 4595SOL    HW125418   1.592   3.704   7.098 -0.5897  0.7202  0.0958
 4595SOL    HW225419   1.559   3.575   7.154  1.5166  0.0472  2.7333
 4596SOL     OW25420   3.860   0.482   9.224 -0.2203 -0.4141  0.8186
 4596SOL    HW125421   3.927   0.500   9.158  0.5004  2.8407  2.4175
 4596SOL    HW225422   3.863   0.568   9.267  2.7585 -0.9986  1.7691
 4597SOL     OW25423   0.671   2.600  17.210 -0.1231  0.0680  0.0520
 4597SOL    HW125424   0.766   2.610  17.208  0.2186 -3.9482 -2.2515
 4597SOL    HW225425   0.651   2.693  17.194  1.6168  0.2075 -1.3503
 4598SOL     OW25426   3.174   3.966   5.681  0.1168 -0.1912  0.2914
 4598SOL    HW125427   3.196   3.911   5.606 -2.2313  0.9822 -1.2615
 4598SOL    HW225428   3.255   3.954   5.731 -0.5204  1.5493  1.7762
 4599SOL     OW25429   1.801   1.057   9.280  0.8913 -0.2875 -0.0828
 4599SOL    HW125430   1.767   1.003   9.209 -3.8685 -0.2276  2.1805
 4599SOL    HW225431   1.895   1.039   9.276  1.5147  3.1872 -0.7203
 4600SOL     OW25432   1.563   1.344   4.358 -0.0142 -0.3272 -0.1290
 4600SOL    HW125433   1.628   1.287   4.319  0.2167  0.6086 -1.1194
 4600SOL    HW225434   1.536   1.289   4.432 -1.9025 -1.4571 -1.6798
 4601SOL     OW25435   3.032   0.682   1.932 -0.2264 -0.3225 -0.0843
 4601SOL    HW125436   2.967   0.752   1.929  0.5193  0.5491  3.8920
 4601SOL    HW225437   2.980   0.602   1.944 -0.6620  0.3554  2.5949
 4602SOL     OW25438   1.573   1.244   6.513  0.4799 -0.4911  0.1428
 4602SOL    HW125439   1.482   1.226   6.488 -0.0890  1.6402  0.6127
 4602SOL    HW225440   1.554   1.268   6.604  0.4682  0.0720 -0.0025
 4603SOL     OW25441   0.300   2.238   0.393 -0.2173  0.6693 -0.5840
 4603SOL    HW125442   0.276   2.152   0.361  1.2448 -0.2312  0.7445
 4603SOL    HW225443   0.363   2.270   0.328  1.4213 -1.5673 -0.1039
 4604SOL     OW25444   3.957   2.063   8.204 -0.4498 -0.0832  0.0938
 4604SOL    HW125445   3.925   2.117   8.277 -2.0285  0.7875 -1.2480
 4604SOL    HW225446   3.979   1.980   8.246  0.1862  0.4209  0.7668
 4605SOL     OW25447   3.682   1.082   2.827 -0.0117  0.6297 -0.4132
 4605SOL    HW125448   3.632   1.014   2.780 -1.8701  0.7788  1.3566
 4605SOL    HW225449   3.620   1.154   2.821 -0.5615  0.1981  0.1238
 4606SOL     OW25450   2.563   1.574  13.295  0.1466  0.2407 -0.7679
 4606SOL    HW125451   2.642   1.523  13.273  0.3046  1.7156 -3.6025
 4606SOL    HW225452   2.601   1.661  13.305 -2.3723  0.9264  2.4337
 4607SOL     OW25453   1.577   4.062   4.136 -0.2787 -0.4214 -0.2408
 4607SOL    HW125454   1.589   4.144   4.087 -0.4556 -1.3743 -1.8766
 4607SOL    HW225455   1.614   3.997   4.076  1.7309  0.3086  0.2067
 4608SOL     OW25456   0.005   1.351   6.806  0.4641  0.3504 -0.5790
 4608SOL    HW125457   4.653   1.374   6.814  0.0962 -1.2418 -0.3700
 4608SOL    HW225458   4.733   1.325   6.715  0.0272 -1.3596 -0.0118
 4609SOL     OW25459   1.672   1.674  16.022 -0.6575 -0.0578 -0.5060
 4609SOL    HW125460   1.643   1.641  16.107 -0.1361  1.5193  0.2699
 4609SOL    HW225461   1.650   1.767  16.023 -0.0353  0.1185 -2.3454
 4610SOL     OW25462   3.057   1.540  11.067 -0.1017 -0.0716  0.6753
 4610SOL    HW125463   3.039   1.507  10.980 -0.2420 -1.5218  1.2593
 4610SOL    HW225464   3.119   1.611  11.048  1.2597 -1.1753  0.9688
 4611SOL     OW25465   4.016   0.825  10.073 -0.1753  0.3310 -0.1489
 4611SOL    HW125466   4.109   0.833  10.051  0.3225 -1.7541  1.1949
 4611SOL    HW225467   4.030   0.804  10.166  0.1236 -0.5494 -0.3970
 4612SOL     OW25468   4.662   2.776   4.399 -0.0420 -0.1077  0.5240
 4612SOL    HW125469   4.568   2.781   4.386  0.4442 -1.6309 -3.7171
 4612SOL    HW225470   4.683   2.684   4.381  0.3017 -0.0486  0.6126
 4613SOL     OW25471   3.523   1.038   8.301 -0.3060 -0.2845 -0.0347
 4613SOL    HW125472   3.428   1.020   8.299 -0.6424  1.2499  2.6384
 4613SOL    HW225473   3.552   0.981   8.372 -2.9287 -2.1225 -0.4200
 4614SOL     OW25474   4.315   1.286   8.564  0.0707 -0.0776  0.3447
 4614SOL    HW125475   4.389   1.225   8.559 -0.3475 -0.6471  1.1095
 4614SOL    HW225476   4.283   1.289   8.474 -0.9650 -2.0566  0.6524
 4615SOL     OW25477   2.767   4.121   7.282  0.5810 -0.2422  0.0676
 4615SOL    HW125478   2.826   4.191   7.253 -1.4468  1.6529  0.4846
 4615SOL    HW225479   2.813   4.044   7.247 -0.9240 -0.7321 -0.8648
 4616SOL     OW25480   3.294   3.211   4.110  1.0054  0.3133  0.0438
 4616SOL    HW125481   3.340   3.268   4.048  1.5687  1.3516  1.4200
 4616SOL    HW225482   3.215   3.265   4.123  1.3559  1.1470 -1.3317
 4617SOL     OW25483   2.529   3.690  10.042  0.3330  0.0415  0.1113
 4617SOL    HW125484   2.584   3.620  10.008  0.4401  0.3135 -0.2628
 4617SOL    HW225485   2.500   3.655  10.127 -0.5453  0.6769  0.0809
 4618SOL     OW25486   0.916   2.932  11.436  1.3978 -0.0328  0.1114
 4618SOL    HW125487   0.848   2.968  11.492 -0.6425 -2.4993 -0.8162
 4618SOL    HW225488   0.943   2.863  11.497  0.2094 -0.1907  0.4645
 4619SOL     OW25489   3.924   3.400  10.201  0.5391  0.5199  0.3920
 4619SOL    HW125490   3.853   3.395  10.265  0.5898 -1.1905  0.3049
 4619SOL    HW225491   3.942   3.494  10.209  2.2069  0.1671  0.8537
 4620SOL     OW25492   2.128   1.927   5.644 -0.1596 -0.4054  0.1381
 4620SOL    HW125493   2.157   1.869   5.714  1.9247 -0.4763 -0.7779
 4620SOL    HW225494   2.186   2.003   5.654  0.3183 -0.8366  0.6373
 4621SOL     OW25495   4.539   4.345   1.614 -0.6162 -0.3717 -0.1325
 4621SOL    HW125496   4.544   4.269   1.671 -0.0975  0.9019  1.4988
 4621SOL    HW225497   4.572   4.301   1.535  0.6523 -1.1454  0.8225
 4622SOL     OW25498   0.666   2.827   8.725 -0.2437 -0.1777 -0.1766
 4622SOL    HW125499   0.729   2.782   8.781 -0.7824  0.5428  1.0054
 4622SOL    HW225500   0.581   2.793   8.750 -0.2696  0.4123  0.5267
 4623SOL     OW25501   3.176   2.227   8.902  0.0075  0.3198  0.2677
 4623SOL    HW125502   3.208   2.218   8.813  0.4019  2.2046  0.2250
 4623SOL    HW225503   3.090   2.268   8.891 -0.7584 -1.6866 -1.2201
 4624SOL     OW25504   3.529   0.893   3.569 -0.4924 -0.3982 -0.3364
 4624SOL    HW125505   3.449   0.945   3.579 -0.4546 -0.3599 -0.2350
 4624SOL    HW225506   3.599   0.958   3.584 -0.1259 -0.5278 -1.4891
 4625SOL     OW25507   2.491   2.762  12.111 -0.3583  0.6643  0.6953
 4625SOL    HW125508   2.506   2.685  12.055  0.3610  0.6065  0.9777
 4625SOL    HW225509   2.399   2.751  12.137 -0.4252  0.0443  0.2346
 4626SOL     OW25510   2.293   2.189   8.417 -0.6992 -0.3387 -0.3729
 4626SOL    HW125511   2.270   2.202   8.509  1.0532  1.6516 -0.2241
 4626SOL    HW225512   2.366   2.250   8.419 -1.9962  1.2405 -0.7267
 4627SOL     OW25513   0.218   4.431   2.977 -0.5857  0.4112  0.3322
 4627SOL    HW125514   0.147   4.441   3.040 -0.7338 -1.5211  0.4503
 4627SOL    HW225515   0.218   4.340   2.949  1.7337  0.2941  0.6922
 4628SOL     OW25516   1.031   0.015   9.449  0.8661 -0.1667 -0.6919
 4628SOL    HW125517   1.022   0.085   9.513 -1.6207  0.0032 -1.2482
 4628SOL    HW225518   1.079   4.685   9.493 -2.7132 -0.3718  2.8795
 4629SOL     OW25519   1.647   1.309   5.484  0.3852  0.1760 -0.1010
 4629SOL    HW125520   1.636   1.220   5.449  2.3574 -0.2519  0.4233
 4629SOL    HW225521   1.735   1.324   5.450  0.7360 -0.2338  0.6482
 4630SOL     OW25522   1.238   3.307   0.193 -0.5992 -0.2997  0.1027
 4630SOL    HW125523   1.301   3.238   0.170  0.0353  1.4491 -3.5230
 4630SOL    HW225524   1.205   3.265   0.272  0.8865  1.3124  1.6060
 4631SOL     OW25525   3.782   1.891   1.363 -0.3589  0.0322 -0.6716
 4631SOL    HW125526   3.712   1.846   1.316 -0.4571 -0.1870 -0.3191
 4631SOL    HW225527   3.733   1.919   1.440  1.6247 -1.8669  1.2782
 4632SOL     OW25528   4.528   0.148   5.321  0.0232 -0.3989  0.2974
 4632SOL    HW125529   4.534   0.075   5.383 -0.9259 -1.8828 -1.3568
 4632SOL    HW225530   4.523   0.101   5.237  0.6451 -2.0730  1.2082
 4633SOL     OW25531   1.967   3.444  17.744  0.0509  0.3058 -0.0681
 4633SOL    HW125532   1.919   3.459   0.066 -0.6103 -0.0547 -0.3974
 4633SOL    HW225533   2.018   3.524  17.731 -1.5141  0.9450 -2.2079
 4634SOL     OW25534   3.927   0.738   9.383  0.0603  0.0616 -0.2034
 4634SOL    HW125535   3.899   0.829   9.369  0.1421  0.3616  1.5872
 4634SOL    HW225536   3.898   0.719   9.473 -0.5988 -1.3036 -0.7022
 4635SOL     OW25537   1.866   4.107   9.492 -0.1767  0.0534  0.0723
 4635SOL    HW125538   1.945   4.133   9.537 -1.1265  0.3249  1.5796
 4635SOL    HW225539   1.887   4.016   9.471  1.4171  0.2693  0.8160
 4636SOL     OW25540   4.463   1.468   4.936 -0.1981 -0.1883 -0.2716
 4636SOL    HW125541   4.432   1.379   4.919 -0.6364 -0.4729  2.0591
 4636SOL    HW225542   4.523   1.462   4.861 -0.4642 -2.3302 -0.3185
 4637SOL     OW25543   0.620   4.450   2.982  0.2132  0.3074 -0.1676
 4637SOL    HW125544   0.638   4.417   3.070  0.4290 -0.8492 -0.6412
 4637SOL    HW225545   0.531   4.484   2.989 -0.1227 -0.6539  0.2627
 4638SOL     OW25546   1.091   0.954   7.884  0.6219  0.1443  0.3594
 4638SOL    HW125547   1.135   0.953   7.969  3.3651 -2.6873 -1.1005
 4638SOL    HW225548   1.152   0.910   7.824 -0.8631 -0.7949 -0.4358
 4639SOL     OW25549   2.134   0.508   3.519 -0.2108 -0.0015  0.3544
 4639SOL    HW125550   2.201   0.550   3.573  0.7921 -0.7254 -0.3290
 4639SOL    HW225551   2.066   0.575   3.527  0.0780  0.4250 -0.7545
 4640SOL     OW25552   2.102   1.052  14.626 -0.2633  0.4742  0.0436
 4640SOL    HW125553   2.092   0.987  14.696 -1.4172  1.6878  1.0029
 4640SOL    HW225554   2.148   1.122  14.672  0.3632  0.8973 -1.2359
 4641SOL     OW25555   2.044   0.875   1.957  1.1232  0.4676  0.3687
 4641SOL    HW125556   2.113   0.939   1.966  1.3405  0.2038  0.5888
 4641SOL    HW225557   1.979   0.904   2.021  1.8564 -0.7705  1.6624
 4642SOL     OW25558   4.637   1.952   4.429  0.1931 -1.1289 -0.0336
 4642SOL    HW125559   4.583   1.877   4.404  0.3436 -0.2565 -3.0265
 4642SOL    HW225560   4.652   1.987   4.341 -0.8472  0.0125  0.2487
 4643SOL     OW25561   3.632   3.151   3.995  0.2464 -0.6393  0.2572
 4643SOL    HW125562   3.642   3.119   3.905 -0.1184 -0.8969  0.3064
 4643SOL    HW225563   3.608   3.241   3.974  1.0818 -0.4195  0.2558
 4644SOL     OW25564   3.651   0.818  10.875 -0.6998 -0.3360  0.4388
 4644SOL    HW125565   3.606   0.890  10.919 -0.2513  0.0892  0.2055
 4644SOL    HW225566   3.611   0.738  10.907 -1.0621 -0.2808  0.1124
 4645SOL     OW25567   3.197   2.119   4.016  0.3679  0.1678 -0.6156
 4645SOL    HW125568   3.288   2.125   4.043  0.8793 -1.1477 -2.0903
 4645SOL    HW225569   3.171   2.057   4.084  2.2282  0.3667  0.2771
 4646SOL     OW25570   0.805   1.375   6.915  0.4918  0.7523 -0.0522
 4646SOL    HW125571   0.878   1.321   6.886  0.0716 -0.6374  1.4580
 4646SOL    HW225572   0.794   1.335   7.001 -0.9167  2.1083  0.4028
 4647SOL     OW25573   4.375   1.929   6.365 -0.3662  0.5816  0.3855
 4647SOL    HW125574   4.285   1.922   6.398 -0.7302 -0.2918 -0.7894
 4647SOL    HW225575   4.419   1.952   6.447  0.3522  2.6809 -0.6009
 4648SOL     OW25576   1.917   1.780   5.916 -0.4380 -0.4343 -0.2718
 4648SOL    HW125577   1.949   1.839   5.984  0.5635 -0.9461 -0.2995
 4648SOL    HW225578   1.835   1.822   5.890 -0.7477 -1.6806 -1.3074
 4649SOL     OW25579   1.541   0.521   1.742 -0.0652  0.1068  0.2409
 4649SOL    HW125580   1.451   0.547   1.723  0.6317  1.9254 -0.5745
 4649SOL    HW225581   1.580   0.580   1.676 -0.4151  1.1883  1.0105
 4650SOL     OW25582   3.171   1.786   9.898  0.2413  0.1673 -0.0391
 4650SOL    HW125583   3.128   1.701   9.904 -0.1394  0.3214 -0.6278
 4650SOL    HW225584   3.231   1.766   9.826  0.9863  1.6532  0.1658
 4651SOL     OW25585   4.206   1.529   6.895  0.3480 -0.1884 -0.0634
 4651SOL    HW125586   4.192   1.503   6.804  3.8125 -0.3522 -0.5240
 4651SOL    HW225587   4.129   1.486   6.934 -2.3779  2.2648 -2.7092
 4652SOL     OW25588   3.297   3.423  15.457 -0.3577  0.2373 -0.2176
 4652SOL    HW125589   3.307   3.492  15.390 -0.2488  0.1772 -0.2639
 4652SOL    HW225590   3.280   3.475  15.535  1.1055 -0.6961  0.7238
 4653SOL     OW25591   1.302   2.202   0.998 -0.4582  0.7106  0.1086
 4653SOL    HW125592   1.340   2.265   0.936  1.8091  1.0531  1.8627
 4653SOL    HW225593   1.371   2.195   1.063 -1.5858 -2.6058  0.9199
 4654SOL     OW25594   3.206   3.013   6.027  0.7165 -0.2790 -0.6866
 4654SOL    HW125595   3.227   2.934   6.076  0.4631 -0.4333 -0.8233
 4654SOL    HW225596   3.255   3.078   6.076  2.5531  0.0797 -2.9883
 4655SOL     OW25597   4.333   0.656   7.575  0.2637 -0.5547  0.3003
 4655SOL    HW125598   4.339   0.596   7.501  0.4550  1.6624 -1.5026
 4655SOL    HW225599   4.413   0.705   7.558  0.0580  0.1340  1.2767
 4656SOL     OW25600   2.436   0.585   7.974 -0.0856 -0.4387 -0.2911
 4656SOL    HW125601   2.462   0.614   8.061  0.7939  2.0434 -1.4100
 4656SOL    HW225602   2.400   0.498   7.994  0.0200 -0.6478 -1.0340
 4657SOL     OW25603   1.386   4.318  15.600 -0.3466  0.7209 -0.2869
 4657SOL    HW125604   1.344   4.256  15.540 -0.0327 -0.2157  0.4510
 4657SOL    HW225605   1.460   4.343  15.545 -0.0781  0.0943 -0.2199
 4658SOL     OW25606   2.912   2.760   6.423 -0.1028  0.5544 -0.2830
 4658SOL    HW125607   2.994   2.780   6.378  0.9972 -1.9227  0.6035
 4658SOL    HW225608   2.882   2.683   6.374 -0.4792  0.2779  0.3873
 4659SOL     OW25609   0.880   1.769   8.534 -1.2616  0.3800 -0.0522
 4659SOL    HW125610   0.842   1.836   8.477  0.3150  1.2526 -0.0767
 4659SOL    HW225611   0.912   1.694   8.482 -2.1226 -0.6345  0.8950
 4660SOL     OW25612   1.316   1.281   6.405 -0.6306 -0.5305 -0.3926
 4660SOL    HW125613   1.222   1.275   6.390 -1.0495 -2.6204  3.0751
 4660SOL    HW225614   1.332   1.364   6.359  2.7986  0.4810  2.6542
 4661SOL     OW25615   0.061   3.136  12.502  0.1838 -0.4855  0.1077
 4661SOL    HW125616   0.068   3.111  12.594  0.3170 -1.6627 -0.2274
 4661SOL    HW225617   0.018   3.221  12.517 -1.1134 -1.3809  1.4571
 4662SOL     OW25618   3.227   0.087   8.157 -0.2210 -0.2902 -0.1579
 4662SOL    HW125619   3.263   0.145   8.091  0.8798 -3.4009 -2.2788
 4662SOL    HW225620   3.151   0.064   8.103  0.0008  2.0863 -1.4991
 4663SOL     OW25621   3.684   2.122   3.675  0.0223  0.1844 -0.5155
 4663SOL    HW125622   3.641   2.204   3.649  0.6762  0.5200 -0.5480
 4663SOL    HW225623   3.647   2.063   3.609 -0.0757  0.6418 -0.8673
 4664SOL     OW25624   2.844   2.792   9.287 -0.0505 -0.0749 -0.2316
 4664SOL    HW125625   2.834   2.821   9.196 -1.2124 -3.1673 -1.1280
 4664SOL    HW225626   2.832   2.880   9.322 -0.2274  0.3780 -1.4202
 4665SOL     OW25627   4.211   3.667   3.875  0.9271  0.8542  0.5720
 4665SOL    HW125628   4.145   3.677   3.943  0.1453  0.4131 -0.1107
 4665SOL    HW225629   4.227   3.573   3.883  0.1346  0.6391 -0.3158
 4666SOL     OW25630   4.659   0.189   6.287  0.7073  0.7918  0.0334
 4666SOL    HW125631   4.656   0.218   6.378  2.3103  2.2989 -0.3827
 4666SOL    HW225632   0.010   0.215   6.275  1.1517 -0.0289  1.6998
 4667SOL     OW25633   1.351   0.486   6.662 -0.4854 -0.1143  0.1486
 4667SOL    HW125634   1.311   0.401   6.642  2.3578 -1.0736 -1.4556
 4667SOL    HW225635   1.377   0.518   6.575  2.0381  1.7689  1.6109
 4668SOL     OW25636   0.755   2.212   5.001  0.0233  0.1032 -0.1784
 4668SOL    HW125637   0.764   2.248   5.089 -0.7448 -0.0738 -0.0315
 4668SOL    HW225638   0.675   2.252   4.966 -1.2716 -2.4659 -0.1304
 4669SOL     OW25639   0.143   4.723  14.005  0.2723 -0.5025  0.6611
 4669SOL    HW125640   0.197   4.649  13.977  0.7530 -0.1392  0.6237
 4669SOL    HW225641   0.160   0.004  14.097 -1.2642 -0.7561  0.9960
 4670SOL     OW25642   2.777   4.473   6.784 -0.1833 -0.0093  0.4522
 4670SOL    HW125643   2.788   4.568   6.774  1.8488 -0.1898  0.8834
 4670SOL    HW225644   2.834   4.441   6.713 -1.1429 -0.6862 -0.0013
 4671SOL     OW25645   4.681   0.132   4.527  0.2332 -0.0333  0.0523
 4671SOL    HW125646   4.718   0.044   4.534 -1.7893 -0.8928 -0.2381
 4671SOL    HW225647   4.587   0.118   4.515  0.0386  1.4721 -0.2574
 4672SOL     OW25648   2.774   3.624  17.574 -0.1744 -0.0989 -0.0358
 4672SOL    HW125649   2.868   3.630  17.592 -0.4149 -0.0364  1.1997
 4672SOL    HW225650   2.777   3.578  17.491  2.2097  0.4978 -0.2841
 4673SOL     OW25651   1.579   2.611   7.305 -0.8175  0.1652 -0.2179
 4673SOL    HW125652   1.527   2.567   7.373 -1.7528  1.3589 -0.1565
 4673SOL    HW225653   1.524   2.584   7.231 -2.0419  0.0609  0.7315
 4674SOL     OW25654   2.476   3.287  16.468  0.0071 -0.1978 -0.0850
 4674SOL    HW125655   2.454   3.346  16.395  0.6105 -0.7225 -0.6910
 4674SOL    HW225656   2.462   3.201  16.427 -2.2584  0.5207 -0.8346
 4675SOL     OW25657   3.568   2.869   3.425  0.0273 -0.5690 -0.4928
 4675SOL    HW125658   3.516   2.871   3.505  1.3078 -1.1577  0.3549
 4675SOL    HW225659   3.582   2.960   3.398  0.5091 -0.9591 -1.5356
 4676SOL     OW25660   3.369   3.255   9.282 -0.6364  0.4705 -0.1039
 4676SOL    HW125661   3.345   3.292   9.367 -3.0994 -0.5146 -0.3645
 4676SOL    HW225662   3.345   3.164   9.296  0.6369  0.5439  2.4893
 4677SOL     OW25663   0.792   1.572   3.757 -0.3168  0.9608 -0.2496
 4677SOL    HW125664   0.797   1.486   3.716 -1.6479  0.1976  1.2198
 4677SOL    HW225665   0.698   1.588   3.746 -0.6676 -1.5597 -0.9130
 4678SOL     OW25666   2.091   0.795   5.885 -0.2914  0.3106  0.4033
 4678SOL    HW125667   2.098   0.723   5.823  2.2413  0.5287  0.4176
 4678SOL    HW225668   2.167   0.847   5.859  0.7115 -1.4364 -0.1196
 4679SOL     OW25669   3.014   2.215   6.815 -0.0698 -0.3664  0.0483
 4679SOL    HW125670   3.097   2.249   6.781 -1.5043  2.9797 -0.1087
 4679SOL    HW225671   3.021   2.240   6.907  0.4202 -0.1738 -0.0405
 4680SOL     OW25672   2.462   3.120  15.118 -0.3402  0.0976 -0.1826
 4680SOL    HW125673   2.528   3.187  15.104 -1.4260  1.2374  0.1694
 4680SOL    HW225674   2.464   3.105  15.213  2.7605  1.5471 -0.0400
 4681SOL     OW25675   4.015   3.504  13.068 -0.1273  0.1080  0.0352
 4681SOL    HW125676   3.987   3.591  13.093 -2.6809 -1.5717  3.0307
 4681SOL    HW225677   4.102   3.497  13.108 -0.7546 -3.2255  0.8166
 4682SOL     OW25678   4.407   3.401   5.967  0.2774  0.2040  0.2732
 4682SOL    HW125679   4.324   3.444   5.989  0.2724 -0.2994  1.2088
 4682SOL    HW225680   4.441   3.391   6.056  2.3902  1.8026 -0.3776
 4683SOL     OW25681   2.637   0.959   6.762 -0.0059 -0.1738 -0.6743
 4683SOL    HW125682   2.610   0.916   6.681 -0.2092 -0.2698 -0.5558
 4683SOL    HW225683   2.563   1.012   6.792  0.1273 -0.3205 -0.0753
 4684SOL     OW25684   2.158   2.613   3.791  0.2210  1.0238 -0.0007
 4684SOL    HW125685   2.136   2.529   3.830 -0.4683  1.4513  0.5289
 4684SOL    HW225686   2.074   2.629   3.748 -0.4641  2.4122  1.8518
 4685SOL     OW25687   3.883   4.336  13.667 -0.6241 -0.7128 -0.3268
 4685SOL    HW125688   3.924   4.290  13.741  1.4230 -3.4889 -3.2078
 4685SOL    HW225689   3.795   4.338  13.705 -0.5161 -2.5103  0.0320
 4686SOL     OW25690   1.534   4.548   5.653  0.0091  0.0017 -0.3073
 4686SOL    HW125691   1.594   4.483   5.617  1.7921  1.4365  0.1051
 4686SOL    HW225692   1.476   4.560   5.577  1.2404  1.2123 -1.0570
 4687SOL     OW25693   4.302   1.339   2.996 -0.0830  0.7136  0.4763
 4687SOL    HW125694   4.319   1.250   3.027  1.4440  0.6191 -0.6379
 4687SOL    HW225695   4.249   1.375   3.067  0.6071 -3.7412  3.2269
 4688SOL     OW25696   4.169   1.855   1.957  0.3253 -0.0479  0.7513
 4688SOL    HW125697   4.137   1.907   1.884 -0.2438 -2.5541 -0.7830
 4688SOL    HW225698   4.263   1.877   1.960 -0.2227  2.2808  0.7571
 4689SOL     OW25699   4.084   1.921   5.485 -0.1794  0.0781  0.7372
 4689SOL    HW125700   3.988   1.926   5.486 -0.2267 -0.9214  0.9653
 4689SOL    HW225701   4.091   1.932   5.390  1.5092 -0.6475  0.7810
 4690SOL     OW25702   2.771   4.422  10.009 -0.1919 -0.3810  0.3196
 4690SOL    HW125703   2.711   4.358  10.047  0.4048 -1.4132 -0.4522
 4690SOL    HW225704   2.748   4.504  10.052 -0.8942  0.4087 -1.5545
 4691SOL     OW25705   0.131   1.311   2.790 -0.2388  0.0613 -0.1346
 4691SOL    HW125706   0.117   1.239   2.851  1.1522  1.1312  1.4537
 4691SOL    HW225707   0.061   1.370   2.820 -1.2390 -1.0613 -0.2870
 4692SOL     OW25708   0.633   3.450   6.113 -0.1699 -0.4277 -0.0437
 4692SOL    HW125709   0.668   3.539   6.109 -0.8040 -0.1228  1.2562
 4692SOL    HW225710   0.711   3.404   6.145 -0.0896  0.8581  1.6005
 4693SOL     OW25711   4.516   1.796   3.437 -0.1989  0.0941 -0.8990
 4693SOL    HW125712   4.534   1.890   3.437 -2.0897  0.4770 -0.4809
 4693SOL    HW225713   4.548   1.763   3.353  3.5332 -0.7948  0.8920
 4694SOL     OW25714   1.722   3.776   5.674 -0.1685 -0.1828 -0.3675
 4694SOL    HW125715   1.641   3.803   5.717 -0.8513 -2.5047 -0.1868
 4694SOL    HW225716   1.771   3.737   5.746  0.3675 -0.3613 -0.8228
 4695SOL     OW25717   0.422   0.296   2.533  0.3467  0.4497 -0.1262
 4695SOL    HW125718   0.457   0.207   2.528  0.4836  0.5825 -1.4991
 4695SOL    HW225719   0.507   0.337   2.518 -0.7498  2.1165 -1.7489
 4696SOL     OW25720   3.547   1.145   2.094 -0.3278  0.0823  0.4988
 4696SOL    HW125721   3.454   1.128   2.085 -0.7686  1.3816  2.5611
 4696SOL    HW225722   3.578   1.062   2.056 -1.8164  0.5303 -1.6279
 4697SOL     OW25723   4.384   0.941   5.155  0.1298  0.0239  0.4747
 4697SOL    HW125724   4.297   0.939   5.195  0.9759  1.5597  2.4172
 4697SOL    HW225725   4.444   0.938   5.229  0.9582 -1.2876 -0.2648
 4698SOL     OW25726   0.701   3.932   5.590  0.4540 -0.1968 -0.2597
 4698SOL    HW125727   0.657   3.864   5.642 -2.6896  2.2073  0.2530
 4698SOL    HW225728   0.751   3.983   5.653  0.5667  1.6031 -1.8039
 4699SOL     OW25729   1.756   3.042  15.623 -0.3269 -0.4395 -1.1205
 4699SOL    HW125730   1.729   3.028  15.714 -0.0458 -1.7118 -1.2360
 4699SOL    HW225731   1.675   3.083  15.594 -1.2334 -1.1937  0.3290
 4700SOL     OW25732   1.450   3.735   8.751 -0.0428 -0.0304 -0.2833
 4700SOL    HW125733   1.487   3.743   8.663  1.5034  0.9419  0.4508
 4700SOL    HW225734   1.488   3.814   8.789 -0.9070 -0.5219  1.6179
 4701SOL     OW25735   2.026   0.636   5.399  0.1282  0.1293 -0.1134
 4701SOL    HW125736   1.980   0.716   5.372  0.1723  0.6668  1.4174
 4701SOL    HW225737   2.024   0.635   5.495  1.2073  0.7024 -0.0914
 4702SOL     OW25738   1.888   1.832   2.172  0.2854  0.1091 -0.2014
 4702SOL    HW125739   1.980   1.806   2.176  0.9262  1.9591 -2.3612
 4702SOL    HW225740   1.849   1.750   2.200  1.1844 -0.1367  0.3071
 4703SOL     OW25741   0.832   2.888   7.958 -0.0927 -0.1756 -0.4375
 4703SOL    HW125742   0.772   2.814   7.952 -1.4759  0.7976  1.4945
 4703SOL    HW225743   0.853   2.896   7.865 -0.8831 -0.3921 -0.6352
 4704SOL     OW25744   0.073   2.352   8.710  0.0260  0.5548 -0.0003
 4704SOL    HW125745   0.125   2.344   8.790  1.8592  1.6256 -1.0836
 4704SOL    HW225746   0.073   2.447   8.707  1.0012  0.5348 -0.7725
 4705SOL     OW25747   3.004   3.580   6.504 -0.4210  0.3021  0.4759
 4705SOL    HW125748   3.087   3.538   6.481  0.1340  1.6456  0.0326
 4705SOL    HW225749   3.035   3.663   6.540  2.8363 -0.6658 -0.0227
 4706SOL     OW25750   4.302   2.474   7.774  0.1593  0.0727 -0.2287
 4706SOL    HW125751   4.293   2.453   7.867 -0.0936  2.5365  0.3040
 4706SOL    HW225752   4.214   2.471   7.737  1.7798 -0.4286 -4.0211
 4707SOL     OW25753   1.342   0.644   7.194  0.1307 -0.2254 -0.1300
 4707SOL    HW125754   1.416   0.698   7.223  0.3140  0.0040 -1.0272
 4707SOL    HW225755   1.343   0.641   7.099  0.1515  0.2527 -0.1457
 4708SOL     OW25756   2.502   2.577   2.425  0.3221  0.6682 -0.3038
 4708SOL    HW125757   2.413   2.566   2.391 -0.3700 -0.6077  1.9512
 4708SOL    HW225758   2.490   2.656   2.478 -0.2071 -0.1069  0.7184
 4709SOL     OW25759   2.892   0.491   5.484 -0.3720 -0.3525  0.3569
 4709SOL    HW125760   2.945   0.450   5.416 -0.8620  0.4339 -0.4970
 4709SOL    HW225761   2.833   0.550   5.437  1.5491  0.1984 -1.3419
 4710SOL     OW25762   4.010   1.762   6.985  0.0461 -0.3706 -0.5020
 4710SOL    HW125763   4.036   1.819   7.057 -2.1043 -1.6560  1.2959
 4710SOL    HW225764   4.086   1.705   6.976 -0.5847 -1.4484  0.9947
 4711SOL     OW25765   0.939   3.174   4.041 -0.0223 -0.0273  0.1838
 4711SOL    HW125766   0.936   3.133   4.127 -0.5700 -0.7253 -0.1688
 4711SOL    HW225767   0.971   3.110   3.978  0.9612  2.9882 -2.3903
 4712SOL     OW25768   2.566   0.783   0.018  0.3878  0.5914 -0.3291
 4712SOL    HW125769   2.482   0.826   0.004  0.8774  1.6300 -0.0384
 4712SOL    HW225770   2.528   0.697   0.039  1.6864  0.1554  0.2267
 4713SOL     OW25771   2.476   2.187  11.108 -0.8928  0.6362  0.1346
 4713SOL    HW125772   2.399   2.203  11.162  0.6492 -0.6860  2.7134
 4713SOL    HW225773   2.550   2.222  11.157  1.0040 -0.4006 -1.9477
 4714SOL     OW25774   1.658   2.726   8.016  0.5765 -0.0335 -0.2913
 4714SOL    HW125775   1.654   2.701   8.109  1.0927 -0.8068 -0.4832
 4714SOL    HW225776   1.744   2.766   8.030  0.9889 -1.6601  1.9110
 4715SOL     OW25777   2.700   3.006   6.950  0.1539 -0.0388 -0.1219
 4715SOL    HW125778   2.771   3.023   7.011 -0.5854  1.7992  0.2209
 4715SOL    HW225779   2.626   2.989   7.008  0.1267  0.0611 -0.1275
 4716SOL     OW25780   3.158   3.937   6.429  0.4703 -0.3924  0.4032
 4716SOL    HW125781   3.203   4.021   6.432  2.7664 -1.6298  0.7536
 4716SOL    HW225782   3.107   3.940   6.510 -0.2594 -3.1678  0.0764
 4717SOL     OW25783   1.448   3.430  10.092 -0.3209 -0.4378  0.2472
 4717SOL    HW125784   1.517   3.477  10.138  0.2306 -0.1818 -0.8605
 4717SOL    HW225785   1.447   3.478  10.010 -0.1273  0.3566  0.7082
 4718SOL     OW25786   0.459   0.527  16.302 -0.5002 -0.3018  0.1465
 4718SOL    HW125787   0.476   0.542  16.209  1.5224 -0.6966  0.4507
 4718SOL    HW225788   0.533   0.473  16.327 -0.1297  0.3201  0.4081
 4719SOL     OW25789   3.585   4.259   6.593 -0.1501  0.5145  0.4174
 4719SOL    HW125790   3.613   4.350   6.597  1.3034  0.1765 -2.1044
 4719SOL    HW225791   3.618   4.230   6.508  3.2447  1.6188  1.3670
 4720SOL     OW25792   2.554   2.183   2.865  0.3570  0.5646  0.0100
 4720SOL    HW125793   2.569   2.129   2.787 -0.6075  0.0661  0.1705
 4720SOL    HW225794   2.463   2.158   2.881  0.5132  0.7769  1.2281
 4721SOL     OW25795   4.389   2.136   3.938 -0.3252  0.5159  0.0170
 4721SOL    HW125796   4.401   2.133   3.843 -0.9885  1.1012 -0.0822
 4721SOL    HW225797   4.408   2.229   3.950 -1.0964  0.7803 -0.8024
 4722SOL     OW25798   2.277   0.414   5.935  0.0745 -0.6472  0.1247
 4722SOL    HW125799   2.229   0.357   5.995 -2.1024  0.8597 -0.1613
 4722SOL    HW225800   2.282   0.495   5.986  0.4735  0.3757 -1.5312
 4723SOL     OW25801   4.174   3.437   4.184 -0.2644  0.4801 -0.1643
 4723SOL    HW125802   4.232   3.512   4.201 -0.9290  1.5700 -2.8023
 4723SOL    HW225803   4.107   3.452   4.251  1.3181  0.6788  1.3824
 4724SOL     OW25804   4.413   3.936   5.919 -0.3137  0.0785  0.3599
 4724SOL    HW125805   4.318   3.949   5.931 -0.2841 -0.0128  0.7169
 4724SOL    HW225806   4.442   3.946   6.010  1.5394  0.3846 -0.2838
 4725SOL     OW25807   1.509   2.014   9.573 -0.2347  0.7934  0.2048
 4725SOL    HW125808   1.589   1.976   9.610 -0.3313  1.8430  1.5132
 4725SOL    HW225809   1.527   1.987   9.483 -0.7287  0.0670  0.3301
 4726SOL     OW25810   4.415   1.826   7.256 -0.2646  0.4262  0.6588
 4726SOL    HW125811   4.419   1.746   7.203  0.3843  1.3885 -0.7298
 4726SOL    HW225812   4.440   1.797   7.344  0.4879  0.5079  0.4748
 4727SOL     OW25813   3.429   1.859   6.712  0.2965 -0.4591 -0.1357
 4727SOL    HW125814   3.438   1.856   6.807 -1.0099 -0.4784 -0.0132
 4727SOL    HW225815   3.505   1.811   6.678 -1.0230 -0.7707 -2.6867
 4728SOL     OW25816   2.422   2.834   3.289 -0.1268  0.0856  0.0472
 4728SOL    HW125817   2.359   2.778   3.334 -0.9086  1.4769  0.6936
 4728SOL    HW225818   2.362   2.887   3.237 -0.4644  0.4919  0.8395
 4729SOL     OW25819   3.246   1.215  13.615 -0.4874  0.0698  0.2654
 4729SOL    HW125820   3.185   1.287  13.607 -1.7291 -0.9332  0.6692
 4729SOL    HW225821   3.306   1.227  13.542 -0.0362  1.9539  0.9595
 4730SOL     OW25822   3.824   4.581   9.600 -0.5718 -0.4987  0.2039
 4730SOL    HW125823   3.769   4.573   9.521 -3.0615  1.1108  1.7655
 4730SOL    HW225824   3.862   4.666   9.577 -1.0336 -0.6194 -1.0283
 4731SOL     OW25825   0.101   1.067   0.795 -0.3837 -0.1041  0.1419
 4731SOL    HW125826   0.081   1.094   0.885 -0.9142 -0.5748  0.1637
 4731SOL    HW225827   0.147   0.984   0.807 -2.3814 -1.3895 -1.0405
 4732SOL     OW25828   1.594   1.549   2.870  0.3821 -0.5164  0.7512
 4732SOL    HW125829   1.668   1.487   2.877  0.0348 -1.1133 -0.9276
 4732SOL    HW225830   1.603   1.599   2.789 -2.4200 -0.8689  0.2287
 4733SOL     OW25831   0.971   3.075   8.603  0.3528 -0.8509  0.0133
 4733SOL    HW125832   0.946   3.049   8.692  0.6444  0.5770  0.5250
 4733SOL    HW225833   1.044   3.016   8.591  0.0456 -0.3435 -4.1889
 4734SOL     OW25834   1.801   0.043   2.374 -0.1768  0.4745  0.3903
 4734SOL    HW125835   1.802   0.036   2.278  0.9291  0.6550  0.3853
 4734SOL    HW225836   1.716   0.080   2.394 -1.0624 -0.4871 -1.5666
 4735SOL     OW25837   4.524   2.593   6.654  0.0063  0.0555 -0.3459
 4735SOL    HW125838   4.614   2.572   6.680  0.6497  0.7839 -2.0135
 4735SOL    HW225839   4.483   2.513   6.623  2.6560 -1.1732 -0.7056
 4736SOL     OW25840   0.564   0.057   2.507 -0.1321  0.1366  0.4614
 4736SOL    HW125841   0.610   0.023   2.584 -0.5152 -1.2590  0.0870
 4736SOL    HW225842   0.585   4.724   2.449  1.1445 -0.2693  1.4548
 4737SOL     OW25843   0.507   2.149   2.669  0.4580  0.1476  0.1378
 4737SOL    HW125844   0.459   2.153   2.586 -0.4541 -2.9142  0.5151
 4737SOL    HW225845   0.489   2.240   2.695 -1.8177 -0.4911  0.8360
 4738SOL     OW25846   3.973   0.613   7.676  0.6977 -0.1346 -0.5196
 4738SOL    HW125847   4.025   0.535   7.655  1.3450  0.8696 -2.7654
 4738SOL    HW225848   4.039   0.674   7.709  0.5364  0.4566 -1.2869
 4739SOL     OW25849   1.576   3.979  15.906  0.6248 -0.1438 -0.2656
 4739SOL    HW125850   1.584   4.073  15.895 -0.1965 -0.1542 -0.9301
 4739SOL    HW225851   1.562   3.966  15.999 -0.5160 -2.7720 -0.7832
 4740SOL     OW25852   3.785   3.026   2.686 -0.2557 -0.1676  0.5413
 4740SOL    HW125853   3.736   3.109   2.689 -0.4914 -0.3707  2.0710
 4740SOL    HW225854   3.753   2.980   2.608  0.2424  0.1888  0.1278
 4741SOL     OW25855   0.617   1.471   1.541  0.5024 -0.0364 -0.2848
 4741SOL    HW125856   0.609   1.553   1.493  1.6613  0.9670  1.2769
 4741SOL    HW225857   0.536   1.469   1.592  1.8585  1.6570  1.9099
 4742SOL     OW25858   0.790   2.972  13.540  0.3162 -0.1753  0.8734
 4742SOL    HW125859   0.735   3.038  13.498  1.3761  1.5124  2.1265
 4742SOL    HW225860   0.757   2.893  13.498  3.0475 -1.7166  1.6883
 4743SOL     OW25861   1.524   4.279   0.435 -0.9275 -0.4465 -0.3337
 4743SOL    HW125862   1.494   4.313   0.352  0.8874  0.8441 -0.4701
 4743SOL    HW225863   1.595   4.224   0.400 -1.0847 -0.1346 -1.1201
 4744SOL     OW25864   3.617   1.130   3.418 -0.3907 -0.6924  0.4863
 4744SOL    HW125865   3.619   1.205   3.478  1.5564 -0.1802 -0.2424
 4744SOL    HW225866   3.681   1.152   3.351 -1.0457 -0.5955 -0.1119
 4745SOL     OW25867   0.122   0.419   8.766 -0.3656 -0.1966 -0.0815
 4745SOL    HW125868   0.031   0.445   8.783 -0.3477 -0.6493  0.7135
 4745SOL    HW225869   0.111   0.324   8.755  0.5761 -0.5731  2.2418
 4746SOL     OW25870   3.516   1.017   9.061  0.4398 -0.0220  0.2799
 4746SOL    HW125871   3.490   0.983   9.147 -0.0473 -0.3942 -0.0088
 4746SOL    HW225872   3.432   1.017   9.015 -1.0886  1.1734  3.0700
 4747SOL     OW25873   2.045   4.068   9.113  0.2647 -0.5803  0.2140
 4747SOL    HW125874   2.045   4.108   9.200  2.4159 -0.6025  0.2416
 4747SOL    HW225875   2.132   4.100   9.088  0.2758  0.1966  1.2094
 4748SOL     OW25876   1.852   4.135  11.820  0.1114 -0.1249 -0.2037
 4748SOL    HW125877   1.906   4.132  11.741 -1.4088 -1.4375 -1.1728
 4748SOL    HW225878   1.899   4.066  11.867  0.6128  0.0837 -0.4038
 4749SOL     OW25879   3.214   1.419   6.282 -0.5275  0.0040  0.1412
 4749SOL    HW125880   3.302   1.445   6.253 -1.5209  0.3355 -2.4803
 4749SOL    HW225881   3.230   1.358   6.355  1.1696 -0.0754 -0.2840
 4750SOL     OW25882   2.741   2.194   3.324 -0.3979  0.4635 -0.3243
 4750SOL    HW125883   2.675   2.260   3.302 -2.4824 -2.4124 -2.7789
 4750SOL    HW225884   2.694   2.135   3.383 -1.0836 -2.3110 -3.6324
 4751SOL     OW25885   4.537   2.046  16.498  0.2645  0.3103  0.1723
 4751SOL    HW125886   4.471   2.053  16.566  0.2253 -1.7938  0.3431
 4751SOL    HW225887   4.602   1.988  16.537 -0.4938  1.3311  2.9630
 4752SOL     OW25888   3.614   1.209   4.583  0.5737  0.3532 -0.6941
 4752SOL    HW125889   3.709   1.197   4.571 -0.0426 -2.2727 -2.7798
 4752SOL    HW225890   3.610   1.296   4.623 -2.8625  1.6942 -3.9660
 4753SOL     OW25891   0.607   4.243   2.752  0.2502 -0.4283 -0.3535
 4753SOL    HW125892   0.596   4.314   2.814 -0.9054 -0.5336 -0.4503
 4753SOL    HW225893   0.626   4.163   2.801 -2.9949 -0.7416  0.3389
 4754SOL     OW25894   3.516   4.268   7.560 -0.0242  0.6023 -0.0687
 4754SOL    HW125895   3.527   4.265   7.465  0.5876 -4.2232  0.1163
 4754SOL    HW225896   3.588   4.210   7.586 -1.1860 -0.8470 -0.0908
 4755SOL     OW25897   0.086   3.168   2.877  0.2539  0.1307  0.8090
 4755SOL    HW125898   0.132   3.205   2.952  0.5185  0.7800  0.3288
 4755SOL    HW225899   4.737   3.200   2.894  0.8505  2.4750 -0.5006
 4756SOL     OW25900   2.774   2.427   4.956  0.4592 -0.3663 -0.1964
 4756SOL    HW125901   2.838   2.367   4.994  0.1610 -0.6362 -0.1179
 4756SOL    HW225902   2.710   2.434   5.027 -0.4173  0.2697 -1.0346
 4757SOL     OW25903   4.384   1.533   4.276  0.0530  0.1924  0.0950
 4757SOL    HW125904   4.464   1.492   4.244 -0.6407  0.1108 -1.5674
 4757SOL    HW225905   4.336   1.456   4.306 -0.6975  1.5755  2.4057
 4758SOL     OW25906   0.290   0.194   5.537  0.2460  0.3331  0.3199
 4758SOL    HW125907   0.239   0.159   5.464  0.8003 -0.0547  0.1243
 4758SOL    HW225908   0.227   0.255   5.577 -0.6605 -1.0138  0.9522
 4759SOL     OW25909   1.269   1.687   0.724  0.1526  0.7416 -0.1686
 4759SOL    HW125910   1.190   1.644   0.757 -0.4137  1.1844 -0.9396
 4759SOL    HW225911   1.226   1.771   0.707 -2.4076 -0.9346 -2.0480
 4760SOL     OW25912   0.372   1.602   8.671  0.3013 -0.6240 -0.5832
 4760SOL    HW125913   0.453   1.591   8.622 -0.5658 -2.7554 -1.5263
 4760SOL    HW225914   0.332   1.672   8.620  0.2274 -0.8216 -0.7931
 4761SOL     OW25915   0.140   3.958   4.480  0.0914 -0.4080  0.0234
 4761SOL    HW125916   0.183   3.913   4.553 -2.0458 -1.8964  0.3501
 4761SOL    HW225917   0.147   3.889   4.414  0.0987 -2.0740  1.7828
 4762SOL     OW25918   2.812   4.681   7.467 -0.2562 -0.7950 -0.6004
 4762SOL    HW125919   2.787   0.017   7.414  2.4238 -1.3860 -2.7139
 4762SOL    HW225920   2.783   4.609   7.412  1.9213 -2.0744 -0.0652
 4763SOL     OW25921   1.801   2.935   9.731  0.4389  0.0720 -0.0138
 4763SOL    HW125922   1.744   2.924   9.655  1.8784 -2.9516 -0.6826
 4763SOL    HW225923   1.734   2.910   9.795  1.7147 -2.1651  0.4847
 4764SOL     OW25924   0.673   1.908  10.239  0.0995  0.1521 -0.2311
 4764SOL    HW125925   0.636   1.872  10.319 -0.4376  2.2510  0.4820
 4764SOL    HW225926   0.757   1.862  10.239  0.2442  0.4131  0.2134
 4765SOL     OW25927   3.826   3.705  11.179  0.4536 -0.2612  0.1820
 4765SOL    HW125928   3.921   3.693  11.185  0.4144 -1.2915 -1.2455
 4765SOL    HW225929   3.795   3.616  11.200  0.6064 -0.3751 -0.0763
 4766SOL     OW25930   2.020   0.860   9.215  0.4098  0.0323 -0.1909
 4766SOL    HW125931   2.080   0.788   9.233  0.8747  0.5680  0.4403
 4766SOL    HW225932   2.057   0.888   9.131 -0.4304 -0.8760 -0.8465
 4767SOL     OW25933   1.815   1.190   4.323  0.3246 -0.4585 -0.5739
 4767SOL    HW125934   1.853   1.263   4.275  0.6630 -1.1263 -1.3111
 4767SOL    HW225935   1.821   1.220   4.414 -1.4651 -0.7192 -0.3692
 4768SOL     OW25936   0.283   4.094  16.943 -0.3098  0.2211 -0.5230
 4768SOL    HW125937   0.359   4.074  16.888  0.3026  1.0070  0.0289
 4768SOL    HW225938   0.244   4.168  16.896 -1.0866  1.4076  1.9849
 4769SOL     OW25939   1.105   1.252   4.764 -0.3580  0.2106 -0.1170
 4769SOL    HW125940   1.146   1.207   4.839 -1.1378 -1.6146 -0.7705
 4769SOL    HW225941   1.058   1.317   4.816  1.3863  1.9499 -0.7138
 4770SOL     OW25942   4.374   1.889   6.108 -0.1878 -0.3361 -0.1118
 4770SOL    HW125943   4.295   1.931   6.073  0.6640  0.4572 -1.0636
 4770SOL    HW225944   4.366   1.919   6.199 -1.5212  2.6353 -1.1989
 4771SOL     OW25945   3.006   4.495   5.178 -0.4022 -0.1353 -0.3541
 4771SOL    HW125946   2.980   4.424   5.119 -1.7300  1.2279 -1.3974
 4771SOL    HW225947   2.981   4.453   5.261  0.1924 -0.2299 -0.2206
 4772SOL     OW25948   1.235   2.747   2.723  0.1857  0.2173 -0.6123
 4772SOL    HW125949   1.302   2.710   2.781  0.8459  0.1305 -1.4352
 4772SOL    HW225950   1.172   2.784   2.785 -0.3411  0.0921 -1.0736
 4773SOL     OW25951   3.475   4.706   8.250 -0.1864  0.4278 -0.0585
 4773SOL    HW125952   3.501   4.713   8.341 -0.3515 -0.6022  0.0680
 4773SOL    HW225953   3.391   0.010   8.244 -0.9500 -1.2908 -2.0719
 4774SOL     OW25954   0.087   1.304  12.208  0.4879  0.0609  0.4315
 4774SOL    HW125955   4.739   1.269  12.191 -0.2495  2.2474 -0.2895
 4774SOL    HW225956   0.147   1.230  12.209  1.9149  1.2148  0.5901
 4775SOL     OW25957   1.395   0.888   8.050  0.2642 -0.0438 -0.1690
 4775SOL    HW125958   1.391   0.978   8.021  0.6644 -1.2170 -3.8095
 4775SOL    HW225959   1.311   0.882   8.095  1.0704 -1.5242  1.2048
 4776SOL     OW25960   0.333   2.109   6.766  0.7850  0.1479 -0.4319
 4776SOL    HW125961   0.257   2.166   6.755  0.7661  0.2069  0.0129
 4776SOL    HW225962   0.354   2.095   6.673 -1.9936 -3.1510 -0.5918
 4777SOL     OW25963   0.149   1.549   4.250  0.1362  0.1500 -0.3749
 4777SOL    HW125964   0.223   1.500   4.213 -0.9572 -1.8206  0.1023
 4777SOL    HW225965   0.189   1.605   4.317 -1.3132  0.6721  0.0435
 4778SOL     OW25966   3.710   2.501  10.560  0.2843  0.0653 -0.1862
 4778SOL    HW125967   3.624   2.497  10.517 -0.3995 -3.5987  1.5255
 4778SOL    HW225968   3.746   2.585  10.532  0.0357 -0.5148 -2.2475
 4779SOL     OW25969   0.245   3.086   4.382  0.2370  0.2951  0.1789
 4779SOL    HW125970   0.307   3.070   4.310 -0.9467 -0.1673 -0.7342
 4779SOL    HW225971   0.243   3.001   4.427  0.4119  0.0772 -0.2215
 4780SOL     OW25972   1.533   3.497   8.873  0.2508 -0.5611 -0.1786
 4780SOL    HW125973   1.515   3.415   8.827 -0.3604 -0.4257 -0.1822
 4780SOL    HW225974   1.504   3.558   8.805  1.0813  0.3159  0.2553
 4781SOL     OW25975   0.166   4.333   2.596  0.0590 -0.8885  0.5182
 4781SOL    HW125976   0.213   4.404   2.640 -0.2387 -0.3352 -0.0685
 4781SOL    HW225977   0.142   4.362   2.508  0.2753  0.4500  0.9095
 4782SOL     OW25978   2.981   4.450   6.181 -0.2925 -0.2467 -0.3337
 4782SOL    HW125979   2.943   4.500   6.253 -1.8175  0.2223 -1.4494
 4782SOL    HW225980   2.922   4.483   6.114 -0.7193 -1.6096 -0.6440
 4783SOL     OW25981   0.854   0.355  16.715 -0.6205  0.4042 -1.2846
 4783SOL    HW125982   0.907   0.282  16.682 -1.6776 -0.2713 -1.4820
 4783SOL    HW225983   0.809   0.313  16.788 -0.0164  1.3990 -0.3384
 4784SOL     OW25984   2.990   0.398   2.652 -0.0042 -0.3760 -0.5032
 4784SOL    HW125985   3.023   0.310   2.637 -0.3090 -0.6671  0.5512
 4784SOL    HW225986   3.026   0.439   2.574  1.5715 -3.2599 -1.2821
 4785SOL     OW25987   2.278   1.376   8.162 -0.7405 -0.0623  0.0075
 4785SOL    HW125988   2.352   1.437   8.158 -1.8067  1.3332  1.7108
 4785SOL    HW225989   2.318   1.290   8.180  1.6766  1.0276 -0.1862
 4786SOL     OW25990   3.733   1.246   8.304  0.2543  0.4243  0.2079
 4786SOL    HW125991   3.791   1.226   8.377 -0.8244  2.9846  1.7591
 4786SOL    HW225992   3.653   1.203   8.335  0.5496 -0.1593  0.1556
 4787SOL     OW25993   1.283   4.120  10.505 -0.0598 -0.1140 -0.1563
 4787SOL    HW125994   1.224   4.182  10.550 -0.7611 -1.4374  0.7556
 4787SOL    HW225995   1.296   4.162  10.421 -1.7870 -2.5252 -1.6363
 4788SOL     OW25996   3.474   2.291   3.540  0.0119 -0.1465 -0.1006
 4788SOL    HW125997   3.437   2.365   3.588  0.4313 -0.2881  0.4429
 4788SOL    HW225998   3.484   2.328   3.453  0.1457 -0.4053 -0.1952
 4789SOL     OW25999   1.585   3.416   3.722 -0.7312  0.2362 -0.3865
 4789SOL    HW126000   1.507   3.461   3.687 -1.7752 -2.1756 -1.1516
 4789SOL    HW226001   1.562   3.409   3.814 -1.4636 -1.2654 -0.6833
 4790SOL     OW26002   2.708   0.145   4.261  0.2283  0.6043  0.2439
 4790SOL    HW126003   2.656   0.082   4.211 -0.1107  1.8586 -0.9922
 4790SOL    HW226004   2.668   0.137   4.348  0.7847  0.5518  0.4919
 4791SOL     OW26005   0.065   1.763  10.753 -0.2194 -0.5181 -0.7058
 4791SOL    HW126006   4.732   1.795  10.806  0.1750  1.3524 -1.3002
 4791SOL    HW226007   0.050   1.789  10.662 -0.3455 -1.0205 -0.8293
 4792SOL     OW26008   1.714   4.449   7.484 -0.5414  0.4028  0.0094
 4792SOL    HW126009   1.659   4.378   7.451 -0.8241  0.9192 -0.6100
 4792SOL    HW226010   1.702   4.436   7.579  2.9900 -0.0481  0.3982
 4793SOL     OW26011   3.215   1.780   7.664 -0.6823  0.1083  0.1256
 4793SOL    HW126012   3.162   1.714   7.620 -0.9410  0.9865 -0.8819
 4793SOL    HW226013   3.254   1.721   7.729  0.0192  0.1549 -0.2505
 4794SOL     OW26014   3.715   4.032   1.291 -0.0224  0.1883 -0.5347
 4794SOL    HW126015   3.689   4.116   1.253 -1.1763 -1.0225 -2.4280
 4794SOL    HW226016   3.637   4.015   1.344  1.6666 -1.4856  1.4546
 4795SOL     OW26017   2.303   1.689   5.665  0.1035  0.4037 -0.3188
 4795SOL    HW126018   2.382   1.687   5.718 -0.8779 -0.2273  1.1538
 4795SOL    HW226019   2.326   1.651   5.580 -0.1851 -1.0648  0.2510
 4796SOL     OW26020   1.035   0.776  15.988  0.6003  0.2946  0.2058
 4796SOL    HW126021   1.007   0.826  16.064 -1.1388 -2.8656  1.6186
 4796SOL    HW226022   0.988   0.831  15.925  0.5110 -0.3867 -0.3285
 4797SOL     OW26023   2.440   1.923   5.462 -0.0129  0.1082 -0.0483
 4797SOL    HW126024   2.398   1.980   5.398  3.0815  1.1128 -1.1789
 4797SOL    HW226025   2.391   1.942   5.542  1.6174  1.3034  0.6733
 4798SOL     OW26026   0.752   2.854   2.500  0.6512 -0.2121 -0.0736
 4798SOL    HW126027   0.799   2.933   2.527  1.0013 -0.7017  0.7698
 4798SOL    HW226028   0.740   2.864   2.406  1.1839 -0.3337 -0.1560
 4799SOL     OW26029   1.249   0.578   5.902  0.1554  0.8830  0.5326
 4799SOL    HW126030   1.222   0.664   5.869  0.3320  0.8893  0.4053
 4799SOL    HW226031   1.333   0.557   5.861 -1.0504 -1.4712 -0.7819
 4800SOL     OW26032   1.431   4.697   9.250 -0.2930 -0.2008  0.2933
 4800SOL    HW126033   1.432   0.044   9.210  0.5313 -0.9394 -1.3185
 4800SOL    HW226034   1.398   4.646   9.175  1.0396  0.5040 -0.7747
 4801SOL     OW26035   2.721   0.172  14.740 -0.3621  0.0212  0.0607
 4801SOL    HW126036   2.708   0.266  14.726  0.5034  0.3214  1.2596
 4801SOL    HW226037   2.641   0.137  14.781 -0.7665  0.1609 -0.6021
 4802SOL     OW26038   2.045   3.080   9.519  0.0535  0.3543  0.3440
 4802SOL    HW126039   1.984   3.024   9.567 -0.2678  0.7652  0.4154
 4802SOL    HW226040   2.076   3.136   9.591 -2.4818  0.9959  0.9219
 4803SOL     OW26041   4.081   0.351   7.655 -0.4584  0.1604  0.7161
 4803SOL    HW126042   4.162   0.302   7.644 -0.0589  1.0803 -0.4836
 4803SOL    HW226043   4.022   0.276   7.647  1.0297 -0.9213 -0.1490
 4804SOL     OW26044   3.039   2.563   5.333 -0.0401  0.0789 -0.3604
 4804SOL    HW126045   2.955   2.610   5.330  0.2113  0.5081 -0.7033
 4804SOL    HW226046   3.092   2.625   5.283  2.3100  0.0864  2.1424
 4805SOL     OW26047   3.459   2.364   8.601  0.0241 -0.0097 -0.3612
 4805SOL    HW126048   3.384   2.306   8.588  0.8563 -0.9295 -0.9948
 4805SOL    HW226049   3.517   2.307   8.651 -0.0271 -0.5455 -0.9144
 4806SOL     OW26050   2.016   0.306  12.291  0.3886  0.3217 -0.4502
 4806SOL    HW126051   2.068   0.227  12.288 -1.9478 -1.1242 -2.6648
 4806SOL    HW226052   2.078   0.379  12.293  1.1773 -0.3084 -2.6250
 4807SOL     OW26053   3.223   3.255  11.332 -0.2659  0.3190 -0.2690
 4807SOL    HW126054   3.267   3.301  11.404 -0.1647  0.5704 -0.4929
 4807SOL    HW226055   3.159   3.324  11.313  0.2526  0.6926 -0.6696
 4808SOL     OW26056   2.628   4.513   4.026 -0.0502 -0.0595 -0.3378
 4808SOL    HW126057   2.558   4.496   3.963 -0.3089 -1.1396  0.2442
 4808SOL    HW226058   2.591   4.586   4.077  2.2482 -0.4093  1.7958
 4809SOL     OW26059   3.518   2.297   2.654 -0.4137 -0.4222 -0.2643
 4809SOL    HW126060   3.550   2.352   2.583  1.6334 -2.0882 -0.6401
 4809SOL    HW226061   3.426   2.288   2.630 -0.6048  1.3291 -0.2155
 4810SOL     OW26062   0.866   2.957  16.467 -0.0521  0.1843 -0.2207
 4810SOL    HW126063   0.794   2.914  16.514  0.1284  1.8710  1.5524
 4810SOL    HW226064   0.906   3.012  16.534 -1.0384 -0.1185  0.6232
 4811SOL     OW26065   3.999   3.376   8.696 -0.9763 -0.2633 -0.0332
 4811SOL    HW126066   3.963   3.322   8.626 -2.2732  0.3288  0.1644
 4811SOL    HW226067   3.965   3.322   8.767  2.0104  0.0382  1.6209
 4812SOL     OW26068   4.684   3.159   6.306  0.3319  0.2714 -0.5666
 4812SOL    HW126069   4.632   3.197   6.235 -1.1011 -0.8272 -0.1105
 4812SOL    HW226070   4.632   3.160   6.386 -0.2155  0.1501 -0.9207
 4813SOL     OW26071   4.457   1.877   7.846  0.1036 -0.2388  0.4775
 4813SOL    HW126072   4.425   1.947   7.790 -1.7599  0.7512  2.7610
 4813SOL    HW226073   4.370   1.860   7.884  0.2975 -0.5732  0.7758
 4814SOL     OW26074   2.684   3.725  13.840 -0.3092 -0.0154 -0.0837
 4814SOL    HW126075   2.744   3.760  13.774 -0.0182 -0.6954 -0.1888
 4814SOL    HW226076   2.690   3.769  13.924 -0.4469 -1.4253  0.6629
 4815SOL     OW26077   3.414   3.641   1.494  0.1686  0.3399  0.3199
 4815SOL    HW126078   3.450   3.620   1.581  1.0711  0.6569  0.0208
 4815SOL    HW226079   3.467   3.583   1.439 -1.1300 -0.0102 -0.5588
 4816SOL     OW26080   1.800   1.467   6.683  0.1267  0.2841 -0.1841
 4816SOL    HW126081   1.850   1.439   6.606  2.3625  0.8912  1.0567
 4816SOL    HW226082   1.803   1.562   6.669 -2.1840  0.2347 -1.0279
 4817SOL     OW26083   1.463   0.776  15.707  0.3538 -0.3750  0.5944
 4817SOL    HW126084   1.432   0.852  15.658  0.0127 -0.6846  0.3348
 4817SOL    HW226085   1.404   0.805  15.776  0.2902 -0.2126  0.4714
 4818SOL     OW26086   1.726   4.657   4.035  0.0543  0.4506 -0.3242
 4818SOL    HW126087   1.820   4.652   4.017 -0.1664 -2.7392 -0.6300
 4818SOL    HW226088   1.724   4.688   4.125  1.2747  2.3973 -0.9575
 4819SOL     OW26089   4.516   1.990   6.638  0.2598  0.0846  0.0371
 4819SOL    HW126090   4.526   1.895   6.643 -0.8828 -0.0514 -0.2551
 4819SOL    HW226091   4.608   2.006   6.617  0.2716 -0.8390 -0.6226
 4820SOL     OW26092   0.248   3.344   8.502  0.3102 -0.0907  0.4580
 4820SOL    HW126093   0.163   3.369   8.464  0.7037  0.3329 -0.1489
 4820SOL    HW226094   0.307   3.347   8.427 -1.6042  3.7921 -0.9119
 4821SOL     OW26095   0.736   3.838   5.043 -0.2852 -0.0078  0.3855
 4821SOL    HW126096   0.689   3.765   5.083 -0.1417  0.3905  1.2750
 4821SOL    HW226097   0.801   3.788   4.994 -0.3304  0.5212 -0.2176
 4822SOL     OW26098   2.584   0.560   9.237 -0.1232  0.0415 -0.0851
 4822SOL    HW126099   2.502   0.529   9.199  0.3447 -1.0975 -0.1432
 4822SOL    HW226100   2.601   0.484   9.292 -0.0470 -0.3135 -0.6062
 4823SOL     OW26101   0.595   1.504   6.517 -0.0981 -0.5165 -0.1369
 4823SOL    HW126102   0.542   1.527   6.441 -0.1730 -0.1874  0.0174
 4823SOL    HW226103   0.575   1.410   6.513 -0.3141 -0.4980  0.5368
 4824SOL     OW26104   4.415   2.829  13.043 -0.4381 -0.0226  0.1503
 4824SOL    HW126105   4.391   2.795  13.129  1.7577  0.2225  0.8421
 4824SOL    HW226106   4.352   2.790  12.982  1.0162  0.1502 -1.4839
 4825SOL     OW26107   3.142   0.040   5.473 -0.3956 -0.4935 -0.7780
 4825SOL    HW126108   3.073   0.001   5.419  0.5777 -0.6054 -1.9403
 4825SOL    HW226109   3.164   0.121   5.427  1.3236 -0.4909  0.0795
 4826SOL     OW26110   0.950   2.318   2.507 -0.6587 -0.5801  0.4447
 4826SOL    HW126111   0.925   2.247   2.448 -0.5583 -0.9810  0.8859
 4826SOL    HW226112   0.864   2.351   2.533 -0.6520 -0.0306 -0.2484
 4827SOL     OW26113   0.810   0.621  11.530  0.1891  0.6162  0.4087
 4827SOL    HW126114   0.742   0.601  11.467 -1.6868  1.9828  2.0146
 4827SOL    HW226115   0.765   0.581  11.605 -0.4240 -1.8539 -1.2757
 4828SOL     OW26116   2.942   3.167   0.937 -0.2328  0.2514 -0.1477
 4828SOL    HW126117   3.033   3.196   0.929 -0.2352  0.0945 -0.6962
 4828SOL    HW226118   2.950   3.088   0.991 -1.5062  0.6791  0.6686
 4829SOL     OW26119   1.064   1.003   8.352  0.1324  0.0052 -0.1972
 4829SOL    HW126120   1.118   1.074   8.317  0.0644  0.3775  0.4464
 4829SOL    HW226121   1.001   1.055   8.402 -0.1441 -0.1482 -0.3870
 4830SOL     OW26122   2.536   2.844   5.340  0.0641  0.2358  0.2965
 4830SOL    HW126123   2.466   2.907   5.326 -0.6054 -0.8342 -1.0643
 4830SOL    HW226124   2.509   2.799   5.420 -1.6936  2.4831  0.9918
 4831SOL     OW26125   0.442   2.600   7.046 -0.0964 -0.5087  0.1986
 4831SOL    HW126126   0.484   2.595   7.132  3.5372  1.7885 -1.4306
 4831SOL    HW226127   0.479   2.680   7.007  0.7832  0.1611  2.3930
 4832SOL     OW26128   4.458   1.361   9.802  0.3464 -0.0713 -0.2813
 4832SOL    HW126129   4.464   1.282   9.856 -0.2086  0.9900  1.3106
 4832SOL    HW226130   4.524   1.419   9.840 -1.1014  1.4480 -0.0850
 4833SOL     OW26131   0.493   0.713   5.579 -0.2093 -0.2586  0.2871
 4833SOL    HW126132   0.578   0.756   5.576  0.1412 -0.9234  0.6612
 4833SOL    HW226133   0.440   0.790   5.557 -0.3326  0.0947  1.7566
 4834SOL     OW26134   3.669   3.327   6.253 -0.1708  0.8105 -0.0602
 4834SOL    HW126135   3.756   3.366   6.259  0.1169  0.5161 -2.2625
 4834SOL    HW226136   3.687   3.270   6.178 -1.7964 -0.7043  0.6924
 4835SOL     OW26137   0.043   0.303   2.088  0.0493  0.2679  0.4904
 4835SOL    HW126138   0.106   0.352   2.142 -1.5433  1.6464  1.0966
 4835SOL    HW226139   0.055   0.224   2.141  1.3403 -2.1576 -3.4603
 4836SOL     OW26140   1.972   2.630   3.294 -0.4569 -0.5017  0.0738
 4836SOL    HW126141   1.968   2.673   3.208 -0.8370 -0.0209  0.3368
 4836SOL    HW226142   1.904   2.563   3.282 -1.5091  0.4979  0.5604
 4837SOL     OW26143   2.758   3.925   6.290 -0.3947 -0.3607 -0.1752
 4837SOL    HW126144   2.697   3.999   6.292  0.5766  0.4295  0.8799
 4837SOL    HW226145   2.758   3.903   6.383 -1.1584 -0.3276 -0.1688
 4838SOL     OW26146   2.299   2.266  10.363  0.3563 -0.0496  0.6939
 4838SOL    HW126147   2.204   2.252  10.353 -0.1345  2.8119  1.3934
 4838SOL    HW226148   2.333   2.201  10.301 -0.2140  2.5611 -2.3570
 4839SOL     OW26149   4.421   0.040   2.742 -0.2879  0.0780 -0.0480
 4839SOL    HW126150   4.457   4.695   2.768 -1.4187 -0.3685  0.0633
 4839SOL    HW226151   4.467   0.045   2.658 -1.1614 -1.2281 -0.5968
 4840SOL     OW26152   2.721   0.579  17.486 -0.6100  0.3972  0.0542
 4840SOL    HW126153   2.702   0.511  17.550  0.8285  1.8563  2.0383
 4840SOL    HW226154   2.654   0.563  17.420 -0.4091  1.5370 -0.4280
 4841SOL     OW26155   0.035   0.686  11.165  0.3162 -0.6237 -0.0298
 4841SOL    HW126156   0.069   0.697  11.076 -1.5574 -0.7177 -0.7556
 4841SOL    HW226157   0.113   0.711  11.214  1.2251  1.2360 -2.4244
 4842SOL     OW26158   1.382   0.231   3.739  0.1414 -0.8161 -0.0768
 4842SOL    HW126159   1.431   0.304   3.701 -3.1601  1.6386  0.4031
 4842SOL    HW226160   1.418   0.230   3.827  0.6004  3.1853 -0.2281
 4843SOL     OW26161   3.701   4.659  10.840  0.1762 -0.0507 -0.0819
 4843SOL    HW126162   3.638   4.702  10.899 -0.2872 -0.4689 -0.2782
 4843SOL    HW226163   3.659   4.585  10.797  0.6278  0.3423 -1.1970
 4844SOL     OW26164   3.166   1.594   2.789 -0.4211 -0.2322 -0.2510
 4844SOL    HW126165   3.208   1.546   2.718  0.3039 -0.0597  0.0660
 4844SOL    HW226166   3.241   1.626   2.839 -0.2684 -1.8716  0.5482
 4845SOL     OW26167   4.003   2.755   8.231 -0.5415  0.2121 -0.1562
 4845SOL    HW126168   3.933   2.803   8.277 -0.6490 -0.8132  0.7423
 4845SOL    HW226169   3.969   2.666   8.233 -2.4154  0.8973 -2.5884
 4846SOL     OW26170   3.817   3.131  14.608 -0.4161  0.6888  0.1921
 4846SOL    HW126171   3.742   3.076  14.588 -0.4416  0.4195  1.0073
 4846SOL    HW226172   3.853   3.152  14.522  0.1622 -0.2412  0.2165
 4847SOL     OW26173   0.239   3.254   4.607 -0.0206  0.2595  0.0193
 4847SOL    HW126174   0.254   3.181   4.547 -0.8770 -0.2117  0.3686
 4847SOL    HW226175   0.324   3.297   4.612 -0.5600  1.4904 -1.2759
 4848SOL     OW26176   1.297   2.892   0.339  0.6147  0.0427  0.0957
 4848SOL    HW126177   1.350   2.838   0.397  0.6832  0.8085  0.7474
 4848SOL    HW226178   1.268   2.822   0.280  0.4849 -0.8957  1.2813
 4849SOL     OW26179   3.851   0.808   7.505  0.4566 -0.3604 -0.3881
 4849SOL    HW126180   3.879   0.729   7.550  0.9313  1.5672  2.6923
 4849SOL    HW226181   3.934   0.844   7.475  0.2799  0.9256  0.6601
 4850SOL     OW26182   3.704   2.955   1.811  0.1231  0.3540 -0.2307
 4850SOL    HW126183   3.613   2.955   1.838  0.0515  3.2166 -0.4656
 4850SOL    HW226184   3.742   3.001   1.886 -0.9251  1.0096 -0.1026
 4851SOL     OW26185   1.895   1.715   3.851 -0.0343  0.0799  0.9209
 4851SOL    HW126186   1.882   1.658   3.776 -2.1563  0.6927  0.8212
 4851SOL    HW226187   1.809   1.723   3.892 -0.6990  1.6975 -0.7815
 4852SOL     OW26188   3.322   0.108   8.707 -0.0738  0.3499  0.2759
 4852SOL    HW126189   3.253   0.049   8.736 -0.7693  0.7261 -0.6131
 4852SOL    HW226190   3.286   0.196   8.698 -2.9890 -0.7648  0.9793
 4853SOL     OW26191   2.641   2.977   0.900 -0.0840 -0.5385 -0.4190
 4853SOL    HW126192   2.705   2.906   0.893 -0.1296 -0.5625 -0.6158
 4853SOL    HW226193   2.561   2.926   0.914 -0.2382  0.0980  1.0080
 4854SOL     OW26194   1.200   3.444   4.248  0.3211 -0.4781  0.1696
 4854SOL    HW126195   1.133   3.477   4.308  0.3960  1.1521 -0.6511
 4854SOL    HW226196   1.269   3.509   4.263  0.8203 -0.7957 -0.7503
 4855SOL     OW26197   2.221   3.687   5.983 -0.2584 -0.0895  0.5302
 4855SOL    HW126198   2.258   3.775   5.980 -1.5528  0.3881 -1.5616
 4855SOL    HW226199   2.218   3.657   5.892 -1.0709  0.1271  0.4828
 4856SOL     OW26200   3.539   1.493   8.246 -0.2551 -0.3586  0.4782
 4856SOL    HW126201   3.535   1.408   8.204 -1.7344 -0.1141  0.1236
 4856SOL    HW226202   3.469   1.544   8.205  0.6624  0.0488 -0.5777
 4857SOL     OW26203   0.197   2.894   0.206 -0.1584  0.2520  0.8828
 4857SOL    HW126204   0.252   2.818   0.186  0.0769  0.7162 -0.2265
 4857SOL    HW226205   0.161   2.912   0.119  1.3382  0.4252  0.3050
 4858SOL     OW26206   1.759   1.741   4.156  0.2274 -0.3683  0.0638
 4858SOL    HW126207   1.775   1.648   4.137 -1.0234 -0.8227  1.2232
 4858SOL    HW226208   1.732   1.733   4.247  0.6265 -0.7993  0.1472
 4859SOL     OW26209   3.479   0.823  15.356 -0.3609  0.2051  0.1561
 4859SOL    HW126210   3.495   0.915  15.374  2.7961 -0.3533  0.1287
 4859SOL    HW226211   3.452   0.821  15.264 -1.9756  1.8104  0.5805
 4860SOL     OW26212   0.167   2.614   3.354  0.0734  0.2526 -0.0339
 4860SOL    HW126213   0.239   2.568   3.311 -1.4669 -0.3310 -2.0068
 4860SOL    HW226214   0.200   2.704   3.361 -0.8498  0.8183 -2.6118
 4861SOL     OW26215   0.623   0.020   3.219  0.2417  0.6498  0.2105
 4861SOL    HW126216   0.561   4.699   3.181  1.7494 -0.6518 -0.1106
 4861SOL    HW226217   0.633   4.725   3.308 -1.0500 -1.1120 -0.3584
 4862SOL     OW26218   4.160   0.248  16.896  0.1447 -0.7828 -0.4769
 4862SOL    HW126219   4.248   0.247  16.860 -0.1196 -0.3539 -1.1339
 4862SOL    HW226220   4.134   0.326  16.848 -1.3860 -0.2651  1.1570
 4863SOL     OW26221   3.820   2.465   3.248 -0.1187  0.1455  0.5635
 4863SOL    HW126222   3.755   2.527   3.215  1.2773  0.6408 -1.2974
 4863SOL    HW226223   3.896   2.491   3.196  2.4691 -2.9009  2.8665
 4864SOL     OW26224   0.336   3.238   8.031  0.1275 -0.3339  0.3088
 4864SOL    HW126225   0.403   3.271   8.089 -0.6124 -0.4296  1.2162
 4864SOL    HW226226   0.282   3.317   8.031 -0.6879 -0.8759 -1.1377
 4865SOL     OW26227   2.623   4.428   3.172 -0.1446 -0.0701  0.2993
 4865SOL    HW126228   2.575   4.362   3.123 -0.1949 -0.6704  1.1544
 4865SOL    HW226229   2.616   4.387   3.258 -0.5468  1.7095  1.1138
 4866SOL     OW26230   1.516   3.480  11.947  0.6999 -0.4017  0.1889
 4866SOL    HW126231   1.609   3.496  11.964  0.7828 -2.4662  1.6157
 4866SOL    HW226232   1.503   3.533  11.868  1.3428  0.0018  0.3467
 4867SOL     OW26233   2.888   0.341   9.133  0.4855 -0.2677 -0.0704
 4867SOL    HW126234   2.979   0.327   9.109  0.5642 -0.8003  0.5482
 4867SOL    HW226235   2.884   0.416   9.072  0.2964 -0.6318 -0.5034
 4868SOL     OW26236   2.746   4.448  12.044  0.6004  0.1520 -0.0086
 4868SOL    HW126237   2.787   4.446  11.957 -0.2444 -0.9447 -0.3771
 4868SOL    HW226238   2.722   4.356  12.054  0.5867  0.2107  0.5090
 4869SOL     OW26239   4.150   3.728  11.954 -0.0584 -0.0367 -0.2121
 4869SOL    HW126240   4.168   3.639  11.985  1.3923  0.6526  0.9877
 4869SOL    HW226241   4.225   3.738  11.895 -1.8127 -1.3404 -2.6605
 4870SOL     OW26242   3.278   0.888  11.815  0.2337 -0.0194  0.0438
 4870SOL    HW126243   3.359   0.937  11.803 -1.3369  2.8722  1.1796
 4870SOL    HW226244   3.249   0.909  11.903  0.8609 -1.8678  0.6806
 4871SOL     OW26245   4.213   1.567   1.918 -0.1498 -0.3058  0.5608
 4871SOL    HW126246   4.190   1.659   1.903 -1.9675 -0.9101 -0.4135
 4871SOL    HW226247   4.292   1.591   1.965  0.3565 -1.0900  0.1078
 4872SOL     OW26248   4.472   2.445   5.599  0.7860 -0.1854  0.3914
 4872SOL    HW126249   4.499   2.519   5.544 -2.1970  0.4488 -0.2317
 4872SOL    HW226250   4.540   2.438   5.665  0.5930  0.1385  0.6223
 4873SOL     OW26251   4.372   4.262   2.521  0.3478 -0.1258  0.5727
 4873SOL    HW126252   4.356   4.169   2.506  2.9195 -0.2943 -1.2144
 4873SOL    HW226253   4.288   4.308   2.509  1.3641  1.5873 -0.1129
 4874SOL     OW26254   0.399   2.424   6.416 -0.1034 -0.2224 -0.0738
 4874SOL    HW126255   0.453   2.457   6.345 -3.1699 -0.6726 -2.6625
 4874SOL    HW226256   0.381   2.494   6.479  0.6855 -2.5542  2.7683
 4875SOL     OW26257   0.938   1.179   1.739 -0.0420 -0.2849 -0.2223
 4875SOL    HW126258   0.869   1.172   1.805  2.6392  0.1932  2.6511
 4875SOL    HW226259   0.969   1.088   1.741 -0.1374 -0.3424 -1.3689
 4876SOL     OW26260   0.471   3.593   9.382 -0.1108 -0.7284 -0.3238
 4876SOL    HW126261   0.484   3.686   9.398 -1.7975 -0.7950  1.3868
 4876SOL    HW226262   0.457   3.590   9.287 -0.2600 -0.5193 -0.3092
 4877SOL     OW26263   0.374   3.597   1.689 -0.0104  0.5177  0.2064
 4877SOL    HW126264   0.291   3.568   1.725 -0.7524  1.7218 -0.5536
 4877SOL    HW226265   0.410   3.525   1.638 -1.7130  1.3980 -2.2300
 4878SOL     OW26266   0.055   1.611  12.011 -0.7056 -0.3458  0.4736
 4878SOL    HW126267   0.134   1.572  12.048 -0.1715 -0.4291 -0.7343
 4878SOL    HW226268   0.050   1.552  11.935 -0.5631  2.2785 -1.5565
 4879SOL     OW26269   2.023   0.403  10.220  0.1041 -1.1371  0.5357
 4879SOL    HW126270   2.024   0.385  10.314 -0.3924  1.0707  0.9702
 4879SOL    HW226271   1.936   0.442  10.210  0.3741 -0.2777  1.5443
 4880SOL     OW26272   2.791   1.500   7.046  0.2108  0.2893 -0.5801
 4880SOL    HW126273   2.759   1.589   7.058  0.9827  0.3117  1.2261
 4880SOL    HW226274   2.843   1.491   7.125  1.6016  1.1633 -1.4034
 4881SOL     OW26275   2.882   1.517   5.831  0.4094 -0.0431 -0.0047
 4881SOL    HW126276   2.900   1.482   5.918 -0.4922 -1.2698 -0.3228
 4881SOL    HW226277   2.797   1.473   5.832 -0.0690  0.9066  1.1624
 4882SOL     OW26278   0.051   4.180   6.179  0.1918 -0.3222  0.2164
 4882SOL    HW126279   0.031   4.252   6.119  0.2048  1.4336  2.3231
 4882SOL    HW226280   0.117   4.224   6.232  1.8221 -2.0923 -0.3148
 4883SOL     OW26281   2.821   4.337   2.537 -0.1108 -0.3674 -0.0755
 4883SOL    HW126282   2.894   4.291   2.497  0.8025 -0.8484  2.1756
 4883SOL    HW226283   2.812   4.275   2.609  3.9437  0.0324  0.7649
 4884SOL     OW26284   1.360   0.420  12.670  0.7902  0.0199 -0.4229
 4884SOL    HW126285   1.268   0.435  12.649  0.0388 -0.2768  2.7367
 4884SOL    HW226286   1.391   0.397  12.582 -0.0644  0.0588 -0.7276
 4885SOL     OW26287   1.758   1.775   6.739 -0.2368  0.0474 -0.0351
 4885SOL    HW126288   1.833   1.833   6.728  0.5111 -0.5075  2.0735
 4885SOL    HW226289   1.741   1.775   6.834 -2.1498 -1.9232 -0.3649
 4886SOL     OW26290   4.140   4.047   0.121 -0.0104  0.5746 -0.6470
 4886SOL    HW126291   4.125   4.096   0.040 -0.5187 -1.2270 -1.6399
 4886SOL    HW226292   4.233   4.030   0.106 -0.1818 -2.3839  1.8595
 4887SOL     OW26293   3.044   1.038  16.364  0.2214 -0.2885 -0.1105
 4887SOL    HW126294   3.021   1.114  16.311  0.7661  1.1945  1.7755
 4887SOL    HW226295   3.024   1.075  16.450  0.2901  0.8568 -0.5898
 4888SOL     OW26296   1.578   1.151   8.891 -0.2982  0.8001 -0.7343
 4888SOL    HW126297   1.652   1.189   8.939  1.4296 -0.5143 -2.3179
 4888SOL    HW226298   1.539   1.228   8.849  1.3661  1.4189 -1.1688
 4889SOL     OW26299   1.093   2.515   1.187  0.4975  0.1548  0.1698
 4889SOL    HW126300   1.007   2.475   1.196  1.4139 -1.5930  1.1559
 4889SOL    HW226301   1.108   2.552   1.274 -1.3473  0.3410  0.4051
 4890SOL     OW26302   2.637   4.066   8.381  0.4473  0.5316 -0.1953
 4890SOL    HW126303   2.623   4.016   8.461  1.2232  0.2315 -0.2523
 4890SOL    HW226304   2.574   4.026   8.321  0.5749  0.4764 -0.2919
 4891SOL     OW26305   1.933   4.583  15.675 -0.0727 -0.0071 -0.4329
 4891SOL    HW126306   1.917   4.664  15.724  0.0331 -0.8084  0.9417
 4891SOL    HW226307   2.024   4.566  15.699 -0.2281  1.4075  1.1585
 4892SOL     OW26308   1.302   2.485  13.475  0.4001 -0.1824  0.0389
 4892SOL    HW126309   1.220   2.457  13.514  1.6491 -4.0939 -0.1693
 4892SOL    HW226310   1.280   2.556  13.414  1.0532 -0.1107 -0.1174
 4893SOL     OW26311   2.655   1.912  12.737  0.5991  0.1261  0.6109
 4893SOL    HW126312   2.633   1.918  12.830 -2.6326  0.9529 -0.2052
 4893SOL    HW226313   2.569   1.942  12.707 -0.1004 -1.5118  0.9691
 4894SOL     OW26314   4.707   2.958   8.262 -0.0411 -0.1033  0.5038
 4894SOL    HW126315   0.036   2.954   8.196 -0.1334 -0.9575  0.4602
 4894SOL    HW226316   4.682   3.048   8.240 -0.3021 -0.3854 -0.3302
 4895SOL     OW26317   4.576   2.805   3.158  0.2696  0.1029 -0.5307
 4895SOL    HW126318   4.646   2.791   3.222  0.4613 -1.3569 -1.0591
 4895SOL    HW226319   4.616   2.872   3.103 -0.3500  0.3747 -0.6491
 4896SOL     OW26320   2.972   1.761   8.106  0.3769 -0.1118 -0.2001
 4896SOL    HW126321   2.974   1.685   8.048 -0.4119 -0.4036  0.1610
 4896SOL    HW226322   2.947   1.830   8.045  1.4675 -1.1701 -1.8451
 4897SOL     OW26323   1.741   1.626  12.817  0.2685  0.4071 -0.1927
 4897SOL    HW126324   1.649   1.634  12.792  0.1212  0.9434  0.5449
 4897SOL    HW226325   1.790   1.689  12.764  1.6120 -1.7563 -1.5332
 4898SOL     OW26326   0.359   2.570   5.880  0.0615  0.4167  0.6914
 4898SOL    HW126327   0.265   2.554   5.872  0.1465  0.1617  0.2071
 4898SOL    HW226328   0.365   2.572   5.975  1.8997  0.9885  0.5590
 4899SOL     OW26329   2.926   1.763   0.597  0.3771  0.1980  0.0347
 4899SOL    HW126330   3.012   1.744   0.558  0.6615  0.5661  0.4959
 4899SOL    HW226331   2.866   1.733   0.528 -0.8406 -1.5184  1.8486
 4900SOL     OW26332   2.170   3.660   1.831 -0.2726 -0.2274 -0.0248
 4900SOL    HW126333   2.113   3.718   1.882  0.5235 -0.9676  1.7185
 4900SOL    HW226334   2.139   3.677   1.742  1.6336 -2.3826 -1.1126
 4901SOL     OW26335   1.327   0.582   3.838 -0.0331  0.4607  0.3908
 4901SOL    HW126336   1.394   0.532   3.790 -1.1388  0.7274 -1.4579
 4901SOL    HW226337   1.267   0.517   3.876  0.1230 -1.2345 -2.1854
 4902SOL     OW26338   2.922   2.317   8.024 -0.6583  0.3941 -0.3243
 4902SOL    HW126339   2.979   2.265   7.968 -1.0917 -0.7873  0.3293
 4902SOL    HW226340   2.981   2.390   8.045 -2.0739  0.2822  4.0049
 4903SOL     OW26341   4.689   3.424   2.160  0.1046 -0.3034  0.0915
 4903SOL    HW126342   0.030   3.381   2.134  0.8263  0.2254  1.4770
 4903SOL    HW226343   4.740   3.500   2.188 -0.7560  1.3004 -2.6977
 4904SOL     OW26344   0.377   0.290   1.045  0.0559  0.2017 -0.1807
 4904SOL    HW126345   0.372   0.323   0.955 -1.4043  1.3424  0.3125
 4904SOL    HW226346   0.382   0.367   1.101 -1.1085  0.6761 -0.7064
 4905SOL     OW26347   2.706   2.970   4.670  0.0621 -0.1052 -0.3910
 4905SOL    HW126348   2.697   3.039   4.736  2.7046  0.2725 -0.4615
 4905SOL    HW226349   2.668   3.017   4.595  2.6834  0.2578 -1.4874
 4906SOL     OW26350   1.229   0.051  15.836  0.3286  0.1632  0.2582
 4906SOL    HW126351   1.226   0.054  15.931  1.2721 -2.4773  0.3714
 4906SOL    HW226352   1.250   0.143  15.822 -2.0574  0.9665  2.1510
 4907SOL     OW26353   0.234   3.927   9.013 -0.6416 -0.1588 -0.2208
 4907SOL    HW126354   0.247   3.855   9.075 -1.5574  0.2088  0.3944
 4907SOL    HW226355   0.140   3.909   9.012  0.0164 -3.6799 -0.1919
 4908SOL     OW26356   0.699   0.268  10.404  0.3031  0.1654 -0.2846
 4908SOL    HW126357   0.744   0.338  10.450  2.2824 -1.1378 -0.2246
 4908SOL    HW226358   0.640   0.320  10.349  1.7728 -1.2243 -3.1731
 4909SOL     OW26359   0.266   1.838   5.265  0.1578 -0.8684  0.0140
 4909SOL    HW126360   0.322   1.892   5.322  1.4897 -1.1631 -1.0254
 4909SOL    HW226361   0.191   1.838   5.325  0.1340 -2.2532 -0.0035
 4910SOL     OW26362   0.257   1.168   5.540 -0.8347  0.6138 -0.1380
 4910SOL    HW126363   0.304   1.251   5.530 -0.9790  0.4770 -1.9465
 4910SOL    HW226364   0.287   1.136   5.625  0.0877 -0.9006 -1.0394
 4911SOL     OW26365   4.726   1.524   1.859  0.1548  0.5032 -0.5506
 4911SOL    HW126366   4.706   1.435   1.828 -2.1386  0.8568 -0.0524
 4911SOL    HW226367   0.075   1.546   1.833  0.7107 -0.0929  0.8609
 4912SOL     OW26368   1.433   2.261   1.879  0.0180  0.6101 -0.5227
 4912SOL    HW126369   1.350   2.307   1.883  1.4836  3.5303 -3.5217
 4912SOL    HW226370   1.475   2.321   1.942  0.0031 -1.3915  1.4191
 4913SOL     OW26371   4.174   2.865   6.453  0.4781  0.4280 -0.3872
 4913SOL    HW126372   4.133   2.912   6.379 -2.1547  1.3719  1.6643
 4913SOL    HW226373   4.266   2.866   6.428  0.6415 -1.8602  0.1117
 4914SOL     OW26374   3.881   1.897   6.584 -0.8926 -0.2595 -0.6828
 4914SOL    HW126375   3.842   1.984   6.595 -0.9157 -0.2323 -0.9808
 4914SOL    HW226376   3.816   1.857   6.525 -1.0472  1.2353 -1.5288
 4915SOL     OW26377   0.522   4.057   6.095  0.4519  0.4144  0.4016
 4915SOL    HW126378   0.429   4.080   6.101  0.0010 -1.4988  0.7224
 4915SOL    HW226379   0.567   4.101   6.023 -1.5624 -0.2649 -1.2786
 4916SOL     OW26380   2.884   4.664   7.945  0.4108 -0.0629 -0.2697
 4916SOL    HW126381   2.839   4.666   7.861  1.1698 -0.5342 -0.6876
 4916SOL    HW226382   2.809   4.681   8.001  0.2522 -0.3399 -0.3982
 4917SOL     OW26383   1.407   0.163   9.874  0.5130 -0.3934  0.1821
 4917SOL    HW126384   1.439   0.125   9.956 -0.2052  0.1584  0.7302
 4917SOL    HW226385   1.421   0.089   9.816  2.2086  0.3374 -0.3386
 4918SOL     OW26386   3.579   4.395  10.074  0.3280 -0.0415 -0.2613
 4918SOL    HW126387   3.622   4.421   9.992 -1.4872 -0.6930 -1.4133
 4918SOL    HW226388   3.543   4.477  10.108  2.1698  0.0993  1.3569
 4919SOL     OW26389   0.819   3.343   9.036 -0.3884  0.0498  0.3687
 4919SOL    HW126390   0.890   3.408   9.040 -0.2937 -0.0766  0.7706
 4919SOL    HW226391   0.748   3.393   8.997 -1.3687 -0.1025  1.9717
 4920SOL     OW26392   4.351   1.540   5.167  0.2567 -0.2826  0.0796
 4920SOL    HW126393   4.415   1.504   5.105 -2.5399 -2.1697 -1.6784
 4920SOL    HW226394   4.281   1.475   5.171  0.8682 -0.7375  3.5626
 4921SOL     OW26395   1.520   4.318   3.426 -0.1486  0.4118  0.0248
 4921SOL    HW126396   1.539   4.357   3.341 -0.3833 -3.8102 -1.9943
 4921SOL    HW226397   1.425   4.314   3.420 -0.1069  0.6581 -0.7871
 4922SOL     OW26398   4.022   0.397   4.516  0.4208  0.4718 -0.1140
 4922SOL    HW126399   3.958   0.429   4.453 -0.9488 -2.2366 -0.1051
 4922SOL    HW226400   3.989   0.310   4.539  0.7669  1.0846  2.7718
 4923SOL     OW26401   4.522   4.173  17.646  0.8135  0.5036 -0.0019
 4923SOL    HW126402   4.482   4.121  17.576  0.4201 -1.8374  1.9915
 4923SOL    HW226403   4.572   4.116  17.704 -1.0337  0.7796  1.8623
 4924SOL     OW26404   1.724   0.462   7.511  0.0380 -0.0273 -0.4716
 4924SOL    HW126405   1.725   0.437   7.603 -1.2570  1.8003  0.0383
 4924SOL    HW226406   1.801   0.520   7.504 -1.0606  1.3164 -1.3989
 4925SOL     OW26407   3.129   0.540   5.297 -0.1955 -0.0691 -0.2397
 4925SOL    HW126408   3.086   0.596   5.233 -1.7831 -1.5675 -0.4685
 4925SOL    HW226409   3.215   0.581   5.287  0.0233 -0.5567 -0.3382
 4926SOL     OW26410   0.318   2.521   5.542  0.3337  0.0400 -0.4774
 4926SOL    HW126411   0.271   2.490   5.464 -0.4490 -0.1233  0.0550
 4926SOL    HW226412   0.322   2.441   5.595 -1.7483 -0.3765 -0.9224
 4927SOL     OW26413   4.621   1.629  14.974 -0.0936 -0.0510 -0.1248
 4927SOL    HW126414   4.681   1.628  15.048  0.0300 -1.4259 -0.2332
 4927SOL    HW226415   4.663   1.568  14.913  1.3019  0.5544  0.2309
 4928SOL     OW26416   3.603   0.359   6.323  0.2664 -0.2789  0.2134
 4928SOL    HW126417   3.534   0.369   6.257  0.0475  0.5770  0.5728
 4928SOL    HW226418   3.670   0.423   6.300  0.6715 -1.0086 -0.6542
 4929SOL     OW26419   0.176   1.959   7.853 -0.5932  0.2956  0.2641
 4929SOL    HW126420   0.265   1.927   7.866 -1.1290 -1.3217  0.0201
 4929SOL    HW226421   0.176   1.952   7.757 -0.7561 -1.7199  0.4094
 4930SOL     OW26422   2.716   4.277   9.178  0.1697  0.1517  0.2598
 4930SOL    HW126423   2.763   4.197   9.158  0.5785  0.6235 -0.6621
 4930SOL    HW226424   2.752   4.338   9.113  0.5067 -2.2767 -1.8024
 4931SOL     OW26425   3.595   0.081  11.065  0.4211 -0.1558  0.2095
 4931SOL    HW126426   3.559   0.168  11.045  2.1099  0.0789 -1.8274
 4931SOL    HW226427   3.580   0.075  11.159  1.5535  2.4611  0.5498
 4932SOL     OW26428   0.322   1.005   6.129  0.2152 -0.2700  0.1103
 4932SOL    HW126429   0.357   1.027   6.216  0.3278  0.3130 -0.0851
 4932SOL    HW226430   0.357   1.072   6.070 -0.0651 -0.7153 -0.5548
 4933SOL     OW26431   1.056   0.221  11.365  0.6743  0.2184 -0.0735
 4933SOL    HW126432   1.038   0.130  11.340 -0.0016  0.4898 -0.5658
 4933SOL    HW226433   0.966   0.250  11.378  0.2483 -1.1171 -0.0979
 4934SOL     OW26434   0.366   0.987  14.428 -0.1868 -0.4329 -0.6672
 4934SOL    HW126435   0.452   0.957  14.456  0.7246  0.0149 -3.0631
 4934SOL    HW226436   0.394   1.031  14.349  1.3706  0.7767  0.5752
 4935SOL     OW26437   0.625   0.911   1.128 -0.3925  0.7290  0.2690
 4935SOL    HW126438   0.693   0.926   1.062  0.9859 -1.6865  1.1560
 4935SOL    HW226439   0.634   0.992   1.179  1.9856 -1.6595  3.6320
 4936SOL     OW26440   3.950   1.475   7.002 -0.6294  0.1133  0.2870
 4936SOL    HW126441   3.879   1.531   6.971 -1.4235 -0.5103  0.9799
 4936SOL    HW226442   3.940   1.471   7.097 -1.6445 -1.1389  0.1297
 4937SOL     OW26443   4.594   3.666   7.074  0.2384  0.1341 -0.1659
 4937SOL    HW126444   4.573   3.748   7.119  1.5557 -0.3205  1.2947
 4937SOL    HW226445   4.613   3.621   7.156 -0.0459 -2.4963 -1.5633
 4938SOL     OW26446   3.301   0.793   8.708  0.6868  0.0602  0.1335
 4938SOL    HW126447   3.294   0.712   8.657 -0.8272  0.4345 -0.2424
 4938SOL    HW226448   3.241   0.772   8.779  0.9053 -0.7874  0.0721
 4939SOL     OW26449   1.290   0.403   7.327  0.2061  0.2764  0.2808
 4939SOL    HW126450   1.309   0.469   7.260 -0.9402 -0.3714 -0.6865
 4939SOL    HW226451   1.255   0.328   7.278  0.2912 -0.4282  1.2998
 4940SOL     OW26452   4.018   0.910   3.173  0.5109 -0.1346 -0.4363
 4940SOL    HW126453   3.986   0.907   3.083  0.1590 -2.0815 -0.2563
 4940SOL    HW226454   4.038   0.816   3.180  0.2561 -0.2727 -1.5744
 4941SOL     OW26455   3.318   2.914   4.060 -0.1445 -0.3709 -0.4649
 4941SOL    HW126456   3.248   2.903   3.996  0.5001  2.4443 -1.6846
 4941SOL    HW226457   3.303   3.006   4.085  1.2962 -0.4054  0.4868
 4942SOL     OW26458   0.515   4.004   6.847 -0.2328  0.1145 -0.1229
 4942SOL    HW126459   0.600   4.012   6.804 -1.6674 -0.9135 -3.2098
 4942SOL    HW226460   0.482   3.918   6.820  0.1904  0.0210 -0.3487
 4943SOL     OW26461   2.643   1.596   9.779  0.3486  0.8558  0.3620
 4943SOL    HW126462   2.665   1.619   9.869  2.2421 -0.6579  0.2988
 4943SOL    HW226463   2.604   1.680   9.757  0.2028  0.1278 -2.2334
 4944SOL     OW26464   2.792   0.761   8.467 -0.0527  0.4587 -0.5205
 4944SOL    HW126465   2.786   0.795   8.556 -0.5851 -1.2663  0.1205
 4944SOL    HW226466   2.821   0.672   8.490 -2.0409 -0.0544  0.0205
 4945SOL     OW26467   3.307   1.393   9.106 -0.1868  0.0886 -0.4582
 4945SOL    HW126468   3.224   1.422   9.070 -0.6148 -0.1085  0.3796
 4945SOL    HW226469   3.321   1.462   9.171  1.4000  0.3885 -1.1042
 4946SOL     OW26470   1.151   4.345   3.670  0.4164  0.5142 -0.6236
 4946SOL    HW126471   1.142   4.427   3.719  0.6556  1.5934 -2.3365
 4946SOL    HW226472   1.153   4.381   3.581 -0.1739  3.6526  0.6422
 4947SOL     OW26473   3.114   2.378   4.146  0.6043 -0.2428  0.4379
 4947SOL    HW126474   3.208   2.380   4.126  0.3539  0.0450 -0.7130
 4947SOL    HW226475   3.092   2.286   4.131 -0.3650  0.1933 -0.8765
 4948SOL     OW26476   1.879   3.872   6.525 -0.4138 -0.6931  0.2445
 4948SOL    HW126477   1.954   3.901   6.473 -0.3635  0.2392  0.8280
 4948SOL    HW226478   1.920   3.822   6.596  1.3350 -0.2773 -0.4677
 4949SOL     OW26479   1.764   0.015   2.110  0.2243  0.2351  0.1360
 4949SOL    HW126480   1.773   0.102   2.071 -1.6383  1.4025  2.3685
 4949SOL    HW226481   1.807   4.702   2.043 -2.5291 -1.8239  0.0173
 4950SOL     OW26482   4.059   2.531  15.448 -0.5571  0.2140 -0.1491
 4950SOL    HW126483   4.080   2.624  15.460 -0.8975  0.2092  0.4952
 4950SOL    HW226484   4.148   2.497  15.454  0.0972  1.9251 -0.0352
 4951SOL     OW26485   1.957   3.022   2.801 -0.1589 -0.0154  0.2044
 4951SOL    HW126486   2.033   2.983   2.757  0.1339 -0.6687  1.2908
 4951SOL    HW226487   1.955   3.115   2.779 -1.0576 -0.4611 -1.5776
 4952SOL     OW26488   0.225   1.534   3.201 -0.3556 -0.4284 -0.7112
 4952SOL    HW126489   0.226   1.520   3.296  0.6347  2.0682 -0.3300
 4952SOL    HW226490   0.150   1.479   3.179 -0.5145 -0.2813 -0.5420
 4953SOL     OW26491   3.985   4.215  15.255  0.3609  0.0077  0.2003
 4953SOL    HW126492   4.039   4.258  15.322  0.0904  2.3055 -1.0893
 4953SOL    HW226493   3.911   4.166  15.292  0.2964 -0.1727 -0.1677
 4954SOL     OW26494   3.634   4.612   9.389  0.6453 -0.0556 -0.6048
 4954SOL    HW126495   3.674   4.684   9.340  4.0199 -0.7097  1.2036
 4954SOL    HW226496   3.563   4.588   9.329  0.6816 -0.9188 -0.2983
 4955SOL     OW26497   3.071   0.709   2.990 -0.2245 -0.1825 -0.1882
 4955SOL    HW126498   3.107   0.726   2.903  0.7680  1.0333  0.4706
 4955SOL    HW226499   3.019   0.630   2.974  1.4269 -1.1527 -0.7446
 4956SOL     OW26500   1.962   2.648   8.162 -0.3000 -0.0256 -0.0068
 4956SOL    HW126501   2.057   2.653   8.170 -0.2734 -0.6101  0.0226
 4956SOL    HW226502   1.936   2.715   8.099 -1.7566 -0.6255 -0.0385
 4957SOL     OW26503   4.519   1.737   4.892  0.0197 -0.2127 -0.2129
 4957SOL    HW126504   4.607   1.708   4.871  0.4259 -1.7461  3.7043
 4957SOL    HW226505   4.498   1.645   4.913  1.7824  0.0598  2.7169
 4958SOL     OW26506   4.065   0.011   8.754  0.7143  0.1601  0.0269
 4958SOL    HW126507   3.972   0.015   8.733  0.6449 -0.1649  0.2702
 4958SOL    HW226508   4.080   0.092   8.802 -0.8257  0.4208  0.0604
 4959SOL     OW26509   4.097   3.194  10.811 -0.1270 -0.1743 -0.2965
 4959SOL    HW126510   4.072   3.274  10.858  0.4812 -0.1571 -0.0063
 4959SOL    HW226511   4.114   3.230  10.724 -0.0635  1.0467  0.2062
 4960SOL     OW26512   0.917   1.878   6.352  0.1617 -0.1445  0.4323
 4960SOL    HW126513   1.010   1.861   6.336  0.0047  0.4239 -1.0637
 4960SOL    HW226514   0.923   1.967   6.386 -0.4397 -0.3110  0.9700
 4961SOL     OW26515   1.266   4.611   6.959  0.2332  0.1981 -0.1001
 4961SOL    HW126516   1.178   4.592   6.989 -0.5014  1.2312 -1.5621
 4961SOL    HW226517   1.266   4.553   6.882  2.4986 -0.8387  0.6855
 4962SOL     OW26518   1.372   2.537   1.073  0.0617  0.5970  0.1437
 4962SOL    HW126519   1.292   2.527   1.125 -1.5623  1.9959 -2.0789
 4962SOL    HW226520   1.413   2.604   1.127  0.0076  1.3384 -0.7341
 4963SOL     OW26521   3.065   4.668   0.979  0.1808  0.0633 -0.0224
 4963SOL    HW126522   3.077   4.633   0.890 -0.3534 -3.5553  1.3445
 4963SOL    HW226523   3.150   4.711   0.990  0.1156  0.7192 -2.0519
 4964SOL     OW26524   0.029   3.701   3.590  0.1056 -0.1794  0.2583
 4964SOL    HW126525   0.007   3.792   3.605  0.4466 -0.1017  0.2932
 4964SOL    HW226526   4.702   3.687   3.523  0.3354  0.7590 -0.1746
 4965SOL     OW26527   4.207   1.814   8.017  0.0844  0.0635 -0.2405
 4965SOL    HW126528   4.249   1.788   8.099 -0.9014 -2.4817 -0.5399
 4965SOL    HW226529   4.140   1.747   8.003  0.6696 -0.2673 -1.4748
 4966SOL     OW26530   3.541   2.246  16.689  0.5339 -0.2309 -0.1227
 4966SOL    HW126531   3.484   2.287  16.625  0.7711  0.7893  0.3256
 4966SOL    HW226532   3.556   2.326  16.739  0.1692  0.6922 -1.5061
 4967SOL     OW26533   2.053   3.599   3.263  0.3173  0.2910  0.2280
 4967SOL    HW126534   1.964   3.576   3.291  0.8077 -2.7476 -0.7203
 4967SOL    HW226535   2.042   3.694   3.274  1.6168  0.4675  0.0552
 4968SOL     OW26536   3.230   2.811  15.339  0.1453  0.6622  0.7047
 4968SOL    HW126537   3.231   2.888  15.283 -0.8897 -0.6655 -1.1283
 4968SOL    HW226538   3.316   2.771  15.332 -1.5502 -2.1775 -3.7560
 4969SOL     OW26539   0.255   3.702   6.972  0.5290  0.6735  0.3815
 4969SOL    HW126540   0.318   3.721   6.903  0.3087  0.4974  0.1339
 4969SOL    HW226541   0.172   3.719   6.927 -0.1379  0.1800  1.4125
 4970SOL     OW26542   3.651   3.098   2.958 -0.3090  0.3065 -0.2446
 4970SOL    HW126543   3.589   3.087   2.885 -1.6242 -0.2818  0.9448
 4970SOL    HW226544   3.699   3.176   2.932 -0.6702  1.0320  1.2934
 4971SOL     OW26545   3.799   4.065   5.121 -0.0216  0.3345  0.0133
 4971SOL    HW126546   3.786   3.980   5.162  0.5805  0.8141  1.2088
 4971SOL    HW226547   3.889   4.081   5.148  0.2527  1.0686 -1.3066
 4972SOL     OW26548   4.073   3.504  13.986 -0.2148  0.0307 -0.1946
 4972SOL    HW126549   4.057   3.457  14.068 -0.7081  0.5646  0.0168
 4972SOL    HW226550   4.011   3.467  13.922  1.3156 -0.8092 -1.2074
 4973SOL     OW26551   2.168   4.456   3.671  0.1092 -0.2677 -0.9323
 4973SOL    HW126552   2.085   4.498   3.692  0.0278 -1.3898  0.9553
 4973SOL    HW226553   2.148   4.438   3.579 -2.3854  0.2877 -0.4734
 4974SOL     OW26554   3.289   2.100   6.666  0.5793 -0.1829  1.0389
 4974SOL    HW126555   3.301   2.005   6.673  1.0353  0.0745  3.5964
 4974SOL    HW226556   3.363   2.123   6.610 -0.6832  0.4406 -0.3672
 4975SOL     OW26557   3.158   0.312   9.058 -0.1569  0.1519 -0.1177
 4975SOL    HW126558   3.173   0.403   9.031  1.4565  0.6484  2.4525
 4975SOL    HW226559   3.240   0.287   9.100 -0.1176  0.1274 -0.2103
 4976SOL     OW26560   1.322   3.672  10.560 -0.0016 -0.6589 -0.3465
 4976SOL    HW126561   1.339   3.578  10.564  1.2967 -0.3692  1.1635
 4976SOL    HW226562   1.332   3.688  10.654 -0.1185 -1.4788 -0.1910
 4977SOL     OW26563   0.167   1.566   5.418 -0.4231 -0.1246 -0.6606
 4977SOL    HW126564   0.173   1.661   5.424 -0.1726 -0.1964  0.1966
 4977SOL    HW226565   0.082   1.555   5.375 -0.4973 -0.5106 -0.4154
 4978SOL     OW26566   1.850   2.619   7.317  0.2697  0.2671  0.0085
 4978SOL    HW126567   1.756   2.620   7.300  0.4701 -0.8827 -1.1965
 4978SOL    HW226568   1.873   2.534   7.355  0.0760  0.1779 -0.0716
 4979SOL     OW26569   2.888   4.600   3.935 -0.1747 -0.1048 -0.2484
 4979SOL    HW126570   2.804   4.563   3.961 -0.1080  0.5964  0.9739
 4979SOL    HW226571   2.919   4.597   4.026  1.4863  0.6040 -0.7986
 4980SOL     OW26572   2.927   0.603   1.520 -0.3017 -0.1310  0.1721
 4980SOL    HW126573   2.900   0.655   1.596  0.0590  1.8149 -1.0305
 4980SOL    HW226574   2.909   0.512   1.544  0.2973  0.2640  2.1350
 4981SOL     OW26575   2.839   0.541  15.729 -0.0076 -0.3777  0.2693
 4981SOL    HW126576   2.853   0.515  15.820 -2.2277  1.5334  1.1795
 4981SOL    HW226577   2.890   0.622  15.723 -1.0824  0.2544 -0.4285
 4982SOL     OW26578   0.285   0.929   7.059 -0.1684  0.2068 -0.2807
 4982SOL    HW126579   0.297   1.018   7.090  0.6231 -0.3319  0.9678
 4982SOL    HW226580   0.201   0.928   7.013 -0.3939 -0.9402  0.1567
 4983SOL     OW26581   2.561   4.254   1.682  0.5449 -0.3295  0.5195
 4983SOL    HW126582   2.616   4.309   1.737  0.4451  2.5169 -2.2006
 4983SOL    HW226583   2.620   4.246   1.607 -1.1221 -0.0033 -0.8508
 4984SOL     OW26584   3.287   0.940   6.846 -0.4012  0.0040 -0.1485
 4984SOL    HW126585   3.304   0.864   6.902 -1.9142 -1.7784 -2.0595
 4984SOL    HW226586   3.212   0.973   6.895 -1.8885 -2.6594 -0.5792
 4985SOL     OW26587   1.002   4.733   6.312  0.4630 -0.3083 -0.2124
 4985SOL    HW126588   0.992   4.647   6.352  1.1406  0.0728  0.7949
 4985SOL    HW226589   0.910   0.022   6.309  0.5127  0.1559  2.5743
 4986SOL     OW26590   3.418   2.834   4.421  0.1117 -0.5285 -0.0338
 4986SOL    HW126591   3.364   2.780   4.364 -0.6972 -1.2644  1.4054
 4986SOL    HW226592   3.359   2.908   4.439  2.0876  1.2706 -1.0719
 4987SOL     OW26593   4.318   3.164  15.667  0.2242 -0.1656  0.0915
 4987SOL    HW126594   4.272   3.159  15.583 -0.8921  0.4090  0.6681
 4987SOL    HW226595   4.252   3.207  15.720  0.4953 -1.3372  1.3988
 4988SOL     OW26596   4.540   3.404   7.907 -0.5309 -0.0347 -0.2371
 4988SOL    HW126597   4.632   3.401   7.933 -0.6025 -2.6784 -0.3140
 4988SOL    HW226598   4.512   3.478   7.960  0.3793  1.1239 -1.3905
 4989SOL     OW26599   3.968   2.883   5.192  0.2093 -0.2641  0.2656
 4989SOL    HW126600   4.015   2.841   5.264 -0.1986  0.6150  1.0462
 4989SOL    HW226601   3.954   2.966   5.237 -0.3100 -1.5683  2.5205
 4990SOL     OW26602   0.796   3.371   4.196 -0.7696 -0.3372 -0.0397
 4990SOL    HW126603   0.807   3.301   4.132  1.0888  0.0102 -0.1124
 4990SOL    HW226604   0.712   3.350   4.236 -0.3941  1.7750  1.8769
 4991SOL     OW26605   4.266   2.352  16.488 -0.0951  0.0372  0.2321
 4991SOL    HW126606   4.196   2.360  16.553 -0.8669  0.9758 -0.7210
 4991SOL    HW226607   4.339   2.396  16.533 -1.5654  3.6228 -0.8346
 4992SOL     OW26608   2.315   2.930   1.580  0.2426  0.0187 -0.0609
 4992SOL    HW126609   2.350   2.988   1.647 -0.5874 -1.9293  2.0547
 4992SOL    HW226610   2.356   2.971   1.504 -1.5818  0.2467 -0.9188
 4993SOL     OW26611   1.586   3.671   3.230 -0.5286 -0.0701 -0.0281
 4993SOL    HW126612   1.661   3.650   3.286 -0.5798 -1.6845 -0.5556
 4993SOL    HW226613   1.618   3.754   3.194  0.1019  0.2840  1.3377
 4994SOL     OW26614   3.761   3.396  13.642 -0.5439 -0.1759  0.3222
 4994SOL    HW126615   3.668   3.419  13.636 -0.4006  0.1390 -0.6625
 4994SOL    HW226616   3.788   3.423  13.554 -0.2365  0.4789  0.6209
 4995SOL     OW26617   2.738   2.211  13.125 -0.0430 -0.5036 -0.5193
 4995SOL    HW126618   2.707   2.293  13.086 -0.2184 -1.0497 -1.5036
 4995SOL    HW226619   2.822   2.201  13.080 -0.6213  0.2645 -1.7530
 4996SOL     OW26620   0.929   3.189   7.640  0.1901 -0.3117 -0.0098
 4996SOL    HW126621   0.994   3.200   7.710  0.1083 -2.0492  0.3637
 4996SOL    HW226622   0.971   3.225   7.563  1.7563  1.6125  1.7586
 4997SOL     OW26623   0.216   4.560   7.317  0.1258  0.0569  0.9291
 4997SOL    HW126624   0.264   4.532   7.239 -1.4456  0.5508 -0.1984
 4997SOL    HW226625   0.259   4.518   7.392 -1.1216 -1.7387  0.6453
 4998SOL     OW26626   2.429   4.720   2.532  0.1232 -0.0192  0.2257
 4998SOL    HW126627   2.511   4.690   2.493  0.5112 -0.8017  1.6287
 4998SOL    HW226628   2.419   0.075   2.532  1.2544  0.0960 -0.6711
 4999SOL     OW26629   1.003   2.972   5.520 -0.1459  0.1118 -0.1899
 4999SOL    HW126630   1.082   2.989   5.470  0.2075  0.9770  0.6574
 4999SOL    HW226631   1.009   2.877   5.530  2.2832  0.4966  1.8627
 5000SOL     OW26632   1.480   0.996  15.266 -0.8904  0.5479  0.6332
 5000SOL    HW126633   1.553   0.976  15.324 -0.1879 -0.6055 -0.6619
 5000SOL    HW226634   1.448   0.912  15.233 -1.7611  1.2135 -0.2037
 5001SOL     OW26635   4.422   1.137   7.397  0.0820 -0.0077  0.6914
 5001SOL    HW126636   4.511   1.102   7.393  0.4429  0.8987  0.5995
 5001SOL    HW226637   4.438   1.211   7.456 -1.0919  1.4643 -0.8343
 5002SOL     OW26638   4.447   4.194   3.533  0.0593 -0.2640  0.5656
 5002SOL    HW126639   4.471   4.287   3.538  0.1823 -0.2992  0.6370
 5002SOL    HW226640   4.526   4.149   3.504 -0.7419  0.4940 -2.7565
 5003SOL     OW26641   4.051   2.640   1.599 -0.4411 -0.0572  0.2808
 5003SOL    HW126642   4.091   2.670   1.518  0.1384  1.2590  1.0473
 5003SOL    HW226643   3.985   2.707   1.618 -0.4575 -0.2958  1.0980
 5004SOL     OW26644   1.410   3.296   7.826 -0.1040 -0.8935  0.2304
 5004SOL    HW126645   1.315   3.307   7.819  0.1540  1.1791 -0.0614
 5004SOL    HW226646   1.443   3.364   7.767 -0.0596 -2.5554 -1.6680
 5005SOL     OW26647   3.720   0.242   6.562 -0.1318 -0.3276 -0.2775
 5005SOL    HW126648   3.655   0.243   6.492 -1.0414  0.5009  0.5927
 5005SOL    HW226649   3.735   0.334   6.584 -1.5460 -0.2048  0.1454
 5006SOL     OW26650   4.679   4.159   8.675 -0.1251 -0.4450 -0.2403
 5006SOL    HW126651   4.702   4.160   8.768  2.4360  1.8856 -0.8870
 5006SOL    HW226652   4.661   4.253   8.668  1.3857 -0.1298  0.1139
 5007SOL     OW26653   1.223   0.645   2.146 -0.2617 -0.0386 -0.2560
 5007SOL    HW126654   1.267   0.641   2.231  0.7577 -1.1825 -0.8313
 5007SOL    HW226655   1.277   0.577   2.104 -1.1112 -1.1174  0.4095
 5008SOL     OW26656   3.794   4.197   6.084  0.3013  0.7441 -0.1397
 5008SOL    HW126657   3.734   4.254   6.036 -0.3150 -2.6691 -3.5183
 5008SOL    HW226658   3.806   4.127   6.019 -1.2922  1.5105 -1.2695
 5009SOL     OW26659   3.395   2.100   1.512  0.8281  0.1361 -0.2661
 5009SOL    HW126660   3.481   2.083   1.550  1.0666  1.2719 -0.2860
 5009SOL    HW226661   3.344   2.039   1.566  0.0664  0.2770 -0.8252
 5010SOL     OW26662   0.588   0.335  10.786  0.3885  0.0707  0.8513
 5010SOL    HW126663   0.579   0.413  10.841  1.0776  0.4890  0.3720
 5010SOL    HW226664   0.634   0.280  10.848  0.2833  0.2271  1.0705
 5011SOL     OW26665   2.484   2.497   7.444 -0.5587 -0.3564  0.0508
 5011SOL    HW126666   2.466   2.540   7.527 -0.2831  1.5199 -0.8647
 5011SOL    HW226667   2.537   2.424   7.476  0.9562  0.2690 -1.0436
 5012SOL     OW26668   3.758   2.419   6.316 -0.2339 -0.1389 -0.0205
 5012SOL    HW126669   3.741   2.329   6.286  0.9597 -1.1038  2.1920
 5012SOL    HW226670   3.810   2.392   6.392  0.0363 -0.3415 -0.2740
 5013SOL     OW26671   4.418   3.416   3.130  0.0616  0.5588 -0.1623
 5013SOL    HW126672   4.381   3.328   3.139 -0.8212  0.7730 -1.6645
 5013SOL    HW226673   4.485   3.391   3.066  0.3410  0.4509  0.1768
 5014SOL     OW26674   3.331   4.695  15.958 -0.5135  0.7931  0.5443
 5014SOL    HW126675   3.333   4.653  15.872 -2.3614  0.2113  0.7740
 5014SOL    HW226676   3.246   4.663  15.990  0.2232 -1.3920  0.2950
 5015SOL     OW26677   3.730   0.617   0.475 -0.0713  0.2520 -0.1582
 5015SOL    HW126678   3.808   0.663   0.505  0.8545 -1.8011  0.5435
 5015SOL    HW226679   3.769   0.554   0.414  1.3283  1.4616 -0.4934
 5016SOL     OW26680   0.889   2.559   4.278  0.3332 -0.3109 -0.0314
 5016SOL    HW126681   0.805   2.516   4.291  1.5729 -2.3273  1.3225
 5016SOL    HW226682   0.933   2.478   4.253 -2.7843 -2.0776  0.2182
 5017SOL     OW26683   1.661   3.463  17.613 -0.2001  0.5597 -0.2905
 5017SOL    HW126684   1.648   3.393  17.677  1.8599  0.2323 -0.2351
 5017SOL    HW226685   1.719   3.422  17.549  0.2924  1.1273 -0.2130
 5018SOL     OW26686   0.952   3.482   4.386 -0.0857  0.0744  0.5285
 5018SOL    HW126687   0.902   3.448   4.460  1.9909 -0.8398  1.5141
 5018SOL    HW226688   0.903   3.450   4.310 -0.5198  0.5311  0.6154
 5019SOL     OW26689   1.436   0.354   3.182 -0.2770  0.1484  0.5235
 5019SOL    HW126690   1.530   0.369   3.175 -0.3655  0.4894  0.0444
 5019SOL    HW226691   1.414   0.445   3.162  2.2150  1.1123  2.2500
 5020SOL     OW26692   3.746   2.088   8.788  0.1454 -0.5858 -0.2658
 5020SOL    HW126693   3.673   2.028   8.775 -0.3629  0.2240 -1.0805
 5020SOL    HW226694   3.817   2.024   8.791  1.6769  1.1909  1.4655
 5021SOL     OW26695   1.855   1.965  12.713  0.5217  0.4184 -0.0017
 5021SOL    HW126696   1.896   1.884  12.682  0.7309  0.9848 -1.1916
 5021SOL    HW226697   1.770   1.956  12.671  0.4685 -0.9323  0.3863
 5022SOL     OW26698   0.845   0.170  11.826  0.3256  0.0760 -0.4327
 5022SOL    HW126699   0.818   0.087  11.788 -1.7661 -0.4933  2.3005
 5022SOL    HW226700   0.833   0.225  11.749  1.7911  3.0424  1.4589
 5023SOL     OW26701   3.100   1.811   6.782 -0.7581  0.4568  0.7949
 5023SOL    HW126702   3.159   1.800   6.857 -1.3933 -1.0105  1.0758
 5023SOL    HW226703   3.076   1.903   6.789 -2.4682 -0.0688  1.8190
 5024SOL     OW26704   1.607   2.178   8.702 -0.1722 -0.0692 -0.2845
 5024SOL    HW126705   1.647   2.174   8.616  3.3672 -0.4952  1.3925
 5024SOL    HW226706   1.556   2.097   8.691  0.2090 -0.5309  1.2808
 5025SOL     OW26707   0.658   2.348   5.836 -0.8108  0.1067  0.0689
 5025SOL    HW126708   0.635   2.438   5.812  1.2603  1.2575  2.4474
 5025SOL    HW226709   0.614   2.300   5.766 -0.1732 -0.9278  0.3809
 5026SOL     OW26710   3.317   4.553   1.888 -0.0144  1.1177 -0.8403
 5026SOL    HW126711   3.382   4.582   1.953  0.0829 -0.1071 -0.3965
 5026SOL    HW226712   3.363   4.566   1.805  1.2329 -0.0717 -0.3272
 5027SOL     OW26713   4.597   0.301   3.535  0.3552 -0.3430 -0.0565
 5027SOL    HW126714   4.555   0.301   3.621 -0.1802  0.8294 -0.3240
 5027SOL    HW226715   4.529   0.297   3.468  0.9320 -1.5413 -0.5671
 5028SOL     OW26716   2.560   1.242   8.715 -0.3453  0.1151 -0.1087
 5028SOL    HW126717   2.580   1.299   8.789 -0.6027 -2.4793  1.9646
 5028SOL    HW226718   2.502   1.183   8.764  1.4640 -2.7616 -1.4483
 5029SOL     OW26719   1.412   3.276   2.606 -0.0494 -0.4258 -0.2221
 5029SOL    HW126720   1.410   3.314   2.693  0.9905 -1.9107  0.4419
 5029SOL    HW226721   1.333   3.311   2.564  0.7496  0.4015 -1.0347
 5030SOL     OW26722   1.896   2.625   4.033 -0.1877  0.2485 -0.4283
 5030SOL    HW126723   1.910   2.608   4.126 -0.0104  0.3205 -0.4410
 5030SOL    HW226724   1.898   2.535   4.000 -0.8859 -0.3578  1.1649
 5031SOL     OW26725   1.470   4.483   4.282  0.1629  0.1483 -0.3858
 5031SOL    HW126726   1.524   4.508   4.357 -2.6111  1.7120  1.0921
 5031SOL    HW226727   1.417   4.562   4.284 -1.7001 -1.1054 -0.0594
 5032SOL     OW26728   4.218   0.211   0.931  0.0366  0.4007  0.0642
 5032SOL    HW126729   4.162   0.140   0.961 -0.0577 -0.1765 -1.4639
 5032SOL    HW226730   4.151   0.276   0.909 -0.0064  0.5092  0.5156
 5033SOL     OW26731   0.712   3.656   1.527 -0.6606 -0.0180  0.0263
 5033SOL    HW126732   0.785   3.598   1.505  0.3985  1.3278 -0.0180
 5033SOL    HW226733   0.696   3.696   1.441  0.4289 -0.5384 -0.4193
 5034SOL     OW26734   3.328   3.780   8.292  0.5303 -0.0996  0.0643
 5034SOL    HW126735   3.334   3.876   8.299  2.8684 -0.3433  1.5531
 5034SOL    HW226736   3.316   3.759   8.385 -1.0835  0.7201  0.0424
 5035SOL     OW26737   0.308   3.948  15.402  0.4048 -0.1511 -0.1618
 5035SOL    HW126738   0.313   4.028  15.351  1.4566  0.3469  0.7399
 5035SOL    HW226739   0.253   3.894  15.345 -0.3920 -1.4392  1.8141
 5036SOL     OW26740   3.511   2.454  10.362  0.5941 -0.1338 -0.0615
 5036SOL    HW126741   3.452   2.527  10.339 -1.1084 -1.3140  0.5823
 5036SOL    HW226742   3.446   2.388  10.338 -1.1316  0.6929  2.3644
 5037SOL     OW26743   1.496   3.973   4.840  0.2877 -0.3861  0.1514
 5037SOL    HW126744   1.529   3.988   4.751 -2.0869 -0.0583 -0.6581
 5037SOL    HW226745   1.403   3.993   4.829  0.7773 -0.4357 -4.1797
 5038SOL     OW26746   0.067   1.891   4.180 -0.3174  0.0752 -0.2725
 5038SOL    HW126747   4.714   1.884   4.159 -0.7931  2.0768  1.2188
 5038SOL    HW226748   0.117   1.822   4.137  1.3354  0.6337  0.7701
 5039SOL     OW26749   4.386   3.698   6.281 -0.4929 -0.3659 -0.7577
 5039SOL    HW126750   4.294   3.722   6.295 -0.5050 -1.2449  0.6634
 5039SOL    HW226751   4.389   3.723   6.189  1.1712 -2.6561 -1.3325
 5040SOL     OW26752   2.473   4.523  17.132 -0.2790  0.4806 -0.4466
 5040SOL    HW126753   2.507   4.609  17.159  1.7471 -0.6438  0.5993
 5040SOL    HW226754   2.544   4.509  17.070  0.7059  0.6112  0.6327
 5041SOL     OW26755   4.651   2.309  10.756 -0.3805  0.0926  0.5727
 5041SOL    HW126756   4.567   2.292  10.798  0.3843  2.3101  3.0009
 5041SOL    HW226757   4.679   2.218  10.746  1.4756  0.7767 -0.4961
 5042SOL     OW26758   2.148   1.756   8.078  0.5916  0.2054 -0.4328
 5042SOL    HW126759   2.068   1.704   8.084  0.2323  0.7167 -0.7489
 5042SOL    HW226760   2.180   1.724   7.994  2.3446 -0.8835  0.6500
 5043SOL     OW26761   4.511   4.079  14.941 -0.4605  0.5271 -0.0557
 5043SOL    HW126762   4.556   4.011  14.892 -1.1789  0.7016 -0.9566
 5043SOL    HW226763   4.441   4.104  14.881  0.6171  2.5568 -0.4866
 5044SOL     OW26764   1.889   0.279   0.575 -0.0756  0.9697 -0.0568
 5044SOL    HW126765   1.811   0.317   0.535 -0.6988 -1.6101 -1.3539
 5044SOL    HW226766   1.857   0.270   0.665 -0.0541  0.2001 -0.1223
 5045SOL     OW26767   0.909   2.447   7.726 -0.0589 -0.3613  0.0631
 5045SOL    HW126768   0.855   2.525   7.713  1.9044  0.6183 -2.3465
 5045SOL    HW226769   0.868   2.398   7.656 -0.9884  0.2398  0.1827
 5046SOL     OW26770   0.392   1.823   2.271  0.5496  0.5512 -0.3673
 5046SOL    HW126771   0.324   1.868   2.222  0.3479  0.4550 -0.1725
 5046SOL    HW226772   0.349   1.771   2.339 -0.5868 -1.5204 -2.6982
 5047SOL     OW26773   0.391   3.911  15.662  0.0124 -0.0613 -0.2021
 5047SOL    HW126774   0.459   3.845  15.650 -1.0074 -0.7413 -2.2526
 5047SOL    HW226775   0.375   3.931  15.570  0.5982  0.1006 -0.2648
 5048SOL     OW26776   2.853   3.017  10.207 -0.2998  0.3572 -0.3441
 5048SOL    HW126777   2.879   3.026  10.299 -1.0526  0.7910 -0.1765
 5048SOL    HW226778   2.776   3.074  10.207  0.5647  1.5361  0.7267
 5049SOL     OW26779   1.976   1.160  17.256  0.1685  0.2246 -0.5570
 5049SOL    HW126780   2.032   1.121  17.189  0.4426 -2.0481  1.0153
 5049SOL    HW226781   1.896   1.115  17.232 -0.0856  0.3334  0.1087
 5050SOL     OW26782   1.178   2.779   1.924 -0.4230  0.0897  0.2373
 5050SOL    HW126783   1.197   2.755   2.015 -0.9392 -0.7292  0.1280
 5050SOL    HW226784   1.141   2.867   1.935  2.0235  0.9631  1.6496
 5051SOL     OW26785   2.764   2.695  10.446  0.4230  0.3169  0.0861
 5051SOL    HW126786   2.848   2.709  10.490  0.6787 -1.7304  0.2456
 5051SOL    HW226787   2.703   2.731  10.510 -0.7196 -0.5440 -0.5108
 5052SOL     OW26788   3.074   0.752  11.326  0.4072 -0.1899  0.2357
 5052SOL    HW126789   3.092   0.813  11.398  1.3356  0.4663 -0.5522
 5052SOL    HW226790   3.155   0.731  11.279  0.4540  0.4330  0.0412
 5053SOL     OW26791   1.412   4.223   2.480  0.3429  0.2031  0.0307
 5053SOL    HW126792   1.437   4.135   2.506  0.8281  0.7553  1.4459
 5053SOL    HW226793   1.317   4.221   2.470  0.0729  0.5875  2.4788
 5054SOL     OW26794   2.377   2.069   8.195  0.3355  0.4198 -0.2462
 5054SOL    HW126795   2.351   2.142   8.251 -1.7665 -0.9578  0.5583
 5054SOL    HW226796   2.325   1.994   8.224 -0.0998  1.2047  0.9637
 5055SOL     OW26797   0.272   3.494   8.104  0.5057  0.3127 -0.5772
 5055SOL    HW126798   0.260   3.551   8.179  2.1308  0.1411 -0.1911
 5055SOL    HW226799   0.256   3.546   8.026 -2.3817  1.3841  0.7385
 5056SOL     OW26800   0.428   3.888   4.333 -0.1724 -0.2789  0.8634
 5056SOL    HW126801   0.427   3.884   4.429 -0.3999 -0.9781  0.8354
 5056SOL    HW226802   0.445   3.979   4.313  0.4200 -0.1695  1.8623
 5057SOL     OW26803   4.298   1.785   3.573  0.0981 -0.0040  0.1151
 5057SOL    HW126804   4.351   1.762   3.649  1.2921 -3.2852 -1.7221
 5057SOL    HW226805   4.368   1.778   3.508  0.5061 -1.6154  0.7380
 5058SOL     OW26806   0.725   0.800   1.812 -0.4056 -0.4300 -0.8993
 5058SOL    HW126807   0.797   0.815   1.873 -0.5617  1.6571 -1.2065
 5058SOL    HW226808   0.729   0.705   1.814 -0.5403 -0.4370 -0.9256
 5059SOL     OW26809   3.414   3.567   2.885 -0.3259  0.0489 -0.1717
 5059SOL    HW126810   3.486   3.578   2.947 -1.0420 -4.8124  1.5824
 5059SOL    HW226811   3.416   3.472   2.873 -0.7678  0.3144 -2.4158
 5060SOL     OW26812   0.774   4.519   4.515  0.1452 -0.3975 -0.1717
 5060SOL    HW126813   0.819   4.491   4.594  0.3123  2.0200  0.5849
 5060SOL    HW226814   0.777   4.612   4.535  1.5370 -0.4301 -0.2302
 5061SOL     OW26815   1.118   3.397   5.750  0.2464 -0.8301  0.2686
 5061SOL    HW126816   1.135   3.320   5.697  0.2334 -1.4243  1.1182
 5061SOL    HW226817   1.193   3.388   5.808  0.8484  0.2902 -0.3442
 5062SOL     OW26818   1.678   1.425  11.325  0.3383 -0.2125 -0.4132
 5062SOL    HW126819   1.618   1.369  11.373  0.1054  0.4696  0.0861
 5062SOL    HW226820   1.671   1.506  11.374  0.8021  0.1684 -0.9746
 5063SOL     OW26821   2.904   3.833   4.358  0.3991 -0.5504 -0.0147
 5063SOL    HW126822   2.901   3.919   4.315 -1.2925 -0.2479  0.6883
 5063SOL    HW226823   2.945   3.778   4.291  1.9483 -0.3102  0.7590
 5064SOL     OW26824   1.364   4.083   6.233 -0.1287 -0.7960  0.3605
 5064SOL    HW126825   1.372   4.069   6.139  0.2657 -0.5529  0.3584
 5064SOL    HW226826   1.459   4.094   6.239 -0.0214 -0.7312 -1.4229
 5065SOL     OW26827   4.331   0.625   3.821 -0.1789  0.5261 -0.1616
 5065SOL    HW126828   4.368   0.685   3.886  1.1217  0.0097 -0.4294
 5065SOL    HW226829   4.415   0.602   3.780 -0.9479 -1.7947 -0.4434
 5066SOL     OW26830   4.570   2.999   5.928  0.3324  0.3762  0.0117
 5066SOL    HW126831   4.584   2.967   5.839  1.2368  0.3257  0.1734
 5066SOL    HW226832   4.647   3.055   5.938  0.9589 -0.9912  2.7557
 5067SOL     OW26833   1.791   3.030  13.343  0.2618 -0.0376  0.3548
 5067SOL    HW126834   1.786   3.059  13.434 -1.2886 -1.0266  0.5770
 5067SOL    HW226835   1.705   3.002  13.314  0.3611 -0.6846  0.6990
 5068SOL     OW26836   4.295   3.173   8.448  0.5372 -0.4828 -0.2996
 5068SOL    HW126837   4.281   3.097   8.505 -0.2913 -0.9967 -1.2001
 5068SOL    HW226838   4.216   3.184   8.396  0.0236 -1.2318  0.3177
 5069SOL     OW26839   1.966   2.842   6.586  0.1611  0.0309 -0.2257
 5069SOL    HW126840   1.885   2.858   6.537 -0.3577  1.1303  0.9954
 5069SOL    HW226841   1.990   2.929   6.619 -1.7002  0.4280  0.0487
 5070SOL     OW26842   2.440   3.668  11.648 -0.0573 -0.4440  0.4179
 5070SOL    HW126843   2.422   3.607  11.720 -1.0950  0.6168  1.0582
 5070SOL    HW226844   2.494   3.617  11.588  1.3394  1.9191 -0.3221
 5071SOL     OW26845   3.085   4.512   3.772  0.4867  0.3862 -0.4224
 5071SOL    HW126846   3.027   4.536   3.845  2.2361 -0.8031  1.3456
 5071SOL    HW226847   3.038   4.440   3.731  0.9780 -1.0166  1.4573
 5072SOL     OW26848   3.940   0.485  14.714 -0.4738 -0.3938  0.0445
 5072SOL    HW126849   3.863   0.537  14.738 -0.3527 -0.2883  0.2102
 5072SOL    HW226850   3.996   0.555  14.682  1.0287 -0.8609  1.6331
 5073SOL     OW26851   4.219   3.968  10.962  0.3722 -0.0903 -0.4403
 5073SOL    HW126852   4.299   3.926  10.995 -0.6822 -2.5846 -1.0727
 5073SOL    HW226853   4.217   4.042  11.023 -0.2508  0.3239 -0.9737
 5074SOL     OW26854   3.524   4.241   7.286  0.0928  0.0026  0.1655
 5074SOL    HW126855   3.610   4.283   7.277 -0.0419  0.0496 -0.8667
 5074SOL    HW226856   3.490   4.263   7.200  0.6693 -2.1190 -0.6163
 5075SOL     OW26857   3.477   0.594   2.262 -0.2625  0.1767 -0.1460
 5075SOL    HW126858   3.489   0.506   2.298 -0.3415  0.0820 -0.3565
 5075SOL    HW226859   3.566   0.619   2.235 -0.1868 -2.1246 -1.9995
 5076SOL     OW26860   0.058   4.191   4.394  0.0679 -1.0748 -0.5229
 5076SOL    HW126861   4.704   4.173   4.403  0.0035 -1.1763 -1.3495
 5076SOL    HW226862   0.095   4.108   4.423  2.9826  0.1806 -0.6604
 5077SOL     OW26863   4.516   3.816   1.761 -0.3507 -0.5095 -0.4824
 5077SOL    HW126864   4.458   3.872   1.709 -1.1912 -1.4176 -0.5160
 5077SOL    HW226865   4.447   3.763   1.801 -0.3683 -0.5688 -0.5923
 5078SOL     OW26866   0.814   0.842   4.933  0.1758  0.0939  0.2076
 5078SOL    HW126867   0.845   0.752   4.920 -1.0419 -0.5329  1.7288
 5078SOL    HW226868   0.720   0.830   4.920  0.2488 -0.9511  0.6367
 5079SOL     OW26869   3.382   0.373   8.486  0.2225 -0.1843 -0.3872
 5079SOL    HW126870   3.351   0.351   8.574  0.9080 -0.6409 -0.2581
 5079SOL    HW226871   3.309   0.333   8.438  0.1802  0.2347 -0.6667
 5080SOL     OW26872   0.960   1.372   6.636 -0.7598  0.2294  0.3578
 5080SOL    HW126873   0.987   1.441   6.577  1.0555 -0.4408  0.3987
 5080SOL    HW226874   0.871   1.404   6.652 -1.1410  0.3674 -2.0308
 5081SOL     OW26875   1.824   2.068  13.587 -0.4659 -0.5501 -0.1108
 5081SOL    HW126876   1.801   1.975  13.585  1.6944 -1.0905  0.1024
 5081SOL    HW226877   1.757   2.109  13.641  1.8439  1.3612  1.3072
 5082SOL     OW26878   1.956   1.243   9.584 -0.1370  0.0431  0.6727
 5082SOL    HW126879   2.042   1.272   9.552  0.5987 -2.3720  0.3726
 5082SOL    HW226880   1.977   1.171   9.645  0.9031 -0.1311  0.1049
 5083SOL     OW26881   4.328   4.346  12.264  0.3863  0.3514 -0.7809
 5083SOL    HW126882   4.396   4.296  12.309 -0.6169  0.0535  0.3897
 5083SOL    HW226883   4.247   4.302  12.290  0.4002  1.1745  0.6919
 5084SOL     OW26884   2.863   0.067   3.778 -0.2218 -0.3789  0.2282
 5084SOL    HW126885   2.896   0.048   3.690  0.6621  0.5021  0.3636
 5084SOL    HW226886   2.901   4.735   3.828  2.0154  1.1729  0.7888
 5085SOL     OW26887   4.034   2.235   3.200 -0.5421 -0.4437 -0.4717
 5085SOL    HW126888   3.958   2.277   3.241 -0.4704 -0.8336  0.0561
 5085SOL    HW226889   4.038   2.284   3.118 -1.2345 -0.8779 -0.7622
 5086SOL     OW26890   3.494   3.788   6.765 -0.4632  0.4077 -0.4588
 5086SOL    HW126891   3.544   3.715   6.727  0.4227  0.5025  0.5134
 5086SOL    HW226892   3.521   3.862   6.711 -0.2310  2.6178  2.6697
 5087SOL     OW26893   2.516   1.665  13.848  0.4059  0.3744  0.1876
 5087SOL    HW126894   2.557   1.752  13.848 -2.2647  1.6398  0.2225
 5087SOL    HW226895   2.530   1.621  13.932  0.8935 -0.7694 -0.4973
 5088SOL     OW26896   1.595   1.492   8.994  0.0427  0.4515 -0.0378
 5088SOL    HW126897   1.680   1.522   9.026  1.1082 -2.1657 -0.4495
 5088SOL    HW226898   1.570   1.429   9.061  0.9970  1.9653  1.7447
 5089SOL     OW26899   0.069   2.684   4.874 -0.3581  0.3018 -0.0927
 5089SOL    HW126900   0.099   2.616   4.813 -0.6862 -0.5791  0.7210
 5089SOL    HW226901   0.055   2.756   4.813 -3.2127  0.9447  1.3044
 5090SOL     OW26902   2.307   1.845   9.844  0.2591  0.5470  0.3912
 5090SOL    HW126903   2.313   1.940   9.849 -0.9503  0.6789 -0.4544
 5090SOL    HW226904   2.392   1.815   9.812  0.3247  1.7123 -0.5147
 5091SOL     OW26905   4.144   1.283  10.112  0.3057 -0.2926 -0.2673
 5091SOL    HW126906   4.183   1.201  10.080 -2.3346 -2.0087  0.8951
 5091SOL    HW226907   4.054   1.251  10.120 -0.0187  0.9839  1.1594
 5092SOL     OW26908   2.665   3.127  10.541  0.2866  0.5490 -0.0034
 5092SOL    HW126909   2.617   3.119  10.458 -0.3355  0.3761  0.3778
 5092SOL    HW226910   2.750   3.101  10.505 -0.6048 -1.3969 -0.6908
 5093SOL     OW26911   0.324   3.817   3.822 -0.1917  0.3017  0.4724
 5093SOL    HW126912   0.255   3.878   3.846 -0.6321  0.1453 -0.3915
 5093SOL    HW226913   0.383   3.835   3.896 -0.7793  3.4216  0.1783
 5094SOL     OW26914   4.134   3.682   5.584  0.1348  0.1352  0.1780
 5094SOL    HW126915   4.061   3.655   5.528  1.6540 -0.1879 -1.6094
 5094SOL    HW226916   4.180   3.740   5.524 -1.9162 -0.3513 -1.8571
 5095SOL     OW26917   4.528   2.734   6.062 -0.2875 -0.1765  0.4263
 5095SOL    HW126918   4.605   2.739   6.119  0.2898  3.1792 -0.6558
 5095SOL    HW226919   4.524   2.825   6.032 -0.2257 -0.4269 -0.3407
 5096SOL     OW26920   3.060   0.843  17.637  0.2634 -0.0610  0.2097
 5096SOL    HW126921   2.969   0.875  17.638  0.0749 -0.6280  1.3031
 5096SOL    HW226922   3.043   0.750  17.620 -0.5591 -0.0401  0.8999
 5097SOL     OW26923   1.591   3.513   4.551 -0.4260 -0.2915 -0.2772
 5097SOL    HW126924   1.513   3.469   4.585  1.0511 -2.1962  0.6671
 5097SOL    HW226925   1.559   3.567   4.479 -3.4481 -0.9135  0.5770
 5098SOL     OW26926   2.578   4.574   9.542 -0.0741  0.9559  0.2644
 5098SOL    HW126927   2.565   4.497   9.486  0.5981  1.0276  0.0070
 5098SOL    HW226928   2.628   4.543   9.617 -0.0820  2.5702  0.9229
 5099SOL     OW26929   0.139   1.259   4.356  0.0788 -0.6120 -0.1775
 5099SOL    HW126930   0.163   1.277   4.266 -0.6436 -2.0408 -0.6533
 5099SOL    HW226931   0.186   1.176   4.367 -1.5171 -1.4755  0.0801
 5100SOL     OW26932   1.940   4.343   4.563 -0.3357  0.5516  0.6945
 5100SOL    HW126933   1.877   4.385   4.505 -1.2352 -0.2188  1.1021
 5100SOL    HW226934   1.916   4.251   4.574 -0.0627  0.2045 -1.5702
 5101SOL     OW26935   0.990   0.261   1.192 -0.0432 -0.4176 -0.1276
 5101SOL    HW126936   1.065   0.318   1.175 -1.5827  1.7681  0.4973
 5101SOL    HW226937   0.982   0.262   1.287  2.5412 -0.5114  0.1014
 5102SOL     OW26938   2.668   2.387   7.906 -0.4387 -0.1630 -0.0471
 5102SOL    HW126939   2.753   2.347   7.924 -0.6613 -0.7726 -0.3520
 5102SOL    HW226940   2.622   2.311   7.871  2.4076 -1.0907 -1.7456
 5103SOL     OW26941   3.056   0.168   0.648 -0.3900  0.0633  0.2104
 5103SOL    HW126942   3.052   0.205   0.737  1.1209  0.4723  0.1120
 5103SOL    HW226943   3.042   0.075   0.661 -1.1392 -0.0526 -1.5195
 5104SOL     OW26944   4.703   0.171   8.794 -0.4168  0.3550 -0.1885
 5104SOL    HW126945   4.667   0.259   8.781  0.4442  1.0409  2.0379
 5104SOL    HW226946   4.643   0.137   8.860 -1.3458  1.4466 -0.4597
 5105SOL     OW26947   0.567   3.415   2.260 -0.4558  0.7440  0.1079
 5105SOL    HW126948   0.571   3.411   2.356  1.9766  5.0665  0.1600
 5105SOL    HW226949   0.656   3.429   2.231  0.0809 -0.8142  0.9852
 5106SOL     OW26950   2.468   3.518   5.593  0.2716 -0.1318 -0.1379
 5106SOL    HW126951   2.394   3.511   5.533  0.8606  2.6483 -1.2413
 5106SOL    HW226952   2.459   3.608   5.626 -1.8909 -0.9588  1.4764
 5107SOL     OW26953   2.769   2.367   9.100 -0.0292  0.1900 -0.0462
 5107SOL    HW126954   2.676   2.345   9.108 -0.1730  0.8128 -0.0491
 5107SOL    HW226955   2.756   2.462   9.103  2.7759  0.6189 -1.6747
 5108SOL     OW26956   2.036   2.020   4.546 -0.1841  1.0637  0.1080
 5108SOL    HW126957   1.959   2.068   4.576 -0.6562  1.4076 -1.6313
 5108SOL    HW226958   2.036   2.040   4.452 -0.7122 -1.1609 -0.3565
 5109SOL     OW26959   1.080   3.336   8.753  0.0865 -0.4788 -0.4083
 5109SOL    HW126960   1.020   3.310   8.682 -0.4186  0.2494 -0.2462
 5109SOL    HW226961   1.018   3.398   8.792  1.1422  1.0838 -1.1819
 5110SOL     OW26962   3.441   4.476   8.671 -0.1745  0.5035  0.5848
 5110SOL    HW126963   3.488   4.464   8.754 -1.7698  0.6223  1.4974
 5110SOL    HW226964   3.353   4.487   8.707 -0.0577  1.7296  0.5063
 5111SOL     OW26965   3.598   2.226   3.164 -0.0706  0.5193 -0.3625
 5111SOL    HW126966   3.565   2.268   3.084  0.0394  0.5838 -0.3735
 5111SOL    HW226967   3.555   2.274   3.235  0.4392  0.9390 -0.3345
 5112SOL     OW26968   3.413   2.688   1.301  0.1731  0.1819  0.3808
 5112SOL    HW126969   3.320   2.690   1.278  0.0218 -1.0536  0.8939
 5112SOL    HW226970   3.448   2.617   1.247  0.3627 -0.0811  0.8526
 5113SOL     OW26971   1.141   0.348   0.225  0.0432 -0.3238 -0.3144
 5113SOL    HW126972   1.059   0.301   0.239 -1.5597  2.5593  0.1345
 5113SOL    HW226973   1.191   0.357   0.306  0.9622 -0.1465 -0.8967
 5114SOL     OW26974   3.783   3.513   8.980  0.1364 -0.3180 -0.1897
 5114SOL    HW126975   3.712   3.506   9.044  1.1733  0.1982  0.9964
 5114SOL    HW226976   3.808   3.421   8.972  0.9107 -0.3644  2.9945
 5115SOL     OW26977   0.089   0.756  10.611 -0.0112 -0.6121  0.3379
 5115SOL    HW126978   0.164   0.711  10.571  0.2940  1.6413 -1.5998
 5115SOL    HW226979   0.120   0.846  10.621  0.3878 -0.9414  2.0480
 5116SOL     OW26980   2.679   4.440   9.764 -0.3893  0.1028  0.4632
 5116SOL    HW126981   2.705   4.439   9.856 -1.0157 -0.0652  0.6418
 5116SOL    HW226982   2.670   4.344   9.759  2.0891 -0.0569 -0.6825
 5117SOL     OW26983   1.773   3.485   7.642 -0.3649  0.3033  0.2501
 5117SOL    HW126984   1.694   3.539   7.633 -0.0598  0.5430 -1.0519
 5117SOL    HW226985   1.746   3.404   7.598  1.3652 -1.0111  1.6107
 5118SOL     OW26986   2.076   1.916   6.901 -0.0162 -0.4010 -0.2557
 5118SOL    HW126987   2.158   1.959   6.924 -0.9949  1.7978 -0.8146
 5118SOL    HW226988   2.089   1.864   6.822  2.5420  0.3601 -0.3249
 5119SOL     OW26989   4.211   0.505   9.958 -0.2560  0.0341  0.3746
 5119SOL    HW126990   4.215   0.424   9.907  0.7455 -0.9090  1.9834
 5119SOL    HW226991   4.283   0.491  10.019  1.7775  0.1424 -1.9857
 5120SOL     OW26992   0.552   1.686   4.669 -0.4787 -0.0452  0.1160
 5120SOL    HW126993   0.482   1.656   4.728 -0.7473 -1.5964 -1.0027
 5120SOL    HW226994   0.616   1.615   4.673 -0.4432 -0.0412 -0.4068
 5121SOL     OW26995   3.015   1.885  11.198  0.1835 -0.0057 -0.2624
 5121SOL    HW126996   2.927   1.853  11.220  0.2718 -1.6974 -2.4297
 5121SOL    HW226997   3.003   1.974  11.233 -1.6707 -0.6482  0.7469
 5122SOL     OW26998   3.733   0.521   7.753  0.5488 -0.1165 -0.0857
 5122SOL    HW126999   3.822   0.535   7.723  2.1371 -2.5875  3.3792
 5122SOL    HW227000   3.743   0.523   7.848 -0.4298  0.1813  0.0094
 5123SOL     OW27001   2.133   2.891  14.925  0.2314  0.1224  0.4416
 5123SOL    HW127002   2.160   2.871  15.015 -0.8512  0.9274  0.9589
 5123SOL    HW227003   2.121   2.986  14.931  4.2229  0.7724 -1.4777
 5124SOL     OW27004   1.203   0.671   0.084  0.4196  0.1409  0.3148
 5124SOL    HW127005   1.201   0.698   0.176  0.9893  2.6591 -0.4079
 5124SOL    HW227006   1.298   0.668   0.080  0.4424  1.8285 -0.3096
 5125SOL     OW27007   3.459   4.119   8.407  0.4341  0.2279 -0.0277
 5125SOL    HW127008   3.432   4.211   8.406  0.8456  0.3887  2.3007
 5125SOL    HW227009   3.423   4.099   8.494 -2.5389 -2.4598 -1.8730
 5126SOL     OW27010   0.453   3.341   1.619 -0.7078  0.2665  0.0001
 5126SOL    HW127011   0.358   3.330   1.621 -0.6451 -0.1234  1.0737
 5126SOL    HW227012   0.474   3.260   1.666  0.5064  1.3018  1.2623
 5127SOL     OW27013   0.265   3.541   4.434  0.4797  0.1020  0.4647
 5127SOL    HW127014   0.306   3.500   4.511  0.2879  0.7589  0.9149
 5127SOL    HW227015   0.237   3.462   4.388 -0.1746  0.9031 -0.5053
 5128SOL     OW27016   3.271   0.896   5.765  0.4342 -0.6091  0.0465
 5128SOL    HW127017   3.351   0.947   5.748  0.3683 -0.4524  0.2161
 5128SOL    HW227018   3.299   0.847   5.842 -2.8197 -0.6473  1.1955
 5129SOL     OW27019   3.395   1.546  12.101  0.2632  0.1683  0.4432
 5129SOL    HW127020   3.405   1.465  12.151 -1.7160 -0.3471 -0.0033
 5129SOL    HW227021   3.340   1.603  12.155  1.0634  0.8221  0.5718
 5130SOL     OW27022   1.897   0.430  12.768 -0.1902 -0.7937 -0.5063
 5130SOL    HW127023   1.889   0.377  12.689 -0.9911  2.8136 -2.8379
 5130SOL    HW227024   1.809   0.466  12.769  0.0507 -0.1718 -1.8712
 5131SOL     OW27025   4.410   2.284   8.437  0.4653 -0.0039 -0.6031
 5131SOL    HW127026   4.326   2.330   8.433  0.3084 -0.2974 -0.6565
 5131SOL    HW227027   4.476   2.352   8.452  0.0002  0.1185  0.9502
 5132SOL     OW27028   2.638   4.466   7.938  0.0848  0.1259  0.4441
 5132SOL    HW127029   2.654   4.380   7.900  1.1604  0.2902  0.5350
 5132SOL    HW227030   2.583   4.448   8.014 -0.5432 -0.7933 -0.2316
 5133SOL     OW27031   0.017   2.890   1.989 -0.1942 -0.4585  0.7721
 5133SOL    HW127032   0.101   2.857   1.957 -0.2011  0.0113  0.2709
 5133SOL    HW227033   0.001   2.963   1.929  1.5094 -0.6812  0.0514
 5134SOL     OW27034   1.488   4.697   8.147 -0.4230 -0.1039 -0.5187
 5134SOL    HW127035   1.412   4.663   8.195 -0.7531  1.1978 -0.1314
 5134SOL    HW227036   1.488   4.660   8.058  2.0967 -0.4448 -0.3869
 5135SOL     OW27037   3.986   4.527   1.988  0.0576  0.4409 -0.4736
 5135SOL    HW127038   4.004   4.437   1.959 -2.5699  0.4999 -2.2140
 5135SOL    HW227039   4.011   4.574   1.909  4.3911 -1.3970 -0.1989
 5136SOL     OW27040   2.965   2.341   3.595  0.2645  0.5956 -0.3516
 5136SOL    HW127041   3.053   2.336   3.632  0.2575 -0.4162 -0.4774
 5136SOL    HW227042   2.927   2.405   3.656 -0.2843 -0.7333  0.7096
 5137SOL     OW27043   3.773   4.320   7.237 -0.7243 -0.0125  0.6777
 5137SOL    HW127044   3.759   4.327   7.142  0.1517  0.6695  0.6033
 5137SOL    HW227045   3.867   4.321   7.224 -0.9446 -2.0141 -1.0610
 5138SOL     OW27046   3.269   0.653  12.653 -0.6058 -0.1601 -0.2863
 5138SOL    HW127047   3.185   0.673  12.613 -3.0562 -0.3482  4.7812
 5138SOL    HW227048   3.255   0.636  12.746 -1.5952  2.2849 -0.0119
 5139SOL     OW27049   3.101   3.766   1.403 -0.2676 -0.1151  0.0576
 5139SOL    HW127050   3.036   3.834   1.419 -1.0780 -0.5029 -1.5323
 5139SOL    HW227051   3.179   3.815   1.428 -0.8375  0.6950  0.2392
 5140SOL     OW27052   3.375   4.589   6.648 -0.3354  0.4864 -0.0071
 5140SOL    HW127053   3.452   4.645   6.661  1.2698 -1.7997  0.2151
 5140SOL    HW227054   3.371   4.530   6.724  5.0061 -1.0124 -0.8835
 5141SOL     OW27055   3.816   2.768   2.271 -0.1093 -0.1155  0.4174
 5141SOL    HW127056   3.837   2.756   2.179  0.3390  1.1956  0.3566
 5141SOL    HW227057   3.762   2.691   2.292 -0.9745  0.2082 -0.6342
 5142SOL     OW27058   0.450   2.362  12.576 -0.0344 -0.1683  0.2943
 5142SOL    HW127059   0.535   2.332  12.609  0.3048  1.4838  0.9123
 5142SOL    HW227060   0.459   2.456  12.561 -0.9356 -0.0912  0.2567
 5143SOL     OW27061   1.951   4.656  14.853 -0.0475 -0.0452 -0.5584
 5143SOL    HW127062   2.029   4.672  14.800  0.9084 -2.8221  0.0235
 5143SOL    HW227063   1.882   4.679  14.791 -0.5317  0.8606  0.3179
 5144SOL     OW27064   4.576   1.187   5.023 -0.8574 -0.3997  0.1381
 5144SOL    HW127065   4.523   1.107   5.021 -0.1148 -0.8844  0.1066
 5144SOL    HW227066   4.590   1.200   5.117 -1.1079 -1.3849  0.3185
 5145SOL     OW27067   1.641   3.578  10.207  0.4283  0.2682 -0.2933
 5145SOL    HW127068   1.662   3.567  10.299  1.1323 -0.8792 -0.5874
 5145SOL    HW227069   1.693   3.658  10.197  1.7677 -0.4647  0.7980
 5146SOL     OW27070   4.420   2.959   7.887  0.2524 -0.3041  0.0753
 5146SOL    HW127071   4.498   3.000   7.925  1.0461 -2.0769  0.3534
 5146SOL    HW227072   4.366   3.035   7.868 -1.2871 -1.4881 -0.3024
 5147SOL     OW27073   3.676   2.695   9.096 -0.3611  1.0504  0.5925
 5147SOL    HW127074   3.719   2.610   9.096 -0.6230  0.9214  0.4674
 5147SOL    HW227075   3.622   2.689   9.175  0.6048 -0.5101  1.1401
 5148SOL     OW27076   0.924   3.098   1.632  0.6039  0.5007 -0.2076
 5148SOL    HW127077   0.974   3.130   1.707  1.4085  0.2147 -0.6189
 5148SOL    HW227078   0.989   3.038   1.597  0.6235  1.5917 -2.0274
 5149SOL     OW27079   2.650   4.480  16.570  0.3832 -0.4531 -0.3561
 5149SOL    HW127080   2.658   4.459  16.663  0.9427 -1.9956 -0.7555
 5149SOL    HW227081   2.557   4.464  16.554 -0.1996  1.8049  0.8514
 5150SOL     OW27082   1.954   0.328   6.805  0.7535 -0.0211  0.1609
 5150SOL    HW127083   1.991   0.245   6.835 -0.8388 -0.6267  0.4698
 5150SOL    HW227084   1.877   0.300   6.755 -0.3598  0.2065  1.7351
 5151SOL     OW27085   2.563   1.877   8.382  0.1099 -0.4128  0.1258
 5151SOL    HW127086   2.538   1.969   8.391 -0.8629 -0.7978  1.3485
 5151SOL    HW227087   2.478   1.837   8.363  0.3112 -1.1138  0.7363
 5152SOL     OW27088   0.839   4.181   8.684  0.3160 -0.7537 -0.6979
 5152SOL    HW127089   0.767   4.206   8.741  0.3896  0.5419 -1.1687
 5152SOL    HW227090   0.789   4.136   8.616 -1.5084  2.2358 -1.2991
 5153SOL     OW27091   3.623   0.750   3.034 -0.4874  0.6198  0.0903
 5153SOL    HW127092   3.585   0.746   2.946 -0.2705 -0.5632  0.0504
 5153SOL    HW227093   3.686   0.678   3.029  0.8490  1.8362 -0.4078
 5154SOL     OW27094   2.822   2.746   5.376 -0.2411  0.4162  0.1268
 5154SOL    HW127095   2.858   2.834   5.374  1.3733 -0.2197  0.4625
 5154SOL    HW227096   2.733   2.764   5.347 -1.1303  1.4194  3.4821
 5155SOL     OW27097   0.331   2.919   2.205  0.2850  0.1265  0.1202
 5155SOL    HW127098   0.385   2.996   2.221  0.6658 -0.2120  0.4656
 5155SOL    HW227099   0.304   2.927   2.113 -1.3124  1.6605  0.7228
 5156SOL     OW27100   2.702   2.135  13.704  0.4741 -0.4424  0.3165
 5156SOL    HW127101   2.712   2.230  13.704  1.1930 -0.5098  3.0152
 5156SOL    HW227102   2.611   2.130  13.675  0.2258  0.7846  0.8817
 5157SOL     OW27103   1.433   2.916   8.894  0.1474  0.3904  0.0468
 5157SOL    HW127104   1.340   2.895   8.907  0.2422  1.3134  2.1746
 5157SOL    HW227105   1.434   3.001   8.849 -0.2428 -0.1926 -1.0581
 5158SOL     OW27106   3.954   1.656  15.974  0.1714  0.0772 -0.3223
 5158SOL    HW127107   4.011   1.683  15.902 -0.4406 -1.4912 -1.4049
 5158SOL    HW227108   3.911   1.578  15.939 -0.4515  1.7839 -3.3658
 5159SOL     OW27109   4.471   0.808   4.550  0.3127 -0.3728  0.2009
 5159SOL    HW127110   4.439   0.850   4.630 -1.4263  0.3339 -0.8739
 5159SOL    HW227111   4.526   0.882   4.526  0.6017 -0.2798  1.1478
 5160SOL     OW27112   0.676   4.474   0.697  0.7478  0.2408 -0.2202
 5160SOL    HW127113   0.747   4.416   0.669  1.2791  0.1699  1.3062
 5160SOL    HW227114   0.708   4.544   0.640  1.1546 -0.0221 -0.3170
 5161SOL     OW27115   1.092   0.906   5.010 -0.2984  0.0444  0.0521
 5161SOL    HW127116   0.999   0.883   5.011 -0.1779 -0.4363  0.4582
 5161SOL    HW227117   1.110   0.885   5.102  0.6863 -0.2356 -0.2139
 5162SOL     OW27118   4.404   0.346  16.792  0.1703  0.0778  0.0386
 5162SOL    HW127119   4.444   0.422  16.751  0.6336 -0.1819  0.0090
 5162SOL    HW227120   4.463   0.283  16.749  0.8122 -0.1142  1.2155
 5163SOL     OW27121   0.131   2.276   6.685 -0.1832  1.0496 -0.2810
 5163SOL    HW127122   0.087   2.329   6.752 -0.1818 -0.7993  1.1931
 5163SOL    HW227123   0.117   2.324   6.603 -0.0822 -1.5989 -1.8525
 5164SOL     OW27124   4.723   0.785   0.483 -0.8616 -0.0605 -0.0747
 5164SOL    HW127125   4.682   0.773   0.397 -1.5376 -1.1489  0.3960
 5164SOL    HW227126   0.069   0.815   0.453 -0.7895 -0.9263 -0.7409
 5165SOL     OW27127   2.975   1.546   1.582  0.0631  0.1175  0.2877
 5165SOL    HW127128   2.947   1.576   1.496 -1.7747  0.1452  0.8946
 5165SOL    HW227129   3.001   1.629   1.623  2.0349  0.0312 -0.7418
 5166SOL     OW27130   1.376   0.536  15.957  0.0430 -0.0533  0.3754
 5166SOL    HW127131   1.441   0.576  15.899 -0.9842  2.3243  0.8350
 5166SOL    HW227132   1.359   0.612  16.013 -0.1614 -1.5319  2.3045
 5167SOL     OW27133   3.075   2.735   6.111  0.2161 -0.3180  0.2860
 5167SOL    HW127134   3.098   2.766   6.024 -1.1643 -1.2753 -0.4309
 5167SOL    HW227135   2.979   2.730   6.105 -0.0330  1.0605  2.9415
 5168SOL     OW27136   2.459   1.545   9.436 -0.2654 -0.2191  0.2226
 5168SOL    HW127137   2.469   1.488   9.513  0.3126  2.9034  2.4572
 5168SOL    HW227138   2.504   1.495   9.368  1.1064 -1.8194  2.2996
 5169SOL     OW27139   2.584   1.990  13.002 -0.5349 -0.0493 -0.2101
 5169SOL    HW127140   2.592   2.077  13.042  0.7547  1.0395 -2.8643
 5169SOL    HW227141   2.522   1.951  13.063 -0.9072  0.7771 -0.0596
 5170SOL     OW27142   4.051   1.450   7.283 -0.3392 -0.8451  0.7891
 5170SOL    HW127143   4.113   1.392   7.240 -0.5482 -0.6770  0.2579
 5170SOL    HW227144   4.081   1.437   7.373  0.1145 -0.5941  0.6745
 5171SOL     OW27145   3.026   3.656   4.193  0.2750 -0.5213  0.1782
 5171SOL    HW127146   3.075   3.588   4.147  1.4032 -1.2227  2.4420
 5171SOL    HW227147   2.960   3.601   4.235 -0.9933 -0.4005 -1.6371
 5172SOL     OW27148   2.219   3.066   6.259 -0.0284 -0.6716  0.4260
 5172SOL    HW127149   2.248   3.157   6.270 -2.5503  0.3079 -0.9804
 5172SOL    HW227150   2.125   3.079   6.269 -0.1084 -0.5777 -0.4079
 5173SOL     OW27151   3.945   3.158  14.893  0.3648 -0.3024 -0.4542
 5173SOL    HW127152   4.029   3.203  14.888  0.7182 -0.5954  2.4247
 5173SOL    HW227153   3.921   3.143  14.802 -0.6012  0.0462 -0.2660
 5174SOL     OW27154   2.087   2.976   4.536 -0.3124  0.5791 -0.0552
 5174SOL    HW127155   2.036   2.970   4.617 -2.0533 -0.5421 -1.2484
 5174SOL    HW227156   2.123   3.064   4.553 -1.0027  0.4348  2.1256
 5175SOL     OW27157   3.084   2.240   6.202 -0.0875  0.3327  0.5919
 5175SOL    HW127158   3.025   2.275   6.269 -1.0335  0.5457 -0.3543
 5175SOL    HW227159   3.066   2.148   6.221 -0.7550  0.6085  1.3037
 5176SOL     OW27160   4.413   2.614   5.057 -0.4434 -0.0741  0.0387
 5176SOL    HW127161   4.400   2.643   4.967 -0.7633 -1.8422 -0.4842
 5176SOL    HW227162   4.454   2.691   5.096 -1.6679  0.9825 -0.7467
 5177SOL     OW27163   1.544   3.246  15.905  0.1415 -0.5207  0.5183
 5177SOL    HW127164   1.457   3.277  15.932 -1.0490 -3.3955  0.0384
 5177SOL    HW227165   1.605   3.294  15.961  0.7474 -0.5751 -0.0945
 5178SOL     OW27166   2.356   3.439   1.536  0.0138 -0.1123  0.3266
 5178SOL    HW127167   2.356   3.347   1.562 -1.9164 -0.7142 -1.8267
 5178SOL    HW227168   2.383   3.432   1.444  0.4694  1.0044  0.3685
 5179SOL     OW27169   2.680   4.039  17.080  0.7482 -0.2700 -0.5556
 5179SOL    HW127170   2.690   3.945  17.099  2.3490 -0.5791 -2.9305
 5179SOL    HW227171   2.589   4.059  17.101  1.0579  0.1702  0.3719
 5180SOL     OW27172   4.087   1.258  13.993  0.5872 -0.1731  0.1130
 5180SOL    HW127173   4.169   1.307  14.003  0.2402 -0.1383  2.5638
 5180SOL    HW227174   4.116   1.168  14.009  0.6152 -0.1623  0.1228
 5181SOL     OW27175   1.973   2.438  11.986  0.0553 -0.1570 -0.0090
 5181SOL    HW127176   2.015   2.439  11.900 -0.8407 -0.5564 -0.4523
 5181SOL    HW227177   1.959   2.344  12.000  2.0717 -0.3604  0.6006
 5182SOL     OW27178   3.802   4.165   2.793  0.6845  0.6503 -0.3255
 5182SOL    HW127179   3.826   4.182   2.884  0.1086  1.4124 -0.3126
 5182SOL    HW227180   3.895   4.162   2.772  1.4777 -0.3429  3.4391
 5183SOL     OW27181   0.306   1.180   2.111 -0.0107 -0.0742  0.1915
 5183SOL    HW127182   0.222   1.139   2.132  0.7683 -1.6958  0.1640
 5183SOL    HW227183   0.327   1.199   2.202  1.5966 -0.7645 -0.0206
 5184SOL     OW27184   0.759   0.257  13.931  0.0807  0.3046 -0.4153
 5184SOL    HW127185   0.685   0.237  13.873  0.4477  0.1337 -0.8214
 5184SOL    HW227186   0.778   0.168  13.960 -3.3033 -0.7684 -1.4442
 5185SOL     OW27187   3.270   0.835   1.209 -0.0249 -0.0364 -0.3908
 5185SOL    HW127188   3.352   0.884   1.204  0.9116 -1.6626 -0.8705
 5185SOL    HW227189   3.277   0.768   1.141  0.5674 -0.9728  0.5899
 5186SOL     OW27190   2.487   3.669   4.004  0.5985 -0.2290  0.1867
 5186SOL    HW127191   2.500   3.729   4.077  2.0888 -1.7824  1.2322
 5186SOL    HW227192   2.454   3.590   4.048  0.1340  0.1104  0.4356
 5187SOL     OW27193   0.371   2.757   5.271  0.0952 -0.0357 -0.0706
 5187SOL    HW127194   0.308   2.805   5.217  1.5272  2.5129  0.5563
 5187SOL    HW227195   0.385   2.676   5.222  0.6028  0.1807 -0.2862
 5188SOL     OW27196   0.172   4.396   5.883  0.2290  0.3365  0.1886
 5188SOL    HW127197   0.224   4.472   5.855  1.0095 -0.8418 -1.5775
 5188SOL    HW227198   0.098   4.435   5.928 -0.4078 -0.9969  0.2977
 5189SOL     OW27199   2.030   2.281   5.064  0.4665 -0.1113 -0.7170
 5189SOL    HW127200   2.059   2.301   5.153 -0.7746 -1.0472 -0.0953
 5189SOL    HW227201   2.114   2.303   5.024  1.9962  0.1959  2.6428
 5190SOL     OW27202   2.176   0.364   5.662  0.3163  0.6711  0.0060
 5190SOL    HW127203   2.243   0.370   5.731  2.0619 -1.5748 -1.4653
 5190SOL    HW227204   2.187   0.280   5.617  0.0343  0.1418  0.9153
 5191SOL     OW27205   4.430   0.319   2.760 -0.8556 -0.3056 -0.1250
 5191SOL    HW127206   4.352   0.333   2.813 -0.2145  1.3473  0.3588
 5191SOL    HW227207   4.424   0.226   2.735 -1.3349 -0.1438 -0.6111
 5192SOL     OW27208   3.460   3.766  17.420  0.1274 -0.1427 -0.1138
 5192SOL    HW127209   3.486   3.842  17.471  2.1405 -1.4345  0.7794
 5192SOL    HW227210   3.390   3.800  17.364 -0.4051  0.3930  0.8885
 5193SOL     OW27211   3.577   2.683   5.651 -0.0148  0.0315 -0.1139
 5193SOL    HW127212   3.577   2.750   5.719 -1.8008 -0.5589  0.4719
 5193SOL    HW227213   3.669   2.659   5.655 -0.0763 -0.4711 -1.4408
 5194SOL     OW27214   3.728   4.357   6.979 -0.0679 -0.0953  0.3121
 5194SOL    HW127215   3.676   4.296   6.927 -1.6747  1.6727 -0.1707
 5194SOL    HW227216   3.806   4.376   6.927  0.5106 -0.6069  0.9949
 5195SOL     OW27217   3.855   0.912   6.487 -0.2066  0.3130 -0.0941
 5195SOL    HW127218   3.784   0.885   6.545 -1.7692  0.4961 -1.9391
 5195SOL    HW227219   3.926   0.922   6.550  0.3626 -0.7124 -0.5772
 5196SOL     OW27220   2.536   1.623  14.116 -0.4889 -0.6334 -0.5111
 5196SOL    HW127221   2.592   1.653  14.188 -1.3149  2.9031 -1.3913
 5196SOL    HW227222   2.456   1.588  14.156  0.6469  0.4604  2.7749
 5197SOL     OW27223   2.880   0.473  16.510  0.0831  1.0021 -0.3785
 5197SOL    HW127224   2.877   0.508  16.599  1.1760 -0.3150  0.1768
 5197SOL    HW227225   2.832   0.392  16.526 -0.0850  0.8892 -1.4411
 5198SOL     OW27226   0.799   3.461   3.379 -0.1324  0.2415  0.1265
 5198SOL    HW127227   0.860   3.402   3.336  1.3615  0.8747  1.3559
 5198SOL    HW227228   0.719   3.416   3.353 -0.6445 -0.7332  3.4402
 5199SOL     OW27229   0.617   4.502   5.656 -0.0796 -0.6879  0.1015
 5199SOL    HW127230   0.540   4.446   5.644  0.2167 -1.4170  1.5945
 5199SOL    HW227231   0.677   4.440   5.615 -2.3016 -1.3590 -2.0953
 5200SOL     OW27232   4.648   1.689   3.654  0.8419  0.2960 -0.1214
 5200SOL    HW127233   4.578   1.731   3.604 -0.4977 -1.1330  0.5538
 5200SOL    HW227234   4.624   1.598   3.640  1.3141  0.0314  0.7779
 5201SOL     OW27235   0.947   0.869  11.574  0.0559  0.2662 -0.7125
 5201SOL    HW127236   1.023   0.836  11.623  0.1282  0.9959 -0.3229
 5201SOL    HW227237   0.891   0.794  11.556 -0.3478  0.7587 -1.4846
 5202SOL     OW27238   0.997   1.925   8.965 -0.5004  0.3144  0.4085
 5202SOL    HW127239   0.970   1.843   9.007  0.2779  0.9264  2.0579
 5202SOL    HW227240   1.011   1.891   8.876  0.8516  0.4943  0.5460
 5203SOL     OW27241   3.798   3.963  11.134 -0.4584  0.0806 -0.4617
 5203SOL    HW127242   3.796   3.867  11.129  1.6444 -0.0635  1.2452
 5203SOL    HW227243   3.712   3.996  11.160 -0.5377  0.4193 -1.1566
 5204SOL     OW27244   2.969   3.270   6.573 -0.1447  0.2550  0.1324
 5204SOL    HW127245   2.973   3.255   6.478  1.7818  0.0173  0.2428
 5204SOL    HW227246   2.921   3.351   6.592 -1.8937 -0.1968 -2.3061
 5205SOL     OW27247   4.523   0.690   7.343 -0.3747  0.5079  0.3194
 5205SOL    HW127248   4.587   0.701   7.272 -1.1881 -1.1458 -0.6782
 5205SOL    HW227249   4.579   0.679   7.421  2.1984  1.9171 -1.3140
 5206SOL     OW27250   4.689   0.019  11.320  0.1241 -0.3402 -0.3031
 5206SOL    HW127251   4.645   0.085  11.373  0.4575 -0.2059 -0.1923
 5206SOL    HW227252   4.628   4.686  11.322  1.5887 -1.5077  1.5806
 5207SOL     OW27253   4.340   1.712  16.991  0.1354  0.3995  0.0710
 5207SOL    HW127254   4.316   1.706  16.898 -1.1842  3.0532  0.2400
 5207SOL    HW227255   4.433   1.732  16.978 -0.6090  0.9812 -4.2426
 5208SOL     OW27256   0.673   0.085  15.115  0.1851  0.5611  0.0249
 5208SOL    HW127257   0.629   0.001  15.110  0.5707  0.4110 -0.7832
 5208SOL    HW227258   0.603   0.148  15.097 -0.7526 -0.7529 -0.8360
 5209SOL     OW27259   4.035   2.407   4.339 -0.1606 -0.8345 -0.1090
 5209SOL    HW127260   4.032   2.449   4.425 -1.2327 -1.5486  0.1918
 5209SOL    HW227261   4.059   2.315   4.352 -1.7649 -1.3005 -0.4573
 5210SOL     OW27262   0.090   0.709   6.416  0.0046 -0.0011 -0.2888
 5210SOL    HW127263   0.171   0.658   6.419 -0.7613 -1.3479 -2.3430
 5210SOL    HW227264   0.076   0.720   6.510  1.1977  0.4509 -0.1643
 5211SOL     OW27265   2.756   0.326  10.634  0.0572 -0.2092  0.6795
 5211SOL    HW127266   2.749   0.284  10.548 -1.5243  1.4921 -0.0220
 5211SOL    HW227267   2.811   0.404  10.624  2.1378 -1.6373  0.8908
 5212SOL     OW27268   4.188   0.938   1.180 -0.1790  0.1453 -0.1677
 5212SOL    HW127269   4.155   0.964   1.093 -2.0207  0.0692  0.5119
 5212SOL    HW227270   4.259   0.880   1.152  0.2287  0.4643  0.2035
 5213SOL     OW27271   0.414   0.033   4.025 -0.2875  0.1167  0.2705
 5213SOL    HW127272   0.395   0.126   4.022  2.8440  0.7920  1.0366
 5213SOL    HW227273   0.472   0.034   4.101  1.1691 -0.2380 -0.8280
 5214SOL     OW27274   0.106   4.072   7.850 -0.3412  0.6583 -0.3092
 5214SOL    HW127275   0.111   4.052   7.757 -4.4689  2.9034 -1.0090
 5214SOL    HW227276   0.033   4.133   7.857  0.3612  1.8302 -3.3594
 5215SOL     OW27277   0.294   4.077   5.525  0.1205 -0.1293  0.3362
 5215SOL    HW127278   0.200   4.093   5.526 -0.1779 -1.8340 -0.0955
 5215SOL    HW227279   0.312   4.040   5.611 -0.4689 -3.4147 -0.9199
 5216SOL     OW27280   4.287   4.651   2.294  0.2082  0.2845  0.1169
 5216SOL    HW127281   4.296   4.557   2.306 -0.2473  0.5370  2.3676
 5216SOL    HW227282   4.268   4.680   2.383 -0.1062 -1.4900  0.6209
 5217SOL     OW27283   0.594   4.045   2.191  0.5772  0.3391  0.2245
 5217SOL    HW127284   0.598   4.000   2.107 -0.7235 -1.0714  0.9083
 5217SOL    HW227285   0.554   4.128   2.165  1.8719  1.0853  0.6370
 5218SOL     OW27286   0.721   2.111   3.997  0.0210 -0.3736  0.3828
 5218SOL    HW127287   0.641   2.064   3.974 -1.0713  0.4658  2.5123
 5218SOL    HW227288   0.736   2.140   3.907  0.8053  0.6607  0.8325
 5219SOL     OW27289   0.744   2.529   3.227  0.9054 -0.0930 -0.3839
 5219SOL    HW127290   0.691   2.605   3.201  0.1760  0.2132  2.0064
 5219SOL    HW227291   0.828   2.568   3.251  1.0199  0.7388 -2.1577
 5220SOL     OW27292   4.155   3.287  15.859  0.6192  0.0744  0.7886
 5220SOL    HW127293   4.105   3.280  15.941  0.0436 -0.0282  0.4239
 5220SOL    HW227294   4.106   3.356  15.815  0.7119 -0.8841 -0.7911
 5221SOL     OW27295   0.764   0.608  15.173 -0.1139 -0.3516  0.5789
 5221SOL    HW127296   0.848   0.570  15.198  0.1267  0.6670  1.2959
 5221SOL    HW227297   0.697   0.560  15.221 -1.0843  0.3373 -0.0748
 5222SOL     OW27298   1.634   0.911   6.633  1.2599 -0.5239  0.1553
 5222SOL    HW127299   1.680   0.994   6.643 -2.3657  1.4976 -0.2010
 5222SOL    HW227300   1.563   0.930   6.572 -0.0895  1.3380  2.3281
 5223SOL     OW27301   4.319   4.290   5.140 -0.3716  0.7108  0.4850
 5223SOL    HW127302   4.365   4.374   5.149 -2.0225  1.8312 -1.5390
 5223SOL    HW227303   4.299   4.273   5.232 -0.2161 -0.6907  0.2621
 5224SOL     OW27304   1.384   2.229   6.961  0.0401  0.1718  0.3047
 5224SOL    HW127305   1.429   2.255   6.881  0.1822  1.4908  0.7976
 5224SOL    HW227306   1.298   2.262   6.933 -0.6405 -2.6602 -0.9111
 5225SOL     OW27307   3.002   3.682   4.588 -0.4701 -0.1745 -0.1335
 5225SOL    HW127308   3.097   3.674   4.590 -0.4663 -0.0599  0.1591
 5225SOL    HW227309   2.983   3.740   4.514 -2.2629  1.8076  1.8452
 5226SOL     OW27310   0.284   1.734   2.005 -0.1065  0.0811  0.8125
 5226SOL    HW127311   0.300   1.646   2.041  3.1608  0.3521  0.0598
 5226SOL    HW227312   0.201   1.760   2.045  0.7305 -0.3999  2.8571
 5227SOL     OW27313   0.977   1.250   3.353 -0.0908  0.7201 -0.3251
 5227SOL    HW127314   0.956   1.213   3.267 -2.8848 -1.2244  1.1904
 5227SOL    HW227315   1.059   1.293   3.328  0.8719 -0.0505  1.5093
 5228SOL     OW27316   3.145   4.501   8.319 -0.4576 -0.1078  0.1590
 5228SOL    HW127317   3.138   4.502   8.223  0.1529 -0.6143  0.1057
 5228SOL    HW227318   3.235   4.469   8.332  0.2644  1.9726  0.3176
 5229SOL     OW27319   1.433   2.293   9.437  0.2419 -0.5520 -0.6917
 5229SOL    HW127320   1.500   2.283   9.369  0.9885 -1.3861  0.1722
 5229SOL    HW227321   1.357   2.245   9.403  0.4947 -0.8666 -0.8133
 5230SOL     OW27322   2.743   0.698   8.734  0.4235  0.5801 -0.0037
 5230SOL    HW127323   2.729   0.760   8.806 -0.5241 -0.9118  1.1149
 5230SOL    HW227324   2.665   0.642   8.725  1.1423 -0.4779  0.3603
 5231SOL     OW27325   0.405   0.021   1.702 -0.4033 -0.0148 -0.2871
 5231SOL    HW127326   0.329   4.707   1.680  0.0891 -0.5125 -0.7647
 5231SOL    HW227327   0.429   4.735   1.791 -0.4136 -0.3870 -0.3946
 5232SOL     OW27328   4.610   4.623   2.289 -0.1085  0.2773  0.3981
 5232SOL    HW127329   4.543   4.565   2.255 -1.1052  0.6658  1.7197
 5232SOL    HW227330   4.652   4.643   2.205 -0.7711 -3.8038 -0.8918
 5233SOL     OW27331   1.568   2.669  14.313 -0.1692  0.3563  0.0576
 5233SOL    HW127332   1.636   2.686  14.247 -0.3927  0.1421 -0.2294
 5233SOL    HW227333   1.499   2.638  14.254  0.2212 -0.1496 -0.1361
 5234SOL     OW27334   2.178   0.088  12.811 -0.1536  0.0697  0.3963
 5234SOL    HW127335   2.169   0.005  12.763  0.0652 -0.7473  1.7639
 5234SOL    HW227336   2.174   0.155  12.743  2.0919  0.5086  0.6973
 5235SOL     OW27337   0.827   3.905   3.322 -0.5403  0.8457 -0.2044
 5235SOL    HW127338   0.907   3.939   3.360  0.3248  0.4849 -1.6955
 5235SOL    HW227339   0.775   3.890   3.401 -1.3071 -3.6207 -1.5523
 5236SOL     OW27340   4.006   1.294  13.247 -0.3669  0.0589 -0.3888
 5236SOL    HW127341   3.926   1.314  13.199 -0.4129 -0.2639 -0.4456
 5236SOL    HW227342   3.971   1.240  13.318  0.1459 -0.7463 -0.7487
 5237SOL     OW27343   4.214   0.848   8.286  0.7028 -0.3887  0.7986
 5237SOL    HW127344   4.273   0.803   8.226 -0.2776 -1.5573  0.6913
 5237SOL    HW227345   4.163   0.902   8.226  3.0198  0.0718 -0.7156
 5238SOL     OW27346   0.428   4.641   3.042 -0.3551 -0.9037 -0.0681
 5238SOL    HW127347   0.430   4.728   3.004  1.3275 -1.5992 -1.5659
 5238SOL    HW227348   0.350   4.602   3.001 -2.0099  0.6345  1.5870
 5239SOL     OW27349   1.406   0.178   8.849  0.3120 -0.2637 -0.0606
 5239SOL    HW127350   1.321   0.136   8.834  0.6182 -0.2142 -2.0096
 5239SOL    HW227351   1.393   0.263   8.807 -1.1788 -0.5653 -0.1948
 5240SOL     OW27352   1.996   2.701   9.784 -0.4595 -0.0009 -0.3247
 5240SOL    HW127353   2.038   2.735   9.863 -0.2675 -0.5614 -0.1877
 5240SOL    HW227354   1.917   2.756   9.784 -1.4444 -1.4260 -0.6465
 5241SOL     OW27355   4.073   1.609   6.311 -0.0039 -0.1733 -0.6130
 5241SOL    HW127356   4.119   1.598   6.228 -1.1267  0.0588 -1.2749
 5241SOL    HW227357   4.084   1.704   6.322 -0.8310 -0.1809  0.3082
 5242SOL     OW27358   3.242   4.396   2.298 -0.1400 -0.2821  0.6944
 5242SOL    HW127359   3.200   4.361   2.376 -0.0764  0.9648  1.2889
 5242SOL    HW227360   3.328   4.367   2.327  1.0833  1.7222 -0.8204
 5243SOL     OW27361   3.512   3.004   9.337 -0.2167  0.7666  0.2195
 5243SOL    HW127362   3.597   2.996   9.380  0.3373 -2.2591 -1.4052
 5243SOL    HW227363   3.539   3.053   9.259  1.1942  0.6031  0.6135
 5244SOL     OW27364   0.412   1.862   2.852  0.0187 -0.0624 -0.9581
 5244SOL    HW127365   0.388   1.808   2.928  1.6652 -2.1935 -1.9688
 5244SOL    HW227366   0.492   1.816   2.827 -0.1243 -1.2501  0.7838
 5245SOL     OW27367   3.273   1.802   8.241  0.0846  0.6313 -0.1756
 5245SOL    HW127368   3.270   1.711   8.210  2.6529 -0.0280  1.5285
 5245SOL    HW227369   3.181   1.827   8.239 -0.4178 -1.1054  1.3473
 5246SOL     OW27370   0.806   2.131   3.717  0.2041 -0.0555 -0.5367
 5246SOL    HW127371   0.742   2.177   3.663 -0.7967  0.5364  1.1406
 5246SOL    HW227372   0.888   2.140   3.670  0.3560  3.1400  0.3691
 5247SOL     OW27373   0.416   2.881   6.543  0.5052 -0.5584  0.0712
 5247SOL    HW127374   0.331   2.920   6.521  1.2178  0.2117 -1.3705
 5247SOL    HW227375   0.389   2.799   6.582 -1.2042  0.1135  0.2932
 5248SOL     OW27376   1.491   1.704   5.783  0.2216 -0.1445  0.6721
 5248SOL    HW127377   1.579   1.680   5.809  0.4234 -0.3047 -0.1444
 5248SOL    HW227378   1.434   1.656   5.843 -2.5700  3.4900  0.9543
 5249SOL     OW27379   0.501   3.094   9.086 -0.3205  0.2677 -0.2893
 5249SOL    HW127380   0.527   3.183   9.063  2.6382  0.3892  3.4831
 5249SOL    HW227381   0.561   3.045   9.030  0.2314 -0.2987  0.7881
 5250SOL     OW27382   1.295   3.174  16.603  0.4785  0.0199  0.5398
 5250SOL    HW127383   1.275   3.112  16.672 -3.6853 -0.2711 -0.9341
 5250SOL    HW227384   1.267   3.125  16.526 -1.5291 -1.7318  2.4096
 5251SOL     OW27385   3.382   3.227   4.404 -0.7865  0.6567 -0.0019
 5251SOL    HW127386   3.475   3.219   4.426 -0.9815 -0.4355  0.4274
 5251SOL    HW227387   3.388   3.221   4.309 -0.8805 -0.7042  0.0701
 5252SOL     OW27388   4.105   4.288  10.713 -0.2564 -0.2549  0.2530
 5252SOL    HW127389   4.062   4.373  10.722 -1.0645 -0.3525 -2.5507
 5252SOL    HW227390   4.118   4.258  10.803  1.2122  0.7175  0.3550
 5253SOL     OW27391   2.083   0.458   2.708 -0.0235 -0.0544 -0.2787
 5253SOL    HW127392   2.025   0.525   2.744 -0.9851  0.3382 -2.5345
 5253SOL    HW227393   2.083   0.391   2.776  0.4438 -0.5476 -0.7555
 5254SOL     OW27394   0.476   1.526   4.149  0.3817 -0.3339 -0.2853
 5254SOL    HW127395   0.553   1.484   4.109 -0.0089  1.4709 -2.9459
 5254SOL    HW227396   0.478   1.501   4.241  0.1043  0.2575 -0.1207
 5255SOL     OW27397   0.291   2.039   8.631  0.3506  0.3258  0.4278
 5255SOL    HW127398   0.244   2.112   8.671  1.2428  2.1673 -1.9324
 5255SOL    HW227399   0.361   2.086   8.585  0.8328 -0.4307  0.3812
 5256SOL     OW27400   2.643   2.953  13.670  0.1353  0.1060  0.2653
 5256SOL    HW127401   2.576   2.981  13.732 -0.8576 -2.6708  0.4461
 5256SOL    HW227402   2.718   2.942  13.729  0.5025  2.4027  0.2358
 5257SOL     OW27403   1.347   4.362  17.117  0.4474  0.3477  0.1969
 5257SOL    HW127404   1.429   4.405  17.095  1.0213  0.8208  3.2711
 5257SOL    HW227405   1.349   4.374  17.212 -0.6770  0.7455  0.1726
 5258SOL     OW27406   0.617   2.078   7.355 -0.3790 -0.2231  0.1752
 5258SOL    HW127407   0.602   2.016   7.426  2.8255 -1.5462 -0.2757
 5258SOL    HW227408   0.708   2.060   7.332 -0.3747 -1.6220  1.2975
 5259SOL     OW27409   0.756   3.867   4.090  0.2382  0.4628 -0.3351
 5259SOL    HW127410   0.798   3.898   4.170  0.8512 -0.8874 -0.1235
 5259SOL    HW227411   0.774   3.773   4.090 -0.2262  0.3632 -2.4115
 5260SOL     OW27412   3.038   1.101  11.928  0.1051  0.3983  0.0724
 5260SOL    HW127413   3.025   1.193  11.953  1.9206  0.3500  1.1531
 5260SOL    HW227414   3.114   1.070  11.976  1.0668  0.5086 -1.3936
 5261SOL     OW27415   1.232   4.676   7.559 -0.0475  0.6164  0.0100
 5261SOL    HW127416   1.235   0.031   7.573  0.9429  0.6147 -0.1406
 5261SOL    HW227417   1.282   4.656   7.479 -1.1519  0.5687 -0.6610
 5262SOL     OW27418   2.113   1.369   7.923 -0.1862  0.5821 -0.1156
 5262SOL    HW127419   2.174   1.415   7.865  0.2483  0.6080  0.3606
 5262SOL    HW227420   2.157   1.377   8.007 -0.8457 -1.6931  0.4674
 5263SOL     OW27421   1.443   3.475   5.343  0.6296 -0.4178 -0.7766
 5263SOL    HW127422   1.390   3.554   5.353  0.6465 -0.3376 -1.3161
 5263SOL    HW227423   1.464   3.495   5.252  1.6804  1.7685 -0.0426
 5264SOL     OW27424   4.487   0.014   0.397  0.2308  0.8076  0.3662
 5264SOL    HW127425   4.426   4.699   0.446  0.5617 -0.0306 -0.1639
 5264SOL    HW227426   4.571   0.025   0.442  1.0861 -1.2801 -0.7347
 5265SOL     OW27427   1.405   4.237   2.184 -0.0337  0.3650  0.4090
 5265SOL    HW127428   1.457   4.275   2.254 -0.7972 -0.5242  1.4560
 5265SOL    HW227429   1.411   4.304   2.116  0.2575  2.4263  2.4874
 5266SOL     OW27430   3.929   0.054   6.015  0.0408 -0.1073 -0.1620
 5266SOL    HW127431   3.927   4.701   5.996 -0.7516 -0.1721  0.2607
 5266SOL    HW227432   3.965   0.087   5.933  1.0777  1.3873  0.9008
 5267SOL     OW27433   4.706   2.508   1.959 -0.1689  0.0484  0.0206
 5267SOL    HW127434   4.675   2.586   1.912 -1.4967 -1.6039 -1.8260
 5267SOL    HW227435   0.022   2.548   2.025 -1.2912  0.7213  0.5809
 5268SOL     OW27436   1.501   2.578   1.895 -0.1117 -0.3286 -0.4247
 5268SOL    HW127437   1.579   2.534   1.928 -0.0647  0.3059  0.3087
 5268SOL    HW227438   1.468   2.601   1.982  0.7062  0.1334 -0.2393
 5269SOL     OW27439   3.772   3.858  12.110 -0.1995 -0.0450  0.0920
 5269SOL    HW127440   3.723   3.940  12.101 -0.8589 -0.1681  2.7140
 5269SOL    HW227441   3.863   3.886  12.108 -0.6749  1.4718 -0.6605
 5270SOL     OW27442   3.752   1.274   9.590 -0.3310 -0.5354 -0.5158
 5270SOL    HW127443   3.782   1.343   9.530 -0.3753  0.5500  0.7223
 5270SOL    HW227444   3.689   1.239   9.527  1.5720 -1.9811 -1.6190
 5271SOL     OW27445   3.674   0.020   4.764  0.0132  0.0524  0.3599
 5271SOL    HW127446   3.599   4.738   4.709 -0.2630 -3.2913  2.1020
 5271SOL    HW227447   3.720   4.676   4.763  0.2688  0.1974 -0.1022
 5272SOL     OW27448   1.898   0.024   2.988  0.3892 -0.4828 -0.8430
 5272SOL    HW127449   1.915   0.114   2.962  0.5002  0.0059  0.9329
 5272SOL    HW227450   1.957   4.721   2.927 -1.5905 -2.0576 -1.6387
 5273SOL     OW27451   3.642   0.278   7.627  0.1360 -0.2665 -0.4219
 5273SOL    HW127452   3.595   0.312   7.551  2.0216  1.9094 -0.6167
 5273SOL    HW227453   3.637   0.361   7.675  1.7317 -0.4025 -0.0247
 5274SOL     OW27454   3.602   4.160   6.843 -0.0652 -0.1280 -0.0886
 5274SOL    HW127455   3.585   4.187   6.753  1.6479 -1.3515 -0.7815
 5274SOL    HW227456   3.649   4.077   6.829 -3.0895 -1.5051 -2.0247
 5275SOL     OW27457   2.473   2.473   9.972 -0.3469  0.0310 -0.3001
 5275SOL    HW127458   2.471   2.563   9.937  0.6501 -0.0866 -0.6537
 5275SOL    HW227459   2.556   2.486  10.017 -0.2218 -3.3837  0.4416
 5276SOL     OW27460   4.216   1.398   4.677 -0.4407  0.2540 -0.3142
 5276SOL    HW127461   4.293   1.450   4.652  0.9061 -2.0755 -1.0295
 5276SOL    HW227462   4.176   1.450   4.747 -0.8610  0.0275 -0.3911
 5277SOL     OW27463   2.238   3.338  15.244  0.1339 -0.0642 -0.0250
 5277SOL    HW127464   2.326   3.338  15.282  0.5218  0.5513 -0.9246
 5277SOL    HW227465   2.219   3.432  15.246  0.7412  0.0222  1.9319
 5278SOL     OW27466   0.295   1.086   5.117 -0.0762  0.0898  0.2344
 5278SOL    HW127467   0.232   1.125   5.057 -0.1982 -0.2025  0.1743
 5278SOL    HW227468   0.323   1.153   5.179 -0.1502 -0.4270  0.8201
 5279SOL     OW27469   3.270   0.894  13.986 -0.1000  0.3206  0.0414
 5279SOL    HW127470   3.258   0.803  14.014  3.5626  0.0862  0.8122
 5279SOL    HW227471   3.267   0.940  14.069  2.1925  3.0859 -1.4197
 5280SOL     OW27472   3.195   1.267   6.038  0.0984 -0.1930  0.0625
 5280SOL    HW127473   3.189   1.182   6.081 -1.1013  0.0875  0.4599
 5280SOL    HW227474   3.160   1.312   6.115  0.8400 -1.1861  0.9828
 5281SOL     OW27475   0.181   0.011   3.680  0.0996 -0.5655 -0.3980
 5281SOL    HW127476   0.274   4.729   3.689  0.6606  1.5345 -1.0909
 5281SOL    HW227477   0.194   0.091   3.630 -0.3451 -0.1444  0.1735
 5282SOL     OW27478   0.230   0.326   4.997 -0.0292 -0.1413 -0.0380
 5282SOL    HW127479   0.208   0.401   4.943 -2.6521  0.0925  1.3408
 5282SOL    HW227480   0.164   0.343   5.064 -0.0507 -0.3316 -0.0114
 5283SOL     OW27481   1.105   0.178  12.473  0.0513  0.1034 -0.2301
 5283SOL    HW127482   1.163   0.182  12.397  0.2756 -1.3613 -0.1274
 5283SOL    HW227483   1.172   0.158  12.538 -1.2662 -3.9777 -0.1759
 5284SOL     OW27484   1.985   2.814   4.366  0.3364 -0.3630 -0.2962
 5284SOL    HW127485   2.029   2.869   4.430  2.6594 -0.9443 -1.4087
 5284SOL    HW227486   1.997   2.866   4.286  0.8756  0.8899  0.6002
 5285SOL     OW27487   2.464   2.690   3.801  0.1352  0.2249 -0.1726
 5285SOL    HW127488   2.516   2.693   3.721 -0.7342 -1.3435 -0.8037
 5285SOL    HW227489   2.375   2.682   3.767  0.4669  0.0949 -1.0170
 5286SOL     OW27490   3.798   2.565  11.940  0.0469 -0.4761  0.2260
 5286SOL    HW127491   3.846   2.582  11.859  0.8678  0.7620  0.9829
 5286SOL    HW227492   3.783   2.653  11.975  0.1625 -0.7655  1.0149
 5287SOL     OW27493   1.742   1.765   7.245  0.0422  0.5532 -0.2664
 5287SOL    HW127494   1.763   1.854   7.274  1.0780  0.5540 -0.9879
 5287SOL    HW227495   1.759   1.764   7.150  4.1213 -0.5000  0.4880
 5288SOL     OW27496   0.986   0.707   8.903  0.9553  0.1743  0.0216
 5288SOL    HW127497   1.061   0.656   8.871  1.1748  1.0588 -0.8474
 5288SOL    HW227498   1.015   0.706   8.995 -0.3535 -0.7600  0.4261
 5289SOL     OW27499   3.342   1.815   2.065 -0.9392  0.4016  0.6114
 5289SOL    HW127500   3.400   1.890   2.055 -1.9359  0.9727 -0.6952
 5289SOL    HW227501   3.380   1.765   2.138  0.1343 -2.3992 -1.8912
 5290SOL     OW27502   1.283   2.880  10.277  0.0910  0.1104  0.7144
 5290SOL    HW127503   1.230   2.869  10.356  0.0068 -2.8219  0.2610
 5290SOL    HW227504   1.346   2.945  10.307  2.5416 -0.8547 -2.3865
 5291SOL     OW27505   4.070   2.995   6.245  0.1268 -0.1263  0.5614
 5291SOL    HW127506   4.008   3.022   6.313  0.4569  1.4461  0.2486
 5291SOL    HW227507   4.044   3.053   6.173  2.5149  2.2126  1.5383
 5292SOL     OW27508   1.545   3.301  16.510  0.7055 -0.4927  0.3044
 5292SOL    HW127509   1.455   3.279  16.533  0.4855 -0.2424 -0.3318
 5292SOL    HW227510   1.541   3.393  16.537 -0.7388 -0.8301  1.2267
 5293SOL     OW27511   3.548   1.993  11.933  0.2520  0.1524  0.1528
 5293SOL    HW127512   3.536   2.072  11.987 -1.2215 -0.4817  0.7572
 5293SOL    HW227513   3.466   1.946  11.943  0.5398 -0.3555  0.1216
 5294SOL     OW27514   2.233   1.349   2.916  0.0490  0.2750  0.5166
 5294SOL    HW127515   2.192   1.426   2.954  0.2462  0.6500 -0.0446
 5294SOL    HW227516   2.299   1.314   2.977 -0.9417  0.5148  1.7205
 5295SOL     OW27517   0.842   1.745  12.078 -0.2620  0.3429  0.4550
 5295SOL    HW127518   0.819   1.837  12.067 -0.2362  0.0460 -1.9706
 5295SOL    HW227519   0.932   1.746  12.110  0.5164  1.8974 -1.7816
 5296SOL     OW27520   2.082   1.787  16.689 -0.4925  0.2111  0.0904
 5296SOL    HW127521   2.124   1.751  16.768  0.5803  0.9042 -0.1517
 5296SOL    HW227522   1.992   1.763  16.709 -0.9717  1.8081 -0.1165
 5297SOL     OW27523   4.003   2.377   5.520  0.0516  0.3641  0.2987
 5297SOL    HW127524   3.945   2.338   5.586 -1.5351  0.5706 -0.9731
 5297SOL    HW227525   4.044   2.443   5.574 -0.0547 -0.3364  1.2389
 5298SOL     OW27526   2.300   2.641   9.802  0.3068  0.2623  0.2872
 5298SOL    HW127527   2.208   2.636   9.776 -0.0402 -0.7867  1.7166
 5298SOL    HW227528   2.335   2.554   9.785 -0.4790  0.2146 -1.0938
 5299SOL     OW27529   2.834   4.074   9.097 -0.5653  0.1848 -0.1045
 5299SOL    HW127530   2.856   3.985   9.124  0.2103  0.3572 -0.1749
 5299SOL    HW227531   2.921   4.104   9.072 -0.8001  1.1456  0.2519
 5300SOL     OW27532   0.511   0.065   0.945 -0.6592 -0.5116  0.4033
 5300SOL    HW127533   0.474   0.134   1.001  2.2937 -0.3995  2.2009
 5300SOL    HW227534   0.441   0.056   0.880 -0.0575 -1.8484 -0.0444
 5301SOL     OW27535   2.813   1.682   7.752 -0.2222 -0.3342  0.1367
 5301SOL    HW127536   2.841   1.646   7.835 -0.6272 -0.3344  0.2758
 5301SOL    HW227537   2.738   1.628   7.726 -0.4251  0.1712 -0.3447
 5302SOL     OW27538   0.475   0.426   7.533 -0.1724  0.0682  0.1548
 5302SOL    HW127539   0.440   0.337   7.542 -0.7696  0.2044 -0.8592
 5302SOL    HW227540   0.568   0.403   7.528  0.0392  0.9465  0.1329
 5303SOL     OW27541   4.380   2.797   4.397  0.1779  0.5906  0.2838
 5303SOL    HW127542   4.379   2.705   4.370  0.8182  0.4006  0.9168
 5303SOL    HW227543   4.297   2.835   4.367  0.5070  0.2747 -1.0086
 5304SOL     OW27544   1.888   4.636   7.329  0.3791  0.0531 -0.3462
 5304SOL    HW127545   1.959   4.572   7.329  0.5905  0.2849 -1.4084
 5304SOL    HW227546   1.853   4.630   7.417  1.9029  1.4621  0.3630
 5305SOL     OW27547   1.211   4.216   5.973  0.3270 -0.6932 -0.6254
 5305SOL    HW127548   1.306   4.210   5.973  0.4270  0.9829 -1.5869
 5305SOL    HW227549   1.192   4.269   5.896  1.8480  2.9038  1.4588
 5306SOL     OW27550   2.245   2.574  14.344 -0.6219  0.9000 -0.6032
 5306SOL    HW127551   2.298   2.642  14.386  0.9407 -1.3786  1.1138
 5306SOL    HW227552   2.316   2.510  14.337  1.4020  2.8011  2.4376
 5307SOL     OW27553   0.140   1.074  16.052  0.4631  0.3090 -0.4451
 5307SOL    HW127554   0.217   1.017  16.060  0.9370  0.8268 -1.3182
 5307SOL    HW227555   0.175   1.136  16.116 -0.5650  1.5396 -1.0796
 5308SOL     OW27556   2.520   1.861   3.853 -0.7985  0.1817  0.4897
 5308SOL    HW127557   2.528   1.943   3.901 -0.0235 -0.3866  1.3469
 5308SOL    HW227558   2.459   1.890   3.785 -0.2443 -1.5850 -0.7812
 5309SOL     OW27559   0.761   3.722   2.140 -0.0998 -0.1092  0.2777
 5309SOL    HW127560   0.761   3.734   2.235 -2.3103  1.9840  0.0325
 5309SOL    HW227561   0.757   3.627   2.146  0.4827 -0.1193  0.4756
 5310SOL     OW27562   4.212   3.569   6.070 -0.0696 -1.0087  0.0164
 5310SOL    HW127563   4.172   3.637   6.125  0.8686  0.9125 -1.7173
 5310SOL    HW227564   4.139   3.548   6.011 -0.5304 -1.3347  0.6901
 5311SOL     OW27565   3.107   2.430   3.169  0.4357  0.6850  0.4126
 5311SOL    HW127566   3.020   2.452   3.136  0.3877 -1.4657 -0.9587
 5311SOL    HW227567   3.089   2.388   3.253  2.1002 -1.9356 -0.5075
 5312SOL     OW27568   2.862   0.187  16.265  0.0709 -0.2965 -0.1703
 5312SOL    HW127569   2.831   0.107  16.222  1.0828  0.8645 -3.1207
 5312SOL    HW227570   2.893   0.146  16.345  1.6292 -2.3882 -1.8526
 5313SOL     OW27571   4.193   2.037   6.930  1.0861  0.1381 -0.0572
 5313SOL    HW127572   4.158   1.997   7.009  1.4406 -1.1837 -0.5684
 5313SOL    HW227573   4.181   1.967   6.865  1.8872  0.5696 -0.6657
 5314SOL     OW27574   4.195   1.194   7.248 -0.1461 -0.0868 -0.1792
 5314SOL    HW127575   4.280   1.167   7.281 -0.1833 -2.4388 -2.0564
 5314SOL    HW227576   4.216   1.191   7.155 -0.8566 -1.3562 -0.2904
 5315SOL     OW27577   4.137   3.267  10.532  0.7235 -0.2851 -0.1581
 5315SOL    HW127578   4.085   3.236  10.458  1.3835 -1.5120 -0.1171
 5315SOL    HW227579   4.153   3.358  10.507  1.2554 -0.4716 -0.5116
 5316SOL     OW27580   2.779   0.425   6.813  0.2222 -0.3701 -0.2228
 5316SOL    HW127581   2.813   0.443   6.725  1.7834  2.0009  0.8630
 5316SOL    HW227582   2.738   0.509   6.832 -0.8188 -0.6002 -1.3947
 5317SOL     OW27583   0.104   0.040   2.783  0.1169 -0.4822  0.3859
 5317SOL    HW127584   0.024   4.727   2.785 -1.2950  1.6945  0.9549
 5317SOL    HW227585   0.089   0.096   2.707  1.2547 -1.5271 -0.6070
 5318SOL     OW27586   3.064   0.999   2.566  0.1270 -0.4166  0.3799
 5318SOL    HW127587   3.018   0.923   2.599  0.1969 -1.0274 -0.9294
 5318SOL    HW227588   3.048   0.995   2.471  1.9828 -0.5256  0.0568
 5319SOL     OW27589   2.756   1.651   0.423  0.2283 -0.0287  0.5503
 5319SOL    HW127590   2.695   1.603   0.479 -0.1603 -0.0932  0.0764
 5319SOL    HW227591   2.705   1.662   0.342 -1.7818 -1.1613  1.6437
 5320SOL     OW27592   0.607   2.448  16.992 -0.1640  0.3058 -0.0391
 5320SOL    HW127593   0.512   2.445  16.982 -0.1006  1.9019 -1.1109
 5320SOL    HW227594   0.603   2.501  17.072 -0.5380  1.7594 -1.0266
 5321SOL     OW27595   2.471   4.723  11.971  0.2876  0.1673 -0.4345
 5321SOL    HW127596   2.427   4.665  11.908 -0.7661 -0.6829  1.0808
 5321SOL    HW227597   2.416   0.059  11.955  0.9209  0.7353  0.1387
 5322SOL     OW27598   1.257   3.375  14.526  0.5219  0.0968  0.6218
 5322SOL    HW127599   1.304   3.447  14.569 -0.7260 -0.6846  3.2752
 5322SOL    HW227600   1.224   3.408  14.442  2.9978 -0.8425 -0.7227
 5323SOL     OW27601   3.322   4.468   4.423 -0.2593 -0.3399 -0.2632
 5323SOL    HW127602   3.368   4.509   4.350  1.3017 -0.7240  0.5109
 5323SOL    HW227603   3.389   4.446   4.488 -0.6394  0.7824  0.5150
 5324SOL     OW27604   2.566   0.183  11.046 -0.2421  0.4109 -0.0541
 5324SOL    HW127605   2.502   0.128  11.093  0.6293 -1.0202 -0.5381
 5324SOL    HW227606   2.623   0.199  11.121 -0.9571  0.2660  0.5315
 5325SOL     OW27607   4.470   4.690   6.377 -0.4377 -0.0672 -0.5513
 5325SOL    HW127608   4.470   0.031   6.327  1.3153  0.0495 -0.3719
 5325SOL    HW227609   4.432   4.708   6.463 -2.5902 -1.2540 -1.2470
 5326SOL     OW27610   3.484   3.523   8.476 -0.0606 -0.1026  0.3024
 5326SOL    HW127611   3.515   3.483   8.558  1.1618  2.3624  1.0269
 5326SOL    HW227612   3.474   3.616   8.496  3.9934  0.6394 -1.1584
 5327SOL     OW27613   1.529   2.973   6.826 -0.3003 -0.0404  0.0557
 5327SOL    HW127614   1.463   2.955   6.893 -0.2896 -0.5424 -0.0643
 5327SOL    HW227615   1.472   2.949   6.753 -0.6397  1.3373 -0.1128
 5328SOL     OW27616   2.837   2.661   9.005 -0.2790 -0.0734  0.0881
 5328SOL    HW127617   2.744   2.643   8.987 -0.2897 -0.1350  0.2014
 5328SOL    HW227618   2.824   2.754   9.020  1.3143 -0.0933  1.4955
 5329SOL     OW27619   3.168   2.347   1.288 -0.4339 -0.6443  0.3766
 5329SOL    HW127620   3.089   2.365   1.339 -1.3520  0.7006 -1.4967
 5329SOL    HW227621   3.142   2.400   1.212 -0.6910 -1.5171 -0.1466
 5330SOL     OW27622   2.867   2.540   6.246  0.3194 -0.3851  0.2169
 5330SOL    HW127623   2.861   2.469   6.310 -2.6045 -0.3736 -0.0313
 5330SOL    HW227624   2.876   2.497   6.161 -2.4289 -2.4854  1.0008
 5331SOL     OW27625   1.200   1.456   5.667 -0.0507  0.0181 -1.0361
 5331SOL    HW127626   1.205   1.374   5.717  0.4945  1.4586  1.2607
 5331SOL    HW227627   1.274   1.459   5.606  2.0662 -0.6338  1.4764
 5332SOL     OW27628   3.640   3.649   2.413 -0.3251 -0.4318 -1.1156
 5332SOL    HW127629   3.545   3.661   2.407  0.0275  2.4503 -1.0078
 5332SOL    HW227630   3.672   3.691   2.333  1.0099  0.8101  0.0601
 5333SOL     OW27631   4.477   2.861   2.032 -0.2743  0.2702  0.8347
 5333SOL    HW127632   4.472   2.851   2.127 -1.7787  1.1051  0.8458
 5333SOL    HW227633   4.554   2.808   2.010 -0.0149  0.3253  1.5933
 5334SOL     OW27634   3.593   2.643  17.141 -0.3350  0.6491 -0.1721
 5334SOL    HW127635   3.647   2.569  17.169 -0.6222 -0.0192 -1.3955
 5334SOL    HW227636   3.617   2.710  17.205  1.6956  0.2391 -0.5214
 5335SOL     OW27637   2.640   1.883   6.169  0.0580  0.3275 -0.3477
 5335SOL    HW127638   2.608   1.968   6.201 -2.6160 -0.8409  0.1245
 5335SOL    HW227639   2.722   1.904   6.125  1.1953 -1.5118  0.8991
 5336SOL     OW27640   4.366   3.948   5.186 -0.6789  0.2078  0.1788
 5336SOL    HW127641   4.355   3.895   5.107 -1.0251 -1.3527  1.2765
 5336SOL    HW227642   4.405   4.022   5.139 -0.6603  1.3792  2.0744
 5337SOL     OW27643   3.925   3.855   3.924 -0.0360 -0.1269  0.1384
 5337SOL    HW127644   3.976   3.803   3.986  1.7698  0.7986 -0.5579
 5337SOL    HW227645   3.902   3.791   3.856  1.7869  0.8006 -1.3465
 5338SOL     OW27646   0.161   1.265   6.259  0.0829 -0.6632 -0.4238
 5338SOL    HW127647   0.119   1.351   6.260  1.4843 -0.0023  0.6870
 5338SOL    HW227648   0.086   1.216   6.226  0.0594 -0.5332 -0.5628
 5339SOL     OW27649   4.292   3.638  17.481 -0.0575  0.1990  0.0225
 5339SOL    HW127650   4.253   3.655  17.567  0.2857  2.0863 -0.1934
 5339SOL    HW227651   4.340   3.559  17.506  0.8098  0.8905  0.5340
 5340SOL     OW27652   0.367   2.576  10.789 -0.3183  0.0126  0.0659
 5340SOL    HW127653   0.330   2.516  10.853  0.5442 -1.9035 -1.2438
 5340SOL    HW227654   0.387   2.519  10.715  2.6158 -0.8270  1.4951
 5341SOL     OW27655   1.112   2.721   1.008 -0.5157 -1.1308  0.5804
 5341SOL    HW127656   1.017   2.726   1.012 -0.5350 -0.6031 -0.4990
 5341SOL    HW227657   1.115   2.643   1.063  1.1804 -0.9837  0.7153
 5342SOL     OW27658   1.297   0.941   6.746  0.2111 -0.2331  0.0330
 5342SOL    HW127659   1.279   1.035   6.748 -0.9488 -0.4826  2.2581
 5342SOL    HW227660   1.377   0.939   6.798  0.2072 -2.5035 -0.0306
 5343SOL     OW27661   4.139   3.167   7.015 -0.4094  0.4005 -0.0626
 5343SOL    HW127662   4.091   3.112   7.077  1.1316  0.8433  1.5245
 5343SOL    HW227663   4.171   3.241   7.065  1.0884 -0.6082  0.4750
 5344SOL     OW27664   3.670   3.798   8.963  0.3421  0.0403 -0.8526
 5344SOL    HW127665   3.743   3.860   8.968  1.0075 -0.7403 -0.7650
 5344SOL    HW227666   3.710   3.714   8.986 -2.7485 -1.2434 -0.1622
 5345SOL     OW27667   3.680   1.101   3.801  0.2552 -0.5440 -0.1229
 5345SOL    HW127668   3.761   1.124   3.756  1.0311 -0.7150  1.1683
 5345SOL    HW227669   3.716   1.033   3.859 -1.7840 -0.4804  1.1998
 5346SOL     OW27670   0.147   0.135   1.092  0.2464 -0.4272  0.0468
 5346SOL    HW127671   0.164   0.173   1.178 -0.9163  0.7679 -0.2405
 5346SOL    HW227672   0.225   0.163   1.045 -0.7281  1.1214 -0.6528
 5347SOL     OW27673   1.661   2.244  10.080  0.0658  0.4962  0.1821
 5347SOL    HW127674   1.622   2.159  10.098  0.2636  0.5609  0.9222
 5347SOL    HW227675   1.589   2.307  10.080 -0.7115 -0.3998  0.8510
 5348SOL     OW27676   4.388   2.363   6.221 -0.1332 -0.0144  0.0468
 5348SOL    HW127677   4.400   2.296   6.289  2.4610 -2.1971 -2.5292
 5348SOL    HW227678   4.476   2.388   6.195 -0.1433  1.7048  1.6414
 5349SOL     OW27679   2.783   3.010   9.475 -0.4344 -0.3307  0.3019
 5349SOL    HW127680   2.781   2.930   9.526  0.4972  1.1874  2.7008
 5349SOL    HW227681   2.692   3.036   9.492  0.1115  2.7861 -1.3586
 5350SOL     OW27682   2.647   2.593   0.445  0.2621  0.6422  0.2437
 5350SOL    HW127683   2.736   2.601   0.410 -0.4843  2.2832 -1.2559
 5350SOL    HW227684   2.648   2.499   0.460 -2.8809  0.8663  1.7464
 5351SOL     OW27685   3.450   2.692  14.992 -0.3764 -0.5374 -0.2372
 5351SOL    HW127686   3.442   2.712  14.899  2.5553  0.0402 -0.3883
 5351SOL    HW227687   3.477   2.600  14.997 -0.0852 -0.3799  1.1384
 5352SOL     OW27688   2.240   0.366   0.669  0.1754  0.3159  0.2167
 5352SOL    HW127689   2.203   0.415   0.743 -0.1397  1.1801 -0.5028
 5352SOL    HW227690   2.232   0.276   0.700 -2.0401 -0.9009 -3.8803
 5353SOL     OW27691   4.007   1.572   1.624  0.0323 -0.0388  0.0875
 5353SOL    HW127692   4.052   1.534   1.700 -0.0740 -1.1883 -0.4281
 5353SOL    HW227693   4.078   1.577   1.561  0.8318  0.8143  1.0611
 5354SOL     OW27694   1.168   3.161  14.965 -0.4285  0.4476 -0.2155
 5354SOL    HW127695   1.226   3.086  14.978 -1.0927 -0.1968 -0.9776
 5354SOL    HW227696   1.233   3.230  14.978  0.2890  0.1034 -1.9583
 5355SOL     OW27697   2.762   1.673  13.550 -0.2766 -0.2313  0.0323
 5355SOL    HW127698   2.825   1.734  13.588 -0.4261  0.7568 -1.3212
 5355SOL    HW227699   2.736   1.730  13.478 -0.8383 -1.0611 -0.4190
 5356SOL     OW27700   0.067   1.847   5.778 -0.5922  0.1588 -0.3236
 5356SOL    HW127701   4.712   1.850   5.787 -0.5981 -1.9896  0.3591
 5356SOL    HW227702   0.093   1.822   5.867  0.1745  1.3768 -0.2167
 5357SOL     OW27703   3.503   2.019   1.999  0.4359  0.0258  0.2245
 5357SOL    HW127704   3.583   1.969   1.983 -0.7328 -1.1790 -1.9220
 5357SOL    HW227705   3.507   2.084   1.929 -0.0820 -0.2473 -0.0603
 5358SOL     OW27706   2.783   2.417   2.643 -0.3226  0.3432 -0.0999
 5358SOL    HW127707   2.737   2.399   2.561 -1.4743 -2.1102  1.1011
 5358SOL    HW227708   2.786   2.513   2.638 -0.7501  0.3144 -0.8667
 5359SOL     OW27709   4.735   2.666   2.830 -0.0983  0.8292 -0.1222
 5359SOL    HW127710   4.702   2.637   2.745 -0.7150 -0.2101  0.4673
 5359SOL    HW227711   0.087   2.645   2.814  0.0317 -0.6402  2.5169
 5360SOL     OW27712   4.224   0.800   8.936 -0.2653  0.3659 -0.2055
 5360SOL    HW127713   4.207   0.849   8.855  0.4807  2.6948  1.0363
 5360SOL    HW227714   4.180   0.856   9.000 -2.1028  2.1175 -2.9659
 5361SOL     OW27715   2.091   2.076  13.741  0.8353 -0.1180  0.8159
 5361SOL    HW127716   2.032   2.074  13.666  3.0780  1.6983 -0.9816
 5361SOL    HW227717   2.175   2.105  13.705  0.9061 -0.3293  0.8072
 5362SOL     OW27718   0.810   1.814   5.050 -0.2873 -0.6591  0.2956
 5362SOL    HW127719   0.880   1.838   5.111  0.6195 -3.0545  0.1908
 5362SOL    HW227720   0.759   1.755   5.105 -0.9799 -0.9691 -0.6797
 5363SOL     OW27721   3.798   3.570   0.275  0.2446  0.1276  0.5336
 5363SOL    HW127722   3.731   3.638   0.278  2.1012  2.1305 -2.8257
 5363SOL    HW227723   3.835   3.581   0.363  1.2771 -0.0443  0.1179
 5364SOL     OW27724   3.263   2.480   9.628  0.0846 -0.0316  0.4830
 5364SOL    HW127725   3.352   2.493   9.594 -0.0615  0.4154  0.2712
 5364SOL    HW227726   3.225   2.567   9.618 -0.1355 -0.2650 -0.6837
 5365SOL     OW27727   3.893   2.133   7.732  0.1105  0.2656  0.3842
 5365SOL    HW127728   3.935   2.084   7.802  1.1842  2.0920  1.0385
 5365SOL    HW227729   3.943   2.215   7.742 -0.3944  0.7603 -1.0825
 5366SOL     OW27730   3.167   3.885   7.936 -0.1847  0.1722 -0.1957
 5366SOL    HW127731   3.172   3.798   7.976  2.0650  0.6475  0.5351
 5366SOL    HW227732   3.094   3.879   7.874 -0.1007 -1.8593 -0.1010
 5367SOL     OW27733   1.972   1.610  11.161 -0.3454 -0.0061  0.6588
 5367SOL    HW127734   1.878   1.612  11.180 -0.5866 -0.7927 -0.4966
 5367SOL    HW227735   1.991   1.524  11.125  0.5084  0.2379  0.5136
 5368SOL     OW27736   0.090   0.924   2.446  0.3890  0.0760  0.6378
 5368SOL    HW127737   0.054   0.840   2.417  0.9673  0.2067 -0.4744
 5368SOL    HW227738   0.113   0.959   2.360  0.7987  0.6174  0.9659
 5369SOL     OW27739   2.405   3.116   9.124 -0.3169  0.0381 -0.2328
 5369SOL    HW127740   2.345   3.179   9.164  1.5506 -0.1005  2.8292
 5369SOL    HW227741   2.380   3.116   9.032  0.9350  1.7798 -0.5709
 5370SOL     OW27742   1.281   1.949   8.595 -0.1448  0.6690  0.3244
 5370SOL    HW127743   1.334   1.886   8.547 -1.0418 -0.4993  0.8620
 5370SOL    HW227744   1.233   1.895   8.658  0.2187 -2.1195 -1.8467
 5371SOL     OW27745   1.603   2.096   6.756 -0.0494  0.3425  0.1180
 5371SOL    HW127746   1.638   2.138   6.678 -0.2524  0.2066 -0.0472
 5371SOL    HW227747   1.686   2.084   6.801 -0.4742  1.1686  1.1096
 5372SOL     OW27748   0.153   3.463   5.786 -0.0566  0.6809  0.1724
 5372SOL    HW127749   0.185   3.377   5.760  0.0963  0.7384  0.1659
 5372SOL    HW227750   0.062   3.438   5.776  1.1203 -2.7877 -1.7367
 5373SOL     OW27751   1.552   1.260   7.632  0.1620 -0.4493  0.0593
 5373SOL    HW127752   1.603   1.293   7.558  0.7875  0.0845  0.7316
 5373SOL    HW227753   1.617   1.209   7.681  1.7130 -0.1578 -1.7161
 5374SOL     OW27754   0.565   0.458   8.182  0.1485  0.5384 -0.3724
 5374SOL    HW127755   0.532   0.545   8.204  0.8608  0.5908  0.5103
 5374SOL    HW227756   0.534   0.397   8.250  0.3745 -0.0094 -0.7612
 5375SOL     OW27757   4.379   1.066   1.821 -0.1784 -0.3185  0.1211
 5375SOL    HW127758   4.418   1.098   1.902  0.0300 -0.8569  0.2330
 5375SOL    HW227759   4.448   1.090   1.760  0.4393  0.3434  1.0879
 5376SOL     OW27760   0.888   1.700  15.246  0.2514  0.8335 -0.2953
 5376SOL    HW127761   0.912   1.739  15.330 -0.2802  0.7300 -0.0950
 5376SOL    HW227762   0.822   1.761  15.212 -1.0367 -0.9147 -0.9283
 5377SOL     OW27763   1.671   1.593  11.530 -0.5027  0.2785  0.3007
 5377SOL    HW127764   1.676   1.521  11.593 -2.8982  0.5844  0.8577
 5377SOL    HW227765   1.599   1.634  11.578 -0.9405 -1.4456  1.1061
 5378SOL     OW27766   0.783   2.576   6.424 -0.5289 -0.0142  0.0906
 5378SOL    HW127767   0.697   2.595   6.387 -0.9804 -2.5479 -0.1363
 5378SOL    HW227768   0.792   2.649   6.485 -2.6504 -0.1367  0.5470
 5379SOL     OW27769   3.389   2.536  11.321  0.5338 -0.2587 -0.5251
 5379SOL    HW127770   3.479   2.515  11.295 -0.6505 -0.8069 -4.1659
 5379SOL    HW227771   3.344   2.463  11.278  0.5239  0.7607 -2.2683
 5380SOL     OW27772   4.254   2.116  11.160 -0.1085  0.2301  0.2115
 5380SOL    HW127773   4.174   2.098  11.111  0.1503  1.5517 -0.6869
 5380SOL    HW227774   4.268   2.206  11.130  0.9833 -0.0966 -0.2406
 5381SOL     OW27775   0.671   4.563   8.381  0.1802  0.0315  0.1278
 5381SOL    HW127776   0.577   4.565   8.402  0.4288  0.0555  1.1980
 5381SOL    HW227777   0.688   4.477   8.343  1.2729  2.0986 -4.0324
 5382SOL     OW27778   4.172   3.351   3.672 -1.1659  0.8753  0.1939
 5382SOL    HW127779   4.126   3.268   3.685  0.5396 -0.0535  0.2558
 5382SOL    HW227780   4.201   3.380   3.759 -1.5868 -3.1485  1.7093
 5383SOL     OW27781   2.336   2.097   5.676 -0.2484 -0.4167 -0.5439
 5383SOL    HW127782   2.390   2.078   5.752  0.0702 -1.6601 -1.0632
 5383SOL    HW227783   2.354   2.191   5.672 -0.2169 -0.3239  2.0921
 5384SOL     OW27784   3.263   1.515   3.225  0.4663  0.3551  0.2718
 5384SOL    HW127785   3.187   1.563   3.258 -0.2960 -1.9712  1.9596
 5384SOL    HW227786   3.303   1.485   3.306  2.1891  0.1401 -0.6591
 5385SOL     OW27787   2.329   2.393   9.663 -0.7459  0.0866  0.0063
 5385SOL    HW127788   2.387   2.418   9.591 -3.2335 -3.2246 -3.1396
 5385SOL    HW227789   2.248   2.432   9.630  1.1148  1.6538 -2.7160
 5386SOL     OW27790   3.134   1.956  14.782 -0.2559  0.6269 -0.1033
 5386SOL    HW127791   3.060   1.980  14.726 -0.7752 -0.1426  0.2539
 5386SOL    HW227792   3.136   1.862  14.767 -0.7539  0.4016  1.2641
 5387SOL     OW27793   1.189   2.562   1.439 -0.4522  0.1711 -0.0553
 5387SOL    HW127794   1.172   2.490   1.500  0.0646  1.6933  1.8830
 5387SOL    HW227795   1.250   2.613   1.494 -1.1711 -0.8821  1.7376
 5388SOL     OW27796   3.178   1.297   9.398  0.5365 -0.4304 -0.1995
 5388SOL    HW127797   3.139   1.276   9.483 -2.0977  0.7901 -1.1174
 5388SOL    HW227798   3.123   1.373   9.381 -1.8597 -1.5609  2.4419
 5389SOL     OW27799   2.087   2.475  12.313  0.2631 -0.4817  0.3608
 5389SOL    HW127800   2.155   2.410  12.292  0.3373 -0.9018  1.9056
 5389SOL    HW227801   2.020   2.414  12.343 -0.1249 -0.9477 -1.4666
 5390SOL     OW27802   3.221   2.479   1.806 -0.0230  0.0768 -0.1443
 5390SOL    HW127803   3.171   2.426   1.868 -0.9806  1.4212  0.2170
 5390SOL    HW227804   3.220   2.419   1.730 -1.7058 -1.2504  0.9351
 5391SOL     OW27805   3.735   3.507   3.468  0.1073 -0.0243  0.0855
 5391SOL    HW127806   3.776   3.422   3.457 -0.7423 -0.1216 -2.3625
 5391SOL    HW227807   3.694   3.497   3.554  0.0883  0.4041  0.1256
 5392SOL     OW27808   2.926   1.362   3.621  0.0276  0.0972  0.3202
 5392SOL    HW127809   3.016   1.341   3.646 -0.1514 -1.3435 -0.2571
 5392SOL    HW227810   2.877   1.302   3.679  0.1077  0.9670  1.2852
 5393SOL     OW27811   1.852   1.033   5.567  0.1773 -0.0597  0.0624
 5393SOL    HW127812   1.848   1.013   5.661  1.6364  2.8641  0.7658
 5393SOL    HW227813   1.769   0.998   5.535  0.0874  1.3147 -1.2280
 5394SOL     OW27814   0.054   2.960  12.308  0.2689 -0.2230 -0.1628
 5394SOL    HW127815   4.728   3.003  12.254 -0.0740  1.2432  1.4592
 5394SOL    HW227816   0.053   3.016  12.385 -2.3994 -0.2612 -0.1846
 5395SOL     OW27817   1.267   3.882   9.425  0.4565 -0.1004 -0.3403
 5395SOL    HW127818   1.335   3.921   9.370  0.7056  0.7946  0.5986
 5395SOL    HW227819   1.284   3.928   9.507 -0.7534 -1.2700  0.5649
 5396SOL     OW27820   1.694   1.714   4.833 -0.1814  0.3211 -0.1781
 5396SOL    HW127821   1.604   1.707   4.864 -0.6993 -1.1640 -2.0384
 5396SOL    HW227822   1.698   1.802   4.796  1.1318 -0.3566 -1.6071
 5397SOL     OW27823   3.457   4.627   2.535 -0.3985 -0.0653 -0.3124
 5397SOL    HW127824   3.491   4.627   2.446  0.5992  2.0675  0.0552
 5397SOL    HW227825   3.477   4.540   2.569 -0.9181 -0.2362 -0.4441
 5398SOL     OW27826   4.316   1.882   0.182 -0.1410  0.1008 -0.0495
 5398SOL    HW127827   4.330   1.951   0.247 -4.0172  0.5641  0.2796
 5398SOL    HW227828   4.346   1.908   0.094  0.2459 -4.3571 -1.2650
 5399SOL     OW27829   0.042   3.983   8.471 -0.4295 -0.2190  0.1734
 5399SOL    HW127830   0.112   3.963   8.533 -0.3443 -2.2261 -0.5447
 5399SOL    HW227831   4.731   4.053   8.511  0.4948  0.3853  0.2955
 5400SOL     OW27832   1.568   3.225  15.634  0.1285  0.7050  0.3869
 5400SOL    HW127833   1.511   3.219  15.711 -1.7712  0.0313 -1.0725
 5400SOL    HW227834   1.601   3.313  15.656  1.1809  0.8460 -1.7870
 5401SOL     OW27835   1.401   1.907   6.848  0.3395 -0.1928  0.0065
 5401SOL    HW127836   1.462   1.911   6.922  1.0336  2.8947 -0.7485
 5401SOL    HW227837   1.440   1.974   6.792 -0.6596 -0.8825 -1.5265
 5402SOL     OW27838   0.607   3.468  14.629  0.1398  0.1316 -0.3214
 5402SOL    HW127839   0.673   3.484  14.698  0.2642  0.6734 -0.5720
 5402SOL    HW227840   0.641   3.386  14.593  0.5937  0.7934 -1.3852
 5403SOL     OW27841   1.622   4.632  11.989  0.2227  0.1507 -0.3297
 5403SOL    HW127842   1.581   4.612  12.073 -1.2731  2.8104 -0.3984
 5403SOL    HW227843   1.600   4.551  11.944 -0.8263 -0.1021  0.6506
 5404SOL     OW27844   2.035   1.371   8.366 -0.1255  0.8924 -0.7824
 5404SOL    HW127845   2.100   1.374   8.295  0.3996 -0.5217 -0.3538
 5404SOL    HW227846   1.998   1.286   8.346  0.6155  0.1924  0.8182
 5405SOL     OW27847   2.832   1.008   5.194 -0.6380  0.5354 -0.3401
 5405SOL    HW127848   2.917   0.972   5.172 -0.1778 -0.3276  2.8514
 5405SOL    HW227849   2.797   1.032   5.108  2.7278 -0.1522 -1.8777
 5406SOL     OW27850   4.210   1.693  16.720 -0.4534 -0.0419  0.3519
 5406SOL    HW127851   4.125   1.729  16.747 -1.6429 -0.7704 -2.3732
 5406SOL    HW227852   4.179   1.611  16.682 -0.8816  0.4044 -0.2662
 5407SOL     OW27853   4.693   1.204  14.445 -0.2806 -0.5696 -0.4280
 5407SOL    HW127854   4.629   1.194  14.376 -0.7586  1.8948 -0.3541
 5407SOL    HW227855   4.728   1.115  14.442  2.3645  0.3599  1.9076
 5408SOL     OW27856   3.622   1.273   7.860 -0.2115 -0.7233  0.0404
 5408SOL    HW127857   3.590   1.272   7.950  0.0609  3.1488  0.1787
 5408SOL    HW227858   3.694   1.336   7.872  0.3943 -1.5860  0.9469
 5409SOL     OW27859   3.684   3.421   7.587  0.1776  0.4666 -0.5609
 5409SOL    HW127860   3.681   3.502   7.638  0.3187  0.7466 -0.9954
 5409SOL    HW227861   3.674   3.358   7.657 -1.0481  0.7483 -0.4791
 5410SOL     OW27862   3.360   3.521   6.999  0.1372  0.2608  0.0970
 5410SOL    HW127863   3.352   3.499   6.907  3.1980  1.2146 -0.4027
 5410SOL    HW227864   3.332   3.446   7.050 -1.0661 -0.0864 -1.0809
 5411SOL     OW27865   0.578   0.940   3.089  0.1872 -0.1712  0.1506
 5411SOL    HW127866   0.602   0.904   3.003 -2.1032  1.4673 -1.1836
 5411SOL    HW227867   0.617   0.884   3.157  1.2289 -0.3878 -0.6235
 5412SOL     OW27868   3.838   1.519   0.454 -0.2109 -0.3949 -0.4577
 5412SOL    HW127869   3.760   1.502   0.507  0.1562 -1.2976 -0.2007
 5412SOL    HW227870   3.872   1.604   0.482  1.0755 -1.0402 -0.0703
 5413SOL     OW27871   0.264   0.754  11.288 -0.2930 -0.3856  0.5664
 5413SOL    HW127872   0.268   0.662  11.315 -0.0704 -0.3576  0.6251
 5413SOL    HW227873   0.350   0.772  11.251 -1.5206  1.1516 -1.5609
 5414SOL     OW27874   0.475   2.553   5.079 -0.0360 -0.8615 -0.3921
 5414SOL    HW127875   0.503   2.483   5.021  3.5106 -1.2432  1.8160
 5414SOL    HW227876   0.557   2.581   5.120  0.1622  0.0074 -1.3887
 5415SOL     OW27877   2.652   3.172  10.010  0.1447 -0.2180  0.3111
 5415SOL    HW127878   2.589   3.207   9.947  0.3245  0.8734  0.7380
 5415SOL    HW227879   2.703   3.107   9.962 -1.1072 -0.4988 -0.6249
 5416SOL     OW27880   1.479   3.538  17.407  0.1980 -0.2190 -0.2487
 5416SOL    HW127881   1.530   3.516  17.328 -2.3029  0.3691 -2.0366
 5416SOL    HW227882   1.537   3.511  17.478  1.8988 -0.7497 -1.8400
 5417SOL     OW27883   1.835   3.008   9.035 -0.1968  0.2296  0.2191
 5417SOL    HW127884   1.855   3.091   8.993 -2.2668  0.3896 -0.4477
 5417SOL    HW227885   1.848   3.037   9.125  1.3270  2.4478 -0.7279
 5418SOL     OW27886   3.478   4.290   2.381  0.1616  0.5245  0.1846
 5418SOL    HW127887   3.506   4.199   2.378 -0.0157  0.4768 -0.0190
 5418SOL    HW227888   3.452   4.295   2.473 -1.0734 -0.4733 -0.1016
 5419SOL     OW27889   0.788   1.681   6.663  0.4020  0.6740  0.0949
 5419SOL    HW127890   0.772   1.775   6.657 -1.9529  0.1861 -1.4438
 5419SOL    HW227891   0.725   1.642   6.601  3.1586  1.7196 -3.3830
 5420SOL     OW27892   2.736   0.983   9.344  0.1906  0.1874  0.1306
 5420SOL    HW127893   2.697   1.005   9.428 -0.2784 -0.0399 -0.0282
 5420SOL    HW227894   2.820   1.029   9.339  0.4612 -0.1464  1.7077
 5421SOL     OW27895   3.149   4.368   2.028  0.2174  0.2132 -0.2044
 5421SOL    HW127896   3.195   4.393   2.108 -1.3774  0.4241  0.6431
 5421SOL    HW227897   3.176   4.440   1.970  0.3039 -1.1552 -1.8782
 5422SOL     OW27898   0.293   4.313   6.187 -0.0948 -0.1493  0.6105
 5422SOL    HW127899   0.339   4.340   6.108 -2.1722 -0.1857 -0.6196
 5422SOL    HW227900   0.297   4.403   6.218  0.1965 -0.6180  1.9351
 5423SOL     OW27901   1.048   4.466   3.389  0.4122 -0.6927 -0.1303
 5423SOL    HW127902   1.045   4.558   3.415 -2.0284 -0.3893 -1.4872
 5423SOL    HW227903   1.011   4.479   3.301 -0.1501 -0.2598  0.1714
 5424SOL     OW27904   3.910   0.245  17.048  0.5891  0.1752  0.5525
 5424SOL    HW127905   4.004   0.236  17.034  0.4292  0.2544 -0.5367
 5424SOL    HW227906   3.882   0.255  16.957  1.3073 -0.2320  0.2918
 5425SOL     OW27907   2.984   0.758   2.634 -0.3344 -0.7203  0.8301
 5425SOL    HW127908   3.049   0.745   2.702  0.6866 -0.8359 -0.1574
 5425SOL    HW227909   3.020   0.709   2.560  1.2164  2.4732 -0.5255
 5426SOL     OW27910   2.132   1.876   9.247  0.2271 -0.1532 -0.4993
 5426SOL    HW127911   2.172   1.949   9.295 -2.3959 -1.3931  3.5311
 5426SOL    HW227912   2.106   1.821   9.320 -0.2197  0.0693 -0.4849
 5427SOL     OW27913   4.201   0.002  14.847 -0.6101 -0.0594 -0.5713
 5427SOL    HW127914   4.111   0.016  14.876  0.0358  0.1702  1.3375
 5427SOL    HW227915   4.218   0.066  14.778 -1.1344  2.6103  1.7853
 5428SOL     OW27916   2.337   2.194   6.279  0.4167 -0.0175  0.1429
 5428SOL    HW127917   2.416   2.173   6.328 -0.8846 -2.4483  1.1893
 5428SOL    HW227918   2.288   2.253   6.337 -0.4702  1.9893 -2.5959
 5429SOL     OW27919   1.991   3.451   7.811  0.4622  0.6081 -0.4230
 5429SOL    HW127920   1.956   3.374   7.855 -2.8863  0.2832 -3.6853
 5429SOL    HW227921   1.913   3.474   7.760  0.1233  2.5765  0.9659
 5430SOL     OW27922   4.709   2.932   2.955 -0.2228 -0.1673 -0.1730
 5430SOL    HW127923   0.018   2.851   2.944 -0.2932 -0.1780 -0.4096
 5430SOL    HW227924   0.029   3.005   2.941  0.3229 -0.7698 -0.9680
 5431SOL     OW27925   2.035   1.648  11.900 -0.6101 -0.1663  0.2059
 5431SOL    HW127926   1.963   1.663  11.839  0.1238 -3.2989 -1.4347
 5431SOL    HW227927   2.037   1.552  11.910  2.0716 -0.0662  0.5278
 5432SOL     OW27928   0.595   3.550   5.600 -1.1029  0.3790  0.4852
 5432SOL    HW127929   0.531   3.542   5.670  1.1260 -2.8761  2.1455
 5432SOL    HW227930   0.552   3.614   5.544 -1.0029  0.9762  1.1026
 5433SOL     OW27931   4.022   1.190  17.485  0.0374  0.4334  0.1583
 5433SOL    HW127932   4.050   1.154  17.401  1.9341  1.1530  0.4729
 5433SOL    HW227933   3.927   1.199  17.479 -0.2155 -3.5130 -1.6656
 5434SOL     OW27934   1.534   2.062   7.113 -0.3032  0.1176 -0.1028
 5434SOL    HW127935   1.476   2.121   7.065 -1.8865 -2.9789 -1.9778
 5434SOL    HW227936   1.572   2.127   7.173 -2.0116 -0.7185  1.8999
 5435SOL     OW27937   1.589   2.007   6.307  0.5399  0.0955 -0.2090
 5435SOL    HW127938   1.599   1.946   6.234 -1.7140 -1.0342  0.4001
 5435SOL    HW227939   1.605   1.953   6.384 -1.4862 -0.1975  0.0043
 5436SOL     OW27940   4.264   2.927   1.875 -0.2234  0.2455 -0.3437
 5436SOL    HW127941   4.211   2.985   1.930 -0.9089 -0.9064  0.2076
 5436SOL    HW227942   4.324   2.891   1.940 -0.9971 -2.1110 -0.9172
 5437SOL     OW27943   0.610   0.517  17.468  0.0392  0.1189  0.3430
 5437SOL    HW127944   0.537   0.478  17.420  0.2802  1.5724 -1.1818
 5437SOL    HW227945   0.618   0.442  17.527 -1.3247 -0.2036  0.1212
 5438SOL     OW27946   3.254   3.791   7.379  0.1158 -0.2397  0.6116
 5438SOL    HW127947   3.235   3.738   7.302 -2.8114  1.7620 -0.0458
 5438SOL    HW227948   3.214   3.731   7.441 -0.0054 -0.0878  0.6783
 5439SOL     OW27949   0.956   4.183  13.212  0.0953 -0.4853 -0.4454
 5439SOL    HW127950   0.925   4.126  13.142 -2.6529  0.4246  0.0370
 5439SOL    HW227951   1.048   4.157  13.209  0.6821  1.6637 -1.4522
 5440SOL     OW27952   2.346   0.283  16.812 -0.1109  0.4447 -0.0799
 5440SOL    HW127953   2.437   0.300  16.790  0.2460 -1.4860 -0.1043
 5440SOL    HW227954   2.330   0.274  16.906 -1.2225 -0.3759 -0.3410
 5441SOL     OW27955   3.171   3.632   7.165 -0.0162  0.2722 -0.2956
 5441SOL    HW127956   3.235   3.588   7.110  1.8251 -0.4170  2.3791
 5441SOL    HW227957   3.104   3.564   7.169 -0.4097  0.6349 -0.7025
 5442SOL     OW27958   2.325   4.467   4.536 -0.5394 -0.0206  0.1759
 5442SOL    HW127959   2.377   4.522   4.477  1.0003 -0.7821  0.8186
 5442SOL    HW227960   2.384   4.395   4.557  2.7459  2.5745 -0.1957
 5443SOL     OW27961   3.047   0.740   5.137 -0.1748  0.3150  0.0420
 5443SOL    HW127962   3.017   0.736   5.046  1.3910  1.4749 -0.5020
 5443SOL    HW227963   3.092   0.824   5.142  1.8540 -0.7525 -0.4592
 5444SOL     OW27964   0.154   3.910   6.511 -0.1140 -0.2463  0.4110
 5444SOL    HW127965   0.164   3.955   6.428  0.9430 -0.2541  0.5427
 5444SOL    HW227966   0.173   3.976   6.578 -3.3003  0.1319  0.9555
 5445SOL     OW27967   3.196   0.137   2.878  0.2300  0.2817  0.0012
 5445SOL    HW127968   3.266   0.096   2.826 -1.0546 -0.3755 -1.2166
 5445SOL    HW227969   3.138   0.173   2.811 -3.1180  0.0746  2.8175
 5446SOL     OW27970   2.801   1.543   0.071  0.3310 -0.1426 -0.6368
 5446SOL    HW127971   2.733   1.520   0.135  2.5838  0.1302  1.8402
 5446SOL    HW227972   2.866   1.474   0.086  0.3387  0.0132  0.0726
 5447SOL     OW27973   2.246   4.275   3.282  0.0262 -0.4409 -0.2595
 5447SOL    HW127974   2.213   4.324   3.357 -0.0684 -0.4018 -0.3255
 5447SOL    HW227975   2.215   4.330   3.210 -3.4744  0.7238  2.1409
 5448SOL     OW27976   0.918   4.665   8.465 -0.0829  0.0927 -0.4701
 5448SOL    HW127977   0.936   4.591   8.523 -1.1453  2.5445  2.9877
 5448SOL    HW227978   0.835   4.632   8.431  0.4105 -0.1243 -1.4459
 5449SOL     OW27979   1.516   4.452   5.919 -0.1193  0.1354 -0.4000
 5449SOL    HW127980   1.599   4.461   5.966 -1.3463  0.2275  1.7459
 5449SOL    HW227981   1.535   4.499   5.837  0.8650  0.6674  0.1277
 5450SOL     OW27982   3.597   3.410   1.937  0.7067  0.3594 -0.1592
 5450SOL    HW127983   3.560   3.449   2.016  0.5115 -2.0428  0.9003
 5450SOL    HW227984   3.577   3.470   1.865 -0.6502  0.6085  0.4287
 5451SOL     OW27985   2.464   2.959   6.612  0.2381  0.1899 -0.1711
 5451SOL    HW127986   2.400   2.889   6.606 -0.3460  0.7038  0.0125
 5451SOL    HW227987   2.401   3.031   6.600  2.0107  1.5281 -1.4192
 5452SOL     OW27988   4.660   3.284   1.226  0.0362  0.7657 -0.4920
 5452SOL    HW127989   4.722   3.349   1.258  3.3482 -2.0026 -1.2350
 5452SOL    HW227990   4.656   3.221   1.299 -0.7576 -2.5193 -3.3514
 5453SOL     OW27991   2.259   1.300  17.180  0.0397 -0.0172 -0.3180
 5453SOL    HW127992   2.349   1.302  17.150  0.0322 -2.2984 -0.5191
 5453SOL    HW227993   2.216   1.264  17.102 -1.3076 -0.3873  0.5945
 5454SOL     OW27994   4.509   2.256   3.083 -0.8364 -0.5596 -0.6362
 5454SOL    HW127995   4.462   2.331   3.047  0.7483  1.5099  1.5810
 5454SOL    HW227996   4.515   2.267   3.178  1.9144 -1.0193 -0.7426
 5455SOL     OW27997   0.657   3.288   3.642 -0.1571  0.3699 -1.0370
 5455SOL    HW127998   0.659   3.383   3.628 -0.7611  0.3874 -0.9798
 5455SOL    HW227999   0.744   3.282   3.682  0.1274  0.3365 -1.6428
 5456SOL     OW28000   2.395   1.101   6.804 -0.3775 -0.1232  0.2891
 5456SOL    HW128001   2.342   1.176   6.833 -1.7880 -0.4840 -1.3303
 5456SOL    HW228002   2.341   1.026   6.830  1.3544 -3.2292 -5.0918
 5457SOL     OW28003   1.726   1.391  14.972 -0.0169 -0.1346 -0.1761
 5457SOL    HW128004   1.704   1.301  14.994  0.3726 -0.3985 -0.8719
 5457SOL    HW228005   1.641   1.429  14.950 -0.0716 -1.1798 -1.7401
 5458SOL     OW28006   4.533   1.719   1.863  0.0798  0.0270  0.5252
 5458SOL    HW128007   4.609   1.665   1.844 -1.2571 -0.6234 -2.9509
 5458SOL    HW228008   4.501   1.665   1.936 -1.6854  1.1167  0.5577
 5459SOL     OW28009   3.820   0.716   1.074  0.4519  0.5307  0.1112
 5459SOL    HW128010   3.781   0.650   1.016  0.2232  0.2464  0.5896
 5459SOL    HW228011   3.905   0.722   1.031  0.7912  1.7447  0.9420
 5460SOL     OW28012   0.539   2.027   7.642  0.3467 -0.1382 -0.1058
 5460SOL    HW128013   0.592   1.949   7.652  0.6604 -0.3517 -3.4668
 5460SOL    HW228014   0.605   2.096   7.646  2.6811 -2.2854 -1.7784
 5461SOL     OW28015   1.721   2.289   2.599 -0.8845  0.1415  0.4440
 5461SOL    HW128016   1.738   2.338   2.679  1.5967 -1.2720  0.7685
 5461SOL    HW228017   1.799   2.289   2.544  0.3395  2.4692  2.2172
 5462SOL     OW28018   4.676   2.028   2.101 -0.0065 -0.4587  0.1691
 5462SOL    HW128019   4.628   2.068   2.173  1.6142  1.9450 -0.0548
 5462SOL    HW228020   4.719   2.104   2.060  0.6821 -0.0379  1.6657
 5463SOL     OW28021   2.059   4.359   2.474  0.3796 -0.0311  0.6786
 5463SOL    HW128022   2.143   4.404   2.480  0.7863 -0.8329  1.0796
 5463SOL    HW228023   2.014   4.378   2.556 -1.8788 -1.6057 -0.2058
 5464SOL     OW28024   1.521   0.705  11.927 -0.2395 -0.6074  0.2038
 5464SOL    HW128025   1.535   0.664  11.842 -0.3848 -1.1050  0.4201
 5464SOL    HW228026   1.597   0.680  11.980 -0.6988  2.7870  2.4707
 5465SOL     OW28027   2.422   3.203   3.640  0.5358  0.1752  0.0703
 5465SOL    HW128028   2.445   3.168   3.726  0.2911 -0.3213 -0.0674
 5465SOL    HW228029   2.422   3.292   3.675  1.7983  0.5883 -0.9765
 5466SOL     OW28030   4.200   1.816  15.248  0.0495  0.5808 -0.1826
 5466SOL    HW128031   4.288   1.831  15.214 -0.3319  0.4528 -1.2075
 5466SOL    HW228032   4.166   1.906  15.249  0.0092  0.5385  4.4086
 5467SOL     OW28033   1.823   1.535   8.462  0.6237  0.0632 -0.2237
 5467SOL    HW128034   1.839   1.616   8.415  0.2361  0.4576  0.3265
 5467SOL    HW228035   1.902   1.489   8.434  1.2636 -0.0911  1.8482
 5468SOL     OW28036   2.439   0.389   7.484 -0.3154 -0.0310 -0.4365
 5468SOL    HW128037   2.343   0.390   7.480 -0.3071 -0.8711 -0.7619
 5468SOL    HW228038   2.456   0.453   7.552  4.0764 -0.6868 -0.9435
 5469SOL     OW28039   4.124   2.617   6.518  0.0785 -0.3758  0.7649
 5469SOL    HW128040   4.151   2.612   6.610  0.6887  3.3101  0.7960
 5469SOL    HW228041   4.134   2.708   6.493  2.0578 -0.8680 -0.2511
 5470SOL     OW28042   3.649   3.078   7.702 -0.2956  0.9801 -0.0956
 5470SOL    HW128043   3.719   3.136   7.732  1.5316 -1.5631  0.5228
 5470SOL    HW228044   3.636   3.021   7.777  1.7578  0.2690 -0.2804
 5471SOL     OW28045   0.720   2.595   5.199  0.4586 -0.1657  0.5281
 5471SOL    HW128046   0.768   2.670   5.234 -0.4384  1.0056 -0.7698
 5471SOL    HW228047   0.667   2.577   5.277  0.6264  0.3808  0.7699
 5472SOL     OW28048   2.452   1.286  10.927 -0.1240  0.3864 -0.1754
 5472SOL    HW128049   2.540   1.267  10.959 -0.1869 -0.9975 -0.8361
 5472SOL    HW228050   2.433   1.367  10.975  2.5758  0.9646 -0.0900
 5473SOL     OW28051   4.479   1.841   5.835 -0.0543 -0.3775  0.0065
 5473SOL    HW128052   4.428   1.823   5.915  0.3652 -0.6468  0.2117
 5473SOL    HW228053   4.416   1.898   5.791  0.9534  2.1479  1.7933
 5474SOL     OW28054   4.710   2.445   3.285 -0.1909 -0.0660 -0.4379
 5474SOL    HW128055   4.704   2.519   3.225  0.4001 -0.6234 -1.1821
 5474SOL    HW228056   0.039   2.484   3.339 -0.4402  0.0467 -0.2024
 5475SOL     OW28057   1.340   4.017   8.557  0.5975  0.0983 -0.7495
 5475SOL    HW128058   1.320   4.011   8.651  0.8418  1.0454 -0.6377
 5475SOL    HW228059   1.420   3.967   8.540  1.1814  0.6470  0.3405
 5476SOL     OW28060   1.935   4.484   5.346 -0.3768  0.0014  0.3338
 5476SOL    HW128061   1.846   4.452   5.364 -0.4324  0.4640  0.8816
 5476SOL    HW228062   1.984   4.402   5.348 -0.2700  0.1095  1.8338
 5477SOL     OW28063   2.990   1.682   2.238 -0.0195  0.6108  0.0300
 5477SOL    HW128064   2.904   1.722   2.226 -0.2767  0.0393 -0.0011
 5477SOL    HW228065   3.010   1.656   2.148  2.5056 -1.5601  1.2348
 5478SOL     OW28066   2.108   3.507   7.013 -0.2080 -0.2124 -0.1863
 5478SOL    HW128067   2.040   3.447   6.981  2.4994 -3.5611  0.3024
 5478SOL    HW228068   2.108   3.479   7.104 -0.1240  0.4365  0.0148
 5479SOL     OW28069   0.083   0.339  11.454  0.5169 -0.0128  0.1683
 5479SOL    HW128070   0.077   0.434  11.457 -1.4105 -0.1765  1.4326
 5479SOL    HW228071   0.177   0.324  11.462 -0.0242 -4.3198 -1.3710
 5480SOL     OW28072   3.068   2.498   1.049 -0.8869  0.0950  0.2294
 5480SOL    HW128073   2.975   2.500   1.025 -1.0717  0.6191  0.9731
 5480SOL    HW228074   3.108   2.456   0.973 -0.9317 -0.7799  0.6869
 5481SOL     OW28075   1.637   1.533   6.403  0.3511 -0.3458  0.1108
 5481SOL    HW128076   1.632   1.440   6.425  2.8731 -0.9849 -2.0307
 5481SOL    HW228077   1.557   1.548   6.353  1.1567  1.6046 -0.5847
 5482SOL     OW28078   3.194   3.125   6.734 -0.1952 -0.1237  0.3399
 5482SOL    HW128079   3.112   3.159   6.699 -0.8373 -0.6806  1.2796
 5482SOL    HW228080   3.245   3.096   6.658  1.4366  0.7351  1.0899
 5483SOL     OW28081   0.579   3.198   2.756 -0.0395  0.8575 -0.1875
 5483SOL    HW128082   0.647   3.138   2.787 -2.3506 -0.1278  3.0058
 5483SOL    HW228083   0.561   3.247   2.836  1.0811  3.0352 -1.2977
 5484SOL     OW28084   2.802   4.616  12.883 -0.4515 -0.4235  0.6394
 5484SOL    HW128085   2.766   4.681  12.823 -0.1482 -1.4744 -0.6748
 5484SOL    HW228086   2.784   4.663  12.964 -0.6611  1.8999 -0.7547
 5485SOL     OW28087   0.304   2.839  10.816  0.1921 -0.1922 -0.4132
 5485SOL    HW128088   0.325   2.746  10.806  0.6490 -0.2212  0.8300
 5485SOL    HW228089   0.273   2.837  10.907 -1.8578 -1.8855 -1.1268
 5486SOL     OW28090   2.683   3.394   6.096  0.1163  0.1452 -0.1331
 5486SOL    HW128091   2.596   3.423   6.069 -0.1573 -0.5184  0.0359
 5486SOL    HW228092   2.691   3.440   6.179  1.6088 -1.1714  0.4388
 5487SOL     OW28093   1.124   4.405   0.388 -0.3377  0.0987 -0.5865
 5487SOL    HW128094   1.091   4.338   0.327 -0.4030 -1.6808  1.4289
 5487SOL    HW228095   1.161   4.474   0.332 -1.1156  0.9307 -0.0744
 5488SOL     OW28096   4.247   3.409   3.926 -0.4338  0.3225  0.1324
 5488SOL    HW128097   4.339   3.421   3.951 -0.7289 -0.4635  1.5453
 5488SOL    HW228098   4.211   3.395   4.013 -0.0865  2.2312  0.5856
 5489SOL     OW28099   2.825   1.068  11.235 -0.4263  0.1512 -0.6538
 5489SOL    HW128100   2.861   1.153  11.209 -0.1509 -0.2085 -1.4440
 5489SOL    HW228101   2.811   1.026  11.150 -1.2443  1.7159 -1.2879
 5490SOL     OW28102   2.072   4.098   0.649 -0.2786 -0.1148  0.2668
 5490SOL    HW128103   2.010   4.152   0.698 -1.5279 -0.3011 -1.0721
 5490SOL    HW228104   2.041   4.138   0.567 -0.5414 -0.0330  0.4064
 5491SOL     OW28105   1.386   3.563   3.620 -0.5327 -0.1824 -1.0458
 5491SOL    HW128106   1.321   3.565   3.690  0.8492  3.0897  0.1553
 5491SOL    HW228107   1.404   3.656   3.608 -1.0395  0.1173  0.5350
 5492SOL     OW28108   0.932   4.416   0.129  0.0793  0.6381  0.0009
 5492SOL    HW128109   1.018   4.434   0.091 -0.1523  3.9674  1.0402
 5492SOL    HW228110   0.922   4.321   0.133 -1.7266  0.9444  2.6415
 5493SOL     OW28111   3.486   4.065   0.568  0.0503 -0.1108 -0.3736
 5493SOL    HW128112   3.522   4.153   0.556 -2.8567  1.2007  0.8055
 5493SOL    HW228113   3.438   4.075   0.649  0.9655 -1.1551  0.3036
 5494SOL     OW28114   0.795   1.452   5.368  0.0163  0.0837 -0.0934
 5494SOL    HW128115   0.747   1.370   5.381 -0.6000  0.2585 -1.2436
 5494SOL    HW228116   0.875   1.413   5.334 -1.2751 -1.0916 -1.7756
 5495SOL     OW28117   3.693   2.859  15.487  0.2101  0.1729 -0.1916
 5495SOL    HW128118   3.699   2.854  15.582  0.9742 -1.3434 -0.3175
 5495SOL    HW228119   3.643   2.939  15.474 -2.0276 -1.2048 -0.0008
 5496SOL     OW28120   4.215   4.493   5.486 -0.4688  0.6489 -0.7989
 5496SOL    HW128121   4.289   4.444   5.450 -0.1941 -0.0579  0.7359
 5496SOL    HW228122   4.202   4.575   5.439 -1.3697  0.2413 -1.2463
 5497SOL     OW28123   0.913   4.657   5.444 -0.2454  0.3010  0.1204
 5497SOL    HW128124   0.904   0.009   5.469 -1.9986  0.3122 -0.5854
 5497SOL    HW228125   0.845   4.637   5.381 -1.8251  1.5814  1.4209
 5498SOL     OW28126   3.682   3.213   3.454  0.2394  0.2179 -0.3168
 5498SOL    HW128127   3.588   3.206   3.436  0.6348 -1.5988 -1.7161
 5498SOL    HW228128   3.682   3.230   3.548 -1.1601 -0.8342 -0.1173
 5499SOL     OW28129   0.258   1.557   2.718  0.0288  0.1293 -0.1703
 5499SOL    HW128130   0.211   1.476   2.699 -0.3204  0.2159  0.3070
 5499SOL    HW228131   0.348   1.544   2.689  1.2894  1.7396  2.9293
 5500SOL     OW28132   0.705   4.290  14.612  0.1408  0.5262  0.1872
 5500SOL    HW128133   0.612   4.313  14.611  0.6767  2.6398 -1.5037
 5500SOL    HW228134   0.687   4.204  14.650 -0.5731  0.7620  0.3850
 5501SOL     OW28135   3.273   2.117   8.637 -0.5577  0.0391 -0.5531
 5501SOL    HW128136   3.182   2.090   8.625 -0.8129  1.0156 -0.8046
 5501SOL    HW228137   3.315   2.042   8.594 -3.2425 -0.4723 -2.2558
 5502SOL     OW28138   4.538   2.424   3.526  0.0112  0.0238  0.4628
 5502SOL    HW128139   4.588   2.384   3.597 -1.4726 -1.4913  0.6579
 5502SOL    HW228140   4.581   2.400   3.445  0.0639  1.5814  0.0320
 5503SOL     OW28141   4.605   2.932   7.644  0.2469  0.0712  0.0992
 5503SOL    HW128142   4.555   2.922   7.726  1.3582  1.2321  0.9229
 5503SOL    HW228143   4.691   2.898   7.667  1.3214  2.7574  0.0334
 5504SOL     OW28144   2.674   2.334  11.225  0.0248 -0.2444  0.8336
 5504SOL    HW128145   2.689   2.409  11.167  0.3203 -1.9295 -1.2589
 5504SOL    HW228146   2.602   2.371  11.277 -1.1679 -1.0197 -0.2811
 5505SOL     OW28147   0.981   2.556   6.262  0.3456  0.3194  0.2529
 5505SOL    HW128148   0.918   2.538   6.331  1.1007 -1.3439  0.4993
 5505SOL    HW228149   0.929   2.601   6.195 -0.2764 -0.7389  0.0323
 5506SOL     OW28150   3.512   3.533  11.732  0.1261 -0.1466 -0.4442
 5506SOL    HW128151   3.509   3.601  11.798  2.2938  2.5458 -3.1031
 5506SOL    HW228152   3.606   3.538  11.710  0.5255 -0.1871  1.2996
 5507SOL     OW28153   3.428   2.288   1.332  0.3102 -0.0352 -0.1058
 5507SOL    HW128154   3.337   2.295   1.301  0.4887  0.4298 -0.5267
 5507SOL    HW228155   3.423   2.216   1.394 -1.4929 -0.2656 -0.4973
 5508SOL     OW28156   3.724   1.264   5.210  0.2861  0.0269  0.1642
 5508SOL    HW128157   3.772   1.315   5.276 -1.6939  2.1675 -0.0717
 5508SOL    HW228158   3.650   1.229   5.260  0.3943  0.3186  0.5257
 5509SOL     OW28159   0.277   0.684  11.756 -0.9553  0.1235 -0.3553
 5509SOL    HW128160   0.309   0.766  11.793  2.1446 -1.4436  0.4518
 5509SOL    HW228161   0.185   0.707  11.740 -2.1437 -2.8783  2.1567
 5510SOL     OW28162   1.040   2.483   4.553  0.4427 -0.4463 -0.5809
 5510SOL    HW128163   0.952   2.487   4.517 -0.7825 -1.6646  2.3126
 5510SOL    HW228164   1.058   2.390   4.540  1.5511 -0.6276  2.4062
 5511SOL     OW28165   0.269   2.611   8.582  0.0502 -0.2642  0.5366
 5511SOL    HW128166   0.265   2.526   8.539  0.7390  1.8336 -3.6002
 5511SOL    HW228167   0.309   2.664   8.514  0.9007 -1.2558  0.2672
 5512SOL     OW28168   0.248   3.293   5.025  0.1296 -0.0918  0.3075
 5512SOL    HW128169   0.205   3.315   4.942 -0.9881  0.6529  1.0779
 5512SOL    HW228170   0.325   3.242   5.001  1.7405  2.2935  0.3917
 5513SOL     OW28171   3.282   2.377   2.862  0.3265  0.8379 -0.5979
 5513SOL    HW128172   3.215   2.318   2.826  0.2622  0.3130  0.3785
 5513SOL    HW228173   3.336   2.315   2.910 -0.4885  0.0695 -0.6716
 5514SOL     OW28174   0.130   0.009   0.184  0.1520  0.0422  0.1122
 5514SOL    HW128175   0.174   0.027   0.101 -0.0127 -2.1717 -0.4485
 5514SOL    HW228176   0.038   4.738   0.162  0.3767 -2.2914  0.3342
 5515SOL     OW28177   2.082   2.828   6.955 -0.0016 -0.2052 -0.3332
 5515SOL    HW128178   2.155   2.888   6.970 -0.8281  0.9319 -0.8377
 5515SOL    HW228179   2.118   2.741   6.975  1.7176  0.7414  0.7026
 5516SOL     OW28180   1.013   4.299   4.147 -0.2436 -0.2902 -0.2203
 5516SOL    HW128181   0.994   4.353   4.069  1.5121  0.5858 -0.0287
 5516SOL    HW228182   1.108   4.299   4.144 -0.2205 -0.4372  0.6142
 5517SOL     OW28183   3.372   1.132   4.135  0.2152  0.7445  0.0770
 5517SOL    HW128184   3.419   1.069   4.079  0.9748  0.8993  0.5368
 5517SOL    HW228185   3.437   1.177   4.190 -0.6505  0.8122  1.0453
 5518SOL     OW28186   1.849   0.705   2.739 -0.4178 -0.7647  0.9531
 5518SOL    HW128187   1.756   0.712   2.719  0.0718  0.5804 -0.7920
 5518SOL    HW228188   1.883   0.762   2.670  1.8679 -1.5309  1.4446
 5519SOL     OW28189   2.497   4.682   5.554  0.4844  0.3528 -0.0532
 5519SOL    HW128190   2.533   4.641   5.476  0.7371  1.6579 -0.6147
 5519SOL    HW228191   2.518   0.032   5.532 -1.2581  0.9155  0.6107
 5520SOL     OW28192   2.718   1.532   5.503 -0.1245  0.2106 -0.0945
 5520SOL    HW128193   2.722   1.508   5.596 -1.9527  1.6763  0.3778
 5520SOL    HW228194   2.738   1.626   5.498 -1.3264  0.4044 -1.2895
 5521SOL     OW28195   3.382   1.298   7.724  0.0168  0.4235  0.5616
 5521SOL    HW128196   3.424   1.318   7.640 -2.0304 -1.6933 -0.9758
 5521SOL    HW228197   3.458   1.288   7.781 -1.0733  0.1063  1.9363
 5522SOL     OW28198   3.131   3.613   8.587  0.2132  0.0183 -0.0924
 5522SOL    HW128199   3.141   3.558   8.664 -0.8035 -1.2479 -0.8610
 5522SOL    HW228200   3.093   3.550   8.525  1.8197  1.2625 -2.3711
 5523SOL     OW28201   1.535   4.388   9.731 -0.2018 -0.1079 -0.7842
 5523SOL    HW128202   1.476   4.340   9.789  0.2045  0.9905  0.5104
 5523SOL    HW228203   1.488   4.370   9.649 -1.4988 -1.0518  0.1652
 5524SOL     OW28204   2.307   3.309  12.707 -0.6629  0.1685 -0.4741
 5524SOL    HW128205   2.301   3.225  12.662 -0.7834  0.1476 -0.4191
 5524SOL    HW228206   2.298   3.371  12.634  0.9263 -0.4956 -1.2365
 5525SOL     OW28207   0.548   0.272   4.581 -1.1644  0.2030 -0.2281
 5525SOL    HW128208   0.520   0.183   4.563 -1.9652  0.4036  0.0213
 5525SOL    HW228209   0.532   0.307   4.493 -1.7939 -1.0746 -0.6131
 5526SOL     OW28210   3.690   2.623   2.893  0.6683 -0.1384 -0.5187
 5526SOL    HW128211   3.625   2.554   2.906  1.3410 -0.0498  3.3278
 5526SOL    HW228212   3.659   2.684   2.960  0.7801  0.1748 -0.7568
 5527SOL     OW28213   4.225   2.334  13.569 -0.1546 -0.3509 -0.2257
 5527SOL    HW128214   4.199   2.350  13.660  2.6329  1.1067  0.3099
 5527SOL    HW228215   4.180   2.392  13.509 -3.0498 -1.6009  0.7537
 5528SOL     OW28216   0.637   2.705   7.830  0.0190  0.2901  0.4269
 5528SOL    HW128217   0.584   2.774   7.790  0.7003  1.3935  1.4552
 5528SOL    HW228218   0.604   2.628   7.783 -0.4686  0.5763  0.2904
 5529SOL     OW28219   0.863   4.396   6.890  0.2540  0.2050  0.2925
 5529SOL    HW128220   0.896   4.458   6.825  1.7323 -2.2458 -1.2689
 5529SOL    HW228221   0.774   4.393   6.854 -0.1948  1.3064  1.3174
 5530SOL     OW28222   4.324   0.681  11.006 -0.1678 -0.0421  0.1047
 5530SOL    HW128223   4.248   0.637  11.045 -0.9550  2.3409  1.2207
 5530SOL    HW228224   4.332   0.767  11.047 -0.7244  0.5531 -1.0455
 5531SOL     OW28225   1.278   1.662   5.973  0.2911  0.5356 -0.3770
 5531SOL    HW128226   1.285   1.718   6.050  0.5375 -0.0942  0.0652
 5531SOL    HW228227   1.184   1.657   5.958  0.2543 -1.1741  0.3841
 5532SOL     OW28228   3.945   0.846   7.130 -0.3704  0.1671 -0.1236
 5532SOL    HW128229   3.974   0.767   7.085  0.6576 -0.3529  1.4339
 5532SOL    HW228230   4.002   0.841   7.207  0.2261  1.9009 -0.4406
 5533SOL     OW28231   2.706   3.298   7.696 -0.0006 -0.0682 -0.3393
 5533SOL    HW128232   2.788   3.289   7.745 -0.0137 -1.5644 -0.5876
 5533SOL    HW228233   2.731   3.256   7.613  0.1364 -0.3331 -0.1611
 5534SOL     OW28234   4.406   1.078   0.283 -0.3913 -0.1338 -0.5825
 5534SOL    HW128235   4.466   1.084   0.209 -0.1978 -0.9445 -0.4897
 5534SOL    HW228236   4.327   1.055   0.234 -0.6659 -0.1461 -0.1296
 5535SOL     OW28237   1.181   3.695   8.831 -0.3655  0.3909  0.2359
 5535SOL    HW128238   1.271   3.694   8.798 -0.1692  2.1027  0.6774
 5535SOL    HW228239   1.179   3.770   8.891  1.2132  1.7708 -1.4517
 5536SOL     OW28240   1.710   4.435   6.927  0.7368  0.3017  0.0353
 5536SOL    HW128241   1.675   4.423   7.016 -2.9504  1.8589 -1.1879
 5536SOL    HW228242   1.763   4.355   6.926 -0.5516 -0.5418 -0.9404
 5537SOL     OW28243   2.382   1.116   5.275 -0.3921  0.1821  0.0824
 5537SOL    HW128244   2.420   1.116   5.363  0.4888 -2.8742 -0.2664
 5537SOL    HW228245   2.460   1.140   5.224 -0.6651  0.6673 -0.0994
 5538SOL     OW28246   0.122   3.749   4.670  0.2343 -0.7712  0.3327
 5538SOL    HW128247   0.168   3.711   4.595 -0.7038  0.4336 -0.8451
 5538SOL    HW228248   0.145   3.690   4.742 -1.0885 -3.3103 -1.3219
 5539SOL     OW28249   3.272   2.286   2.525  0.4097 -0.1389 -0.2791
 5539SOL    HW128250   3.185   2.281   2.565  0.0261  0.5054 -1.0420
 5539SOL    HW228251   3.273   2.205   2.473  0.7302 -0.1223 -0.3023
 5540SOL     OW28252   2.516   1.008   4.529  0.0998  0.2890  0.0875
 5540SOL    HW128253   2.511   1.103   4.520 -0.7494  0.1371 -0.9662
 5540SOL    HW228254   2.609   0.985   4.526 -0.0105 -0.3096  1.0684
 5541SOL     OW28255   4.391   2.404   9.017 -0.7606 -0.6164 -0.0285
 5541SOL    HW128256   4.461   2.397   9.082 -0.2117 -0.5871 -0.6154
 5541SOL    HW228257   4.447   2.415   8.940 -0.7112  0.0468  0.1033
 5542SOL     OW28258   1.862   2.331   8.558  0.2780 -0.4008 -0.3148
 5542SOL    HW128259   1.868   2.236   8.564 -0.8272 -0.4899 -0.6026
 5542SOL    HW228260   1.915   2.355   8.633  1.4544 -1.0752 -0.9342
 5543SOL     OW28261   4.453   2.311   2.610 -0.7840 -0.4784 -0.1464
 5543SOL    HW128262   4.429   2.353   2.692 -0.4624  0.3206 -0.4624
 5543SOL    HW228263   4.382   2.248   2.599 -0.7522 -0.3837 -0.8796
 5544SOL     OW28264   3.877   4.128   6.507 -0.0055  0.0726  0.1189
 5544SOL    HW128265   3.810   4.139   6.440  2.5096  1.3773 -2.1679
 5544SOL    HW228266   3.953   4.112   6.451  2.6970 -1.9511  4.3598
 5545SOL     OW28267   1.637   0.291   8.028  0.1040 -0.9940  0.2491
 5545SOL    HW128268   1.714   0.270   8.081  0.2304 -0.1272  0.4223
 5545SOL    HW228269   1.620   0.378   8.064 -3.3918 -1.5032 -0.1589
 5546SOL     OW28270   1.698   1.902   1.770  0.3756 -0.2920  0.3968
 5546SOL    HW128271   1.642   1.834   1.808 -1.1096  1.1297  0.7596
 5546SOL    HW228272   1.766   1.908   1.837 -0.6091  0.8974  1.2973
 5547SOL     OW28273   4.374   2.673   3.273 -0.1762 -0.7627 -0.3041
 5547SOL    HW128274   4.421   2.667   3.356 -0.3166 -0.7047 -0.2216
 5547SOL    HW228275   4.430   2.732   3.222 -1.7681  0.3658 -0.7474
 5548SOL     OW28276   2.263   4.071   8.814 -0.3639 -0.0586  0.4739
 5548SOL    HW128277   2.241   4.108   8.899  0.0421 -1.8973  1.3821
 5548SOL    HW228278   2.194   4.005   8.820  1.6039 -2.1140  0.8079
 5549SOL     OW28279   4.308   0.889   6.342  0.0285 -0.1896 -0.2726
 5549SOL    HW128280   4.225   0.850   6.370 -0.4396 -0.6973 -2.4074
 5549SOL    HW228281   4.277   0.979   6.327  4.1562  1.2299 -0.1869
 5550SOL     OW28282   2.541   0.804  13.688 -0.7325  0.1655 -0.4447
 5550SOL    HW128283   2.601   0.878  13.684  0.3793 -0.6998  0.2758
 5550SOL    HW228284   2.488   0.828  13.765 -0.7523 -2.0854  0.2319
 5551SOL     OW28285   1.011   2.266   7.037  0.5734 -0.5385 -0.1381
 5551SOL    HW128286   0.917   2.259   7.025  0.4337  0.5850  0.4066
 5551SOL    HW228287   1.023   2.218   7.119 -0.0086 -0.4808 -0.0192
 5552SOL     OW28288   1.637   3.667   2.713  0.1939 -0.4209 -0.3866
 5552SOL    HW128289   1.681   3.751   2.723 -0.2746 -0.0727 -1.2688
 5552SOL    HW228290   1.560   3.698   2.664 -0.8060 -2.8824 -0.3944
 5553SOL     OW28291   0.406   0.367  17.327 -0.3286  0.0221  0.0337
 5553SOL    HW128292   0.327   0.419  17.310 -0.5556 -0.7819 -1.4091
 5553SOL    HW228293   0.374   0.281  17.353 -1.3083  0.4055  0.0696
 5554SOL     OW28294   0.864   2.721   8.892  0.4401  0.6861 -0.1710
 5554SOL    HW128295   0.885   2.649   8.951  2.6604  1.8934  0.5062
 5554SOL    HW228296   0.821   2.783   8.952  1.0831 -0.5059  1.5090
 5555SOL     OW28297   3.320   4.038   8.655  1.1229 -0.0288 -0.2410
 5555SOL    HW128298   3.358   3.963   8.701  0.0366 -1.6494 -1.9533
 5555SOL    HW228299   3.241   4.002   8.614  0.0903 -0.0955  1.8420
 5556SOL     OW28300   3.909   4.596   2.511  0.1297 -0.0971  0.0649
 5556SOL    HW128301   3.845   4.525   2.519 -1.3101  1.3699  1.6974
 5556SOL    HW228302   3.933   4.566   2.424 -1.1182  3.7281 -1.6235
 5557SOL     OW28303   1.325   2.891   2.417 -0.4015  0.0590 -0.7753
 5557SOL    HW128304   1.404   2.899   2.364  0.1030 -0.4243 -0.0857
 5557SOL    HW228305   1.365   2.838   2.485 -2.8106 -0.6976  0.0487
 5558SOL     OW28306   2.895   2.498   0.807  0.0834 -0.3084  0.4182
 5558SOL    HW128307   2.954   2.477   0.734 -0.2932 -2.1216  0.6588
 5558SOL    HW228308   2.858   2.410   0.812 -1.6310  0.4201  0.3130
 5559SOL     OW28309   0.217   1.637  14.089  0.2297  0.1684 -0.0280
 5559SOL    HW128310   0.269   1.707  14.127 -2.9748  2.2376  0.5108
 5559SOL    HW228311   0.143   1.634  14.150 -0.9021 -1.6276 -1.5070
 5560SOL     OW28312   2.655   1.424   6.296  0.0882  0.3328 -0.0847
 5560SOL    HW128313   2.619   1.511   6.277  0.9922  0.7139 -0.0831
 5560SOL    HW228314   2.593   1.380   6.238  0.7568  1.3675 -1.5730
 5561SOL     OW28315   3.803   2.224   7.989 -0.6279 -0.2983  0.1384
 5561SOL    HW128316   3.783   2.133   7.971  0.5318 -0.2892 -1.1306
 5561SOL    HW228317   3.763   2.242   8.074 -0.3034 -0.2884  0.2892
 5562SOL     OW28318   4.268   3.592   2.967 -0.0076 -0.4102 -0.3966
 5562SOL    HW128319   4.210   3.519   2.988 -1.5004 -0.2249 -3.8077
 5562SOL    HW228320   4.347   3.565   3.014 -1.9047  0.3191  3.1826
 5563SOL     OW28321   1.744   2.343  10.672  0.3454  0.2973 -0.5790
 5563SOL    HW128322   1.717   2.318  10.583 -2.8431  0.1784  0.4395
 5563SOL    HW228323   1.839   2.339  10.663  0.3046  1.0735 -1.3874
 5564SOL     OW28324   3.922   2.230   2.896  0.2600 -0.7417 -0.8337
 5564SOL    HW128325   4.012   2.207   2.875  0.6044 -1.9761  2.0101
 5564SOL    HW228326   3.900   2.284   2.820 -1.4557  0.0036  0.1830
 5565SOL     OW28327   3.847   2.419   2.743  0.5395  0.4262  0.2702
 5565SOL    HW128328   3.814   2.507   2.759  1.6203  0.8760  0.0649
 5565SOL    HW228329   3.864   2.430   2.649 -0.8097  4.0994  0.4596
 5566SOL     OW28330   2.786   4.203  12.983 -0.1349  0.2015  0.6433
 5566SOL    HW128331   2.725   4.146  12.937 -0.3907 -0.4848  1.8261
 5566SOL    HW228332   2.867   4.153  12.969 -0.1490  0.4997 -0.4824
 5567SOL     OW28333   0.953   1.343   4.080 -0.3087 -0.0100 -0.4451
 5567SOL    HW128334   1.020   1.327   4.014  2.4057  0.9154  2.0753
 5567SOL    HW228335   0.991   1.389   4.155 -1.6793  1.3238 -0.5656
 5568SOL     OW28336   3.771   3.792   2.210  0.4436  0.4908  0.1821
 5568SOL    HW128337   3.782   3.777   2.116 -0.7907 -0.6700  0.2322
 5568SOL    HW228338   3.808   3.880   2.205  2.0570 -0.1767  0.5288
 5569SOL     OW28339   2.391   4.166   9.570  0.2082  0.5536  0.6149
 5569SOL    HW128340   2.456   4.173   9.639  0.1932  1.7804  0.4979
 5569SOL    HW228341   2.434   4.214   9.499  1.7548  0.8049  1.7453
 5570SOL     OW28342   3.052   2.000   4.213 -0.5997  1.2520 -0.3017
 5570SOL    HW128343   3.011   1.920   4.178  0.3365 -0.2276  2.0133
 5570SOL    HW228344   2.982   2.017   4.276 -1.2330  1.2757 -1.0168
 5571SOL     OW28345   2.530   0.048   8.354 -0.0226 -0.8848  0.1613
 5571SOL    HW128346   2.605   0.082   8.304  0.4299  0.7509  1.9420
 5571SOL    HW228347   2.557   4.703   8.386  1.1582 -0.0485  1.3674
 5572SOL     OW28348   3.735   4.047   4.446 -0.2299 -0.3019 -0.0161
 5572SOL    HW128349   3.755   4.009   4.360  0.5695  0.5461 -0.2048
 5572SOL    HW228350   3.686   4.123   4.416  1.1689  1.2841  1.7561
 5573SOL     OW28351   2.453   3.436   9.840  0.4528  0.0074 -0.3577
 5573SOL    HW128352   2.402   3.497   9.787 -1.8650 -1.4127  0.2754
 5573SOL    HW228353   2.392   3.409   9.908  2.3399 -0.0191  1.3430
 5574SOL     OW28354   3.978   2.469  13.547  0.7939  0.0653 -0.5767
 5574SOL    HW128355   3.970   2.418  13.627 -1.1235  2.4558  0.7595
 5574SOL    HW228356   3.983   2.558  13.580  1.6926 -0.4002  0.5273
 5575SOL     OW28357   0.088   0.107  10.835 -0.0814 -0.2117 -0.6566
 5575SOL    HW128358   0.162   0.167  10.831  1.0759 -1.5517  0.6189
 5575SOL    HW228359   0.011   0.164  10.841 -0.8735 -1.1373 -2.1056
 5576SOL     OW28360   1.451   1.386   7.026  0.3441 -0.4351 -0.3196
 5576SOL    HW128361   1.377   1.442   7.048  1.3538  0.9780 -0.4911
 5576SOL    HW228362   1.469   1.354   7.114  1.7209 -1.3786 -0.9388
 5577SOL     OW28363   3.383   1.613   3.605 -0.0812 -0.0675 -0.0468
 5577SOL    HW128364   3.332   1.608   3.686 -1.0627  0.5122 -0.6360
 5577SOL    HW228365   3.407   1.706   3.605  0.1165 -0.1188 -1.0681
 5578SOL     OW28366   2.812   2.339   8.518  0.1655  0.6419  0.0922
 5578SOL    HW128367   2.800   2.370   8.429 -0.1495 -0.3910 -0.2196
 5578SOL    HW228368   2.867   2.409   8.554 -1.2513  0.8961  1.7820
 5579SOL     OW28369   3.076   3.790   4.844 -0.0809 -0.1153  0.1582
 5579SOL    HW128370   3.032   3.736   4.779 -0.2470  0.6750 -0.3897
 5579SOL    HW228371   3.146   3.734   4.876 -0.9812 -1.4752 -0.2716
 5580SOL     OW28372   4.671   4.698   8.316 -0.0955 -0.2735  0.8902
 5580SOL    HW128373   4.714   4.694   8.401  0.4967  0.4268  0.6182
 5580SOL    HW228374   4.580   4.715   8.342 -0.3008 -0.7747  0.5018
 5581SOL     OW28375   3.607   3.685  17.193 -0.5069 -0.1316 -0.3107
 5581SOL    HW128376   3.554   3.608  17.172  0.0543 -0.7649  0.5884
 5581SOL    HW228377   3.567   3.719  17.273  0.2603  1.2415 -0.5227
 5582SOL     OW28378   4.620   1.296  16.650  0.7966  0.2838 -0.0106
 5582SOL    HW128379   4.593   1.383  16.679 -2.2252 -1.0904  1.3055
 5582SOL    HW228380   4.684   1.312  16.580  1.3095  3.1651  1.1449
 5583SOL     OW28381   3.892   0.113   9.538  0.7962 -0.2226 -0.5016
 5583SOL    HW128382   3.886   0.165   9.617  1.5918 -2.1285  0.8198
 5583SOL    HW228383   3.842   0.157   9.469 -1.2504 -0.1994  0.9988
 5584SOL     OW28384   3.478   2.477   6.087  0.5676 -0.0045  0.5133
 5584SOL    HW128385   3.498   2.384   6.097  2.2482  0.2375 -0.6007
 5584SOL    HW228386   3.385   2.483   6.108  0.0536  0.1844 -1.8644
 5585SOL     OW28387   1.165   4.600   9.618 -0.5345 -0.1806  0.0756
 5585SOL    HW128388   1.153   4.569   9.707  1.7367  0.6063  0.6746
 5585SOL    HW228389   1.226   4.673   9.631 -0.8232 -0.1886  1.4957
 5586SOL     OW28390   3.199   2.286   1.628  0.2814  0.4691  0.1148
 5586SOL    HW128391   3.252   2.229   1.572  1.2233  1.1219  0.3316
 5586SOL    HW228392   3.123   2.231   1.644  1.4740 -1.8998 -2.3783
 5587SOL     OW28393   4.685   3.205  15.948  0.1160  0.3775  0.1205
 5587SOL    HW128394   4.738   3.267  15.998 -1.1786  1.7177 -0.1353
 5587SOL    HW228395   4.610   3.189  16.005 -0.8103 -0.1418 -1.2227
 5588SOL     OW28396   0.871   3.079  11.187  0.5979  0.3653  0.1252
 5588SOL    HW128397   0.864   3.054  11.279 -0.2517  0.2381  0.0203
 5588SOL    HW228398   0.859   2.989  11.155  0.4100 -0.4429  2.4691
 5589SOL     OW28399   1.493   2.189   2.504  0.2216  0.2103  0.7682
 5589SOL    HW128400   1.574   2.228   2.538 -0.5744 -0.0851  3.0251
 5589SOL    HW228401   1.435   2.263   2.521  1.0934  1.2688 -0.8962
 5590SOL     OW28402   0.140   2.478   4.659  0.3442 -0.2376  0.7998
 5590SOL    HW128403   0.203   2.415   4.623 -0.0626  0.0631 -0.4518
 5590SOL    HW228404   0.105   2.514   4.577 -0.5128 -1.7292  0.5057
 5591SOL     OW28405   3.546   4.740   5.797  0.3166  0.0460 -0.2749
 5591SOL    HW128406   3.476   0.033   5.741  2.0626  0.5051 -2.1984
 5591SOL    HW228407   3.518   0.020   5.886  1.7580  1.6049 -0.1915
 5592SOL     OW28408   2.456   2.667  16.319 -0.3751  0.0880 -0.0717
 5592SOL    HW128409   2.390   2.630  16.377 -1.3014 -1.1174 -1.9126
 5592SOL    HW228410   2.410   2.644  16.239  0.5506  3.1029 -1.4445
 5593SOL     OW28411   3.859   0.213   6.810  0.6991  0.4311  0.4787
 5593SOL    HW128412   3.783   0.244   6.858 -0.4706 -3.3730  1.0529
 5593SOL    HW228413   3.822   0.191   6.724  1.8992 -1.8446  0.5470
 5594SOL     OW28414   3.023   4.517   4.520  0.3083  0.0421  0.3793
 5594SOL    HW128415   3.094   4.454   4.513  1.8364  1.7011  0.9974
 5594SOL    HW228416   3.049   4.577   4.590  0.4347  0.7627 -0.2794
 5595SOL     OW28417   2.354   3.516   4.918  0.2692 -0.0301  0.2459
 5595SOL    HW128418   2.270   3.504   4.873  0.0640  0.8286  0.4033
 5595SOL    HW228419   2.346   3.451   4.989 -2.5408  0.3269  0.2693
 5596SOL     OW28420   1.554   4.031   1.410 -0.0126 -0.3450  0.5985
 5596SOL    HW128421   1.539   4.026   1.504 -0.3640 -0.6228  0.5267
 5596SOL    HW228422   1.558   4.125   1.389  3.1077 -0.2899  1.4046
 5597SOL     OW28423   4.333   4.243   5.435  0.8546  0.6713 -0.7684
 5597SOL    HW128424   4.422   4.208   5.447  1.5268  2.7021  0.1605
 5597SOL    HW228425   4.298   4.162   5.472  1.2178  0.3870 -1.0335
 5598SOL     OW28426   0.362   2.615   6.629  0.6980  0.3117 -0.3785
 5598SOL    HW128427   0.365   2.587   6.721 -1.4005 -0.1741 -0.4802
 5598SOL    HW228428   0.268   2.611   6.617  0.9305  0.3682 -2.2095
 5599SOL     OW28429   3.649   3.925   2.707 -0.4195 -0.1666 -0.4626
 5599SOL    HW128430   3.707   3.849   2.714  1.9583  1.8321  1.7713
 5599SOL    HW228431   3.679   3.980   2.779 -1.7863 -1.8775  1.4320
 5600SOL     OW28432   1.027   4.607   4.226 -0.1001 -0.6089  0.6169
 5600SOL    HW128433   1.041   4.544   4.155  1.4548 -0.8613  1.1313
 5600SOL    HW228434   0.946   4.645   4.192  1.0536  0.6145 -0.7587
 5601SOL     OW28435   0.146   0.245   1.322 -0.1130 -0.0253  0.4260
 5601SOL    HW128436   0.070   0.263   1.377  1.3831  2.7495  1.5234
 5601SOL    HW228437   0.212   0.213   1.383  1.3210 -1.5046 -1.8926
 5602SOL     OW28438   3.745   1.164   1.159 -0.3844  0.6611  0.0461
 5602SOL    HW128439   3.745   1.257   1.181 -0.5035  0.6702  0.0073
 5602SOL    HW228440   3.770   1.163   1.067  0.6037  0.0795  0.3264
 5603SOL     OW28441   1.175   4.510   0.004  0.5106  0.6071  0.1595
 5603SOL    HW128442   1.184   4.540  17.672  0.1184  1.4533  0.4016
 5603SOL    HW228443   1.200   4.418   0.012  1.5383  0.8284 -0.4526
 5604SOL     OW28444   3.017   0.058   7.668  0.1175  0.2366  0.0881
 5604SOL    HW128445   3.107   0.086   7.651  0.2437  0.0616  0.4486
 5604SOL    HW228446   2.977   0.143   7.650  1.2455  0.9872  1.1354
 5605SOL     OW28447   4.364   0.028   6.031  0.8222 -0.2845  0.2965
 5605SOL    HW128448   4.308   4.697   6.000  1.1619 -0.7504  0.7578
 5605SOL    HW228449   4.334   0.104   5.981  4.0466  0.0186 -1.2075
 5606SOL     OW28450   4.266   0.758   9.932  0.6729  0.3747  0.3479
 5606SOL    HW128451   4.263   0.665   9.953  1.3453  0.4789  0.9064
 5606SOL    HW228452   4.212   0.757   9.853 -0.2056  1.5500  0.9287
 5607SOL     OW28453   3.970   4.632   0.339 -0.0749  0.1940  0.1552
 5607SOL    HW128454   3.915   4.560   0.370 -2.4084  1.8832 -0.1189
 5607SOL    HW228455   3.994   4.676   0.421 -1.8054 -1.2366  1.4220
 5608SOL     OW28456   3.447   0.905  14.395 -0.3057 -0.2331  0.2289
 5608SOL    HW128457   3.359   0.917  14.357 -0.8037 -1.9075  0.8748
 5608SOL    HW228458   3.461   0.822  14.351 -0.9018 -1.0828  1.6442
 5609SOL     OW28459   2.651   0.672   6.831 -0.1464 -0.2510  0.0300
 5609SOL    HW128460   2.579   0.663   6.894 -0.3419 -1.6290 -0.3878
 5609SOL    HW228461   2.650   0.766   6.816 -0.0012 -0.6584 -2.4096
 5610SOL     OW28462   0.058   0.552   6.080 -0.1154  0.1331 -0.4057
 5610SOL    HW128463   0.004   0.566   6.157 -0.2411  0.1245 -0.4920
 5610SOL    HW228464   4.734   0.581   6.015 -1.7846  1.0929  1.6833
 5611SOL     OW28465   3.377   1.850   7.443  0.8137 -0.1852 -0.8129
 5611SOL    HW128466   3.327   1.824   7.521  2.2864 -0.3717  0.0804
 5611SOL    HW228467   3.451   1.790   7.455  1.8504  0.9204 -1.7983
 5612SOL     OW28468   0.217   4.489   5.567  0.0691  0.8756 -0.1223
 5612SOL    HW128469   0.235   4.558   5.632  3.0795  1.0781 -1.2047
 5612SOL    HW228470   0.125   4.514   5.556  0.3224  1.1190 -1.6636
 5613SOL     OW28471   3.176   1.309   8.084  0.1343 -0.4600 -0.4876
 5613SOL    HW128472   3.123   1.252   8.029  2.3748 -2.8400 -0.1952
 5613SOL    HW228473   3.125   1.314   8.165  0.4461  0.5632 -0.3595
 5614SOL     OW28474   2.232   2.681   8.968 -0.2862  0.3926 -0.5390
 5614SOL    HW128475   2.217   2.773   8.992 -1.0035 -0.1116  0.9357
 5614SOL    HW228476   2.193   2.641   9.045  1.5654 -1.5486 -0.6083
 5615SOL     OW28477   4.137   0.707  16.721 -0.1765  0.0400  0.5452
 5615SOL    HW128478   4.153   0.686  16.629 -1.5319 -1.1094  0.5702
 5615SOL    HW228479   4.190   0.785  16.736  0.6615 -0.1209 -1.5486
 5616SOL     OW28480   2.543   0.991   0.937 -0.4869  0.0101  0.0288
 5616SOL    HW128481   2.549   0.940   1.018 -0.1807 -0.3232 -0.1981
 5616SOL    HW228482   2.492   1.068   0.960 -1.5614 -0.5001 -0.6505
 5617SOL     OW28483   4.281   3.860   4.412 -0.5212 -0.3054 -0.0610
 5617SOL    HW128484   4.193   3.821   4.409  1.0245 -3.8086  0.2747
 5617SOL    HW228485   4.294   3.840   4.504 -2.3098  0.3276  0.3272
 5618SOL     OW28486   0.211   1.392  11.848 -0.2677 -0.2484  0.4266
 5618SOL    HW128487   0.153   1.448  11.797 -0.7345 -2.4808 -1.4949
 5618SOL    HW228488   0.173   1.304  11.841 -0.6068 -0.0452 -0.2773
 5619SOL     OW28489   1.071   0.540   7.455  0.2119  0.2249  0.1191
 5619SOL    HW128490   1.008   0.530   7.384  0.8064 -2.5648  0.0034
 5619SOL    HW228491   1.151   0.506   7.415 -0.3156 -0.4288 -0.3659
 5620SOL     OW28492   2.902   4.613   8.444 -0.1820 -0.1424 -0.7996
 5620SOL    HW128493   2.823   4.562   8.428  0.2127 -0.5478 -1.4321
 5620SOL    HW228494   2.961   4.575   8.379  0.8941 -0.7792  0.5628
 5621SOL     OW28495   3.776   2.904   8.253 -0.2033  0.0339  0.0976
 5621SOL    HW128496   3.686   2.918   8.224 -1.2116 -0.8620  2.8223
 5621SOL    HW228497   3.754   2.874   8.341 -1.4926  1.3093  0.2067
 5622SOL     OW28498   0.942   0.911  11.939  0.1862  0.4845 -0.2807
 5622SOL    HW128499   0.912   0.998  11.913 -1.0963 -0.8052 -3.1332
 5622SOL    HW228500   0.921   0.918  12.032  0.7283  1.1478 -0.2068
 5623SOL     OW28501   0.659   3.508   4.939 -0.3153  0.3115 -0.6724
 5623SOL    HW128502   0.636   3.544   5.024  1.7881 -2.2149  0.9748
 5623SOL    HW228503   0.630   3.417   4.942 -0.2501  0.1565 -3.9529
 5624SOL     OW28504   1.636   2.450  10.894 -0.6404  0.0693 -0.0429
 5624SOL    HW128505   1.663   2.414  10.809  2.1615  0.5112  0.6480
 5624SOL    HW228506   1.716   2.488  10.931 -1.3208  0.7083  0.7704
 5625SOL     OW28507   1.052   1.105   0.658  0.0573 -0.0627 -0.4154
 5625SOL    HW128508   0.985   1.141   0.599 -0.1800 -1.5061 -1.0124
 5625SOL    HW228509   1.009   1.123   0.742  1.0418 -0.1170  0.0930
 5626SOL     OW28510   2.010   3.600  10.312  0.2501  0.1094  0.3954
 5626SOL    HW128511   1.995   3.526  10.252 -0.9577  0.7062 -0.0289
 5626SOL    HW228512   1.961   3.668  10.267  2.5049  1.2717 -0.3157
 5627SOL     OW28513   3.344   3.279   7.769 -0.3839  0.4804  1.0611
 5627SOL    HW128514   3.432   3.251   7.744 -1.4586 -1.9901  0.1055
 5627SOL    HW228515   3.356   3.373   7.755  1.4402 -0.4321 -3.2837
 5628SOL     OW28516   3.351   1.583   4.903 -0.1025 -0.5382  0.3236
 5628SOL    HW128517   3.335   1.661   4.956 -0.8358 -1.2405  1.1341
 5628SOL    HW228518   3.329   1.629   4.822  1.9630 -0.2237 -0.0645
 5629SOL     OW28519   1.911   4.135   2.876 -0.3225  0.2259 -0.6782
 5629SOL    HW128520   1.833   4.123   2.821 -1.8508 -0.0526  1.5356
 5629SOL    HW228521   1.881   4.164   2.963 -1.1185  1.3613 -1.3292
 5630SOL     OW28522   0.918   4.357   0.588 -0.1935  0.1623 -0.9078
 5630SOL    HW128523   0.983   4.290   0.608 -0.9513 -0.8919 -2.0179
 5630SOL    HW228524   0.970   4.417   0.534  3.9197 -2.0224  0.6329
 5631SOL     OW28525   0.069   3.047   2.629  0.1673 -0.1100  0.6338
 5631SOL    HW128526   0.060   3.079   2.719  0.2209 -0.2014  0.6705
 5631SOL    HW228527   0.087   3.127   2.579  1.1512 -1.1142 -0.5792
 5632SOL     OW28528   3.566   2.856   6.781 -0.7152  0.2912  0.5479
 5632SOL    HW128529   3.615   2.922   6.830 -0.6104  0.2710  0.4695
 5632SOL    HW228530   3.630   2.789   6.807  0.7881  0.8943 -1.5885
 5633SOL     OW28531   2.398   3.942   8.132  0.3136 -0.1309 -0.1748
 5633SOL    HW128532   2.406   4.031   8.098 -1.1692 -0.1193 -0.4562
 5633SOL    HW228533   2.331   3.902   8.078  1.4045 -1.2795 -0.6861
 5634SOL     OW28534   3.729   0.399  12.288 -0.1297 -0.2760  0.4733
 5634SOL    HW128535   3.762   0.312  12.311  0.1865 -0.6738 -1.5766
 5634SOL    HW228536   3.797   0.464  12.306 -1.4546  1.0835  0.6119
 5635SOL     OW28537   1.241   0.267  13.999  0.1258  0.0688 -0.3938
 5635SOL    HW128538   1.205   0.228  13.920 -0.2646  0.0913 -0.2265
 5635SOL    HW228539   1.304   0.199  14.022 -1.2850 -1.6149 -1.5313
 5636SOL     OW28540   1.401   4.042   7.866  0.2606  0.8837 -0.1952
 5636SOL    HW128541   1.382   4.059   7.774 -0.0524  0.5156 -0.1960
 5636SOL    HW228542   1.357   4.115   7.910 -1.0265 -0.5548  0.9092
 5637SOL     OW28543   3.308   2.586   8.650  0.2829  0.5386  0.3167
 5637SOL    HW128544   3.347   2.611   8.733 -1.3427 -1.7642  1.7631
 5637SOL    HW228545   3.368   2.519   8.617 -0.0983  1.6460 -2.6210
 5638SOL     OW28546   3.626   4.674   8.011  0.1693 -0.7015 -1.1860
 5638SOL    HW128547   3.704   4.641   8.056  1.0005  1.1312 -1.2925
 5638SOL    HW228548   3.570   4.676   8.088  0.4790 -1.6011 -0.9441
 5639SOL     OW28549   4.066   3.489  14.412 -0.2959 -0.1205  0.4836
 5639SOL    HW128550   4.097   3.432  14.341  1.8072  1.6522 -0.0153
 5639SOL    HW228551   4.006   3.430  14.457 -0.6172  1.4150  2.0359
 5640SOL     OW28552   3.840   4.161  15.017 -0.3505 -0.1626 -0.2324
 5640SOL    HW128553   3.903   4.202  15.076  0.0256  0.9689 -1.4305
 5640SOL    HW228554   3.789   4.120  15.087  0.3985  1.1780  1.0991
 5641SOL     OW28555   4.414   2.320   6.642  0.0375 -0.0843  0.1505
 5641SOL    HW128556   4.321   2.310   6.665 -0.9183 -0.5676 -3.8129
 5641SOL    HW228557   4.452   2.256   6.702  2.4542 -0.7144 -2.0578
 5642SOL     OW28558   0.512   0.186   5.690  0.6952  0.2329 -0.1473
 5642SOL    HW128559   0.429   0.193   5.643 -0.0872 -0.0736  1.2188
 5642SOL    HW228560   0.497   0.105   5.738 -0.0004 -2.3766 -4.7174
 5643SOL     OW28561   4.453   1.509   3.241  0.8915  0.1659  0.0615
 5643SOL    HW128562   4.486   1.597   3.223  2.3157 -0.1069  1.3617
 5643SOL    HW228563   4.363   1.535   3.260 -0.1136 -2.9456 -0.4724
 5644SOL     OW28564   0.615   3.150  11.949  0.2012  0.4142  0.1229
 5644SOL    HW128565   0.708   3.142  11.971  0.3984 -1.1603 -1.3189
 5644SOL    HW228566   0.594   3.225  12.006  0.0547  0.7959 -0.4349
 5645SOL     OW28567   0.653   2.886  13.070  0.1036  0.0799  0.6478
 5645SOL    HW128568   0.602   2.856  13.144 -0.2196 -2.3375 -0.5604
 5645SOL    HW228569   0.733   2.918  13.113  0.9053  0.3262 -1.0202
 5646SOL     OW28570   0.505   4.520  11.711 -0.5409  0.3455  0.0781
 5646SOL    HW128571   0.502   4.466  11.632 -0.6528  0.8970 -0.2993
 5646SOL    HW228572   0.419   4.562  11.706 -0.9334 -0.6011 -1.1192
 5647SOL     OW28573   1.101   2.072   1.819  0.1856 -0.0627  0.3460
 5647SOL    HW128574   1.024   2.049   1.769  0.7179  0.0247 -0.5144
 5647SOL    HW228575   1.155   2.105   1.747 -2.2666 -0.3739 -1.6020
 5648SOL     OW28576   0.572   1.462   6.796 -0.0193 -0.0910  0.2688
 5648SOL    HW128577   0.665   1.455   6.818 -0.3809  0.7569  2.1028
 5648SOL    HW228578   0.580   1.502   6.710  1.5722  0.0615  0.4936
 5649SOL     OW28579   2.197   1.572  15.636 -0.1539  0.3240 -0.6416
 5649SOL    HW128580   2.218   1.498  15.580  0.0814 -0.0395 -0.0783
 5649SOL    HW228581   2.263   1.564  15.706 -0.4285  2.5612 -0.1027
 5650SOL     OW28582   1.336   3.341   6.223  0.1958 -0.2918  0.2411
 5650SOL    HW128583   1.415   3.395   6.219 -1.8429  2.8443  1.6449
 5650SOL    HW228584   1.369   3.252   6.226  3.8982  1.0485 -1.4172
 5651SOL     OW28585   1.150   4.579   9.191  0.2753  0.8393 -0.2851
 5651SOL    HW128586   1.212   4.596   9.262  2.5364 -0.4578 -1.9232
 5651SOL    HW228587   1.075   4.543   9.237  1.9486 -1.2428  0.7928
 5652SOL     OW28588   1.102   3.419  16.373 -0.7096  0.4554 -0.1392
 5652SOL    HW128589   1.156   3.433  16.451  1.2890 -0.1780 -1.4072
 5652SOL    HW228590   1.020   3.461  16.398 -1.1365 -0.9811  0.8924
 5653SOL     OW28591   0.595   3.946   1.566  0.5772  0.0222 -0.5946
 5653SOL    HW128592   0.652   4.022   1.579 -0.4266  0.8319 -0.9175
 5653SOL    HW228593   0.665   3.880   1.568 -0.3926 -0.9964 -0.3970
 5654SOL     OW28594   2.859   1.924   3.771 -0.2931  0.7167  0.3681
 5654SOL    HW128595   2.847   1.904   3.678 -0.2599  0.8340  0.3382
 5654SOL    HW228596   2.815   1.848   3.808  0.0090  0.9584  1.2243
 5655SOL     OW28597   3.717   0.810   8.270  0.9546  0.0981 -0.1167
 5655SOL    HW128598   3.693   0.806   8.363 -0.0136 -0.3389 -0.3824
 5655SOL    HW228599   3.632   0.816   8.226  1.7147 -0.0201 -1.5958
 5656SOL     OW28600   1.760   4.247   9.055 -0.3388  0.9950 -0.5614
 5656SOL    HW128601   1.742   4.254   9.149  1.0734 -0.7827 -0.1635
 5656SOL    HW228602   1.822   4.174   9.053 -2.3342 -0.7994  2.5142
 5657SOL     OW28603   3.265   4.551   8.994 -0.5695 -0.9465  0.1607
 5657SOL    HW128604   3.265   4.478   9.055  2.2898  0.3527  1.7333
 5657SOL    HW228605   3.205   4.528   8.924 -1.1320  2.0803 -0.3732
 5658SOL     OW28606   0.022   4.016   5.167 -0.5478 -0.3041  0.1638
 5658SOL    HW128607   4.730   4.091   5.216  0.3113  0.5624 -0.5867
 5658SOL    HW228608   0.081   4.048   5.098  0.0838 -0.4223  0.6539
 5659SOL     OW28609   0.284   3.147   5.657 -0.3152  0.4057 -0.5312
 5659SOL    HW128610   0.224   3.077   5.634 -0.0055  0.2629 -0.9204
 5659SOL    HW228611   0.227   3.217   5.626  2.3732  2.3198 -1.1464
 5660SOL     OW28612   4.264   4.409   6.691  0.4431 -0.3032 -0.3021
 5660SOL    HW128613   4.306   4.351   6.754 -1.6425 -2.4359 -0.8360
 5660SOL    HW228614   4.213   4.345   6.641  0.3694 -0.7069  0.3010
 5661SOL     OW28615   2.554   0.232  15.767 -0.5765  0.1764  0.0570
 5661SOL    HW128616   2.580   0.271  15.851 -1.7111 -0.2463  0.5954
 5661SOL    HW228617   2.569   0.305  15.707  0.4807 -0.2405 -0.1939
 5662SOL     OW28618   1.708   2.892   4.434  0.4806  0.2681  0.3450
 5662SOL    HW128619   1.799   2.886   4.404  0.2088 -0.2596 -0.3771
 5662SOL    HW228620   1.710   2.860   4.525  0.6388  0.3694  0.3769
 5663SOL     OW28621   2.222   1.357   5.235 -0.6227  0.0496 -0.1595
 5663SOL    HW128622   2.268   1.273   5.243  0.4444  0.4181 -2.4777
 5663SOL    HW228623   2.266   1.415   5.296 -0.4427 -2.5657  2.1820
 5664SOL     OW28624   1.188   0.371   8.965  0.5552 -0.2429 -0.6814
 5664SOL    HW128625   1.168   0.452   8.918  1.1974 -1.9823 -3.9318
 5664SOL    HW228626   1.183   0.314   8.889  2.8987  0.4758 -1.3646
 5665SOL     OW28627   1.663   1.089   2.426 -0.0646  0.0851 -0.2233
 5665SOL    HW128628   1.669   1.165   2.369  0.4972  1.6965  1.9834
 5665SOL    HW228629   1.569   1.088   2.446 -0.0659 -1.9858 -0.3298
 5666SOL     OW28630   3.812   2.453   1.384  0.0472  0.0657  0.3720
 5666SOL    HW128631   3.830   2.359   1.374 -1.5161 -0.1109 -0.8236
 5666SOL    HW228632   3.797   2.461   1.478  0.8244 -2.5397  0.7135
 5667SOL     OW28633   2.219   0.977   5.102 -0.2201 -0.2506 -0.1736
 5667SOL    HW128634   2.133   1.015   5.082  0.0675  0.7410  0.4660
 5667SOL    HW228635   2.262   1.046   5.152 -0.1509  1.4540 -2.5762
 5668SOL     OW28636   3.128   0.186   6.113 -0.8165 -0.1620 -0.5854
 5668SOL    HW128637   3.058   0.134   6.074 -1.4956  0.7857 -0.6238
 5668SOL    HW228638   3.166   0.218   6.031  1.8027 -1.4009  0.1391
 5669SOL     OW28639   3.627   4.156   4.919 -0.1390  0.3944  0.6484
 5669SOL    HW128640   3.685   4.127   4.990  1.7148 -1.8230 -1.8023
 5669SOL    HW228641   3.694   4.169   4.852 -0.5985 -3.2951 -0.4986
 5670SOL     OW28642   0.015   3.577   7.634 -0.1983  0.2009  0.4122
 5670SOL    HW128643   4.679   3.613   7.591  0.1127 -0.5858 -0.8122
 5670SOL    HW228644   0.010   3.482   7.623 -0.7333  0.2882 -0.0934
 5671SOL     OW28645   4.070   1.967   5.225  0.2612 -0.1246  0.0453
 5671SOL    HW128646   4.152   1.992   5.183 -0.5629 -0.4089 -1.7570
 5671SOL    HW228647   4.011   2.040   5.208  1.1205  0.2996 -1.1035
 5672SOL     OW28648   3.759   1.862   6.879  0.5438  0.4368 -0.3778
 5672SOL    HW128649   3.844   1.821   6.895  0.0615  0.5086  2.4770
 5672SOL    HW228650   3.715   1.810   6.812  2.4703 -0.6315 -0.7950
 5673SOL     OW28651   3.104   3.937   3.485 -0.1025 -0.9059  0.0428
 5673SOL    HW128652   3.097   3.842   3.498  0.9152 -1.2824 -1.9945
 5673SOL    HW228653   3.179   3.940   3.425  0.2216  0.4525  0.5324
 5674SOL     OW28654   3.894   3.246   9.971 -0.0320  0.6223  0.0779
 5674SOL    HW128655   3.900   3.311  10.041 -1.8782 -0.1573  0.9643
 5674SOL    HW228656   3.979   3.257   9.929  0.1198 -2.1463 -0.3079
 5675SOL     OW28657   0.726   4.247  12.649  1.1719  0.2216  0.0413
 5675SOL    HW128658   0.634   4.262  12.626  1.2346  4.1847  2.3636
 5675SOL    HW228659   0.752   4.334  12.619 -3.5746  1.6652  0.0500
 5676SOL     OW28660   4.416   2.389   4.004  0.0654  0.2161  0.0881
 5676SOL    HW128661   4.343   2.417   4.059 -0.7945 -0.7155 -0.5893
 5676SOL    HW228662   4.405   2.428   3.918  2.9919  2.2803  0.6537
 5677SOL     OW28663   4.023   1.951   3.210  0.1127 -0.1727 -0.0492
 5677SOL    HW128664   3.935   1.981   3.186  0.4301  1.2511  0.5429
 5677SOL    HW228665   4.072   2.032   3.224  1.0831 -0.6875 -0.5101
 5678SOL     OW28666   2.103   0.395   6.324  0.0772 -0.1249 -0.0902
 5678SOL    HW128667   2.196   0.412   6.307  0.3685 -0.3387  1.3023
 5678SOL    HW228668   2.064   0.482   6.327 -0.0097 -0.2410  1.9186
 5679SOL     OW28669   4.397   1.583   7.094  0.1336  0.3579  0.3570
 5679SOL    HW128670   4.331   1.571   7.025 -0.8518  3.1825  0.8339
 5679SOL    HW228671   4.458   1.631   7.037  1.3123 -2.5565 -0.8359
 5680SOL     OW28672   2.876   2.335   7.382 -0.3977 -0.1914 -0.0733
 5680SOL    HW128673   2.838   2.343   7.295  0.3218  2.1888 -0.1565
 5680SOL    HW228674   2.923   2.418   7.386 -1.6538  0.4630  1.1337
 5681SOL     OW28675   0.515   0.813   0.280 -0.0471 -0.1024 -0.3772
 5681SOL    HW128676   0.421   0.797   0.271  0.1678  0.1676 -3.2484
 5681SOL    HW228677   0.542   0.778   0.195  1.3697 -0.8466  0.3738
 5682SOL     OW28678   2.454   3.957   8.648 -0.3869  0.0521 -0.2800
 5682SOL    HW128679   2.382   3.991   8.701  0.9834  3.4619 -0.5926
 5682SOL    HW228680   2.415   3.872   8.631  0.0181  0.2281 -2.0931
 5683SOL     OW28681   2.989   2.302   2.929 -0.2987  0.1319 -0.1539
 5683SOL    HW128682   2.906   2.275   2.969 -0.2799  0.6455  0.2405
 5683SOL    HW228683   3.036   2.327   3.009  1.2272  1.3944 -1.4494
 5684SOL     OW28684   0.346   4.207  16.098  0.3175  0.2239 -0.3482
 5684SOL    HW128685   0.319   4.115  16.092 -1.1453  0.5432  1.1756
 5684SOL    HW228686   0.308   4.250  16.021 -0.7737  0.0423  0.0867
 5685SOL     OW28687   0.250   4.447   8.956  1.0517  0.0709  0.3300
 5685SOL    HW128688   0.208   4.504   9.021  1.1674 -0.1380  0.5901
 5685SOL    HW228689   0.319   4.416   9.015  0.2461 -1.8816  0.2650
 5686SOL     OW28690   2.281   1.255   9.163 -0.3442  0.0093  0.0752
 5686SOL    HW128691   2.217   1.318   9.132 -1.0490 -1.3843 -1.2941
 5686SOL    HW228692   2.220   1.205   9.216  0.1462  0.1776  0.8066
 5687SOL     OW28693   1.975   2.058   8.603  0.1741  0.0888  0.9335
 5687SOL    HW128694   1.902   1.998   8.617 -1.1133  1.2275 -0.8895
 5687SOL    HW228695   2.052   2.006   8.627  1.6116  1.9904  0.4904
 5688SOL     OW28696   2.027   3.395   8.135 -0.1236 -0.8790  0.1995
 5688SOL    HW128697   2.034   3.307   8.099  0.0755 -0.6508 -0.3266
 5688SOL    HW228698   2.109   3.437   8.109 -0.1821 -1.4281 -0.8567
 5689SOL     OW28699   0.880   3.333   5.878 -0.0113  0.0557  0.1874
 5689SOL    HW128700   0.910   3.250   5.841  1.4522  0.6153  0.1313
 5689SOL    HW228701   0.949   3.389   5.843 -2.7655  1.8120 -2.4002
 5690SOL     OW28702   0.080   4.190  10.209  0.1504  0.9707 -0.1796
 5690SOL    HW128703   0.008   4.149  10.161 -0.5316 -0.0740  1.7524
 5690SOL    HW228704   0.104   4.125  10.275 -1.4222 -1.2107 -1.7644
 5691SOL     OW28705   3.075   2.011  12.325 -0.3022 -0.6802  0.0284
 5691SOL    HW128706   3.116   2.068  12.260  1.6991 -1.0415  0.9820
 5691SOL    HW228707   3.117   2.051  12.400 -1.4479  3.2887 -1.4742
 5692SOL     OW28708   1.273   0.114   4.927  0.7520 -0.0166 -0.2063
 5692SOL    HW128709   1.209   0.092   4.995  0.7941  2.8908  0.7593
 5692SOL    HW228710   1.222   0.106   4.847 -0.3984  0.5701  0.4833
 5693SOL     OW28711   4.595   0.644   2.118 -0.1923 -0.5352  0.5069
 5693SOL    HW128712   4.586   0.554   2.085  0.3295 -0.8099  1.1328
 5693SOL    HW228713   4.505   0.654   2.149  0.1781  1.7694  0.8361
 5694SOL     OW28714   4.021   4.334   5.782  0.0787 -0.0053  0.3104
 5694SOL    HW128715   4.041   4.241   5.768  0.1779  0.2580 -1.3581
 5694SOL    HW228716   3.953   4.351   5.717  1.1172  2.7577 -0.0471
 5695SOL     OW28717   1.140   0.381   8.432  0.4915  0.3187  0.3429
 5695SOL    HW128718   1.100   0.468   8.428  2.8388  1.3752 -0.0553
 5695SOL    HW228719   1.063   0.324   8.424  1.2887 -0.8814  1.2874
 5696SOL     OW28720   2.152   2.852   4.784 -0.0431  0.0037  0.3053
 5696SOL    HW128721   2.222   2.798   4.822  3.1488  1.0024 -4.2094
 5696SOL    HW228722   2.197   2.932   4.758 -0.7352  0.4132  0.3530
 5697SOL     OW28723   1.153   2.558   9.831 -0.2720 -0.7233 -0.0963
 5697SOL    HW128724   1.225   2.503   9.861 -0.2342 -1.7030 -1.9811
 5697SOL    HW228725   1.138   2.521   9.744 -0.5091  0.1312 -0.4241
 5698SOL     OW28726   3.240   4.033   9.091 -0.3010 -0.4368 -0.5914
 5698SOL    HW128727   3.230   3.944   9.057 -2.3477 -0.2710 -0.4346
 5698SOL    HW228728   3.320   4.006   9.137 -0.3151  1.2345  0.4487
 5699SOL     OW28729   4.265   0.917   2.528  0.0324  0.2516 -0.4776
 5699SOL    HW128730   4.214   0.849   2.484  0.0526  0.4065 -0.7447
 5699SOL    HW228731   4.279   0.870   2.610 -1.2633  0.9053  0.1195
 5700SOL     OW28732   4.179   1.391   1.000  0.0841  0.2138 -0.2836
 5700SOL    HW128733   4.113   1.460   1.008  1.5507  1.2234  2.9863
 5700SOL    HW228734   4.168   1.371   0.907 -1.0065  1.4118 -0.4124
 5701SOL     OW28735   3.069   1.207   8.894  0.8807 -0.0502  0.1327
 5701SOL    HW128736   3.094   1.203   8.802 -0.4974 -1.6570 -0.1702
 5701SOL    HW228737   3.087   1.297   8.922  1.2094  0.8050 -2.8329
 5702SOL     OW28738   1.009   2.831   6.433 -0.0648 -0.9092  0.0247
 5702SOL    HW128739   1.103   2.821   6.418  0.2821  1.7441  0.5003
 5702SOL    HW228740   0.992   2.764   6.499 -1.9044  0.4753  0.9412
 5703SOL     OW28741   1.863   2.406   7.490 -0.0306 -0.1288 -0.4944
 5703SOL    HW128742   1.947   2.363   7.470 -0.6160 -0.5789 -2.0233
 5703SOL    HW228743   1.832   2.336   7.548  1.0696 -0.9876 -0.9277
 5704SOL     OW28744   4.596   0.233  17.406 -0.2382 -0.0738  0.6014
 5704SOL    HW128745   4.567   0.318  17.374  0.5178 -0.2409 -0.5348
 5704SOL    HW228746   4.537   0.223  17.480 -0.9211  1.7806  0.3108
 5705SOL     OW28747   3.030   1.758   4.459 -0.0843 -0.4883 -0.0041
 5705SOL    HW128748   3.004   1.670   4.433  0.2870 -1.3815  2.6497
 5705SOL    HW228749   3.109   1.775   4.408 -0.4705 -0.2812 -0.5286
 5706SOL     OW28750   2.321   2.645   4.196 -0.1041  0.6013 -0.2068
 5706SOL    HW128751   2.409   2.661   4.229 -0.0057  2.9354 -1.6255
 5706SOL    HW228752   2.268   2.680   4.268 -1.3673  0.8994 -1.2643
 5707SOL     OW28753   3.624   2.933  14.554  0.3579  0.1814 -0.0568
 5707SOL    HW128754   3.622   2.842  14.583  0.9259  0.3292  0.4395
 5707SOL    HW228755   3.534   2.943  14.522 -0.2483 -1.1606  1.2209
 5708SOL     OW28756   2.790   3.866   2.520  0.3198 -0.1930  0.5442
 5708SOL    HW128757   2.745   3.820   2.449  1.1448  0.6555 -0.5246
 5708SOL    HW228758   2.843   3.793   2.554  1.9574  1.7675  2.1580
 5709SOL     OW28759   1.367   3.563  13.324 -0.1344  0.3257  0.2467
 5709SOL    HW128760   1.332   3.615  13.396  0.2978  2.0050 -0.7577
 5709SOL    HW228761   1.444   3.612  13.295 -0.2168 -1.0539 -2.3494
 5710SOL     OW28762   2.608   3.678  16.362 -0.3615 -0.0943 -1.0938
 5710SOL    HW128763   2.528   3.627  16.347 -1.4044  0.9249  0.9241
 5710SOL    HW228764   2.585   3.751  16.305 -0.5763 -0.4120 -1.4140
 5711SOL     OW28765   0.786   4.003   6.473  0.1788 -0.0410 -0.2759
 5711SOL    HW128766   0.759   3.984   6.563  2.7679 -1.6499  0.1613
 5711SOL    HW228767   0.807   3.918   6.435  0.2209  0.0047 -0.3537
 5712SOL     OW28768   2.757   2.199  17.036  0.3037  0.1916  0.8088
 5712SOL    HW128769   2.835   2.255  17.032 -1.7311  2.8585 -1.3415
 5712SOL    HW228770   2.730   2.204  17.127  0.9372 -4.0043  1.2582
 5713SOL     OW28771   0.647   2.326   6.504 -0.4859  0.1778  0.1341
 5713SOL    HW128772   0.556   2.327   6.533 -0.2419  1.3781  0.8600
 5713SOL    HW228773   0.689   2.408   6.530  0.2042 -0.1889  0.1730
 5714SOL     OW28774   4.345   0.915  11.159 -0.2110 -0.4705  0.1023
 5714SOL    HW128775   4.429   0.884  11.193 -1.1514 -0.6121  2.2929
 5714SOL    HW228776   4.310   0.942  11.243 -0.5125  1.3260 -0.5939
 5715SOL     OW28777   2.364   3.479   7.468  0.3034  0.1728  0.0127
 5715SOL    HW128778   2.340   3.424   7.542  0.9019 -1.0920 -0.7276
 5715SOL    HW228779   2.457   3.458   7.457  0.6444  1.1243  1.1021
 5716SOL     OW28780   4.227   3.334   2.724 -0.5833 -0.0792  0.2822
 5716SOL    HW128781   4.234   3.337   2.628 -0.0542 -1.6360  0.2665
 5716SOL    HW228782   4.202   3.244   2.745 -2.9886  0.7174  0.7860
 5717SOL     OW28783   4.519   2.193   5.901  0.1690  0.0935 -0.7638
 5717SOL    HW128784   4.514   2.106   5.861 -0.2456 -0.9952  1.6534
 5717SOL    HW228785   4.443   2.235   5.862  0.0381  0.4021 -0.1761
 5718SOL     OW28786   2.271   4.673   4.976  0.2123 -0.4806  0.7171
 5718SOL    HW128787   2.234   4.656   4.889  0.7696  0.4974  0.2838
 5718SOL    HW228788   2.202   4.730   5.009 -1.3743 -2.0827  0.2067
 5719SOL     OW28789   3.516   0.315   8.783 -0.1614 -0.1943 -0.0235
 5719SOL    HW128790   3.580   0.293   8.715  0.6207  1.8172  0.0520
 5719SOL    HW228791   3.473   0.233   8.805 -1.2377  0.9042  1.9787
 5720SOL     OW28792   4.599   2.633  15.535 -0.0865 -0.1476 -0.2987
 5720SOL    HW128793   4.651   2.705  15.571 -1.8089  1.2640 -0.6809
 5720SOL    HW228794   4.625   2.642  15.443 -1.6321  1.4754 -0.5686
 5721SOL     OW28795   2.610   0.653  14.067 -0.6060  0.4000 -0.2915
 5721SOL    HW128796   2.686   0.641  14.124 -0.9453  0.6329  0.2068
 5721SOL    HW228797   2.644   0.596  13.998 -0.4988  0.2658 -0.1272
 5722SOL     OW28798   1.686   3.714   5.419 -0.7419  0.1630 -0.4712
 5722SOL    HW128799   1.697   3.719   5.514  0.9144  1.3274 -0.7368
 5722SOL    HW228800   1.590   3.717   5.422 -0.7462 -1.1700  1.0936
 5723SOL     OW28801   1.930   3.834   3.079  0.4817 -0.6924  0.6981
 5723SOL    HW128802   1.884   3.750   3.072  0.1714 -0.5360  0.8906
 5723SOL    HW228803   2.011   3.826   3.029  0.1571  0.0329  0.0509
 5724SOL     OW28804   4.464   3.846  10.984  0.5654 -0.0259  0.5423
 5724SOL    HW128805   4.492   3.761  10.950  1.1259 -0.2512  1.5749
 5724SOL    HW228806   4.537   3.901  10.953  2.3513 -3.6830 -1.6964
 5725SOL     OW28807   4.590   0.642   3.380 -0.1509 -0.3143 -0.5005
 5725SOL    HW128808   4.637   0.707   3.329  0.5724 -0.4469 -0.0045
 5725SOL    HW228809   4.598   0.570   3.318  0.4812 -1.8169  1.2958
 5726SOL     OW28810   4.679   2.287   4.045  0.4263 -0.2418 -0.2824
 5726SOL    HW128811   4.678   2.241   3.961  0.4103  0.9167 -0.9176
 5726SOL    HW228812   4.588   2.318   4.049  0.4288 -0.1583 -0.8309
 5727SOL     OW28813   3.933   2.744  17.142 -0.8348  0.0177 -0.0187
 5727SOL    HW128814   3.865   2.812  17.143  0.1704  1.0163  1.6145
 5727SOL    HW228815   3.976   2.784  17.219  0.6978  0.2630 -1.0013
 5728SOL     OW28816   0.569   1.077   2.186 -0.4750  0.0534  0.3610
 5728SOL    HW128817   0.640   1.021   2.217  0.2636  0.5005 -0.5492
 5728SOL    HW228818   0.518   1.018   2.130 -0.1775  0.7962 -0.6834
 5729SOL     OW28819   0.518   3.527   7.125 -0.5388 -0.8058 -0.0989
 5729SOL    HW128820   0.466   3.521   7.045 -0.6818  0.6980 -0.1206
 5729SOL    HW228821   0.577   3.452   7.119 -0.7443 -0.8619 -1.5217
 5730SOL     OW28822   1.523   0.901   8.323  0.2435  0.1613  0.0516
 5730SOL    HW128823   1.471   0.924   8.247 -0.1146 -0.5293  0.0828
 5730SOL    HW228824   1.526   0.986   8.367 -0.9663  0.6464 -0.7990
 5731SOL     OW28825   2.903   2.912   8.636 -0.2902  0.6246 -0.9647
 5731SOL    HW128826   2.931   2.992   8.591 -1.7701  0.3108 -2.4571
 5731SOL    HW228827   2.989   2.878   8.660 -0.8057  1.1496  1.6578
 5732SOL     OW28828   4.179   2.604  16.264  0.0618  0.3430 -0.0344
 5732SOL    HW128829   4.134   2.522  16.284 -0.4981  0.4715 -0.7678
 5732SOL    HW228830   4.133   2.673  16.311 -1.4771 -1.3110  0.8484
 5733SOL     OW28831   2.880   3.291  14.689  0.4047 -0.3043 -0.7153
 5733SOL    HW128832   2.910   3.209  14.727  0.5291 -0.7347 -1.7318
 5733SOL    HW228833   2.957   3.338  14.658  0.4760 -0.9672 -1.5725
 5734SOL     OW28834   0.418   1.069   0.100 -1.2021 -0.1529  0.2848
 5734SOL    HW128835   0.503   1.032   0.125 -0.6691  0.5962 -0.4249
 5734SOL    HW228836   0.434   1.156   0.139 -0.0257 -0.1108 -0.2823
 5735SOL     OW28837   3.014   1.056   4.786 -0.1438  0.1526 -0.4518
 5735SOL    HW128838   3.063   0.999   4.726 -0.4802  0.1028 -0.6786
 5735SOL    HW228839   2.985   0.982   4.838  0.7028  1.7239  2.2647
 5736SOL     OW28840   1.638   2.668   6.069 -0.0351 -0.3577  0.2062
 5736SOL    HW128841   1.697   2.721   6.015 -1.4032  1.5939  0.6157
 5736SOL    HW228842   1.691   2.650   6.147  1.1490  0.9456 -0.2746
 5737SOL     OW28843   3.812   2.609   5.450  0.2179  0.0901  0.1464
 5737SOL    HW128844   3.908   2.611   5.441  0.1172  0.9134 -0.8058
 5737SOL    HW228845   3.787   2.546   5.383  0.7593  0.2081 -0.1716
 5738SOL     OW28846   3.870   2.591   5.028 -0.4800  0.0535  0.7418
 5738SOL    HW128847   3.878   2.604   4.933  5.5121  0.7467  1.3291
 5738SOL    HW228848   3.813   2.665   5.045  0.9585  0.5450  3.3961
 5739SOL     OW28849   0.165   0.449   5.672  0.1995  0.2703  0.2311
 5739SOL    HW128850   0.243   0.468   5.724  0.8074  0.4638 -0.7626
 5739SOL    HW228851   0.112   0.408   5.740  1.7842 -1.7566  0.2415
 5740SOL     OW28852   3.553   0.216   4.473 -0.2263  0.2324  0.5045
 5740SOL    HW128853   3.479   0.157   4.491  0.0067  0.3194  1.8067
 5740SOL    HW228854   3.518   0.264   4.399 -2.8555  0.4795  1.9011
 5741SOL     OW28855   2.635   1.577   3.271 -0.3846 -0.0403 -0.2748
 5741SOL    HW128856   2.693   1.651   3.255  0.8158 -1.0090 -0.4028
 5741SOL    HW228857   2.695   1.502   3.274  1.7916  1.6355 -2.0876
 5742SOL     OW28858   2.474   3.345   7.855  0.5367 -0.2892 -0.0631
 5742SOL    HW128859   2.522   3.353   7.772  0.1634  2.3578  0.0010
 5742SOL    HW228860   2.389   3.327   7.815  1.6492  0.9031 -2.9637
 5743SOL     OW28861   3.732   2.537   6.078 -0.1245 -0.1134  0.1920
 5743SOL    HW128862   3.638   2.525   6.069 -0.0648  0.5910 -1.3740
 5743SOL    HW228863   3.748   2.491   6.161 -0.1801  1.1212  0.8776
 5744SOL     OW28864   0.718   2.823   8.418  0.3683 -0.3528 -0.0596
 5744SOL    HW128865   0.685   2.842   8.506 -1.1141  2.5713 -1.2353
 5744SOL    HW228866   0.707   2.729   8.405  1.4934 -0.2621 -1.5464
 5745SOL     OW28867   3.459   0.484   4.039  0.0467 -0.4889  0.7687
 5745SOL    HW128868   3.431   0.468   3.949  1.5093 -0.6750  0.3397
 5745SOL    HW228869   3.554   0.484   4.024  0.0741  0.4431  0.9287
 5746SOL     OW28870   3.973   1.531   2.961 -0.4913  0.4224 -0.0278
 5746SOL    HW128871   4.022   1.611   2.977 -0.2900  0.2965 -0.0175
 5746SOL    HW228872   3.929   1.552   2.878 -1.2464 -0.1628  0.2274
 5747SOL     OW28873   2.191   3.926  12.337  0.1024 -0.1805 -0.0354
 5747SOL    HW128874   2.161   3.841  12.303 -2.2551  1.3127 -1.6845
 5747SOL    HW228875   2.139   3.984  12.282  1.1455  1.4472  0.7036
 5748SOL     OW28876   4.683   0.879   1.429 -0.3000  0.3927 -0.5511
 5748SOL    HW128877   4.653   0.934   1.357  0.1905 -0.4575 -1.4147
 5748SOL    HW228878   4.666   0.794   1.388 -0.5271  0.6984 -1.0899
 5749SOL     OW28879   2.364   1.775  10.795 -0.1367 -0.1563 -0.0931
 5749SOL    HW128880   2.344   1.813  10.880  0.8049  1.3065 -0.5380
 5749SOL    HW228881   2.333   1.847  10.740  0.4975  0.8517  0.8718
 5750SOL     OW28882   4.654   3.432   1.588 -0.7440  0.2146  0.0786
 5750SOL    HW128883   4.682   3.499   1.651 -3.5111  0.8924  0.5884
 5750SOL    HW228884   4.647   3.489   1.511  1.1033  0.2060 -0.0835
 5751SOL     OW28885   0.674   0.304   4.834  0.1176 -0.3790 -0.2973
 5751SOL    HW128886   0.637   0.271   4.752 -0.4168 -2.1136  0.6478
 5751SOL    HW228887   0.602   0.304   4.897 -0.0379  1.4184 -0.4792
 5752SOL     OW28888   2.785   1.644  12.506 -0.0847  0.1610 -0.7972
 5752SOL    HW128889   2.760   1.695  12.429 -0.9080  3.3848  1.6484
 5752SOL    HW228890   2.710   1.656  12.564  0.8744 -2.2128  0.9478
 5753SOL     OW28891   4.237   3.500   9.494 -0.0889  0.2880 -0.1902
 5753SOL    HW128892   4.299   3.427   9.492  1.1613  1.3569 -0.3301
 5753SOL    HW228893   4.186   3.484   9.415 -1.4579 -0.4186  0.8312
 5754SOL     OW28894   1.127   1.337   1.648 -0.3797  0.1385  0.1902
 5754SOL    HW128895   1.049   1.292   1.679  0.2816 -2.1164 -1.4814
 5754SOL    HW228896   1.190   1.278   1.689 -1.1789 -0.9945 -0.2275
 5755SOL     OW28897   3.257   2.749   2.568 -0.2086 -0.0304  0.7157
 5755SOL    HW128898   3.343   2.791   2.564 -0.5377  0.5006 -0.7064
 5755SOL    HW228899   3.208   2.826   2.539 -1.4460 -0.7659  0.8499
 5756SOL     OW28900   3.030   2.368   0.595  0.5340  0.4439  0.2954
 5756SOL    HW128901   3.068   2.391   0.510 -0.3125 -0.5637 -0.3620
 5756SOL    HW228902   3.050   2.275   0.600 -0.0504  0.1978 -1.7872
 5757SOL     OW28903   3.610   3.121   4.287  0.0149 -0.5100 -0.2928
 5757SOL    HW128904   3.607   3.030   4.258  1.3834 -0.1912 -1.4119
 5757SOL    HW228905   3.598   3.171   4.207  0.2289 -1.0528 -0.6629
 5758SOL     OW28906   2.462   3.411  12.166  0.0804  0.1307  0.0597
 5758SOL    HW128907   2.466   3.320  12.139  1.0931  0.6098 -1.3573
 5758SOL    HW228908   2.384   3.445  12.121  0.9071  0.1215 -1.3566
 5759SOL     OW28909   2.149   2.540   2.109 -0.2800 -0.6538 -0.4267
 5759SOL    HW128910   2.103   2.496   2.038 -1.0310  0.5865 -0.7097
 5759SOL    HW228911   2.075   2.595   2.137  0.2519 -0.3597  0.3999
 5760SOL     OW28912   2.477   4.605   7.182  0.5573  0.0880  0.4985
 5760SOL    HW128913   2.467   4.535   7.246  0.9967  0.2040  0.6933
 5760SOL    HW228914   2.506   4.564   7.101  0.4744 -0.1484  0.5896
 5761SOL     OW28915   0.469   3.521  10.067 -0.9323  0.3654 -0.0033
 5761SOL    HW128916   0.539   3.456  10.078 -1.1528 -0.1961 -1.9114
 5761SOL    HW228917   0.473   3.560  10.154 -3.9018  0.0240  0.2868
 5762SOL     OW28918   2.571   1.240   1.502  0.1826 -0.2622  0.0470
 5762SOL    HW128919   2.510   1.208   1.569  0.7843 -0.0686  0.6928
 5762SOL    HW228920   2.640   1.274   1.559  0.2650 -1.9516  0.9575
 5763SOL     OW28921   3.539   0.141   7.198 -0.2575 -0.0981 -0.4875
 5763SOL    HW128922   3.468   0.180   7.148  1.4974  1.7190 -1.5745
 5763SOL    HW228923   3.543   0.052   7.165  1.5203  0.3344 -1.4779
 5764SOL     OW28924   2.397   0.178  17.587 -0.3691  0.3374  0.4806
 5764SOL    HW128925   2.322   0.156  17.642 -1.7123  0.9995 -1.1065
 5764SOL    HW228926   2.429   0.089  17.568 -2.9246 -0.6470  0.7809
 5765SOL     OW28927   2.961   3.983  16.950 -0.4322  0.0859  0.9476
 5765SOL    HW128928   2.881   3.967  17.000 -1.0234 -2.4253 -0.8086
 5765SOL    HW228929   2.925   4.014  16.867  2.5924 -0.7386 -0.6483
 5766SOL     OW28930   0.342   1.625   9.472 -0.7640 -0.0618  0.5081
 5766SOL    HW128931   0.364   1.617   9.379 -2.7004  0.0654  0.0327
 5766SOL    HW228932   0.349   1.534   9.499 -0.5390  0.8920  3.5986
 5767SOL     OW28933   4.691   0.507  15.135 -0.4909  0.6104  0.0727
 5767SOL    HW128934   4.683   0.602  15.132  1.9739  0.8788  1.6716
 5767SOL    HW228935   4.624   0.479  15.198 -1.4599  2.1760 -0.2566
 5768SOL     OW28936   3.736   1.584   3.684 -0.0672 -0.0202  0.2344
 5768SOL    HW128937   3.699   1.538   3.758  0.8757  0.4489  1.0029
 5768SOL    HW228938   3.725   1.672   3.719 -0.4940  0.9037 -2.1734
 5769SOL     OW28939   3.971   1.652  15.231 -0.3897 -0.0223  0.3153
 5769SOL    HW128940   4.042   1.700  15.274  0.7187 -0.8831 -0.5513
 5769SOL    HW228941   3.892   1.671  15.282  0.0944  0.7024  0.7950
 5770SOL     OW28942   4.104   3.428   4.452  0.0094  0.4916  0.2903
 5770SOL    HW128943   4.012   3.426   4.479  0.8506 -0.4693  3.1098
 5770SOL    HW228944   4.128   3.335   4.447  0.2988  0.6584 -1.5894
 5771SOL     OW28945   1.548   3.962   2.518 -0.4300  0.2685  0.3548
 5771SOL    HW128946   1.525   3.871   2.498  2.9207 -0.9140  1.9345
 5771SOL    HW228947   1.632   3.965   2.473 -1.9243  0.4543 -2.3941
 5772SOL     OW28948   0.254   0.144   6.198 -0.4249 -0.3901 -0.6033
 5772SOL    HW128949   0.244   0.206   6.127  2.0685 -1.7864 -2.1798
 5772SOL    HW228950   0.235   0.195   6.277  0.3279 -0.1940 -0.5526
 5773SOL     OW28951   4.374   1.097   8.794  0.6801 -0.1241  0.0574
 5773SOL    HW128952   4.428   1.054   8.728  1.7826  0.6864  0.4347
 5773SOL    HW228953   4.350   1.177   8.746  3.3598 -0.9520 -2.6537
 5774SOL     OW28954   2.693   2.137   8.378 -0.0329 -0.5252 -0.4099
 5774SOL    HW128955   2.696   2.202   8.307  3.6649 -0.1178  0.0984
 5774SOL    HW228956   2.768   2.161   8.433  1.5161  1.5454 -3.3639
 5775SOL     OW28957   3.369   1.736   4.650  0.4599 -0.5974 -0.2100
 5775SOL    HW128958   3.451   1.751   4.696 -0.6984  4.9007  0.0846
 5775SOL    HW228959   3.343   1.828   4.646  0.5791 -0.5279  0.6908
 5776SOL     OW28960   0.256   1.475  12.113 -0.0727 -0.0602 -0.0236
 5776SOL    HW128961   0.296   1.441  12.032 -0.6589  1.0725 -0.7863
 5776SOL    HW228962   0.196   1.410  12.149 -0.6502  0.0577 -0.7649
 5777SOL     OW28963   0.484   3.440   6.849 -0.5290 -0.0517 -0.5231
 5777SOL    HW128964   0.474   3.356   6.895  3.4827  0.6890  1.6772
 5777SOL    HW228965   0.440   3.409   6.770  0.0193 -0.0988 -0.8053
 5778SOL     OW28966   4.563   3.226  16.690  0.0066 -0.5985  0.3706
 5778SOL    HW128967   4.510   3.162  16.642  0.4320 -0.2411 -0.5585
 5778SOL    HW228968   4.533   3.314  16.669 -0.2804 -0.8220 -0.1519
 5779SOL     OW28969   1.413   3.320   1.982 -0.1041  0.1703 -0.4611
 5779SOL    HW128970   1.492   3.341   2.032 -1.0386  1.2481  0.5528
 5779SOL    HW228971   1.419   3.388   1.916 -0.0460  1.0514  0.4538
 5780SOL     OW28972   1.189   2.139   9.314 -0.5304 -0.1349 -0.1707
 5780SOL    HW128973   1.098   2.113   9.303 -0.7674  1.4286 -2.0414
 5780SOL    HW228974   1.239   2.059   9.325  0.2118  0.3622  0.1035
 5781SOL     OW28975   1.607   1.750   5.208  0.2308  0.8741  0.0013
 5781SOL    HW128976   1.619   1.734   5.301  1.0319  1.6912  0.0399
 5781SOL    HW228977   1.664   1.690   5.159 -0.3663  0.1253  0.2260
 5782SOL     OW28978   4.121   2.803   5.380  0.2316  0.1403  0.3358
 5782SOL    HW128979   4.201   2.772   5.422 -0.2552  0.4025  1.4621
 5782SOL    HW228980   4.117   2.895   5.407  1.7893  0.0398  0.9332
 5783SOL     OW28981   0.067   3.153  15.491 -0.0485 -0.0566 -0.4053
 5783SOL    HW128982   4.739   3.128  15.552  0.9269  0.5422  0.9349
 5783SOL    HW228983   0.079   3.243  15.521  0.4494 -0.6200  1.0542
 5784SOL     OW28984   3.590   4.222   5.854  0.8197 -0.3697 -0.7549
 5784SOL    HW128985   3.523   4.290   5.859  1.2131 -0.0245 -0.0579
 5784SOL    HW228986   3.666   4.260   5.809 -0.2375  1.1903 -1.2282
 5785SOL     OW28987   4.030   3.779  14.361  0.0629  0.0994  0.0434
 5785SOL    HW128988   4.061   3.693  14.391 -0.8278 -0.6451 -1.1375
 5785SOL    HW228989   3.985   3.766  14.277  0.9232 -1.7292 -0.1538
 5786SOL     OW28990   0.045   3.905   1.429 -0.0013  0.2054  0.0190
 5786SOL    HW128991   0.138   3.893   1.444 -0.6049  0.7928  4.2081
 5786SOL    HW228992   0.057   3.951   1.345  1.1267 -1.3322 -0.6527
 5787SOL     OW28993   3.460   2.009  15.953 -0.0032  0.1122  0.0818
 5787SOL    HW128994   3.497   2.096  15.941 -0.7517  0.2638 -1.1628
 5787SOL    HW228995   3.420   1.986  15.869 -2.6309 -1.0169  1.6429
 5788SOL     OW28996   4.494   0.411   8.328 -0.4615  0.6135 -0.4433
 5788SOL    HW128997   4.528   0.368   8.250 -1.1970 -2.4646  0.9044
 5788SOL    HW228998   4.507   0.349   8.401  0.0320  0.2518 -0.8415
 5789SOL     OW28999   3.446   2.337  12.289 -0.2111 -0.0149  0.0564
 5789SOL    HW129000   3.508   2.304  12.355  1.5652  1.8813 -0.6844
 5789SOL    HW229001   3.498   2.395  12.234 -0.2776  0.4183  0.4499
 5790SOL     OW29002   2.784   3.219  13.858  0.5369  0.4595 -0.0540
 5790SOL    HW129003   2.703   3.168  13.852 -0.1242  1.3659  1.4362
 5790SOL    HW229004   2.763   3.278  13.930  0.7862 -0.6273  0.9163
 5791SOL     OW29005   2.587   4.579  14.523 -1.3563 -0.4668  0.2344
 5791SOL    HW129006   2.617   4.597  14.434 -0.2818  1.1672  0.9355
 5791SOL    HW229007   2.634   4.497  14.537  3.6560  2.2527 -0.8794
 5792SOL     OW29008   2.705   0.769   2.582  0.2322  0.0252  0.0853
 5792SOL    HW129009   2.672   0.837   2.642 -1.1822 -1.9158  1.4863
 5792SOL    HW229010   2.792   0.755   2.621  0.9262  2.6232 -0.4828
 5793SOL     OW29011   1.866   0.483   0.981 -0.3252 -0.2798  0.2007
 5793SOL    HW129012   1.803   0.465   1.051 -1.2115  0.0477 -0.5079
 5793SOL    HW229013   1.828   0.559   0.937  1.3068 -0.3577 -1.3256
 5794SOL     OW29014   2.789   4.671  16.215 -0.0484  0.2371  0.0144
 5794SOL    HW129015   2.711   4.697  16.264 -0.4926  3.1545 -2.2507
 5794SOL    HW229016   2.824   4.615  16.284  0.4018 -0.5661 -0.8743
 5795SOL     OW29017   0.926   3.362   3.711 -0.2263 -0.1337 -0.0843
 5795SOL    HW129018   0.943   3.333   3.621  1.5623 -0.4197  0.3568
 5795SOL    HW229019   1.008   3.329   3.749 -0.0616  1.0269  0.5448
 5796SOL     OW29020   3.707   4.045   5.556 -0.4813  0.6287 -0.0438
 5796SOL    HW129021   3.727   4.133   5.588  2.1095 -1.1490  3.1565
 5796SOL    HW229022   3.679   4.069   5.467 -0.1874  0.3376 -0.2189
 5797SOL     OW29023   2.943   2.358   8.880 -0.6487 -0.5382  0.3132
 5797SOL    HW129024   2.887   2.388   8.951 -1.3231  0.3054 -0.5646
 5797SOL    HW229025   2.884   2.366   8.804 -0.6481 -1.3636  0.2202
 5798SOL     OW29026   4.092   4.431   5.066 -0.1566 -0.6676 -0.1602
 5798SOL    HW129027   4.059   4.407   4.980 -0.4905  0.6621 -0.4057
 5798SOL    HW229028   4.176   4.386   5.068  1.9359  3.2705  0.6785
 5799SOL     OW29029   0.653   3.443  17.711 -0.6048  0.2801  0.0071
 5799SOL    HW129030   0.748   3.456  17.715 -0.6361  0.6998 -0.5851
 5799SOL    HW229031   0.631   3.353  17.735 -0.1245 -0.4143 -2.1537
 5800SOL     OW29032   0.546   3.328   3.002  0.3749  0.2212  0.4263
 5800SOL    HW129033   0.639   3.321   3.021  0.6491 -0.1176 -1.0502
 5800SOL    HW229034   0.548   3.420   2.978  0.6924  0.3152  0.8253
 5801SOL     OW29035   2.628   3.444  17.335 -0.0749 -0.1650 -0.4456
 5801SOL    HW129036   2.613   3.374  17.271 -0.0071 -0.5817 -0.0025
 5801SOL    HW229037   2.579   3.414  17.411 -1.3099 -1.8432 -1.9111
 5802SOL     OW29038   4.618   2.315  17.116  0.3024  0.6277  0.5913
 5802SOL    HW129039   4.692   2.367  17.148  0.4480  1.1545 -0.5872
 5802SOL    HW229040   4.543   2.374  17.121 -1.3635 -1.5479  1.2908
 5803SOL     OW29041   1.870   3.949  12.697 -0.0035 -0.2510  0.6602
 5803SOL    HW129042   1.865   3.906  12.783 -2.3536 -0.6966  0.2905
 5803SOL    HW229043   1.952   3.997  12.707 -0.9438  1.6891 -0.9604
 5804SOL     OW29044   0.510   1.569   6.248 -0.2287 -0.1371  0.3459
 5804SOL    HW129045   0.559   1.650   6.264 -0.7513  0.4978 -1.3154
 5804SOL    HW229046   0.522   1.560   6.154 -0.0925 -0.8060  0.4328
 5805SOL     OW29047   0.844   1.413   3.536  0.3387  0.2303 -0.2335
 5805SOL    HW129048   0.896   1.492   3.518 -0.6528  1.3301  1.7256
 5805SOL    HW229049   0.890   1.356   3.474  1.7380  0.0709  0.9495
 5806SOL     OW29050   2.720   4.095  11.168  0.0022  0.8266  0.0014
 5806SOL    HW129051   2.788   4.133  11.224  0.6884  0.3530 -0.5080
 5806SOL    HW229052   2.638   4.124  11.208  0.4058 -0.3088  1.6665
 5807SOL     OW29053   2.671   1.280   6.952 -0.3469  0.0282  0.4981
 5807SOL    HW129054   2.715   1.272   6.867 -1.6475 -3.7126  0.1720
 5807SOL    HW229055   2.716   1.362   6.973  0.8599 -0.3869 -0.5017
 5808SOL     OW29056   4.711   2.453   1.607  0.4491  0.1321 -0.6539
 5808SOL    HW129057   4.704   2.526   1.668  2.0078 -0.4015  0.1699
 5808SOL    HW229058   0.038   2.401   1.651  1.4225  0.8698 -1.2561
 5809SOL     OW29059   3.003   3.665   2.513 -0.6098 -0.3225 -0.2654
 5809SOL    HW129060   3.081   3.685   2.565  1.1373 -1.1187 -2.6078
 5809SOL    HW229061   2.973   3.587   2.559 -1.2052 -0.4999 -0.9562
 5810SOL     OW29062   3.066   1.488   5.567 -0.1243  0.1695  0.0071
 5810SOL    HW129063   3.014   1.477   5.647 -0.6684 -2.6466 -0.7201
 5810SOL    HW229064   3.139   1.429   5.586 -0.3767 -0.5387 -1.2326
 5811SOL     OW29065   4.381   3.920   3.229  0.5007 -0.5455 -0.3649
 5811SOL    HW129066   4.345   3.970   3.302 -1.0917 -3.7670  1.0346
 5811SOL    HW229067   4.323   3.844   3.234  1.4369 -1.2439 -0.1142
 5812SOL     OW29068   2.990   2.503   7.032  0.1747 -0.5386  0.1438
 5812SOL    HW129069   2.921   2.459   7.081 -1.4552 -0.3912 -2.0030
 5812SOL    HW229070   2.975   2.592   7.065  0.4269 -0.1233 -0.8624
 5813SOL     OW29071   1.146   1.585   3.040 -0.1248 -0.0398 -0.0519
 5813SOL    HW129072   1.153   1.496   3.075 -0.7951 -0.6634 -1.5021
 5813SOL    HW229073   1.173   1.644   3.111  1.8034  0.0745 -0.8589
 5814SOL     OW29074   2.235   0.121  11.812  0.5067  0.2156  0.2131
 5814SOL    HW129075   2.188   0.199  11.839  0.3917  0.0467  0.4979
 5814SOL    HW229076   2.218   0.077  11.895 -0.1014  1.3502  0.6823
 5815SOL     OW29077   2.230   2.638  10.473 -0.2666  0.0267  0.8860
 5815SOL    HW129078   2.162   2.620  10.408 -0.4484  1.1951  0.7638
 5815SOL    HW229079   2.208   2.573  10.540  0.6795  0.8218  1.9604
 5816SOL     OW29080   0.161   4.517   2.399  0.1941  0.0079 -0.6552
 5816SOL    HW129081   0.188   4.608   2.401 -0.1740  0.1271 -1.2136
 5816SOL    HW229082   0.069   4.523   2.373 -0.0673  1.9435  0.7246
 5817SOL     OW29083   0.852   0.861   9.263  0.4855 -0.2972  0.1384
 5817SOL    HW129084   0.903   0.783   9.244 -0.0253 -0.3445 -1.0159
 5817SOL    HW229085   0.907   0.916   9.319  0.6797  1.5373 -1.8774
 5818SOL     OW29086   2.184   3.444   4.708  0.3479  0.0545 -0.4216
 5818SOL    HW129087   2.097   3.402   4.709  0.1964  0.3806  0.1885
 5818SOL    HW229088   2.206   3.442   4.615  0.0252 -0.1699 -0.4950
 5819SOL     OW29089   0.209   0.887   0.333 -0.2039  0.3868 -0.5139
 5819SOL    HW129090   0.180   0.940   0.258 -1.2518 -1.5909 -1.5128
 5819SOL    HW229091   0.266   0.945   0.383  1.9304 -0.0179 -2.5085
 5820SOL     OW29092   0.964   3.191  10.675  0.5483 -0.1227 -0.3802
 5820SOL    HW129093   0.896   3.259  10.678  0.6822  0.2001 -4.0665
 5820SOL    HW229094   0.961   3.186  10.771  0.3814  0.0247 -0.3777
 5821SOL     OW29095   3.703   1.028   4.275 -0.1359 -0.6106 -0.3771
 5821SOL    HW129096   3.711   0.964   4.345  0.4479  0.2677  0.3695
 5821SOL    HW229097   3.791   1.065   4.276 -0.2142 -0.4188 -0.5566
 5822SOL     OW29098   2.971   1.951   2.870 -0.3191 -0.8287  0.3045
 5822SOL    HW129099   3.011   2.027   2.828 -0.9543 -1.3755 -1.3049
 5822SOL    HW229100   2.921   2.006   2.930 -0.4984 -1.4308  0.7101
 5823SOL     OW29101   0.848   3.017   4.587  0.2215 -0.3999  0.0697
 5823SOL    HW129102   0.870   2.936   4.541  3.9128  1.6081 -1.6816
 5823SOL    HW229103   0.934   3.055   4.575 -0.5510  1.2818 -0.1337
 5824SOL     OW29104   2.032   1.927   6.125 -0.6513 -0.0836 -0.2402
 5824SOL    HW129105   2.097   1.970   6.069 -0.3284 -0.6918 -0.3287
 5824SOL    HW229106   2.038   1.989   6.198 -0.4758 -0.3449 -0.0354
 5825SOL     OW29107   2.868   0.556  13.683 -0.1638  0.3940 -0.3064
 5825SOL    HW129108   2.813   0.531  13.757 -0.3989 -0.3717 -0.7440
 5825SOL    HW229109   2.816   0.497  13.629 -1.4045  0.8690  0.3846
 5826SOL     OW29110   0.637   1.557  17.110  0.4706 -0.6639  0.2162
 5826SOL    HW129111   0.660   1.593  17.196  1.8697  0.6258 -0.6753
 5826SOL    HW229112   0.639   1.466  17.140 -2.5464 -0.3303  1.3498
 5827SOL     OW29113   2.096   3.934   3.653  0.1321  0.7323 -0.0388
 5827SOL    HW129114   2.167   3.909   3.712 -0.5969  3.1577  1.8835
 5827SOL    HW229115   2.144   3.939   3.571 -0.6737  1.7043 -0.4549
 5828SOL     OW29116   4.229   3.887  15.097  0.2066 -0.3327  0.0004
 5828SOL    HW129117   4.276   3.807  15.074 -0.6618 -0.5517 -0.9996
 5828SOL    HW229118   4.181   3.896  15.015  0.4157  1.3590  0.0665
 5829SOL     OW29119   4.180   0.029  10.533 -0.1873 -0.5018  0.7721
 5829SOL    HW129120   4.265   0.036  10.578  1.5964 -0.3837 -2.6103
 5829SOL    HW229121   4.153   0.121  10.535 -1.9363 -0.9885 -1.1671
 5830SOL     OW29122   0.012   2.635   5.560  0.7490  0.1230  0.1723
 5830SOL    HW129123   0.092   2.682   5.584  2.0290 -1.1083 -1.7295
 5830SOL    HW229124   0.038   2.599   5.475  0.1390 -0.8748  0.4165
 5831SOL     OW29125   1.982   0.865   4.734  0.1871 -0.1521  0.2290
 5831SOL    HW129126   1.932   0.838   4.811  3.0547 -1.0874  1.7911
 5831SOL    HW229127   1.970   0.797   4.667  0.0871 -0.5932  0.6962
 5832SOL     OW29128   2.270   3.556   5.416  0.0776  0.1010  0.2619
 5832SOL    HW129129   2.269   3.478   5.361  1.8765 -0.8091  1.5148
 5832SOL    HW229130   2.207   3.612   5.369  0.6680  1.7660  1.4402
 5833SOL     OW29131   3.226   3.126   8.261  0.2590  0.3348  0.0234
 5833SOL    HW129132   3.169   3.191   8.301  1.7484  2.7401 -1.7401
 5833SOL    HW229133   3.285   3.111   8.335 -1.2073  0.5059  1.2243
 5834SOL     OW29134   3.792   4.725   8.685 -0.6642  0.0657 -0.1345
 5834SOL    HW129135   3.741   0.039   8.625  0.9120  0.7051 -0.8741
 5834SOL    HW229136   3.756   0.025   8.764 -0.9223  1.2037 -0.8305
 5835SOL     OW29137   2.362   1.705   6.553 -0.1665  0.0337 -0.4805
 5835SOL    HW129138   2.407   1.749   6.625  1.5208 -0.9194 -0.9555
 5835SOL    HW229139   2.417   1.629   6.537  3.9197  3.0342 -0.6343
 5836SOL     OW29140   0.940   0.633   3.289  0.0159  0.1058 -0.6321
 5836SOL    HW129141   1.006   0.599   3.349 -0.1482  0.6190 -0.1622
 5836SOL    HW229142   0.993   0.697   3.242  1.4758 -1.1345 -0.6650
 5837SOL     OW29143   0.163   0.816   4.173 -0.2478  0.3722  1.0104
 5837SOL    HW129144   0.081   0.801   4.220 -0.5929 -1.6887 -0.2782
 5837SOL    HW229145   0.197   0.887   4.228 -0.3752  0.2389  1.2602
 5838SOL     OW29146   0.624   1.210   5.400 -0.3833 -0.0690 -0.0251
 5838SOL    HW129147   0.600   1.117   5.394  1.9324 -0.4761 -3.1812
 5838SOL    HW229148   0.546   1.239   5.352 -0.6825 -0.1753  0.3997
 5839SOL     OW29149   2.666   1.641   2.477  0.7184  0.2934 -0.1721
 5839SOL    HW129150   2.712   1.557   2.466 -0.8709 -0.7778  1.3257
 5839SOL    HW229151   2.692   1.672   2.563  0.0319  0.5797 -0.0659
 5840SOL     OW29152   4.219   4.715   2.568 -0.3961  0.4356  0.3563
 5840SOL    HW129153   4.268   0.023   2.634 -0.6044  0.7942  0.2448
 5840SOL    HW229154   4.164   4.666   2.628 -0.8153  0.3044 -0.1300
 5841SOL     OW29155   4.635   4.317   4.671  0.5958 -0.3732  0.1556
 5841SOL    HW129156   4.672   4.235   4.638  1.6795 -0.5661  1.8208
 5841SOL    HW229157   4.551   4.305   4.628  0.4286 -2.5427  1.0689
 5842SOL     OW29158   4.109   3.453   7.589  0.3532 -0.3824 -0.1877
 5842SOL    HW129159   4.191   3.475   7.633 -0.1464 -0.4767  0.7873
 5842SOL    HW229160   4.062   3.529   7.553  2.4809  1.8281  1.6943
 5843SOL     OW29161   0.816   2.727   1.873  0.6314 -0.0926 -0.2704
 5843SOL    HW129162   0.820   2.726   1.969 -0.8161  2.6045 -0.1852
 5843SOL    HW229163   0.809   2.632   1.870  1.2125 -0.2214  2.5718
 5844SOL     OW29164   2.778   1.792   8.508 -0.1061 -0.1911  0.0607
 5844SOL    HW129165   2.722   1.751   8.573  2.1719  0.0947  2.2088
 5844SOL    HW229166   2.718   1.830   8.444  0.5258  0.6546 -0.0360
 5845SOL     OW29167   2.512   4.409   7.378  0.2076 -0.2528 -0.3598
 5845SOL    HW129168   2.605   4.432   7.387 -0.0419  0.1510  1.1339
 5845SOL    HW229169   2.521   4.318   7.408 -0.3730 -0.5765 -1.1458
 5846SOL     OW29170   4.086   0.781   2.371  0.1293 -0.0798 -0.0876
 5846SOL    HW129171   4.063   0.702   2.322 -1.6127  1.2344 -1.3918
 5846SOL    HW229172   4.015   0.843   2.355 -0.0277 -0.5192 -1.1041
 5847SOL     OW29173   2.161   0.092   6.973  0.1310 -0.0999 -0.1593
 5847SOL    HW129174   2.181   0.176   7.014 -1.8566 -0.1634  0.9777
 5847SOL    HW229175   2.155   0.038   7.053  2.9981  1.8150  1.3295
 5848SOL     OW29176   4.316   3.356   5.114 -0.0467 -0.1901  0.5848
 5848SOL    HW129177   4.227   3.387   5.127  0.4422  2.0126 -1.1344
 5848SOL    HW229178   4.336   3.340   5.206  1.6807 -2.8872 -0.2742
 5849SOL     OW29179   2.948   2.558   8.601 -0.3138  0.2050 -0.2640
 5849SOL    HW129180   2.973   2.608   8.524  1.6362 -0.5136 -0.0857
 5849SOL    HW229181   2.991   2.594   8.679 -1.2137  0.1571  0.2608
 5850SOL     OW29182   2.737   2.741   8.341  0.2251 -0.4590 -0.2845
 5850SOL    HW129183   2.691   2.699   8.414  1.0168 -0.7563  0.0435
 5850SOL    HW229184   2.825   2.704   8.337  0.0512 -0.8507 -0.5927
 5851SOL     OW29185   2.575   1.612   4.173  0.3003  0.0478 -0.3953
 5851SOL    HW129186   2.636   1.659   4.115  0.1750  1.4335  0.6238
 5851SOL    HW229187   2.583   1.665   4.252 -2.3230  0.8703 -0.7056
 5852SOL     OW29188   1.853   3.359   3.996  0.0234  0.1210  0.4378
 5852SOL    HW129189   1.886   3.435   3.948 -1.5733  0.4224 -0.1952
 5852SOL    HW229190   1.785   3.325   3.937 -1.3841  2.1246  0.8973
 5853SOL     OW29191   0.713   4.385  12.350 -0.2167 -0.4304  0.1135
 5853SOL    HW129192   0.728   4.464  12.297  1.9908 -0.8001  0.1664
 5853SOL    HW229193   0.622   4.372  12.324 -0.1207 -1.1312  0.1204
 5854SOL     OW29194   1.840   1.146   3.783 -0.1512  0.5880  0.6344
 5854SOL    HW129195   1.906   1.193   3.834 -0.1598  2.2093 -0.8847
 5854SOL    HW229196   1.773   1.138   3.852 -2.2449  1.7954 -1.2797
 5855SOL     OW29197   3.046   0.206   5.802  0.2097 -0.0832  0.6113
 5855SOL    HW129198   2.963   0.254   5.797  0.9871  1.1778 -0.1095
 5855SOL    HW229199   3.026   0.153   5.879 -0.1816  0.1951  0.6994
 5856SOL     OW29200   0.583   4.001  17.372 -0.9472 -0.4228  0.3599
 5856SOL    HW129201   0.604   3.993  17.279  1.4363  1.3255  0.7516
 5856SOL    HW229202   0.488   4.000  17.384 -0.8376  1.4613  1.4267
 5857SOL     OW29203   3.529   4.347   6.203 -0.3635 -0.1779  0.3750
 5857SOL    HW129204   3.526   4.410   6.276  1.0322 -1.1000  1.2321
 5857SOL    HW229205   3.498   4.403   6.132 -0.3626  2.1684  2.2411
 5858SOL     OW29206   2.556   2.109   3.986 -0.0277  0.1009 -0.0011
 5858SOL    HW129207   2.508   2.157   4.054 -0.1405 -0.9017  0.6367
 5858SOL    HW229208   2.537   2.158   3.907  0.1144 -0.5747 -0.4550
 5859SOL     OW29209   1.235   1.171  15.735 -0.1284  0.2806  0.1463
 5859SOL    HW129210   1.279   1.236  15.790 -1.1086  0.8765  0.2406
 5859SOL    HW229211   1.179   1.223  15.677  1.2445  0.6120 -0.8747
 5860SOL     OW29212   2.411   3.026   7.771  0.6690  0.4702 -0.5502
 5860SOL    HW129213   2.498   2.988   7.760 -0.4495 -0.9892 -4.5454
 5860SOL    HW229214   2.394   3.015   7.865  1.7445 -0.2634 -0.4470
 5861SOL     OW29215   3.948   0.082  14.905 -0.4541  0.0632  0.4559
 5861SOL    HW129216   3.907   0.043  14.983  0.0045  2.1305  1.7455
 5861SOL    HW229217   3.874   0.081  14.844 -0.9425 -2.7095  1.1116
 5862SOL     OW29218   2.948   3.840   3.160 -0.2093  0.5611 -0.3285
 5862SOL    HW129219   2.878   3.890   3.201 -0.7358  0.1870 -0.7612
 5862SOL    HW229220   3.019   3.903   3.153  1.4462 -1.3371 -0.6962
 5863SOL     OW29221   2.785   4.652   3.336  0.1525 -0.2312  0.0616
 5863SOL    HW129222   2.768   4.560   3.318  0.1158  0.2666 -2.4747
 5863SOL    HW229223   2.706   4.672   3.385  0.9402  0.0373  1.2110
 5864SOL     OW29224   2.868   0.186   5.355  0.1022  0.3742  0.0281
 5864SOL    HW129225   2.846   0.262   5.300  0.0261 -0.1302 -0.6384
 5864SOL    HW229226   2.961   0.190   5.334  0.2744  0.0947  0.7397
 5865SOL     OW29227   2.664   2.058  16.118 -0.3997  0.4428 -0.3516
 5865SOL    HW129228   2.742   2.083  16.068 -0.8806  1.6156 -0.4977
 5865SOL    HW229229   2.604   2.122  16.079  0.8969  2.1920  0.5276
 5866SOL     OW29230   0.808   2.689   2.135  0.4828 -0.4507  0.1120
 5866SOL    HW129231   0.777   2.644   2.213  2.3664 -0.9291  0.5822
 5866SOL    HW229232   0.879   2.737   2.179 -1.4724  0.0121  2.7592
 5867SOL     OW29233   0.067   1.046   8.778  0.5287  0.1802  0.2392
 5867SOL    HW129234   4.728   0.996   8.758  0.9451 -0.4117  0.0637
 5867SOL    HW229235   0.129   0.974   8.783 -2.6276 -2.5833 -0.2583
 5868SOL     OW29236   2.393   1.561   2.558 -0.3163 -0.6602 -0.2092
 5868SOL    HW129237   2.482   1.578   2.530 -0.2638 -0.2549  0.2020
 5868SOL    HW229238   2.376   1.626   2.626 -1.9946 -2.6581  1.3060
 5869SOL     OW29239   0.814   3.649   7.523  0.8817 -0.2343 -0.0009
 5869SOL    HW129240   0.801   3.664   7.617  0.4331 -3.2947  0.4239
 5869SOL    HW229241   0.730   3.672   7.484  0.7463  1.3578  1.2384
 5870SOL     OW29242   4.568   4.111   4.518  0.0138 -0.2709  0.5144
 5870SOL    HW129243   4.569   4.024   4.558 -2.4506 -0.1183  0.9361
 5870SOL    HW229244   4.486   4.106   4.468 -1.3105 -2.2160  2.8692
 5871SOL     OW29245   3.898   3.555   7.813 -0.1264 -0.1811  0.6054
 5871SOL    HW129246   3.990   3.582   7.810 -0.5784  1.4784  2.0215
 5871SOL    HW229247   3.872   3.589   7.898  0.6689  0.2012  0.7006
 5872SOL     OW29248   0.450   4.690   3.753  0.1513  0.0371  0.2023
 5872SOL    HW129249   0.452   4.723   3.843  1.8398  0.8018 -0.1191
 5872SOL    HW229250   0.461   4.597   3.774 -1.3896 -0.2447 -0.2709
 5873SOL     OW29251   3.646   2.677   4.505  0.2727 -0.1718 -0.3762
 5873SOL    HW129252   3.691   2.656   4.423  0.0045  0.4706 -0.6840
 5873SOL    HW229253   3.575   2.732   4.474 -0.5353 -1.0001 -0.0083
 5874SOL     OW29254   3.121   1.975   9.515  0.5141  0.2712  0.0657
 5874SOL    HW129255   3.200   1.933   9.548 -0.7551 -1.0402  1.4462
 5874SOL    HW229256   3.145   2.065   9.538 -0.0843  0.1997  0.9742
 5875SOL     OW29257   3.490   0.127   4.955  0.3756  0.4920  0.0419
 5875SOL    HW129258   3.562   0.150   5.014 -0.3387  0.7595  0.8126
 5875SOL    HW229259   3.543   0.114   4.877 -0.6647 -1.3747 -0.3455
 5876SOL     OW29260   0.703   2.248  13.634  0.1394 -0.0172  0.0719
 5876SOL    HW129261   0.656   2.194  13.697 -1.1476  2.0206  0.8640
 5876SOL    HW229262   0.638   2.261  13.565  0.0067  2.1677  0.6105
 5877SOL     OW29263   1.591   1.913  16.751  0.1929 -0.3938  0.0957
 5877SOL    HW129264   1.682   1.944  16.747  0.1852 -0.3301  0.4750
 5877SOL    HW229265   1.610   1.822  16.775 -0.2371 -0.2188  1.0598
 5878SOL     OW29266   4.082   2.107   5.691  0.6411 -0.2729 -0.5560
 5878SOL    HW129267   4.085   2.049   5.615  2.1027 -0.3823 -0.4024
 5878SOL    HW229268   3.997   2.089   5.732  0.2669 -0.6164 -1.4574
 5879SOL     OW29269   1.155   1.920   7.028  0.2525 -0.0269 -0.1652
 5879SOL    HW129270   1.229   1.892   6.974 -0.8451  0.1135 -1.7467
 5879SOL    HW229271   1.208   1.922   7.108  0.0217  1.2615 -0.0565
 5880SOL     OW29272   1.662   3.310  11.706 -0.4708  0.3999  0.1460
 5880SOL    HW129273   1.616   3.259  11.772 -0.1555  0.0926  0.1295
 5880SOL    HW229274   1.692   3.383  11.760  0.7515 -0.9368  1.2872
 5881SOL     OW29275   0.850   3.562   7.239 -0.1332  0.3158  0.0120
 5881SOL    HW129276   0.873   3.556   7.331 -2.0421  1.6087  0.5776
 5881SOL    HW229277   0.765   3.606   7.233 -0.1847  0.1145 -0.8165
 5882SOL     OW29278   2.333   2.705   8.487 -0.0586 -0.3881 -0.8589
 5882SOL    HW129279   2.379   2.695   8.570  0.0467 -1.8860 -1.1048
 5882SOL    HW229280   2.244   2.713   8.520 -0.4317 -1.1849 -1.6861
 5883SOL     OW29281   0.613   2.202   7.960  0.0521  0.1945  0.4500
 5883SOL    HW129282   0.568   2.137   7.907  2.4043 -0.0522 -1.2216
 5883SOL    HW229283   0.701   2.166   7.961 -1.0307 -2.3707  1.4449
 5884SOL     OW29284   2.687   2.031   9.233  0.0324  0.1592 -0.1156
 5884SOL    HW129285   2.736   1.996   9.308  1.7196  1.9499 -0.4133
 5884SOL    HW229286   2.629   2.096   9.274  0.8131 -0.3942  1.8691
 5885SOL     OW29287   2.070   3.100   0.283 -0.1165  0.4598  0.7700
 5885SOL    HW129288   2.028   3.144   0.357  0.4167  0.6986  0.9329
 5885SOL    HW229289   2.129   3.052   0.342  2.8221  3.6604  0.4359
 5886SOL     OW29290   0.896   4.042   4.239 -0.2738 -0.0641 -0.2590
 5886SOL    HW129291   0.933   4.126   4.214  2.9821 -1.9683 -1.9370
 5886SOL    HW229292   0.970   3.982   4.229  1.4557  1.9067  0.8300
 5887SOL     OW29293   2.204   1.352   2.645  0.0490 -0.3292  0.3950
 5887SOL    HW129294   2.271   1.419   2.628  1.6581 -2.6134 -2.4598
 5887SOL    HW229295   2.213   1.335   2.738 -2.4395  0.3959  0.7501
 5888SOL     OW29296   0.954   4.493   5.681 -0.4731 -0.0712  0.6208
 5888SOL    HW129297   0.880   4.439   5.656 -1.0867  1.8330 -1.7080
 5888SOL    HW229298   0.952   4.547   5.602  1.6806 -1.8794 -0.6861
 5889SOL     OW29299   4.479   3.536   5.565  0.0349  0.4192  0.2667
 5889SOL    HW129300   4.423   3.599   5.610  0.9785  0.7190  0.9944
 5889SOL    HW229301   4.546   3.594   5.529 -0.3338  0.6743 -0.0175
 5890SOL     OW29302   0.966   3.656   5.262 -0.4493  0.2678 -0.3013
 5890SOL    HW129303   0.978   3.731   5.320  0.9099  0.1183 -0.3785
 5890SOL    HW229304   0.874   3.635   5.279 -0.0224 -0.9043  0.6430
 5891SOL     OW29305   3.021   1.278   4.924  0.0017  0.1268  0.4314
 5891SOL    HW129306   3.020   1.196   4.875  0.1074 -1.9316  3.9342
 5891SOL    HW229307   2.941   1.315   4.887  0.6696  1.5054  0.3617
 5892SOL     OW29308   4.121   3.050   4.659  0.5359  0.3180  0.2224
 5892SOL    HW129309   4.056   2.992   4.619  1.6120 -0.6989 -0.0767
 5892SOL    HW229310   4.064   3.125   4.678  1.3909  0.4155  2.3465
 5893SOL     OW29311   3.500   2.392   1.575 -0.6563  0.1610 -0.2256
 5893SOL    HW129312   3.415   2.433   1.587 -0.9652 -0.5014 -0.1687
 5893SOL    HW229313   3.499   2.365   1.484 -2.4203  0.3010 -0.2416
 5894SOL     OW29314   2.036   0.230  11.560 -0.2548  0.0371  0.2574
 5894SOL    HW129315   2.049   0.281  11.640  1.0284 -1.2688  0.8929
 5894SOL    HW229316   1.960   0.181  11.591  0.0935 -0.4785  0.2986
 5895SOL     OW29317   0.356   2.568   7.512  0.3032 -0.0861  0.2740
 5895SOL    HW129318   0.343   2.661   7.531  0.8588 -0.2935  1.7388
 5895SOL    HW229319   0.342   2.565   7.418  0.0839  1.0154  0.2708
 5896SOL     OW29320   4.198   0.990  17.330  0.5015  0.7103 -0.0822
 5896SOL    HW129321   4.168   0.948  17.249  0.1205 -0.5977  0.7237
 5896SOL    HW229322   4.140   0.941  17.389  0.8876  0.5372  0.1531
 5897SOL     OW29323   3.710   1.900  15.141 -0.1944  0.1079 -0.2083
 5897SOL    HW129324   3.795   1.930  15.110 -0.6075  1.2100 -0.2922
 5897SOL    HW229325   3.657   1.978  15.127  0.1101  0.6970  1.8628
 5898SOL     OW29326   0.597   0.169   6.825  0.3891  0.1494 -0.3261
 5898SOL    HW129327   0.600   0.074   6.837  0.1562  0.1248 -0.4747
 5898SOL    HW229328   0.603   0.190   6.918  0.1902 -3.3292  0.4595
 5899SOL     OW29329   1.805   4.485  16.677 -0.1786 -0.2267  0.2066
 5899SOL    HW129330   1.847   4.405  16.707  0.9665 -0.6537 -2.5340
 5899SOL    HW229331   1.766   4.519  16.758  0.3415 -1.9740  1.1920
 5900SOL     OW29332   1.251   3.176   6.517 -0.1034 -0.4171  0.2382
 5900SOL    HW129333   1.279   3.152   6.428  0.1276 -3.0573  1.0251
 5900SOL    HW229334   1.271   3.269   6.522  0.6128 -0.4257 -2.2069
 5901SOL     OW29335   0.214   0.043  17.695 -0.0742  0.0613 -0.1063
 5901SOL    HW129336   0.291   4.739  17.659  0.5978  1.6586 -0.6031
 5901SOL    HW229337   0.145   0.035  17.629 -0.8392  0.3820  0.6485
 5902SOL     OW29338   3.888   3.540  11.466 -0.0260 -0.5771 -0.3623
 5902SOL    HW129339   3.900   3.490  11.385 -0.2196 -1.6093  0.2486
 5902SOL    HW229340   3.979   3.536  11.496  0.0736  0.6371 -0.4797
 5903SOL     OW29341   2.858   0.980   3.415 -0.3021 -0.3715  0.2485
 5903SOL    HW129342   2.927   1.036   3.452 -0.7596 -0.6926  1.5904
 5903SOL    HW229343   2.879   0.978   3.322 -2.2659  0.4725 -0.2166
 5904SOL     OW29344   1.339   1.690   2.363 -0.3851  0.3105  0.4466
 5904SOL    HW129345   1.264   1.749   2.355  0.1783  1.2312  1.8273
 5904SOL    HW229346   1.407   1.753   2.388 -0.4234  0.1121  1.0439
 5905SOL     OW29347   3.540   4.727   8.542  0.6059  0.1142  0.0590
 5905SOL    HW129348   3.560   4.653   8.598 -1.7483  0.6572  1.6171
 5905SOL    HW229349   3.460   0.008   8.591  0.5805  0.2544 -0.0432
 5906SOL     OW29350   1.907   0.192   7.324 -0.3002  0.1447  0.5198
 5906SOL    HW129351   1.913   0.191   7.419 -1.5480  3.0944  0.6564
 5906SOL    HW229352   1.876   0.103   7.308  0.5925 -0.1539  0.5015
 5907SOL     OW29353   1.579   2.561   7.810 -0.0604 -0.3072 -0.1310
 5907SOL    HW129354   1.586   2.640   7.864 -0.2099 -1.6016  1.7922
 5907SOL    HW229355   1.669   2.559   7.776  0.3979 -1.4984  1.1376
 5908SOL     OW29356   4.467   4.030  15.760 -0.2043 -0.2736  0.2310
 5908SOL    HW129357   4.524   3.986  15.697  1.4363 -0.0553  1.5801
 5908SOL    HW229358   4.386   4.024  15.707 -0.2280  0.6416  0.1701
 5909SOL     OW29359   3.339   0.239   1.742 -0.3734 -0.3788 -0.9146
 5909SOL    HW129360   3.326   0.196   1.658  5.1427 -0.4461 -1.6905
 5909SOL    HW229361   3.277   0.311   1.728 -0.3734 -0.2468 -0.2531
 5910SOL     OW29362   0.512   2.350   4.887 -0.2823 -0.0100 -0.1583
 5910SOL    HW129363   0.424   2.316   4.901 -0.0818 -1.2513 -1.8719
 5910SOL    HW229364   0.518   2.365   4.792 -0.3496  1.0543 -0.0012
 5911SOL     OW29365   1.458   3.693   2.504  0.8604 -0.1770 -0.6628
 5911SOL    HW129366   1.367   3.688   2.476  0.7257  1.1623 -0.4278
 5911SOL    HW229367   1.496   3.612   2.470  1.4970  0.0200 -0.4146
 5912SOL     OW29368   3.257   1.238  11.402  0.3189 -0.0441  0.3510
 5912SOL    HW129369   3.202   1.175  11.449 -2.1105  1.3799 -0.6095
 5912SOL    HW229370   3.197   1.312  11.399  0.2540 -0.1646 -1.1323
 5913SOL     OW29371   4.304   1.074   9.645 -0.1446  0.1013 -0.4421
 5913SOL    HW129372   4.219   1.109   9.672 -0.1808 -0.5623  0.3101
 5913SOL    HW229373   4.349   1.127   9.579  0.1768 -0.9411 -1.0566
 5914SOL     OW29374   4.457   0.279  11.240  0.1972 -0.1601  0.6832
 5914SOL    HW129375   4.488   0.365  11.211  1.0155 -0.5399  0.4382
 5914SOL    HW229376   4.369   0.285  11.204  0.2393  0.6027  0.7049
 5915SOL     OW29377   2.227   1.508   2.360  0.4192 -0.0210  0.3876
 5915SOL    HW129378   2.294   1.533   2.423  1.4494  1.1368 -1.1616
 5915SOL    HW229379   2.283   1.479   2.288  0.2212 -0.3950  0.3831
 5916SOL     OW29380   1.088   1.786   8.751 -0.5175  0.3284 -0.2003
 5916SOL    HW129381   1.039   1.779   8.669 -1.3819  0.2451  0.3241
 5916SOL    HW229382   1.139   1.709   8.726 -0.0801  1.1212 -1.7514
 5917SOL     OW29383   0.565   1.131  12.387  0.0362  0.2103  0.5505
 5917SOL    HW129384   0.525   1.200  12.440  1.5638  1.4780  0.0640
 5917SOL    HW229385   0.506   1.062  12.418 -0.8464  0.0828 -1.4236
 5918SOL     OW29386   2.249   1.751   7.807 -0.3990 -0.0222 -0.4543
 5918SOL    HW129387   2.239   1.675   7.750 -1.5803  0.5282 -0.9930
 5918SOL    HW229388   2.341   1.749   7.833 -0.5149 -0.6819 -0.1171
 5919SOL     OW29389   3.533   1.657   0.990 -0.2137 -0.1991 -0.7305
 5919SOL    HW129390   3.571   1.665   0.902 -2.4686 -0.1734 -1.7046
 5919SOL    HW229391   3.440   1.649   0.971 -0.4030  1.5998 -0.5212
 5920SOL     OW29392   3.526   2.726   7.165  0.0736 -0.1601 -0.0372
 5920SOL    HW129393   3.567   2.704   7.081 -1.7795  2.7719 -1.7292
 5920SOL    HW229394   3.535   2.640   7.206  0.4725 -0.4674 -0.7718
 5921SOL     OW29395   2.819   2.184   4.580  0.1279 -0.0973  0.6614
 5921SOL    HW129396   2.755   2.224   4.639  0.5223 -0.3471  1.2536
 5921SOL    HW229397   2.904   2.222   4.602 -0.2918  0.1892  1.7590
 5922SOL     OW29398   1.396   1.479  13.162 -0.1805  0.2848 -0.4343
 5922SOL    HW129399   1.319   1.429  13.134 -1.3261  0.7373  1.8603
 5922SOL    HW229400   1.473   1.423  13.163  0.5422  1.3077  1.8541
 5923SOL     OW29401   2.407   0.580  15.490 -0.3211 -0.0385  0.1181
 5923SOL    HW129402   2.471   0.514  15.519 -0.4188 -0.5182 -0.7439
 5923SOL    HW229403   2.348   0.528  15.435  0.8145 -1.6537  0.3979
 5924SOL     OW29404   2.954   4.670  17.099  0.2931 -1.1785  0.5001
 5924SOL    HW129405   3.039   4.710  17.079 -1.3054 -0.1964 -4.3410
 5924SOL    HW229406   2.911   4.701  17.019 -0.2938  2.9081  2.3511
 5925SOL     OW29407   2.610   4.346  15.510 -0.4723  0.1052  0.4614
 5925SOL    HW129408   2.651   4.406  15.447  1.0230  0.8304  2.1507
 5925SOL    HW229409   2.616   4.400  15.588  3.0591  1.4980 -0.7845
 5926SOL     OW29410   3.475   2.365   5.540 -0.1207 -0.6177 -0.3296
 5926SOL    HW129411   3.491   2.458   5.524  2.2974 -0.6928  1.7422
 5926SOL    HW229412   3.388   2.356   5.579 -0.0659  2.0593  0.3500
 5927SOL     OW29413   3.844   1.410   7.790  0.0206 -0.2973 -0.1247
 5927SOL    HW129414   3.920   1.408   7.849 -0.3884 -0.7895  0.3816
 5927SOL    HW229415   3.850   1.325   7.746 -1.0508 -0.4299 -0.0013
 5928SOL     OW29416   0.945   3.834   5.449 -0.1670  0.2427  0.2032
 5928SOL    HW129417   0.933   3.755   5.502 -0.5467 -1.0542 -1.8161
 5928SOL    HW229418   0.868   3.889   5.463 -0.9972 -1.1251  1.0504
 5929SOL     OW29419   3.615   1.058   7.660 -0.2506  0.3873 -0.2472
 5929SOL    HW129420   3.574   0.985   7.706 -0.1649  0.9106  0.6579
 5929SOL    HW229421   3.615   1.128   7.726  1.9016  0.1217  0.0155
 5930SOL     OW29422   1.791   1.724   2.457 -0.1441  0.2823 -0.3856
 5930SOL    HW129423   1.740   1.767   2.526 -0.1983  2.4926 -1.8267
 5930SOL    HW229424   1.879   1.754   2.480  0.4238  0.4430 -2.8111
 5931SOL     OW29425   2.916   2.344   5.682  0.7701 -0.4106 -0.1072
 5931SOL    HW129426   2.823   2.343   5.708  1.1879 -0.9611  1.3417
 5931SOL    HW229427   2.911   2.307   5.594 -1.7335  0.8587 -0.5105
 5932SOL     OW29428   4.234   2.172   2.570  0.0742  0.1678 -0.1156
 5932SOL    HW129429   4.139   2.177   2.577  0.3656  1.8166  2.6059
 5932SOL    HW229430   4.248   2.106   2.639  0.3252  1.4725  1.0831
 5933SOL     OW29431   1.371   3.366   8.085 -0.0856 -0.4874  0.0425
 5933SOL    HW129432   1.321   3.286   8.103 -2.3983  0.4120 -2.3618
 5933SOL    HW229433   1.394   3.361   7.993 -0.1672 -1.9481  0.0981
 5934SOL     OW29434   3.894   0.393   7.052  0.3514  0.4923 -0.2293
 5934SOL    HW129435   3.950   0.448   6.997  0.9426 -0.2663 -0.3772
 5934SOL    HW229436   3.926   0.409   7.141  1.4963 -1.9829 -0.2181
 5935SOL     OW29437   4.490   4.360   9.001 -0.3885  0.2438 -0.5104
 5935SOL    HW129438   4.544   4.289   8.966  1.0539  0.1542  1.9470
 5935SOL    HW229439   4.512   4.361   9.094  0.5223 -4.8206 -0.6304
 5936SOL     OW29440   0.793   0.610   3.605 -0.0842 -0.0880 -0.5549
 5936SOL    HW129441   0.715   0.665   3.604  0.1057  0.1909 -0.4744
 5936SOL    HW229442   0.768   0.549   3.537 -0.8546  0.8532 -1.1108
 5937SOL     OW29443   0.692   3.961   7.590  0.1905  0.4169 -0.0977
 5937SOL    HW129444   0.642   4.043   7.594  1.1839  1.1129 -2.2208
 5937SOL    HW229445   0.669   3.914   7.670  2.8300 -0.9738 -0.1689
 5938SOL     OW29446   2.594   4.029   6.668  0.0300  0.3996  0.2687
 5938SOL    HW129447   2.607   4.124   6.667 -0.5849  0.4882  0.6621
 5938SOL    HW229448   2.521   4.020   6.606 -0.1584 -1.6668  0.7919
 5939SOL     OW29449   4.645   3.679  10.264  0.3899  0.5169  0.3567
 5939SOL    HW129450   4.612   3.625  10.335  0.5923  3.6376  2.8421
 5939SOL    HW229451   4.736   3.651  10.268  0.1860 -0.0721  0.7913
 5940SOL     OW29452   1.192   0.369   6.898 -0.2517 -0.4150 -0.1142
 5940SOL    HW129453   1.235   0.296   6.854 -0.8272 -0.9177  0.1488
 5940SOL    HW229454   1.230   0.448   6.859 -2.1344  0.7111  0.3225
 5941SOL     OW29455   2.483   0.505   3.837  0.0683  0.3983 -0.0850
 5941SOL    HW129456   2.424   0.449   3.889  0.9794  1.0020  1.6114
 5941SOL    HW229457   2.560   0.526   3.889 -0.3446 -0.2750  0.8165
 5942SOL     OW29458   4.585   3.654   3.399  0.2012 -0.5214 -0.6035
 5942SOL    HW129459   4.530   3.722   3.360  2.5030  0.4370 -2.0983
 5942SOL    HW229460   4.520   3.588   3.427 -0.5590  1.0711  1.4233
 5943SOL     OW29461   2.431   4.674   7.626 -0.1889 -0.2044  0.1172
 5943SOL    HW129462   2.476   0.001   7.574  2.2221 -0.7619  1.4809
 5943SOL    HW229463   2.342   4.707   7.612  0.3699  0.7269 -1.1808
 5944SOL     OW29464   1.859   2.071   6.825  0.1168 -0.1499 -0.5101
 5944SOL    HW129465   1.873   2.123   6.746  2.3434 -0.1517 -0.1159
 5944SOL    HW229466   1.942   2.024   6.826 -0.1045 -0.4371  2.9747
 5945SOL     OW29467   3.048   2.467   4.424 -0.2919  0.1583 -0.2576
 5945SOL    HW129468   3.071   2.455   4.332 -2.2009 -0.0071 -0.7160
 5945SOL    HW229469   3.126   2.423   4.459 -1.0055  0.5938  1.8699
 5946SOL     OW29470   1.173   0.802   5.774  0.1211  0.1723 -0.0909
 5946SOL    HW129471   1.267   0.821   5.773  0.0558  0.4332 -1.0960
 5946SOL    HW229472   1.147   0.871   5.836  2.0042  0.5290  0.2857
 5947SOL     OW29473   4.028   1.374  15.234  0.0865  0.1617  0.1503
 5947SOL    HW129474   4.124   1.376  15.236  0.1531 -1.5985 -0.8614
 5947SOL    HW229475   4.001   1.465  15.229 -1.9235 -0.4362  0.2826
 5948SOL     OW29476   1.660   4.561   0.226  0.3728  0.1872 -0.3864
 5948SOL    HW129477   1.566   4.555   0.212  0.0067  1.1899  1.6697
 5948SOL    HW229478   1.678   4.593   0.137 -1.0713  1.6689 -0.1417
 5949SOL     OW29479   0.397   1.808  14.836  0.5643  0.3167  0.4012
 5949SOL    HW129480   0.492   1.810  14.850  0.6009 -0.0447  0.1956
 5949SOL    HW229481   0.394   1.891  14.788 -1.7381  0.1653  0.2873
 5950SOL     OW29482   2.961   4.449   9.117  0.5414  0.4840 -0.0221
 5950SOL    HW129483   3.021   4.380   9.088  0.2362 -0.4971  1.6440
 5950SOL    HW229484   2.933   4.475   9.029  0.9012  1.4588  0.1520
 5951SOL     OW29485   4.365   3.701   9.327  0.0200  0.1039  0.1516
 5951SOL    HW129486   4.346   3.623   9.379  0.7838  0.1243  0.4632
 5951SOL    HW229487   4.363   3.662   9.240  0.4947 -0.6822  0.4901
 5952SOL     OW29488   4.260   4.528   7.862 -0.7926  0.6523 -0.0999
 5952SOL    HW129489   4.290   4.527   7.953 -1.8501  1.8253  0.2560
 5952SOL    HW229490   4.186   4.466   7.868 -1.6544  1.7484  0.4896
 5953SOL     OW29491   0.048   2.242   2.355 -0.1783  0.5129 -0.2831
 5953SOL    HW129492   0.057   2.165   2.411 -1.6120  0.5805  0.0263
 5953SOL    HW229493   0.114   2.223   2.288 -0.0997 -1.1961  0.2755
 5954SOL     OW29494   3.321   0.625   8.505  0.8783 -0.1368 -0.2512
 5954SOL    HW129495   3.324   0.532   8.483  2.4306 -0.1348 -0.0406
 5954SOL    HW229496   3.362   0.663   8.427  1.6418  0.1337  0.2860
 5955SOL     OW29497   4.290   3.532  13.101 -0.0184  0.4616  0.2931
 5955SOL    HW129498   4.341   3.455  13.127  1.1117  0.9077 -0.5719
 5955SOL    HW229499   4.330   3.540  13.015 -0.1227 -2.0283  0.0144
 5956SOL     OW29500   2.788   0.116  15.075  0.0058  0.4155  0.2659
 5956SOL    HW129501   2.789   0.106  15.171 -2.2859  3.8508  0.6269
 5956SOL    HW229502   2.878   0.088  15.055 -0.2629 -0.4232  0.2367
 5957SOL     OW29503   4.600   0.602   5.874  0.8448 -0.1324  0.0004
 5957SOL    HW129504   4.547   0.672   5.911  1.2830  1.7355 -2.9338
 5957SOL    HW229505   4.529   0.538   5.864  1.1985 -0.0596 -3.0657
 5958SOL     OW29506   2.262   1.975   8.986  0.3702 -0.0377 -0.6494
 5958SOL    HW129507   2.246   1.971   9.080  0.2773 -1.8473 -0.7276
 5958SOL    HW229508   2.336   2.034   8.976  0.8921 -0.6412 -0.3856
 5959SOL     OW29509   0.270   2.990   7.308  0.3711  0.3102  0.0266
 5959SOL    HW129510   0.238   2.927   7.243 -1.0796 -0.2294  1.2574
 5959SOL    HW229511   0.364   2.975   7.300  0.3208 -0.5467  0.9800
 5960SOL     OW29512   1.851   0.974  13.199 -0.6598 -0.3551 -0.8663
 5960SOL    HW129513   1.909   1.047  13.220  1.0006 -0.7185 -4.2701
 5960SOL    HW229514   1.817   0.988  13.111 -2.4023  1.5967  0.1049
 5961SOL     OW29515   4.105   2.201  12.238  0.1295 -0.2282 -0.5628
 5961SOL    HW129516   4.023   2.243  12.211  0.2077  0.7698  0.7713
 5961SOL    HW229517   4.097   2.124  12.181  0.8665 -2.4607  2.3103
 5962SOL     OW29518   4.245   1.708   4.123  0.2710  0.0889  0.3562
 5962SOL    HW129519   4.278   1.645   4.187  0.6264  1.3348  1.4113
 5962SOL    HW229520   4.216   1.774   4.186 -0.3192  1.3649 -1.2519
 5963SOL     OW29521   3.354   4.142   4.961  0.4343 -0.3565 -0.2660
 5963SOL    HW129522   3.449   4.135   4.963  0.3333 -1.2805  1.7626
 5963SOL    HW229523   3.334   4.048   4.967 -3.1338  0.3638 -0.4265
 5964SOL     OW29524   1.524   4.712   6.762 -0.3863 -0.0018 -0.0535
 5964SOL    HW129525   1.541   4.633   6.813  0.4706 -0.4554 -1.0354
 5964SOL    HW229526   1.602   0.025   6.775  0.0882 -0.5858 -0.4892
 5965SOL     OW29527   2.521   1.279   5.795  0.6550  0.0107 -0.2282
 5965SOL    HW129528   2.437   1.272   5.749  2.0641  0.9652 -2.9492
 5965SOL    HW229529   2.516   1.372   5.771 -0.5253  0.2419  0.9326
 5966SOL     OW29530   3.781   2.423   1.668  0.0819  0.1826 -0.0587
 5966SOL    HW129531   3.718   2.356   1.694 -0.8760  0.1568 -2.4105
 5966SOL    HW229532   3.867   2.391   1.696 -0.2560 -0.3763  0.3488
 5967SOL     OW29533   0.626   1.220   4.956  0.0683 -0.4389 -0.2425
 5967SOL    HW129534   0.548   1.168   4.936  0.8990 -1.3797 -1.0408
 5967SOL    HW229535   0.673   1.171   5.023 -1.3022  1.8840  2.3838
 5968SOL     OW29536   1.964   3.550   4.321 -0.6058  0.6970  0.4681
 5968SOL    HW129537   2.050   3.525   4.354  0.1474  0.9626 -1.2898
 5968SOL    HW229538   1.930   3.462   4.302  0.2154  0.7758 -1.4565
 5969SOL     OW29539   0.091   3.633   2.283  0.0832  0.2400  0.1123
 5969SOL    HW129540   0.121   3.709   2.234 -2.5357  1.1455 -0.0667
 5969SOL    HW229541   0.173   3.611   2.327  0.5435  3.1313  0.6965
 5970SOL     OW29542   2.730   0.039   1.949 -0.0229 -0.3147  0.5239
 5970SOL    HW129543   2.682   4.728   1.885  0.3723  0.8024 -0.6707
 5970SOL    HW229544   2.672   0.113   1.966 -1.3228 -1.3788  0.6333
 5971SOL     OW29545   3.020   3.792   0.797  0.0136  0.2189 -0.1688
 5971SOL    HW129546   3.060   3.742   0.868  1.3250  1.0413 -0.3243
 5971SOL    HW229547   3.036   3.739   0.719 -0.4741  0.3102 -0.3317
 5972SOL     OW29548   3.588   2.402   4.514  0.5957  0.5386 -0.6882
 5972SOL    HW129549   3.607   2.495   4.498  0.2272  0.7359  0.0132
 5972SOL    HW229550   3.633   2.385   4.597  0.4283  0.6605 -0.5712
 5973SOL     OW29551   1.279   2.976   4.954 -0.1997 -0.2117 -0.0309
 5973SOL    HW129552   1.222   2.956   5.028 -0.8505 -3.8183 -1.5143
 5973SOL    HW229553   1.236   2.916   4.892  0.8113  1.2728 -2.1691
 5974SOL     OW29554   0.845   0.451  14.297 -0.0844 -0.0727 -0.1095
 5974SOL    HW129555   0.906   0.380  14.318 -0.1096 -0.1002 -0.1296
 5974SOL    HW229556   0.796   0.424  14.220 -0.2909  1.0725 -0.3888
 5975SOL     OW29557   3.216   0.333  11.097 -0.2104  0.2182  0.1896
 5975SOL    HW129558   3.236   0.353  11.188  0.2140  1.1190 -0.0942
 5975SOL    HW229559   3.305   0.332  11.061  0.0776  0.1802  0.9003
 5976SOL     OW29560   4.237   2.907  17.175 -0.0725 -0.4502 -0.4358
 5976SOL    HW129561   4.241   2.986  17.228 -2.9422  1.1732 -2.6548
 5976SOL    HW229562   4.183   2.852  17.231  0.6207 -1.0543 -0.3653
 5977SOL     OW29563   4.243   0.637  11.323 -0.7661 -0.5586 -0.0137
 5977SOL    HW129564   4.221   0.594  11.405 -0.7244 -0.1942  0.1869
 5977SOL    HW229565   4.155   0.647  11.285  0.0868  0.3931 -1.7406
 5978SOL     OW29566   2.621   4.165   3.916 -0.5521  0.6931  0.0891
 5978SOL    HW129567   2.549   4.210   3.961 -1.3710 -0.4307 -0.0995
 5978SOL    HW229568   2.578   4.091   3.873 -1.1407  0.4568  1.0869
 5979SOL     OW29569   2.493   1.344   8.363 -0.0534 -0.4233 -0.3658
 5979SOL    HW129570   2.472   1.251   8.359 -0.0058 -0.2884 -3.4346
 5979SOL    HW229571   2.535   1.362   8.448  0.3881  3.4167 -1.4169
 5980SOL     OW29572   1.020   0.742   2.415  0.2709 -0.2393  0.0260
 5980SOL    HW129573   1.010   0.837   2.409  2.1943  0.1212  2.6917
 5980SOL    HW229574   1.015   0.717   2.322  0.2131  2.0182 -0.5867
 5981SOL     OW29575   2.773   4.480   7.302 -0.3069  0.1035  0.0939
 5981SOL    HW129576   2.738   4.471   7.214 -0.3235 -1.0722  0.2215
 5981SOL    HW229577   2.862   4.453   7.278 -0.0990  1.3141 -0.5171
 5982SOL     OW29578   3.759   1.657   6.090 -1.0203  0.0966  0.2655
 5982SOL    HW129579   3.789   1.584   6.145  0.0696  0.0432 -0.3916
 5982SOL    HW229580   3.821   1.730   6.094 -0.0483 -0.7657  1.1527
 5983SOL     OW29581   3.756   2.119   6.641  0.4009 -0.0406  0.1181
 5983SOL    HW129582   3.700   2.194   6.620  1.0053 -0.0053 -1.3321
 5983SOL    HW229583   3.780   2.146   6.730 -0.9669  1.0429  0.1606
 5984SOL     OW29584   1.828   3.278   6.630 -0.2039 -0.4499  0.3569
 5984SOL    HW129585   1.848   3.212   6.696  1.3098 -0.3713 -0.0160
 5984SOL    HW229586   1.893   3.346   6.648 -1.4494  0.6159  0.8775
 5985SOL     OW29587   0.931   2.012   7.570  0.3456  0.5903  0.0291
 5985SOL    HW129588   1.000   1.958   7.530 -1.0021 -0.4454 -0.8958
 5985SOL    HW229589   0.880   1.953   7.625 -1.6806  3.3782  1.1270
 5986SOL     OW29590   1.562   4.178   5.703  0.3527 -0.4257  0.4307
 5986SOL    HW129591   1.513   4.218   5.776  0.2336 -1.0198  0.6764
 5986SOL    HW229592   1.537   4.086   5.709  2.3538 -1.0936 -1.6628
 5987SOL     OW29593   2.417   3.745   5.030  0.1789 -0.2854 -0.0185
 5987SOL    HW129594   2.378   3.789   4.955  1.2604 -0.3667 -0.6250
 5987SOL    HW229595   2.390   3.656   5.005  0.3142 -0.2480 -0.2880
 5988SOL     OW29596   2.059   1.506   3.349  0.6199  0.0544  0.3555
 5988SOL    HW129597   2.133   1.523   3.291  0.4150 -0.9175 -0.1858
 5988SOL    HW229598   2.076   1.562   3.425  0.2863 -1.2762  1.4301
 5989SOL     OW29599   0.413   3.730   8.846 -0.9040  0.1201 -0.3995
 5989SOL    HW129600   0.426   3.644   8.806  0.2131 -0.0891  0.3984
 5989SOL    HW229601   0.358   3.771   8.780 -0.2332 -2.3707 -2.5113
 5990SOL     OW29602   1.677   1.294   5.765  0.1009  0.1884 -0.3504
 5990SOL    HW129603   1.678   1.387   5.788  1.4759  0.0023  0.3788
 5990SOL    HW229604   1.677   1.308   5.671 -0.8004  0.4688 -0.3041
 5991SOL     OW29605   2.509   1.811  16.326 -0.3100 -0.2664 -0.2332
 5991SOL    HW129606   2.437   1.749  16.332  0.1238 -0.6423  1.2216
 5991SOL    HW229607   2.528   1.827  16.419 -1.1984 -2.3799  0.3104
 5992SOL     OW29608   3.499   0.180  15.837 -0.4997 -0.3769  0.6345
 5992SOL    HW129609   3.435   0.134  15.892 -0.0106 -1.6097  0.1909
 5992SOL    HW229610   3.486   0.273  15.855 -1.1732  0.4055 -3.9585
 5993SOL     OW29611   2.241   0.806   3.871  0.2244 -0.0841  0.5662
 5993SOL    HW129612   2.245   0.826   3.964 -1.0884 -1.9628  1.0128
 5993SOL    HW229613   2.149   0.833   3.865  0.5480  1.0625  0.8343
 5994SOL     OW29614   3.902   2.899   3.074  0.2033 -0.0023 -0.5176
 5994SOL    HW129615   3.871   2.924   2.987  0.0037  0.3799 -0.3380
 5994SOL    HW229616   3.985   2.857   3.050  0.7941  0.3527  0.9063
 5995SOL     OW29617   4.737   1.913   8.303  0.1308  1.1206  0.0070
 5995SOL    HW129618   4.700   1.966   8.373 -0.9598  0.4787 -0.0812
 5995SOL    HW229619   4.652   1.878   8.274 -0.2649 -0.7467  3.3542
 5996SOL     OW29620   1.542   0.459   5.036 -0.1016 -0.7474 -0.0277
 5996SOL    HW129621   1.630   0.426   5.052 -0.1224 -1.4110 -1.2746
 5996SOL    HW229622   1.544   0.541   5.086 -0.0942 -1.0467  0.4700
 5997SOL     OW29623   4.557   2.507   8.451 -0.3542 -0.0472 -0.6739
 5997SOL    HW129624   4.540   2.601   8.465 -1.1873 -0.2396 -0.3626
 5997SOL    HW229625   4.612   2.513   8.373 -0.0536  1.1061 -0.3793
 5998SOL     OW29626   1.936   3.871   1.386  0.4643  0.2573 -0.0853
 5998SOL    HW129627   1.973   3.878   1.298  0.7307 -0.3639 -0.0272
 5998SOL    HW229628   2.016   3.849   1.435  2.5237 -0.5274 -3.7933
 5999SOL     OW29629   0.075   2.005   4.613 -0.5176  0.2343 -0.3603
 5999SOL    HW129630   0.001   1.971   4.562 -0.5116 -0.3382  0.0110
 5999SOL    HW229631   0.034   2.088   4.634  0.4575  0.8126 -0.7457
 6000SOL     OW29632   2.766   2.598   4.349 -0.1440  0.1405  0.0935
 6000SOL    HW129633   2.832   2.532   4.369 -0.4890 -0.4979 -0.8712
 6000SOL    HW229634   2.806   2.653   4.283  0.9785 -0.6439  0.1248
 6001SOL     OW29635   4.036   3.749   4.381  0.0884 -0.1652 -0.5316
 6001SOL    HW129636   4.023   3.756   4.475  1.9982  1.8511 -0.4133
 6001SOL    HW229637   3.990   3.665   4.370  1.0101 -0.4389 -2.3655
 6002SOL     OW29638   4.313   0.329   9.196 -0.4634 -0.5565  0.0840
 6002SOL    HW129639   4.311   0.321   9.292 -0.0858 -1.5036  0.0168
 6002SOL    HW229640   4.329   0.422   9.182  0.2931 -1.0242 -2.1247
 6003SOL     OW29641   2.557   1.773   9.346  0.1702 -0.5758  0.4428
 6003SOL    HW129642   2.529   1.691   9.388  2.9471 -1.5785  0.3777
 6003SOL    HW229643   2.522   1.756   9.258 -1.8145  0.6183  0.9989
 6004SOL     OW29644   2.045   4.095   5.551 -0.7622 -0.0926 -0.2072
 6004SOL    HW129645   1.960   4.139   5.546 -0.9622 -0.1771  2.1582
 6004SOL    HW229646   2.007   4.009   5.569  3.0986 -1.2602  2.2376
 6005SOL     OW29647   0.408   3.209  16.081  0.1812 -0.4349  0.1231
 6005SOL    HW129648   0.380   3.243  16.166  3.0515  1.2360  0.4420
 6005SOL    HW229649   0.365   3.268  16.018 -0.5784 -1.3578 -0.2122
 6006SOL     OW29650   3.408   0.333   4.240  0.2151  0.4512 -0.1742
 6006SOL    HW129651   3.417   0.400   4.171  1.3481  1.8014  1.2755
 6006SOL    HW229652   3.353   0.377   4.305  1.6559  0.3933  1.0864
 6007SOL     OW29653   4.608   1.046   0.615 -0.3041 -0.0746  0.5614
 6007SOL    HW129654   4.682   1.045   0.675  0.0441  1.0316  0.1507
 6007SOL    HW229655   4.628   0.961   0.575 -0.7604 -0.6098  1.4821
 6008SOL     OW29656   1.829   0.083   5.334 -0.0345  0.4895 -0.2596
 6008SOL    HW129657   1.862   4.737   5.310  0.3436  0.1641  1.4291
 6008SOL    HW229658   1.735   0.069   5.349  0.1634  0.6663  1.0890
 6009SOL     OW29659   4.023   2.395   7.945  0.3659 -0.1233 -0.3313
 6009SOL    HW129660   3.975   2.312   7.949 -1.8228  1.0458 -1.9611
 6009SOL    HW229661   4.047   2.425   8.032 -1.1695 -1.4064  0.5220
 6010SOL     OW29662   2.612   3.844  14.083 -0.3512  0.0782  0.0647
 6010SOL    HW129663   2.529   3.885  14.059  0.9865  1.1533 -2.6884
 6010SOL    HW229664   2.624   3.886  14.168  0.1277 -0.8046  0.4416
 6011SOL     OW29665   0.075   0.796   1.687  0.2812 -0.7432  0.3035
 6011SOL    HW129666   0.014   0.737   1.730 -1.4589  1.2357  0.5123
 6011SOL    HW229667   0.027   0.804   1.605  0.6335  0.6602  0.2344
 6012SOL     OW29668   1.346   4.004   9.741  0.1146  0.7046  0.6238
 6012SOL    HW129669   1.434   4.032   9.717  1.0938 -1.6996  1.4042
 6012SOL    HW229670   1.365   3.954   9.821  0.9449  0.6666  0.3983
 6013SOL     OW29671   0.630   0.052   8.721  0.1244  0.0730 -0.1960
 6013SOL    HW129672   0.722   0.030   8.735  0.0327 -0.7510 -0.9679
 6013SOL    HW229673   0.630   0.071   8.627 -0.4390 -2.6079 -0.7180
 6014SOL     OW29674   2.524   1.433   9.182  0.8481  0.1540  0.0102
 6014SOL    HW129675   2.599   1.395   9.136  0.9307  1.5330 -1.0007
 6014SOL    HW229676   2.455   1.370   9.158  1.0233 -1.3485  3.4800
 6015SOL     OW29677   1.404   0.332  11.813 -0.0679 -0.2590  0.3969
 6015SOL    HW129678   1.459   0.258  11.837 -0.1703 -0.1275  1.0312
 6015SOL    HW229679   1.457   0.367  11.741 -0.7045  0.0226  0.0599
 6016SOL     OW29680   2.520   1.179   6.544 -0.2671  0.4783 -0.3934
 6016SOL    HW129681   2.511   1.085   6.527 -0.6438  0.4765 -0.1804
 6016SOL    HW229682   2.487   1.180   6.634 -0.7705 -0.9691 -0.5655
 6017SOL     OW29683   0.812   4.234   6.323  0.5064  0.1209 -0.2636
 6017SOL    HW129684   0.790   4.145   6.351  2.4670  0.7235  3.1860
 6017SOL    HW229685   0.902   4.211   6.300  0.4056 -1.9108  1.4261
 6018SOL     OW29686   1.806   2.199   8.212  0.3501  0.2409 -0.1270
 6018SOL    HW129687   1.896   2.229   8.226 -0.3163  1.9380  0.6233
 6018SOL    HW229688   1.773   2.268   8.154  1.5303  0.4775 -0.5151
 6019SOL     OW29689   1.972   3.493   9.623 -0.3501 -0.0664  0.4780
 6019SOL    HW129690   2.018   3.574   9.643 -1.0280  0.1162  1.2738
 6019SOL    HW229691   1.923   3.509   9.542 -3.2408 -1.9663  1.8681
 6020SOL     OW29692   2.977   3.373   7.747  0.7831 -0.6502  0.3389
 6020SOL    HW129693   2.985   3.416   7.833  1.4838 -0.6031  0.2486
 6020SOL    HW229694   3.009   3.287   7.773 -2.0956 -2.3339 -1.7746
 6021SOL     OW29695   3.700   1.426   3.905 -0.2128 -0.0699 -0.3255
 6021SOL    HW129696   3.779   1.372   3.899  0.8009  1.2138  1.7299
 6021SOL    HW229697   3.705   1.461   3.994  1.1890 -3.3439  0.8552
 6022SOL     OW29698   0.460   0.076   5.957  0.7631 -0.3218 -0.0535
 6022SOL    HW129699   0.478   0.026   6.037  0.4819 -0.5660 -0.1456
 6022SOL    HW229700   0.519   0.152   5.962  1.1689 -0.6353 -0.1121
 6023SOL     OW29701   3.638   2.662   1.907  0.0453 -0.9001 -0.5692
 6023SOL    HW129702   3.665   2.705   1.826  1.2462 -1.0966 -0.2772
 6023SOL    HW229703   3.719   2.655   1.959 -1.7825  0.0514  2.4048
 6024SOL     OW29704   2.416   4.119   1.407  0.1884 -0.5510  0.0121
 6024SOL    HW129705   2.500   4.086   1.376  0.5344  1.4760 -1.1738
 6024SOL    HW229706   2.376   4.037   1.436 -0.8914  0.2618  0.8266
 6025SOL     OW29707   1.259   1.909   1.954  0.3077 -0.3655 -0.6640
 6025SOL    HW129708   1.251   1.936   2.045 -0.5069 -2.2737 -0.1791
 6025SOL    HW229709   1.214   1.983   1.913 -0.5824 -1.8550 -2.3984
 6026SOL     OW29710   0.197   2.524   7.248  0.3897  0.2430 -0.3433
 6026SOL    HW129711   0.129   2.540   7.313  1.4735  0.2869  0.7866
 6026SOL    HW229712   0.150   2.542   7.167  1.2584 -1.3123 -1.1984
 6027SOL     OW29713   3.551   0.971   6.985  0.3385 -0.3531  0.0109
 6027SOL    HW129714   3.523   1.045   7.039  2.8462 -1.2450  2.5321
 6027SOL    HW229715   3.481   0.974   6.920  1.3499  0.7882 -1.0175
 6028SOL     OW29716   2.125   2.502   9.534 -0.0403 -0.0410  0.5007
 6028SOL    HW129717   2.038   2.479   9.568  0.7406 -2.9534  0.5346
 6028SOL    HW229718   2.114   2.595   9.513  0.3659  0.2013  1.3329
 6029SOL     OW29719   1.580   1.212   3.472 -0.3257 -0.5528  0.1207
 6029SOL    HW129720   1.674   1.194   3.475 -0.6787 -1.9732  2.5093
 6029SOL    HW229721   1.587   1.264   3.552 -1.5186  1.5206 -1.1166
 6030SOL     OW29722   2.778   0.674   3.289  0.1833 -0.2103 -0.3313
 6030SOL    HW129723   2.859   0.711   3.322 -0.7773  1.2359  0.4161
 6030SOL    HW229724   2.800   0.583   3.267 -0.3194 -0.2783 -0.5589
 6031SOL     OW29725   1.250   3.913   9.038  0.0252 -0.3784  0.0931
 6031SOL    HW129726   1.244   3.971   9.114  1.6258  1.8442 -1.4762
 6031SOL    HW229727   1.328   3.939   8.990 -1.3099  0.4469 -1.6409
 6032SOL     OW29728   1.386   0.482   1.966  0.1112  0.3348  0.0389
 6032SOL    HW129729   1.429   0.511   1.885  1.2747  0.9533  0.8690
 6032SOL    HW229730   1.432   0.403   1.995  0.2617 -0.1522 -1.5178
 6033SOL     OW29731   2.412   0.042  14.556 -0.7298 -0.2720 -0.2613
 6033SOL    HW129732   2.454   0.121  14.523 -2.6622  1.3194  1.0675
 6033SOL    HW229733   2.464   4.707  14.529 -0.7449  0.2736 -1.8109
 6034SOL     OW29734   4.280   0.953   6.853 -0.5183  0.3413  0.1635
 6034SOL    HW129735   4.264   1.025   6.915 -0.4395 -0.3999  1.0367
 6034SOL    HW229736   4.302   0.877   6.906 -0.8377  0.9063  1.1189
 6035SOL     OW29737   3.737   0.919   9.975  0.2410  0.1841  0.7168
 6035SOL    HW129738   3.832   0.912   9.984  0.3896 -0.9203 -1.7317
 6035SOL    HW229739   3.701   0.932  10.063 -0.6288 -1.1665  0.5528
 6036SOL     OW29740   2.159   3.773  11.685  0.3625 -0.1085  0.5566
 6036SOL    HW129741   2.239   3.733  11.652 -1.4819 -1.8011 -1.8283
 6036SOL    HW229742   2.175   3.865  11.662  0.6799 -1.2266 -3.7257
 6037SOL     OW29743   1.023   2.518  14.841  0.1521 -0.0238 -0.7353
 6037SOL    HW129744   0.988   2.442  14.888 -2.1625  0.6978 -1.2698
 6037SOL    HW229745   0.941   2.560  14.815  0.4253 -0.6415 -2.5744
 6038SOL     OW29746   0.726   4.557   3.874 -0.0594 -0.2379  0.4226
 6038SOL    HW129747   0.680   4.536   3.955  1.7423 -0.4932  1.3711
 6038SOL    HW229748   0.659   4.547   3.806  1.6643 -0.8517 -1.2167
 6039SOL     OW29749   4.021   1.665  14.491 -0.2051  0.1995  0.6665
 6039SOL    HW129750   3.999   1.683  14.582 -0.4750 -1.8504  1.0154
 6039SOL    HW229751   4.064   1.580  14.506  0.2474  0.3983  0.5135
 6040SOL     OW29752   2.049   3.240   1.595  0.5609  0.1269 -0.0679
 6040SOL    HW129753   2.035   3.329   1.562 -0.8381  0.7976  2.3851
 6040SOL    HW229754   2.083   3.207   1.511  1.2627  0.6470  0.0132
 6041SOL     OW29755   4.451   1.438   1.711  0.5837  0.0218  0.1994
 6041SOL    HW129756   4.532   1.390   1.695  0.4443  0.3293 -1.4884
 6041SOL    HW229757   4.484   1.527   1.705  1.5142 -0.3209  0.2097
 6042SOL     OW29758   3.249   3.610   3.844 -0.1542 -0.2272 -0.4839
 6042SOL    HW129759   3.171   3.561   3.820 -1.2140  1.5552 -0.7045
 6042SOL    HW229760   3.216   3.697   3.866 -1.4049 -1.5969  2.9975
 6043SOL     OW29761   2.771   0.597  14.296  0.6586 -0.1509  0.3306
 6043SOL    HW129762   2.710   0.610  14.369  1.6064  0.8261  0.9529
 6043SOL    HW229763   2.852   0.572  14.340  0.9206  0.6602  0.2988
 6044SOL     OW29764   3.238   3.750  16.992 -0.4574 -0.2477  0.1036
 6044SOL    HW129765   3.194   3.689  16.933 -2.0563 -1.5893  2.6977
 6044SOL    HW229766   3.321   3.761  16.946 -0.0199 -1.4429  0.6310
 6045SOL     OW29767   3.139   0.760   4.361 -0.2764  0.0752 -0.0599
 6045SOL    HW129768   3.107   0.761   4.271  0.5758  0.7044 -0.3593
 6045SOL    HW229769   3.222   0.715   4.345 -0.6766 -1.0273  0.9677
 6046SOL     OW29770   1.010   0.391  12.271  0.7841 -0.8654 -0.4564
 6046SOL    HW129771   0.984   0.299  12.276  1.8916 -1.0900  1.1688
 6046SOL    HW229772   1.082   0.394  12.207  1.1651  0.2739  0.0116
 6047SOL     OW29773   3.379   0.375  16.487  0.0094  0.6970 -0.2247
 6047SOL    HW129774   3.433   0.377  16.408  1.1534  0.2849  0.5438
 6047SOL    HW229775   3.444   0.391  16.556 -0.0550 -1.0518  0.2313
 6048SOL     OW29776   1.648   4.118   2.748 -0.8949  0.0538 -0.3579
 6048SOL    HW129777   1.606   4.054   2.805 -1.1850 -0.3267 -0.9944
 6048SOL    HW229778   1.606   4.087   2.668  1.4066  0.6788 -1.8237
 6049SOL     OW29779   3.073   0.865   8.471  0.4912  0.5025 -0.0218
 6049SOL    HW129780   3.053   0.782   8.426  0.0737  0.7727 -0.3374
 6049SOL    HW229781   3.104   0.837   8.557  0.3283 -1.9000 -0.7346
 6050SOL     OW29782   2.265   3.518   8.100 -0.1901  0.2104 -0.4225
 6050SOL    HW129783   2.300   3.552   8.018  1.2797  0.2468  0.2298
 6050SOL    HW229784   2.248   3.594   8.155  1.3879 -0.0457  0.4026
 6051SOL     OW29785   4.501   2.362   2.199  0.1479  0.3835 -0.5557
 6051SOL    HW129786   4.578   2.376   2.254  0.5335  2.8324 -1.7213
 6051SOL    HW229787   4.480   2.271   2.217  1.7197  0.0740 -0.3105
 6052SOL     OW29788   2.028   3.814  14.595  0.0235  0.1795 -0.2126
 6052SOL    HW129789   1.972   3.758  14.648 -0.5349 -0.3050 -1.3031
 6052SOL    HW229790   2.007   3.902  14.627 -1.6712 -1.1265  2.2265
 6053SOL     OW29791   0.574   0.791  17.565 -0.4621  0.3817 -0.0297
 6053SOL    HW129792   0.574   0.704  17.525  0.9446  0.7712 -0.8825
 6053SOL    HW229793   0.593   0.835  17.482 -0.0652  0.5196  0.1381
 6054SOL     OW29794   0.972   3.041   9.393 -0.2053  0.2472 -0.8616
 6054SOL    HW129795   1.023   3.088   9.459  0.5817 -1.9183  0.0807
 6054SOL    HW229796   0.919   3.106   9.347  0.2772  1.1466 -0.1437
 6055SOL     OW29797   1.701   1.538   8.169 -0.1060 -0.1758 -0.6250
 6055SOL    HW129798   1.675   1.561   8.079 -2.4394  1.2661  0.4055
 6055SOL    HW229799   1.796   1.542   8.166 -0.1664  0.9838 -1.2891
 6056SOL     OW29800   1.181   0.361  12.049  0.7817 -0.2338 -0.1933
 6056SOL    HW129801   1.213   0.313  11.973  1.4807 -0.9641  0.5658
 6056SOL    HW229802   1.208   0.451  12.028 -0.5538  0.5666  1.5251
 6057SOL     OW29803   4.477   2.688   3.526  0.0971  0.5268 -0.0221
 6057SOL    HW129804   4.507   2.597   3.528  0.0379  0.5074 -0.0280
 6057SOL    HW229805   4.400   2.689   3.584  1.2231  0.6049  1.4890
 6058SOL     OW29806   2.695   2.115  16.429  0.1903 -0.3540  0.3454
 6058SOL    HW129807   2.650   2.038  16.393  0.5862 -0.3423 -0.1806
 6058SOL    HW229808   2.716   2.150  16.342 -0.2775  0.5616  0.6077
 6059SOL     OW29809   4.220   0.930   0.148 -0.6468 -0.2311 -0.1799
 6059SOL    HW129810   4.256   0.859   0.096 -0.1989 -0.4696  0.4528
 6059SOL    HW229811   4.209   0.988   0.072  0.4136 -0.0531 -0.1951
 6060SOL     OW29812   1.031   3.878   9.300  0.2233 -0.1904 -0.0301
 6060SOL    HW129813   0.987   3.961   9.317  0.5379  0.1279 -0.7803
 6060SOL    HW229814   1.113   3.881   9.350 -1.1978  1.7015  2.1508
 6061SOL     OW29815   0.139   2.479  13.211 -0.5871  0.2027  0.0713
 6061SOL    HW129816   0.051   2.476  13.247  0.0780 -2.5192  1.4785
 6061SOL    HW229817   0.131   2.429  13.129 -1.2965  0.5671 -0.0825
 6062SOL     OW29818   2.952   4.508  17.308  0.1904  0.5336  0.0780
 6062SOL    HW129819   2.959   4.562  17.230 -2.4938  2.5990  1.2927
 6062SOL    HW229820   2.944   4.571  17.379 -1.0924 -1.5466  1.7809
 6063SOL     OW29821   2.469   4.109   0.254 -0.7910  0.3610 -0.0596
 6063SOL    HW129822   2.463   4.015   0.271 -2.6511  0.5735  0.5380
 6063SOL    HW229823   2.439   4.114   0.163  0.3191  2.4464 -0.2969
 6064SOL     OW29824   0.370   1.169  17.169 -0.8868 -0.1132 -0.0497
 6064SOL    HW129825   0.363   1.143  17.077  0.9239  0.1605 -0.2615
 6064SOL    HW229826   0.310   1.244  17.169  0.2491  0.7938  1.2778
 6065SOL     OW29827   3.179   4.074  17.081 -0.6228  0.0623  0.1787
 6065SOL    HW129828   3.121   4.019  17.028 -0.9299  0.7776 -0.2235
 6065SOL    HW229829   3.130   4.156  17.085 -1.3690 -0.4014  0.4268
 6066SOL     OW29830   0.463   0.437   6.142  0.4901  0.4640  0.1848
 6066SOL    HW129831   0.537   0.386   6.174  0.9197  0.0019 -1.5266
 6066SOL    HW229832   0.514   0.493   6.083  1.2454  0.9026  1.2662
 6067SOL     OW29833   0.458   4.568  17.631 -0.0963  0.3555 -0.4015
 6067SOL    HW129834   0.552   4.581  17.645  0.0011 -1.6653  0.8306
 6067SOL    HW229835   0.455   4.595  17.539  1.4368 -1.2970 -0.9465
 6068SOL     OW29836   2.199   4.157   5.799  0.5404 -0.6451  0.0154
 6068SOL    HW129837   2.222   4.066   5.814 -0.7366 -1.0005 -0.1693
 6068SOL    HW229838   2.139   4.153   5.724 -0.0233 -0.3906  0.4455
 6069SOL     OW29839   3.150   1.975   5.037 -0.0946 -0.5027  0.2329
 6069SOL    HW129840   3.189   1.906   5.091  0.1979 -0.8945 -0.4836
 6069SOL    HW229841   3.105   2.034   5.098  0.5737  2.9723 -2.5986
 6070SOL     OW29842   0.071   2.676   8.761  0.1204 -0.3300 -0.1465
 6070SOL    HW129843   0.145   2.637   8.714  1.0026 -0.6973  1.5619
 6070SOL    HW229844   0.098   2.768   8.765  0.1878 -0.4105  1.1536
 6071SOL     OW29845   2.314   4.389   5.222 -0.2675  0.0950  0.5781
 6071SOL    HW129846   2.295   4.421   5.310  2.1785  0.4896  0.9632
 6071SOL    HW229847   2.387   4.328   5.231  1.8041  2.2726 -1.6397
 6072SOL     OW29848   2.760   0.396   3.213  0.2681 -0.1959  0.3183
 6072SOL    HW129849   2.706   0.436   3.145 -1.8401  1.8650  3.1740
 6072SOL    HW229850   2.785   0.313   3.172 -1.1646  0.1280 -1.2187
 6073SOL     OW29851   4.346   3.703  12.369 -0.0823 -0.0254  0.2764
 6073SOL    HW129852   4.419   3.648  12.396  1.2405  0.6679 -1.8982
 6073SOL    HW229853   4.270   3.649  12.391  0.5694 -2.2306 -2.8963
 6074SOL     OW29854   0.391   1.661   4.386 -0.3784 -0.1272 -0.3970
 6074SOL    HW129855   0.373   1.708   4.468  0.8758  1.3764 -0.9846
 6074SOL    HW229856   0.461   1.714   4.346  0.2586  0.8588  2.0157
 6075SOL     OW29857   1.877   4.144   6.273 -0.2597 -0.3517 -0.2818
 6075SOL    HW129858   1.931   4.201   6.218 -1.3054  0.4722 -0.4535
 6075SOL    HW229859   1.938   4.109   6.338 -0.1620  1.3509  0.5399
 6076SOL     OW29860   2.691   2.402   2.926  0.1863 -0.2776 -0.4521
 6076SOL    HW129861   2.731   2.404   2.839  1.7705 -1.0329  0.2630
 6076SOL    HW229862   2.633   2.327   2.913  1.0004 -0.9073 -0.3800
 6077SOL     OW29863   1.450   1.821   0.930  0.0608 -0.4150 -0.0903
 6077SOL    HW129864   1.436   1.795   0.839 -0.1725  4.0348 -1.3502
 6077SOL    HW229865   1.410   1.746   0.973 -2.0837  0.3079 -0.8596
 6078SOL     OW29866   1.348   0.578   9.176  0.0154  0.2328 -0.0981
 6078SOL    HW129867   1.337   0.673   9.170 -0.9525  0.0428 -1.3715
 6078SOL    HW229868   1.405   0.564   9.251  0.6703 -2.6573 -1.1227
 6079SOL     OW29869   3.539   2.007   3.480 -0.3603 -0.1118  0.0768
 6079SOL    HW129870   3.504   2.091   3.451 -1.3669 -0.3924  0.4914
 6079SOL    HW229871   3.467   1.949   3.453 -0.0517 -0.2838 -0.3895
 6080SOL     OW29872   3.651   0.526   8.857 -0.7222  0.1663 -0.0253
 6080SOL    HW129873   3.735   0.480   8.850 -1.2429 -0.6212 -1.2842
 6080SOL    HW229874   3.589   0.459   8.828 -0.0842 -0.3900 -0.0881
 6081SOL     OW29875   1.701   4.447   3.644 -0.5629  0.5057 -0.0050
 6081SOL    HW129876   1.678   4.464   3.552  0.9321 -0.8327 -0.6241
 6081SOL    HW229877   1.624   4.453   3.701  0.2698 -1.4924  1.3263
 6082SOL     OW29878   4.104   0.699   6.173  0.1409  0.3398  0.5889
 6082SOL    HW129879   4.192   0.663   6.179  0.4483  1.0402  0.2926
 6082SOL    HW229880   4.077   0.650   6.095  1.1482  0.4913  0.1479
 6083SOL     OW29881   0.438   4.304  13.913 -0.2705  0.1057  0.2477
 6083SOL    HW129882   0.486   4.241  13.967  2.4336  1.1468 -0.9449
 6083SOL    HW229883   0.515   4.355  13.889 -0.7823  1.5956  1.8073
 6084SOL     OW29884   4.524   0.953   5.405 -0.8505  0.1021 -0.4386
 6084SOL    HW129885   4.435   0.932   5.433 -0.7081 -1.6492 -1.2761
 6084SOL    HW229886   4.565   0.968   5.490 -1.8283  0.4207 -0.0266
 6085SOL     OW29887   0.654   0.417   2.444 -0.4599  0.6941 -0.0349
 6085SOL    HW129888   0.677   0.501   2.405  0.3301  2.2844  3.8460
 6085SOL    HW229889   0.666   0.351   2.376 -1.4880 -0.7849  1.2139
 6086SOL     OW29890   1.954   2.115   4.297 -0.0318 -0.5507 -0.2900
 6086SOL    HW129891   1.867   2.141   4.327  0.7380  0.1097  1.3933
 6086SOL    HW229892   2.000   2.198   4.312 -2.4424  0.8548 -0.7385
 6087SOL     OW29893   4.179   4.347  16.841 -0.7431 -0.0238 -1.2599
 6087SOL    HW129894   4.184   4.443  16.848 -1.5096 -0.2405  2.1910
 6087SOL    HW229895   4.253   4.339  16.781 -0.1371 -2.1637 -0.2129
 6088SOL     OW29896   3.999   3.063   1.944 -0.3859  0.2796  0.7905
 6088SOL    HW129897   3.908   3.081   1.967 -0.2157  2.4595 -0.3244
 6088SOL    HW229898   4.031   3.077   2.033 -1.7809 -0.2084  1.3680
 6089SOL     OW29899   3.354   2.325   7.867  0.1668 -0.0375 -0.0430
 6089SOL    HW129900   3.328   2.409   7.830  1.9276  1.5340  2.2578
 6089SOL    HW229901   3.396   2.353   7.949  0.7925  2.1617 -1.1040
 6090SOL     OW29902   3.012   1.099  13.744  0.3534 -0.1681  0.4104
 6090SOL    HW129903   2.969   1.102  13.658 -1.5983  0.0331  1.3886
 6090SOL    HW229904   2.949   1.057  13.803  1.9100 -1.9576  0.7784
 6091SOL     OW29905   0.123   2.758   6.813  0.1370 -0.4959 -0.0401
 6091SOL    HW129906   0.107   2.718   6.728 -1.7123  1.9239 -0.8230
 6091SOL    HW229907   0.130   2.678   6.866  1.2015 -1.5933 -1.8213
 6092SOL     OW29908   0.879   4.143   7.443 -0.4294 -0.4104  0.0193
 6092SOL    HW129909   0.833   4.090   7.508 -0.2012  0.3389  0.7901
 6092SOL    HW229910   0.869   4.088   7.365  0.1289  0.1746 -0.4606
 6093SOL     OW29911   2.043   0.633  10.623 -0.7643 -0.0990 -0.1638
 6093SOL    HW129912   2.123   0.630  10.675 -0.5719  0.9602 -0.3929
 6093SOL    HW229913   1.982   0.572  10.665 -1.8001  2.1787  1.6593
 6094SOL     OW29914   3.212   0.029  16.885  0.5137 -0.3747  0.2097
 6094SOL    HW129915   3.202   0.108  16.833 -0.9940 -0.6272  0.1275
 6094SOL    HW229916   3.231   0.058  16.974 -2.2966 -2.0253  1.3524
 6095SOL     OW29917   3.383   0.581  15.470 -0.1006 -0.5968  0.1686
 6095SOL    HW129918   3.422   0.665  15.443 -1.2421 -0.5380 -1.3230
 6095SOL    HW229919   3.328   0.564  15.393  0.8065 -0.7019 -0.4591
 6096SOL     OW29920   4.602   1.952   2.571 -0.1831  0.3904  0.1495
 6096SOL    HW129921   4.566   1.865   2.553 -1.0419  0.6454  0.6190
 6096SOL    HW229922   4.569   1.998   2.494  1.0474  3.8581  1.6985
 6097SOL     OW29923   3.891   4.406   3.284  0.4627  0.3257 -0.1556
 6097SOL    HW129924   3.825   4.411   3.354  0.9473  1.3602  0.2154
 6097SOL    HW229925   3.968   4.430   3.334  1.8436  0.8833 -2.5654
 6098SOL     OW29926   0.617   1.232  15.197  0.0070  0.6429  0.2284
 6098SOL    HW129927   0.587   1.162  15.139 -2.7682  1.2344  0.9850
 6098SOL    HW229928   0.536   1.258  15.240  0.1869  0.0499  0.9150
 6099SOL     OW29929   2.307   3.177   9.674 -0.3568  0.0993 -0.7152
 6099SOL    HW129930   2.333   3.103   9.729 -0.6136  0.9635  0.5808
 6099SOL    HW229931   2.239   3.234   9.710  1.8769  3.0465 -1.0805
 6100SOL     OW29932   3.035   0.265   6.879 -0.0711 -0.1724 -0.4818
 6100SOL    HW129933   3.117   0.307   6.853 -1.1941  1.4572 -1.3182
 6100SOL    HW229934   2.968   0.295   6.818 -0.5066 -1.0017 -0.4103
 6101SOL     OW29935   1.825   2.750  11.199 -0.3988  0.2198  0.0121
 6101SOL    HW129936   1.795   2.803  11.273  1.8907  2.1046 -0.4192
 6101SOL    HW229937   1.874   2.819  11.155  1.3849 -1.1213 -0.0850
 6102SOL     OW29938   1.189   2.185   8.014 -0.1887  0.2382 -0.9079
 6102SOL    HW129939   1.211   2.127   7.941  1.9154  0.8816 -0.7964
 6102SOL    HW229940   1.109   2.233   7.994  0.6277  1.7434 -0.5913
 6103SOL     OW29941   4.326   2.400   8.053 -0.4361 -0.1334  0.4273
 6103SOL    HW129942   4.262   2.361   8.114  0.3609  0.2207  1.4921
 6103SOL    HW229943   4.329   2.493   8.077  0.9544  0.5542 -2.4067
 6104SOL     OW29944   0.374   1.861  10.684  0.0950  0.0397 -0.1805
 6104SOL    HW129945   0.365   1.795  10.753  5.6218 -2.8414 -2.1490
 6104SOL    HW229946   0.345   1.942  10.725 -1.6652 -1.6329  1.8630
 6105SOL     OW29947   2.529   4.133   7.459  0.3434 -0.6329  0.3024
 6105SOL    HW129948   2.446   4.090   7.438 -0.1467 -0.5561  2.1112
 6105SOL    HW229949   2.591   4.080   7.409  2.4857  0.0377  2.2682
 6106SOL     OW29950   0.677   2.179   9.171 -0.0189  0.3785 -0.3306
 6106SOL    HW129951   0.671   2.151   9.079 -1.0450 -0.2421 -0.0835
 6106SOL    HW229952   0.678   2.094   9.214 -3.1612  0.4675 -0.0348
 6107SOL     OW29953   4.473   3.217   7.013 -0.3919 -0.1386  0.0320
 6107SOL    HW129954   4.469   3.164   7.092 -0.7629 -0.0124  0.1010
 6107SOL    HW229955   4.414   3.175   6.950  1.0412  1.2062 -2.2123
 6108SOL     OW29956   4.716   4.628   7.226 -0.3939 -0.7252 -0.0446
 6108SOL    HW129957   0.061   4.604   7.263 -0.1869  0.7276  0.3905
 6108SOL    HW229958   4.655   4.571   7.274 -1.9102  0.8392 -0.1258
 6109SOL     OW29959   1.925   4.018  11.565 -0.1085  0.2740  0.1310
 6109SOL    HW129960   1.950   3.944  11.509 -0.8304 -0.6274  0.9933
 6109SOL    HW229961   2.010   4.060  11.579  0.5073 -0.8131 -0.2967
 6110SOL     OW29962   3.207   4.379   6.863 -0.8135  0.3099  0.0873
 6110SOL    HW129963   3.128   4.328   6.846 -0.4161 -0.7131  1.3823
 6110SOL    HW229964   3.264   4.359   6.788 -0.2193  1.9260  0.0988
 6111SOL     OW29965   1.182   0.306  14.621 -0.2177 -0.2236  0.1740
 6111SOL    HW129966   1.092   0.337  14.630 -0.0721  0.4122 -0.6572
 6111SOL    HW229967   1.200   0.299  14.528  1.7273  0.6540  0.4902
 6112SOL     OW29968   0.928   0.786   6.427  0.1557  0.3794  0.4763
 6112SOL    HW129969   0.882   0.724   6.484 -1.3998  0.7485 -0.3815
 6112SOL    HW229970   0.852   0.839   6.400 -0.5423 -1.6491 -1.4624
 6113SOL     OW29971   0.688   1.866   3.688  0.3817  0.1273 -0.0762
 6113SOL    HW129972   0.638   1.877   3.769  2.2165  0.8965  0.9452
 6113SOL    HW229973   0.761   1.926   3.701 -0.9653  2.0168 -1.1573
 6114SOL     OW29974   2.749   3.822   3.641  0.0474 -0.9632  0.1586
 6114SOL    HW129975   2.799   3.742   3.652  1.2281 -0.6785 -3.1206
 6114SOL    HW229976   2.790   3.880   3.705 -1.6720  1.7408 -1.1464
 6115SOL     OW29977   0.204   0.907  13.981  0.4040 -0.1177 -0.2735
 6115SOL    HW129978   0.131   0.953  14.021  1.5137  0.2112  1.3696
 6115SOL    HW229979   0.151   0.853  13.922  0.0009  0.0385 -0.0463
 6116SOL     OW29980   1.748   0.991   6.085 -0.1536  0.0355  0.0015
 6116SOL    HW129981   1.700   1.061   6.130 -0.4532  0.0875 -0.4056
 6116SOL    HW229982   1.801   0.958   6.157  0.8111 -2.2035 -1.7587
 6117SOL     OW29983   4.380   1.727  16.057  0.0329  0.4220  0.2281
 6117SOL    HW129984   4.462   1.772  16.041 -0.0470  0.6132  0.3612
 6117SOL    HW229985   4.342   1.705  15.972 -3.3430 -0.6435  2.0001
 6118SOL     OW29986   4.018   2.511   4.624  0.3283 -0.3432 -0.2414
 6118SOL    HW129987   4.082   2.563   4.674  0.9683  0.2410 -1.6610
 6118SOL    HW229988   3.943   2.566   4.646  0.5777 -0.2813  0.4556
 6119SOL     OW29989   1.278   2.061   2.190  0.4525  0.2944  0.2046
 6119SOL    HW129990   1.250   2.129   2.127  0.4633 -0.4791 -0.6354
 6119SOL    HW229991   1.221   2.087   2.262  0.0657  1.4587 -0.5081
 6120SOL     OW29992   0.716   2.169   2.142  0.5272 -0.4043  0.0343
 6120SOL    HW129993   0.694   2.230   2.213  2.3348 -1.0269  1.1469
 6120SOL    HW229994   0.736   2.093   2.197 -2.2439 -1.2115 -0.0529
 6121SOL     OW29995   3.845   0.295   1.617 -0.1727  0.0456  0.1126
 6121SOL    HW129996   3.883   0.381   1.601 -1.9694  0.5981 -1.1913
 6121SOL    HW229997   3.755   0.321   1.633 -0.3276  0.5978 -1.6879
 6122SOL     OW29998   2.945   4.713   2.831  0.1790  0.1022 -0.4608
 6122SOL    HW129999   2.864   0.017   2.804 -0.1418  0.3529  0.9583
 6122SOL    HW230000   2.991   4.711   2.747 -2.7135 -0.0175 -2.0530
 6123SOL     OW30001   0.705   4.331   8.238 -0.2337  0.0244 -0.2670
 6123SOL    HW130002   0.795   4.300   8.246 -0.5099 -0.5395  0.7253
 6123SOL    HW230003   0.658   4.248   8.246  1.8349 -1.1745 -0.3905
 6124SOL     OW30004   1.309   4.718   3.668  0.1908 -0.6321  0.3754
 6124SOL    HW130005   1.321   0.069   3.692  0.5068 -1.3253  2.8108
 6124SOL    HW230006   1.372   4.714   3.596  1.2789 -1.3398  1.3706
 6125SOL     OW30007   2.281   3.875  15.288  0.5088 -0.0587  0.2366
 6125SOL    HW130008   2.351   3.916  15.237  0.5894 -0.5833 -0.0746
 6125SOL    HW230009   2.286   3.931  15.366 -1.4658 -0.3817  0.5846
 6126SOL     OW30010   3.929   1.257  12.468  0.3290 -0.3982  0.3974
 6126SOL    HW130011   3.941   1.351  12.480  0.0189 -0.4363  1.0163
 6126SOL    HW230012   4.022   1.252  12.449 -0.3007 -2.4945 -2.0581
 6127SOL     OW30013   3.059   2.953   7.334  0.1720 -0.6909 -0.3417
 6127SOL    HW130014   3.126   3.021   7.327 -1.1418  0.4024 -2.4628
 6127SOL    HW230015   3.106   2.871   7.349 -0.7957 -0.6967  2.5267
 6128SOL     OW30016   1.529   0.730  12.596 -0.1146  0.0186  0.7542
 6128SOL    HW130017   1.444   0.725  12.551  0.6629 -0.4674 -0.6529
 6128SOL    HW230018   1.513   0.809  12.648 -1.4922 -0.4682  1.0828
 6129SOL     OW30019   0.945   3.965   8.244  0.5186 -0.3317  0.4146
 6129SOL    HW130020   0.906   3.933   8.326 -0.4560 -0.7833 -0.2259
 6129SOL    HW230021   1.017   3.902   8.240 -0.3107 -1.2004 -0.6907
 6130SOL     OW30022   2.507   0.091  14.945  0.2075 -0.5074  0.4192
 6130SOL    HW130023   2.493   0.015  15.000 -0.1481 -0.4527  0.4051
 6130SOL    HW230024   2.595   0.111  14.976  0.5211  1.4376 -1.7107
 6131SOL     OW30025   4.053   1.474   3.444  0.0941 -0.0281  0.3176
 6131SOL    HW130026   4.084   1.548   3.392  1.9463  0.8925  2.7170
 6131SOL    HW230027   4.124   1.448   3.502  0.6726  3.6620  1.2931
 6132SOL     OW30028   1.850   0.290   4.160  0.0438 -0.4639  0.1219
 6132SOL    HW130029   1.773   0.309   4.214 -0.4661  0.6294 -0.9748
 6132SOL    HW230030   1.842   0.199   4.133  0.7095  0.1684 -2.2787
 6133SOL     OW30031   1.805   2.290   1.871 -0.0445  0.7418  0.0581
 6133SOL    HW130032   1.792   2.254   1.784  2.7111 -0.1725  0.0312
 6133SOL    HW230033   1.808   2.215   1.931  0.1743  1.7407  1.2921
 6134SOL     OW30034   1.855   3.745   3.549  0.3273  0.0349  0.1720
 6134SOL    HW130035   1.922   3.813   3.544  0.2089  0.2224  1.3174
 6134SOL    HW230036   1.788   3.800   3.590 -0.7737 -0.8616 -0.3984
 6135SOL     OW30037   4.740   4.198   5.804  0.0127 -0.0636 -0.0431
 6135SOL    HW130038   0.061   4.262   5.841  2.0726 -1.6619 -0.6600
 6135SOL    HW230039   0.023   4.190   5.711  1.5520  3.1500  0.0669
 6136SOL     OW30040   4.061   0.158   2.387  0.0609 -0.3445 -0.1195
 6136SOL    HW130041   4.069   0.103   2.308 -2.1211 -0.9162  0.0655
 6136SOL    HW230042   4.130   0.120   2.442  0.4335 -0.2210 -0.4989
 6137SOL     OW30043   1.739   0.979   8.739 -0.3100 -0.0474 -0.6900
 6137SOL    HW130044   1.692   1.057   8.769 -0.8809  0.3408 -2.5499
 6137SOL    HW230045   1.678   0.910   8.766 -0.3992  0.6484  0.8632
 6138SOL     OW30046   0.026   3.017   5.121  0.4625 -0.3146 -0.6262
 6138SOL    HW130047   4.724   3.083   5.065 -1.0596 -0.6551  0.1381
 6138SOL    HW230048   0.032   3.059   5.207  1.2890  0.3954 -1.0229
 6139SOL     OW30049   1.859   0.195   0.252  0.1050 -0.2000  0.3705
 6139SOL    HW130050   1.879   0.115   0.203  1.2301 -0.5068  1.3288
 6139SOL    HW230051   1.812   0.156   0.325 -1.6884  0.4743 -0.4305
 6140SOL     OW30052   1.420   2.736   7.657 -0.3678  0.0498  0.0766
 6140SOL    HW130053   1.469   2.663   7.695  0.4742  0.4275 -0.2925
 6140SOL    HW230054   1.483   2.807   7.663 -0.5104  0.0404  1.7116
 6141SOL     OW30055   3.064   3.412   3.538  0.1973 -0.4375  0.3636
 6141SOL    HW130056   3.147   3.386   3.578  0.6144  1.6801  0.8854
 6141SOL    HW230057   3.055   3.360   3.458 -0.7914  0.5376 -0.1505
 6142SOL     OW30058   2.595   1.808   7.402 -0.3257  0.0164  0.0969
 6142SOL    HW130059   2.675   1.795   7.351 -1.3681 -1.2927 -1.2277
 6142SOL    HW230060   2.636   1.875   7.457 -0.9828  0.5438 -0.0506
 6143SOL     OW30061   2.205   1.784   2.203  0.0530 -0.2067  0.1488
 6143SOL    HW130062   2.288   1.819   2.237  0.1273 -0.4615  0.2318
 6143SOL    HW230063   2.214   1.694   2.234 -1.5634 -0.7842 -1.1021
 6144SOL     OW30064   3.473   0.314  10.982 -0.1631  0.3702  0.1134
 6144SOL    HW130065   3.438   0.322  10.893 -1.3187 -1.5537  0.3779
 6144SOL    HW230066   3.557   0.360  10.980 -0.3476  0.7207  0.3835
 6145SOL     OW30067   0.645   0.145   7.411  0.0087 -0.3032 -0.1634
 6145SOL    HW130068   0.562   0.188   7.389  0.5909 -0.4406 -2.5447
 6145SOL    HW230069   0.692   0.209   7.465  0.0744 -0.4377 -0.0597
 6146SOL     OW30070   3.984   4.543  13.160  0.4445 -0.3887 -0.3808
 6146SOL    HW130071   4.078   4.535  13.144  0.2947 -1.7540 -0.5099
 6146SOL    HW230072   3.972   4.625  13.110  1.1424  0.5533  1.0067
 6147SOL     OW30073   0.803   0.126  13.158  0.3275  0.6227 -0.1442
 6147SOL    HW130074   0.787   0.093  13.246  0.7106  0.0914 -0.2732
 6147SOL    HW230075   0.856   0.202  13.183  0.4222  0.5695 -0.1813
 6148SOL     OW30076   3.169   2.435   5.534 -0.0043  0.2611 -0.1819
 6148SOL    HW130077   3.100   2.381   5.572 -0.2258  0.1484 -0.7325
 6148SOL    HW230078   3.115   2.472   5.464 -0.5117 -1.9515 -0.9577
 6149SOL     OW30079   4.415   3.795  17.306 -0.5786 -0.2540  0.3510
 6149SOL    HW130080   4.345   3.858  17.291 -1.3843 -1.1929  0.2196
 6149SOL    HW230081   4.364   3.738  17.362  0.3783 -0.6311  0.8461
 6150SOL     OW30082   2.219   4.072  11.637  0.3381 -0.1958 -0.1890
 6150SOL    HW130083   2.304   4.034  11.617  0.2274 -0.0521 -0.9288
 6150SOL    HW230084   2.232   4.117  11.721 -0.2345 -1.3908  0.5399
 6151SOL     OW30085   3.425   0.926   2.621  0.2789 -0.6988 -0.8079
 6151SOL    HW130086   3.484   0.896   2.551  0.2292  1.1715 -1.6525
 6151SOL    HW230087   3.423   1.021   2.611 -0.5547 -0.5856  0.5250
 6152SOL     OW30088   0.488   0.064  11.951  0.8986  0.1465 -0.2683
 6152SOL    HW130089   0.563   0.030  11.902  0.3910 -0.6870 -0.4545
 6152SOL    HW230090   0.408   0.075  11.900  0.0054  0.7825  1.2726
 6153SOL     OW30091   3.882   4.023  13.140 -0.1498  0.4532  0.1546
 6153SOL    HW130092   3.950   4.043  13.205  1.5010 -0.3939 -1.3350
 6153SOL    HW230093   3.831   4.104  13.135  2.0696  1.7562 -1.2696
 6154SOL     OW30094   1.008   3.981   5.978  0.2311 -0.6265 -0.5183
 6154SOL    HW130095   1.062   4.059   5.964 -1.7990  1.0464  1.0795
 6154SOL    HW230096   1.041   3.959   6.065 -2.3513 -1.5764  0.2046
 6155SOL     OW30097   3.146   0.706   8.925  0.2804  0.2517 -0.7553
 6155SOL    HW130098   3.100   0.668   9.000 -0.6663  1.5456 -0.6741
 6155SOL    HW230099   3.213   0.641   8.905 -0.2760 -0.1561 -1.3152
 6156SOL     OW30100   1.177   3.213   3.780  0.1331 -0.4560  0.3099
 6156SOL    HW130101   1.253   3.259   3.816 -0.0660 -0.4613  0.7330
 6156SOL    HW230102   1.145   3.170   3.859  1.9205 -1.2415  0.6104
 6157SOL     OW30103   0.101   0.756   2.049 -0.0573 -0.0070 -0.2363
 6157SOL    HW130104   0.081   0.774   1.957 -2.6435  1.6006  0.6155
 6157SOL    HW230105   0.014   0.731   2.082  0.7102  0.2681  2.0243
 6158SOL     OW30106   2.796   3.504   5.831 -0.2753  0.2710  0.4466
 6158SOL    HW130107   2.819   3.595   5.810  0.0157  0.1556  0.2607
 6158SOL    HW230108   2.877   3.485   5.879 -0.0835 -3.0968 -1.1959
 6159SOL     OW30109   1.767   3.070   6.773 -0.2718 -0.0292 -0.3326
 6159SOL    HW130110   1.797   3.001   6.832  1.2658  1.8727  1.0934
 6159SOL    HW230111   1.679   3.033   6.766 -0.1260  0.3898 -4.2575
 6160SOL     OW30112   1.480   4.716  10.356 -0.4182  0.4658  0.2868
 6160SOL    HW130113   1.569   4.724  10.390 -0.0247 -1.8015 -0.1815
 6160SOL    HW230114   1.451   4.642  10.409 -1.0775  1.0039  0.6667
 6161SOL     OW30115   1.148   1.943   5.136  0.5580  0.2038  0.3034
 6161SOL    HW130116   1.212   1.873   5.123  1.0939  0.8992 -0.8041
 6161SOL    HW230117   1.094   1.943   5.057 -1.0977  0.4035  1.4503
 6162SOL     OW30118   4.238   4.608   8.568 -0.3801 -0.5296 -0.1952
 6162SOL    HW130119   4.180   4.599   8.644 -1.4643 -0.1665 -0.9916
 6162SOL    HW230120   4.317   4.599   8.622 -1.0544 -1.7512  0.5950
 6163SOL     OW30121   1.557   0.524   4.504 -0.5024 -0.4171  0.0931
 6163SOL    HW130122   1.475   0.497   4.546 -0.8043  0.8109  0.2988
 6163SOL    HW230123   1.572   0.592   4.570  0.6571  1.9847 -2.6470
 6164SOL     OW30124   3.568   1.086   9.448 -0.2059 -0.1483 -0.0101
 6164SOL    HW130125   3.529   1.140   9.517 -2.6413 -0.0954 -1.4405
 6164SOL    HW230126   3.503   1.108   9.381  0.0522 -0.1242 -0.2559
 6165SOL     OW30127   4.463   4.602   4.607 -0.4036  0.4391  0.1114
 6165SOL    HW130128   4.476   4.515   4.570  2.2460  0.1154  1.7591
 6165SOL    HW230129   4.403   4.585   4.679 -0.0266  2.2052  0.8357
 6166SOL     OW30130   0.768   1.511   4.700 -0.2290  0.6365  0.6474
 6166SOL    HW130131   0.815   1.593   4.715 -0.1368  0.7629 -0.3210
 6166SOL    HW230132   0.821   1.467   4.634 -0.7853  2.3687 -0.9668
 6167SOL     OW30133   4.584   2.560   2.595  0.3297 -0.2718  0.4131
 6167SOL    HW130134   4.639   2.576   2.518  0.3391 -0.9144  0.2844
 6167SOL    HW230135   4.575   2.467   2.575 -1.1013  0.0537 -0.5135
 6168SOL     OW30136   1.170   2.466  10.456  0.0443  0.2946  0.6196
 6168SOL    HW130137   1.173   2.463  10.360  1.6884  4.4689  0.5494
 6168SOL    HW230138   1.255   2.503  10.481 -0.4933  0.7757  1.7464
 6169SOL     OW30139   3.466   2.844   3.713  0.0255  0.0703 -0.0636
 6169SOL    HW130140   3.377   2.828   3.679  0.0604  0.4440 -0.3282
 6169SOL    HW230141   3.465   2.786   3.789  1.3420 -0.9029 -0.7939
 6170SOL     OW30142   2.003   1.208   6.880  0.5399  0.0533  0.0436
 6170SOL    HW130143   1.918   1.170   6.903 -0.5799  0.9257 -2.5645
 6170SOL    HW230144   2.058   1.130   6.881 -1.7270 -1.4932  3.2403
 6171SOL     OW30145   1.584   3.406  11.188  0.3230  0.2195 -0.4186
 6171SOL    HW130146   1.667   3.361  11.172 -0.9868 -3.0934  1.9402
 6171SOL    HW230147   1.569   3.384  11.280 -1.5469  0.4268 -0.6679
 6172SOL     OW30148   0.437   1.811   7.897  0.1657  0.3147  0.4007
 6172SOL    HW130149   0.481   1.745   7.844  0.0840  0.2207  0.4513
 6172SOL    HW230150   0.502   1.830   7.965  0.3553 -0.0975  0.3336
 6173SOL     OW30151   3.743   3.401  11.684 -0.5890 -0.0988  0.4066
 6173SOL    HW130152   3.799   3.425  11.611  0.2174  0.2032  1.1267
 6173SOL    HW230153   3.714   3.314  11.657  3.8250 -2.0130  1.9326
 6174SOL     OW30154   1.132   3.039   2.066  0.5281 -0.2635 -0.0625
 6174SOL    HW130155   1.037   3.033   2.075  0.4255  1.2102 -0.1021
 6174SOL    HW230156   1.159   3.056   2.156  3.1426 -0.1305 -0.8677
 6175SOL     OW30157   1.893   1.681   8.736  0.0218 -0.1683  0.2131
 6175SOL    HW130158   1.843   1.744   8.788 -0.7334 -2.2467  1.9958
 6175SOL    HW230159   1.814   1.628   8.723  0.4327 -1.2142  2.0495
 6176SOL     OW30160   3.833   1.612   3.421 -0.0963  0.5865  0.3752
 6176SOL    HW130161   3.792   1.590   3.505 -0.3232 -1.2789 -0.2209
 6176SOL    HW230162   3.890   1.536   3.431 -1.9799 -1.0712 -1.6028
 6177SOL     OW30163   1.168   0.558   8.789  0.0920 -0.1120 -0.6129
 6177SOL    HW130164   1.133   0.512   8.713 -0.3756  0.2130 -0.5984
 6177SOL    HW230165   1.259   0.541   8.767  0.4731  1.0257  0.1111
 6178SOL     OW30166   3.543   2.416  14.993 -0.3299  0.3255  0.8483
 6178SOL    HW130167   3.492   2.362  14.933  1.6192  1.3189 -1.7142
 6178SOL    HW230168   3.625   2.421  14.944 -0.3690  2.9193  1.0061
 6179SOL     OW30169   0.554   2.483   7.669 -0.5393  0.1498 -0.4616
 6179SOL    HW130170   0.547   2.388   7.663 -0.9680  0.0148  2.2769
 6179SOL    HW230171   0.483   2.514   7.613 -1.3557 -0.3830  0.2885
 6180SOL     OW30172   0.797   2.102  12.865 -0.8221  0.1479  0.3470
 6180SOL    HW130173   0.810   2.049  12.943 -1.1822 -0.8191 -0.2547
 6180SOL    HW230174   0.765   2.183  12.904 -1.6295 -0.7145  1.4285
 6181SOL     OW30175   4.129   0.630   8.006  0.3397 -0.0979 -0.5388
 6181SOL    HW130176   4.066   0.692   8.043  0.8200 -0.2233  0.4624
 6181SOL    HW230177   4.073   0.559   7.974  1.3226 -0.7162 -0.8704
 6182SOL     OW30178   3.933   0.429   2.387  0.1828 -0.1143  0.1941
 6182SOL    HW130179   3.950   0.336   2.372 -1.0009 -0.3463  0.3240
 6182SOL    HW230180   3.964   0.469   2.305 -0.0000 -0.3704 -0.0008
 6183SOL     OW30181   4.367   2.453   2.985  0.0076 -0.3942 -0.6321
 6183SOL    HW130182   4.359   2.548   2.994 -0.9393 -0.1515 -3.8831
 6183SOL    HW230183   4.293   2.440   2.925 -0.5778  0.2386 -0.0416
 6184SOL     OW30184   0.141   1.359   0.399  0.4838  0.1720 -0.1067
 6184SOL    HW130185   0.081   1.409   0.343  1.0107  0.8324 -0.0814
 6184SOL    HW230186   0.208   1.420   0.430  1.6284 -0.4725 -1.3095
 6185SOL     OW30187   3.573   0.833  10.514 -0.0290 -0.2102 -0.2834
 6185SOL    HW130188   3.532   0.914  10.545  1.7178  0.5119  0.1034
 6185SOL    HW230189   3.514   0.763  10.542 -1.2890  0.6022 -0.8455
 6186SOL     OW30190   0.306   1.860  15.340 -0.8033  0.1380  0.0968
 6186SOL    HW130191   0.253   1.926  15.385 -0.3146 -1.1276  2.4914
 6186SOL    HW230192   0.315   1.900  15.253 -0.2472  3.1463  1.5236
 6187SOL     OW30193   4.616   3.824   4.612  0.3199  0.2389  0.2488
 6187SOL    HW130194   4.660   3.854   4.533 -0.8374 -0.4989 -0.6654
 6187SOL    HW230195   4.695   3.795   4.658 -0.8288  1.0913  2.7783
 6188SOL     OW30196   1.105   2.729   5.574  0.2717 -0.1334  0.4751
 6188SOL    HW130197   1.179   2.731   5.635  0.1323 -0.7767  0.6692
 6188SOL    HW230198   1.100   2.640   5.540  0.6840 -0.3278  0.9185
 6189SOL     OW30199   0.508   1.704  15.240 -0.3237  0.3602  0.1455
 6189SOL    HW130200   0.504   1.626  15.296 -1.3067  0.8593  0.7584
 6189SOL    HW230201   0.442   1.753  15.289  0.1410 -0.2465  1.3684
 6190SOL     OW30202   1.617   2.549   3.322  0.5576  0.3923 -0.1126
 6190SOL    HW130203   1.638   2.630   3.274 -0.0266  1.1293  0.8679
 6190SOL    HW230204   1.602   2.576   3.412  0.2295 -1.0702  0.2672
 6191SOL     OW30205   3.262   3.637   5.767 -0.1003  0.0742  0.0974
 6191SOL    HW130206   3.249   3.676   5.681 -0.0221  0.0821  0.0889
 6191SOL    HW230207   3.201   3.564   5.758  0.2433 -0.3756  1.4137
 6192SOL     OW30208   3.035   1.319   8.343 -0.0956  0.6471 -0.0945
 6192SOL    HW130209   2.966   1.267   8.383 -0.4378  0.9591 -0.2770
 6192SOL    HW230210   3.041   1.394   8.402 -0.9338  1.3112 -0.8465
 6193SOL     OW30211   3.058   1.029  11.431  0.0582 -0.2531 -0.5559
 6193SOL    HW130212   3.091   1.003  11.345  2.3724 -1.2198  0.6245
 6193SOL    HW230213   2.966   1.007  11.416 -0.1590  0.8739 -0.9125
 6194SOL     OW30214   1.935   3.824   9.443 -0.2308  0.3751 -0.3203
 6194SOL    HW130215   1.896   3.737   9.448  1.0961 -0.1490  0.9821
 6194SOL    HW230216   2.008   3.813   9.503 -0.9904 -5.7194 -0.5600
 6195SOL     OW30217   3.299   4.331   7.978  0.6894 -0.2649 -0.3627
 6195SOL    HW130218   3.344   4.388   8.041  1.4495 -0.6968 -0.5134
 6195SOL    HW230219   3.274   4.256   8.032  0.5367  1.1568  1.5433
 6196SOL     OW30220   1.460   3.810   5.989 -0.6168  0.3540 -0.6784
 6196SOL    HW130221   1.466   3.815   6.085  1.6736  2.2060 -0.9076
 6196SOL    HW230222   1.434   3.720   5.970  1.6085 -0.8874  2.0725
 6197SOL     OW30223   4.538   1.242  12.176 -0.2082  0.6788  0.7366
 6197SOL    HW130224   4.527   1.256  12.082 -0.7322 -1.8395  0.4359
 6197SOL    HW230225   4.469   1.295  12.218  0.1009  1.3482  0.4068
 6198SOL     OW30226   0.162   3.031   8.080  0.5755  0.4684  0.5883
 6198SOL    HW130227   0.225   3.103   8.075  0.7970  0.2255 -0.1743
 6198SOL    HW230228   0.205   2.971   8.019 -0.4319  0.1065  0.2295
 6199SOL     OW30229   0.205   0.967  16.917  0.0332  0.3531  0.4187
 6199SOL    HW130230   0.122   1.006  16.890  0.2808  0.8148  0.3101
 6199SOL    HW230231   0.259   1.028  16.867 -0.2382  1.1000  1.0436
 6200SOL     OW30232   1.417   2.475   7.110  0.3710  0.4886  0.2318
 6200SOL    HW130233   1.468   2.394   7.100 -2.6010 -1.4570  0.6376
 6200SOL    HW230234   1.323   2.456   7.115  0.2979  0.5021 -0.9920
 6201SOL     OW30235   3.666   0.903   0.307 -0.1140  0.6218 -0.4942
 6201SOL    HW130236   3.713   0.933   0.229  1.8892 -1.1954  0.0330
 6201SOL    HW230237   3.589   0.861   0.268 -0.6270  1.0458  0.0707
 6202SOL     OW30238   3.231   0.250  16.709  0.8585  0.2351  0.0530
 6202SOL    HW130239   3.276   0.323  16.667  1.8450 -0.5944 -0.3278
 6202SOL    HW230240   3.283   0.176  16.677 -2.4921 -1.1285 -2.2766
 6203SOL     OW30241   1.695   0.370   7.765  0.5843  0.1197 -0.2873
 6203SOL    HW130242   1.697   0.372   7.861 -3.2656 -0.9708 -0.2040
 6203SOL    HW230243   1.663   0.281   7.754 -2.0539  0.9995  0.2771
 6204SOL     OW30244   1.108   2.518  10.146  0.4074 -0.1110  0.4742
 6204SOL    HW130245   1.118   2.427  10.117 -0.4452 -0.0376 -0.0626
 6204SOL    HW230246   1.126   2.572  10.069 -0.5313  0.0214  0.3414
 6205SOL     OW30247   2.221   4.522  16.578  0.0200  0.1911  0.1767
 6205SOL    HW130248   2.196   4.441  16.534  0.6996 -0.1639  0.4462
 6205SOL    HW230249   2.165   4.525  16.656 -1.0352  1.1043 -0.6190
 6206SOL     OW30250   4.090   0.020  12.479 -0.1919 -0.4666 -0.0635
 6206SOL    HW130251   4.133   0.004  12.563  2.3998  0.2107 -1.2489
 6206SOL    HW230252   4.155   0.082  12.445 -1.7498  0.5533 -1.1342
 6207SOL     OW30253   3.530   0.717   6.497 -0.0368  0.3972 -0.6626
 6207SOL    HW130254   3.577   0.759   6.570 -0.9125 -3.2341  1.9581
 6207SOL    HW230255   3.445   0.759   6.508 -1.0213 -1.6863 -0.3789
 6208SOL     OW30256   3.781   4.116   7.609 -0.2474 -0.7348 -0.2706
 6208SOL    HW130257   3.811   4.206   7.618  1.0753 -1.1751 -0.2820
 6208SOL    HW230258   3.802   4.105   7.516  0.9242 -0.9870  0.0134
 6209SOL     OW30259   0.749   0.753   7.907  0.0685  1.0069 -0.0993
 6209SOL    HW130260   0.840   0.781   7.900 -0.2323  1.6371 -1.4392
 6209SOL    HW230261   0.761   0.690   7.978  2.6464  1.0785 -0.4582
 6210SOL     OW30262   0.045   3.682   6.313  0.7348  0.2487  0.5401
 6210SOL    HW130263   0.012   3.764   6.349  0.8570  0.7881 -0.5686
 6210SOL    HW230264   0.022   3.628   6.389 -0.0545  0.0816  0.1838
 6211SOL     OW30265   3.432   3.119   3.342 -0.3034 -0.5003 -0.3751
 6211SOL    HW130266   3.417   3.028   3.317 -1.6422  0.0575 -1.6398
 6211SOL    HW230267   3.396   3.176   3.273 -0.2354  0.2500  0.2026
 6212SOL     OW30268   1.224   3.567   0.265  0.1320  0.5112  0.0402
 6212SOL    HW130269   1.142   3.564   0.314  0.0718 -0.5328 -0.1310
 6212SOL    HW230270   1.217   3.480   0.225 -0.0712  1.4489 -1.9622
 6213SOL     OW30271   3.418   0.843   2.310  0.1606  0.1060  0.2446
 6213SOL    HW130272   3.499   0.838   2.361  0.7506 -0.7468 -0.7765
 6213SOL    HW230273   3.395   0.750   2.318 -1.9417  0.4798 -1.5466
 6214SOL     OW30274   2.534   3.623   1.362 -0.6075 -0.6036  0.2879
 6214SOL    HW130275   2.601   3.614   1.294 -1.8738  0.9426 -1.1412
 6214SOL    HW230276   2.481   3.554   1.322 -2.1982  0.4354  0.6156
 6215SOL     OW30277   1.711   2.376  12.104  0.2551 -0.4277  0.1371
 6215SOL    HW130278   1.793   2.415  12.075  0.4429 -0.6269  0.4039
 6215SOL    HW230279   1.649   2.444  12.078  0.5811 -0.8585 -1.7744
 6216SOL     OW30280   3.140   2.498   7.997  0.0411 -0.4818  0.3148
 6216SOL    HW130281   3.141   2.487   8.092 -0.4051  1.3392  0.5346
 6216SOL    HW230282   3.193   2.578   7.995 -1.0963  0.2997  1.5449
 6217SOL     OW30283   0.893   0.552  16.209 -0.4949  0.4317  0.4299
 6217SOL    HW130284   0.966   0.557  16.148  1.4078 -3.0504  2.4120
 6217SOL    HW230285   0.944   0.539  16.289 -0.9367  2.8153  1.0867
 6218SOL     OW30286   0.674   0.711   4.108 -0.6829 -0.1824  0.2025
 6218SOL    HW130287   0.726   0.786   4.135 -0.8398  0.0404 -0.1207
 6218SOL    HW230288   0.737   0.639   4.103 -1.2641 -0.6717 -0.0615
 6219SOL     OW30289   0.717   1.298   7.917 -0.6841  0.1555 -0.0042
 6219SOL    HW130290   0.745   1.380   7.877  0.1397 -0.3534 -0.4666
 6219SOL    HW230291   0.650   1.263   7.858 -0.6229 -1.1922  0.7198
 6220SOL     OW30292   4.651   0.656   1.267 -0.8018 -0.4045 -0.0219
 6220SOL    HW130293   4.726   0.597   1.275 -0.7844 -0.2503  0.8714
 6220SOL    HW230294   4.661   0.688   1.177 -3.6100  1.6507  0.3903
 6221SOL     OW30295   0.154   4.144   1.253 -0.2635 -0.0322 -0.0207
 6221SOL    HW130296   0.095   4.098   1.194  0.0775 -2.0705  1.2400
 6221SOL    HW230297   0.161   4.228   1.208  0.5301  0.0753  0.2970
 6222SOL     OW30298   4.508   1.276   2.006 -0.2481  0.1675  0.3642
 6222SOL    HW130299   4.551   1.198   2.043 -0.6172 -1.0989 -1.8843
 6222SOL    HW230300   4.541   1.287   1.917  1.5653  1.5364  1.1951
 6223SOL     OW30301   1.912   3.879   2.654  0.0504 -0.0745  0.3003
 6223SOL    HW130302   2.005   3.867   2.633 -0.2218 -0.0561 -0.9009
 6223SOL    HW230303   1.912   3.961   2.703 -0.1715  0.7125 -1.0159
 6224SOL     OW30304   2.209   3.087   8.218 -0.7407  0.3020 -0.1186
 6224SOL    HW130305   2.192   3.062   8.309 -0.5087  0.4969 -0.0221
 6224SOL    HW230306   2.125   3.090   8.172 -1.0106 -3.2080  0.1083
 6225SOL     OW30307   0.597   1.160   3.267  0.0629  0.4868 -0.0004
 6225SOL    HW130308   0.534   1.229   3.246 -0.2725  0.7540  1.9514
 6225SOL    HW230309   0.578   1.082   3.215 -0.2686 -1.3725  2.9345
 6226SOL     OW30310   1.064   4.198  16.402 -0.1786 -0.4735  0.2490
 6226SOL    HW130311   1.036   4.285  16.374 -1.9751 -0.9232  0.6534
 6226SOL    HW230312   1.049   4.200  16.497  0.1847  2.7767  0.2376
 6227SOL     OW30313   0.442   3.497   1.365  0.1624  0.5417 -0.3464
 6227SOL    HW130314   0.505   3.560   1.331  1.4194  0.8355  2.5315
 6227SOL    HW230315   0.494   3.455   1.434  0.3978  1.9481  0.3221
 6228SOL     OW30316   0.666   3.898   1.972  0.1854  0.3205 -0.6824
 6228SOL    HW130317   0.640   3.852   1.892 -1.7905 -0.4926  0.4312
 6228SOL    HW230318   0.682   3.831   2.039  1.9412  1.7576  0.3143
 6229SOL     OW30319   1.737   3.526  17.218  0.2841 -0.4288 -0.6704
 6229SOL    HW130320   1.786   3.578  17.281  0.2142 -1.4969  0.2574
 6229SOL    HW230321   1.763   3.440  17.252  1.6599 -0.8073 -2.6409
 6230SOL     OW30322   3.451   1.021   4.443  0.1608  0.1507  0.2909
 6230SOL    HW130323   3.518   1.078   4.480  0.5210 -1.0311  1.4894
 6230SOL    HW230324   3.394   1.083   4.398  1.2054 -0.3459 -1.7422
 6231SOL     OW30325   0.568   3.046   5.335  0.2508 -0.4700  0.3000
 6231SOL    HW130326   0.575   3.077   5.425 -0.6194 -0.5734  0.3994
 6231SOL    HW230327   0.475   3.032   5.320  0.3213  0.4073 -1.0076
 6232SOL     OW30328   1.797   1.604   5.081  0.2372  0.2042  0.1657
 6232SOL    HW130329   1.790   1.632   4.990 -1.2075  2.2778  0.9121
 6232SOL    HW230330   1.887   1.622   5.106  0.6389  0.8553 -1.8083
 6233SOL     OW30331   1.103   2.941   7.326  0.0072 -0.3833 -0.0603
 6233SOL    HW130332   1.112   3.017   7.268  0.7905 -0.7243 -0.3916
 6233SOL    HW230333   1.132   2.878   7.260 -2.3753 -0.1401 -1.3208
 6234SOL     OW30334   0.808   1.134   4.203 -0.9667 -0.0547 -0.2852
 6234SOL    HW130335   0.869   1.206   4.221  0.7945 -1.5429 -0.2913
 6234SOL    HW230336   0.819   1.129   4.108 -3.8655  2.3217 -0.7369
 6235SOL     OW30337   3.670   2.878  15.750  0.0829  0.4140  0.3767
 6235SOL    HW130338   3.626   2.961  15.763  0.4659  0.9630 -1.8116
 6235SOL    HW230339   3.701   2.858  15.839 -1.1085  1.1456  0.9485
 6236SOL     OW30340   4.458   0.227  16.403  0.0703  0.0325 -0.5343
 6236SOL    HW130341   4.464   0.252  16.495 -1.5276  0.7614 -0.6181
 6236SOL    HW230342   4.546   0.254  16.379 -0.9894  1.8182 -2.4451
 6237SOL     OW30343   2.677   1.168   2.135  0.1270 -0.5328  0.5678
 6237SOL    HW130344   2.760   1.170   2.182  0.1397  0.0323  0.5164
 6237SOL    HW230345   2.688   1.095   2.073  0.8709  2.2991 -2.6513
 6238SOL     OW30346   2.840   2.868   5.003  0.4160 -0.3308  0.0385
 6238SOL    HW130347   2.779   2.829   5.066 -0.5720  0.4955 -0.3925
 6238SOL    HW230348   2.852   2.798   4.939 -0.5938 -1.8462  1.4853
 6239SOL     OW30349   4.066   4.333   8.700 -0.5728 -0.0125  0.4236
 6239SOL    HW130350   3.986   4.323   8.751 -1.1843 -3.7979 -1.2851
 6239SOL    HW230351   4.022   4.381   8.629  2.6238  2.7847  0.2946
 6240SOL     OW30352   2.116   3.823   8.138  0.6497 -0.0437 -0.1111
 6240SOL    HW130353   2.048   3.889   8.122  0.7661  0.4640  1.5690
 6240SOL    HW230354   2.162   3.816   8.054  2.5646 -1.5644  1.0601
 6241SOL     OW30355   0.763   4.664  11.713  0.0854  0.1754  0.1876
 6241SOL    HW130356   0.818   4.590  11.686  1.9510  2.0205 -1.0485
 6241SOL    HW230357   0.674   4.631  11.728  0.0235  0.0378 -0.4880
 6242SOL     OW30358   3.424   0.052  11.360 -0.2478  0.3057 -0.0059
 6242SOL    HW130359   3.395   0.019  11.275  2.1702  0.7269 -0.9787
 6242SOL    HW230360   3.452   4.712  11.404  1.8520  1.0792  0.0596
 6243SOL     OW30361   0.031   2.262   2.024 -0.1262  0.2602 -0.2669
 6243SOL    HW130362   0.088   2.271   1.948 -1.4269  4.3658 -0.7313
 6243SOL    HW230363   0.000   2.351   2.040 -2.5137 -0.5193 -0.5030
 6244SOL     OW30364   1.511   4.488   7.154 -0.1259 -0.5855  0.2294
 6244SOL    HW130365   1.434   4.496   7.098 -0.8249  0.3031  1.3146
 6244SOL    HW230366   1.484   4.426   7.222  0.9163 -1.1531  0.1216
 6245SOL     OW30367   3.201   2.736   4.268  0.8028  0.5584  0.0611
 6245SOL    HW130368   3.218   2.777   4.183 -0.8979  0.1221 -0.4838
 6245SOL    HW230369   3.106   2.746   4.271  0.8080  1.0038 -1.4255
 6246SOL     OW30370   3.067   4.508   2.974 -0.0688  0.3288  0.3228
 6246SOL    HW130371   3.075   4.548   3.060  1.8011  0.7005 -0.0320
 6246SOL    HW230372   3.023   4.583   2.934  2.1143  2.7605  2.5308
 6247SOL     OW30373   2.247   0.541  12.324 -0.7280 -0.2509 -0.5095
 6247SOL    HW130374   2.304   0.505  12.391  0.4849  0.6026 -1.0703
 6247SOL    HW230375   2.299   0.521  12.246 -0.5743 -0.0876 -0.4488
 6248SOL     OW30376   3.128   0.892   4.618 -0.0856  0.1220  0.3752
 6248SOL    HW130377   3.217   0.882   4.653  0.3092  1.8406 -0.1452
 6248SOL    HW230378   3.141   0.826   4.550 -1.9694 -1.0321  1.1321
 6249SOL     OW30379   2.582   2.099  10.009  0.0292 -0.3876  0.0897
 6249SOL    HW130380   2.571   2.155  10.086  0.0211 -1.0709  0.5862
 6249SOL    HW230381   2.558   2.166   9.944 -2.2849 -0.3219  0.9808
 6250SOL     OW30382   1.358   2.069  15.428  0.3526 -0.4919  0.5240
 6250SOL    HW130383   1.432   2.070  15.490  0.2714  2.3288  0.5710
 6250SOL    HW230384   1.396   2.018  15.356 -0.5997  1.7425 -1.5473
 6251SOL     OW30385   1.177   1.186  12.651 -0.6198 -0.1940 -0.3584
 6251SOL    HW130386   1.247   1.143  12.602  0.3515  1.9234 -0.8275
 6251SOL    HW230387   1.228   1.238  12.713 -1.5532  1.5613 -1.0662
 6252SOL     OW30388   1.861   1.797   8.390 -0.1864  0.1936 -0.0448
 6252SOL    HW130389   1.869   1.881   8.346 -1.2332  0.5272  0.4090
 6252SOL    HW230390   1.814   1.822   8.469  1.0306  1.3183  0.3111
 6253SOL     OW30391   3.052   4.334   4.166 -0.5723  0.1581 -0.3309
 6253SOL    HW130392   3.022   4.421   4.192  1.3942  0.9019 -0.5950
 6253SOL    HW230393   2.964   4.311   4.135  0.2210 -0.3594 -2.2452
 6254SOL     OW30394   3.088   0.457  11.411 -0.0419 -0.3509 -0.7851
 6254SOL    HW130395   3.171   0.410  11.424 -0.0075 -0.1386 -0.2487
 6254SOL    HW230396   3.121   0.532  11.360 -4.4662  0.4574 -2.4353
 6255SOL     OW30397   4.358   1.957   8.564 -0.2114 -0.0374  0.1320
 6255SOL    HW130398   4.338   1.885   8.623  0.3918 -1.0767 -0.9389
 6255SOL    HW230399   4.285   2.017   8.580 -0.0101 -0.0101  0.9653
 6256SOL     OW30400   3.959   3.225   7.458  0.0320  0.3066  0.0560
 6256SOL    HW130401   3.864   3.230   7.445  0.1675  0.0696 -1.0465
 6256SOL    HW230402   3.984   3.317   7.447 -1.0177  0.6420  0.4635
 6257SOL     OW30403   1.931   3.149   9.255 -0.1465  0.0718  0.8639
 6257SOL    HW130404   2.006   3.201   9.225  0.2018 -0.7253  0.3427
 6257SOL    HW230405   1.952   3.146   9.348  2.0344 -3.0201  0.2693
 6258SOL     OW30406   2.502   0.782   2.410  0.3124 -0.0827  0.2591
 6258SOL    HW130407   2.566   0.788   2.481 -0.3343  0.9241  0.7566
 6258SOL    HW230408   2.424   0.796   2.464 -1.3188  0.1098 -2.1268
 6259SOL     OW30409   2.928   0.077   6.011 -0.0518  0.4424 -0.0885
 6259SOL    HW130410   2.839   0.112   6.019  0.0464  0.0575  2.4500
 6259SOL    HW230411   2.901   4.726   6.008 -1.4591  0.7971  1.9388
 6260SOL     OW30412   1.833   2.860   5.815 -0.0882 -0.2127 -0.6972
 6260SOL    HW130413   1.761   2.829   5.761 -0.7482  0.7441 -0.3669
 6260SOL    HW230414   1.872   2.932   5.767  2.8023 -0.9641  0.4894
 6261SOL     OW30415   2.000   0.408   2.152  0.7974 -0.2728 -0.6028
 6261SOL    HW130416   2.016   0.328   2.203 -2.4722 -0.1436  0.5740
 6261SOL    HW230417   2.087   0.446   2.141  0.7497  0.1756  0.6432
 6262SOL     OW30418   3.974   0.528   8.223  0.9344 -0.0006 -0.0323
 6262SOL    HW130419   3.930   0.576   8.294 -0.0185 -3.3697  1.6713
 6262SOL    HW230420   3.973   0.439   8.260  2.3365 -0.0109 -0.0311
 6263SOL     OW30421   0.337   0.590   5.816 -0.4611 -0.2231 -0.6515
 6263SOL    HW130422   0.306   0.655   5.879 -1.2721 -1.6688  0.4462
 6263SOL    HW230423   0.363   0.637   5.737 -1.6223 -1.8463 -1.9933
 6264SOL     OW30424   0.481   1.497  15.421 -0.5401  0.2549  0.2399
 6264SOL    HW130425   0.573   1.471  15.422 -0.7151 -0.3608  0.4786
 6264SOL    HW230426   0.431   1.417  15.406 -1.6199  0.3897  2.9924
 6265SOL     OW30427   1.417   1.425   5.975 -0.1768  0.0336 -0.4408
 6265SOL    HW130428   1.348   1.361   5.960  1.0392 -1.8096  1.7779
 6265SOL    HW230429   1.366   1.504   5.958  1.4045  0.7264 -2.0129
 6266SOL     OW30430   1.094   4.019   6.488  0.0701 -0.1810  0.7225
 6266SOL    HW130431   1.123   4.098   6.535  1.0480  0.9972 -1.8794
 6266SOL    HW230432   0.999   4.021   6.498 -0.3273 -1.8627 -2.9715
 6267SOL     OW30433   3.678   1.630   8.838  0.3475  0.3461  0.3748
 6267SOL    HW130434   3.773   1.632   8.847  0.3869  1.0332 -0.1772
 6267SOL    HW230435   3.641   1.608   8.924  0.1892 -0.4181  0.1126
 6268SOL     OW30436   1.177   2.000   2.590 -0.0699 -0.3235  0.5717
 6268SOL    HW130437   1.236   2.022   2.662  0.2923 -1.6698  0.6839
 6268SOL    HW230438   1.158   1.908   2.608 -2.4907  0.1662  0.5176
 6269SOL     OW30439   1.557   1.535   8.539 -0.0774  0.1852  0.3047
 6269SOL    HW130440   1.631   1.543   8.479  0.2837 -0.0044  0.7243
 6269SOL    HW230441   1.503   1.602   8.497  0.4575 -0.3845 -1.2720
 6270SOL     OW30442   1.691   2.384   8.062 -0.2657 -0.0108 -0.6163
 6270SOL    HW130443   1.671   2.473   8.093 -2.0460 -0.0410 -1.7006
 6270SOL    HW230444   1.605   2.341   8.061 -0.9787  1.3806  0.2085
 6271SOL     OW30445   3.788   0.193   2.299 -0.1226 -0.5609 -0.4831
 6271SOL    HW130446   3.865   0.157   2.342 -0.9794 -0.2863  1.3137
 6271SOL    HW230447   3.821   0.200   2.210 -1.0459 -1.6439 -0.9167
 6272SOL     OW30448   0.600   4.650   6.858 -0.7939 -0.4973  0.0880
 6272SOL    HW130449   0.631   4.614   6.941  0.4502  0.9226  0.2221
 6272SOL    HW230450   0.575   4.566   6.818 -1.4182 -0.7193  0.9392
 6273SOL     OW30451   1.346   3.811   0.289 -0.0353 -0.5581  0.1436
 6273SOL    HW130452   1.434   3.806   0.327  1.7411  2.1318 -3.6544
 6273SOL    HW230453   1.328   3.720   0.269  1.5841 -0.4910 -1.6092
 6274SOL     OW30454   0.212   3.567   7.829 -0.0165 -0.1312 -0.2324
 6274SOL    HW130455   0.235   3.655   7.798  2.1872 -1.0382 -1.1691
 6274SOL    HW230456   0.137   3.559   7.770  1.4000 -0.7400 -1.9587
 6275SOL     OW30457   2.616   1.906   8.074 -0.7484 -0.0340 -0.4278
 6275SOL    HW130458   2.634   1.891   8.166 -0.8336  2.0730 -0.0736
 6275SOL    HW230459   2.529   1.945   8.076 -1.2860 -1.1494 -1.3613
 6276SOL     OW30460   0.091   3.415  12.628 -0.1257 -0.0247 -0.6480
 6276SOL    HW130461   0.110   3.477  12.698 -1.6651  0.2192 -0.4355
 6276SOL    HW230462   0.100   3.335  12.680 -2.2520  0.4243  0.4424
 6277SOL     OW30463   2.044   0.106   8.433  0.0618 -0.0057 -0.5161
 6277SOL    HW130464   2.005   0.132   8.516  1.0375 -0.5414  0.1178
 6277SOL    HW230465   2.128   0.149   8.453  0.4273 -1.4726  1.1407
 6278SOL     OW30466   0.204   1.267   0.642  0.2837  0.5148 -0.2523
 6278SOL    HW130467   0.158   1.261   0.558 -0.6775  0.3715  0.2741
 6278SOL    HW230468   0.143   1.218   0.698  0.7182 -1.3075 -1.3631
 6279SOL     OW30469   2.556   0.478   1.446 -0.0402 -0.1811 -0.0464
 6279SOL    HW130470   2.591   0.419   1.379  1.9506 -1.4348  2.0847
 6279SOL    HW230471   2.566   0.420   1.522 -0.7733 -0.3364 -0.0761
 6280SOL     OW30472   3.529   2.314   5.040 -0.4770 -0.7302  0.3169
 6280SOL    HW130473   3.557   2.237   5.088 -0.7293 -2.1801 -1.8394
 6280SOL    HW230474   3.482   2.364   5.107  0.8138  0.6050  0.2352
 6281SOL     OW30475   2.616   4.580   8.784 -0.0875  0.0112  0.3062
 6281SOL    HW130476   2.656   4.573   8.871  1.6941 -2.5109 -0.7249
 6281SOL    HW230477   2.529   4.549   8.806 -0.0595  0.4124  0.9944
 6282SOL     OW30478   3.656   0.623   4.913 -0.2596  0.0991  0.0218
 6282SOL    HW130479   3.654   0.609   4.818  0.9614  1.7766 -0.2545
 6282SOL    HW230480   3.668   0.717   4.923 -0.1478  0.0572  0.2734
 6283SOL     OW30481   2.003   2.281   3.033  0.3186  0.4811 -0.5069
 6283SOL    HW130482   2.030   2.240   2.951  1.0515  0.5427 -0.2953
 6283SOL    HW230483   1.924   2.227   3.043  2.1088 -2.6361 -3.2557
 6284SOL     OW30484   1.839   2.850  10.047 -0.4613  0.3794 -0.3290
 6284SOL    HW130485   1.849   2.766  10.091  0.4647 -0.4329 -2.1356
 6284SOL    HW230486   1.747   2.840  10.022  0.0035  0.1537 -1.9351
 6285SOL     OW30487   2.470   0.734   7.013 -0.1705 -0.2886 -0.1373
 6285SOL    HW130488   2.494   0.821   7.047 -0.6872  0.1661 -0.9470
 6285SOL    HW230489   2.472   0.682   7.094 -0.4477  0.9303  0.6534
 6286SOL     OW30490   0.647   3.778  14.778  0.2214 -0.9031  0.1800
 6286SOL    HW130491   0.596   3.730  14.842  0.0638 -1.1946 -0.1631
 6286SOL    HW230492   0.726   3.724  14.785  0.8001  0.1275  1.4316
 6287SOL     OW30493   0.939   4.447   9.285 -0.4328 -0.2848  0.2382
 6287SOL    HW130494   0.960   4.399   9.365  0.2141 -0.9994 -0.3508
 6287SOL    HW230495   0.845   4.433   9.290 -0.5702  0.0804 -1.4135
 6288SOL     OW30496   1.710   1.739  11.168 -0.5908  0.2288  0.0079
 6288SOL    HW130497   1.758   1.811  11.128  0.6536  0.1001  1.2685
 6288SOL    HW230498   1.621   1.743  11.132 -0.3645 -0.4702 -0.6391
 6289SOL     OW30499   2.132   1.210   0.165 -0.0076  0.4451 -0.0069
 6289SOL    HW130500   2.086   1.274   0.219 -0.9564  0.9511 -1.3978
 6289SOL    HW230501   2.171   1.277   0.108  0.4959  0.1312 -0.0257
 6290SOL     OW30502   0.052   1.926   2.767 -0.4285 -0.9018  0.1908
 6290SOL    HW130503   4.710   1.965   2.736 -0.9332  0.4469  3.2022
 6290SOL    HW230504   0.113   2.000   2.768 -1.4396 -0.0615  0.1920
 6291SOL     OW30505   1.781   1.732  13.101 -0.0280 -0.0904  0.4392
 6291SOL    HW130506   1.743   1.650  13.132  1.6292 -0.7110  0.8438
 6291SOL    HW230507   1.793   1.707  13.010 -2.0363 -1.1770  0.4831
 6292SOL     OW30508   3.253   4.360   2.787 -0.3366  0.2081 -0.2157
 6292SOL    HW130509   3.286   4.299   2.852  0.1205 -0.2781 -0.8973
 6292SOL    HW230510   3.212   4.428   2.841  0.6943  0.5951  0.0817
 6293SOL     OW30511   4.365   3.918   3.822  0.1770 -0.0064 -0.3210
 6293SOL    HW130512   4.297   3.860   3.857  1.0839 -0.6372  0.3933
 6293SOL    HW230513   4.313   3.992   3.791 -0.5305  0.1052  1.1356
 6294SOL     OW30514   2.372   4.408   1.961  0.5716 -0.2333 -0.0251
 6294SOL    HW130515   2.326   4.332   1.925 -0.7307 -0.5934  2.4191
 6294SOL    HW230516   2.455   4.377   1.997 -0.1624 -0.2413  1.6463
 6295SOL     OW30517   2.528   0.167   4.479 -0.3891  0.0754  0.0172
 6295SOL    HW130518   2.592   0.161   4.550 -0.8513  0.1363  0.4367
 6295SOL    HW230519   2.457   0.134   4.534  1.6515 -2.8573  0.9190
 6296SOL     OW30520   3.772   1.251  12.698 -0.2431 -0.6979  0.8476
 6296SOL    HW130521   3.825   1.231  12.622 -0.2498 -1.2960  0.9945
 6296SOL    HW230522   3.694   1.202  12.670 -0.6270  1.0332 -1.0307
 6297SOL     OW30523   2.299   4.458  17.575  0.0645 -0.2520  0.2097
 6297SOL    HW130524   2.253   4.511  17.510  1.5202  1.8717  0.8968
 6297SOL    HW230525   2.346   4.395  17.520 -1.2490 -0.2585 -0.9137
 6298SOL     OW30526   1.324   1.446   2.837  0.2580 -0.2342 -0.0296
 6298SOL    HW130527   1.413   1.459   2.869  0.2519 -0.0908 -0.0692
 6298SOL    HW230528   1.282   1.485   2.914 -0.1087 -0.2936 -0.1957
 6299SOL     OW30529   3.968   3.526   2.169 -0.0348  0.1112  0.0994
 6299SOL    HW130530   3.928   3.540   2.083  0.1472 -0.1261 -0.0241
 6299SOL    HW230531   4.005   3.613   2.184 -3.2036  1.3884  0.5142
 6300SOL     OW30532   0.593   2.485  16.235  0.1685  0.2890 -1.0870
 6300SOL    HW130533   0.666   2.426  16.256 -0.3379  0.3618  0.9343
 6300SOL    HW230534   0.614   2.533  16.156  1.8297  1.7592  0.2329
 6301SOL     OW30535   4.252   4.442  13.391  0.0544 -0.2930 -0.2430
 6301SOL    HW130536   4.248   4.510  13.458  1.5653 -0.9136  0.4506
 6301SOL    HW230537   4.171   4.393  13.406  0.7749 -1.4005 -0.0059
 6302SOL     OW30538   3.945   4.165  11.244 -0.1294  0.5777  0.1918
 6302SOL    HW130539   3.930   4.134  11.333  0.6564  0.2936  0.2252
 6302SOL    HW230540   3.911   4.092  11.192  1.8793  0.1530 -0.5456
 6303SOL     OW30541   0.691   1.816   3.078 -0.2373  0.1352 -0.0513
 6303SOL    HW130542   0.731   1.838   2.994 -1.2692 -0.3229 -0.6683
 6303SOL    HW230543   0.746   1.754   3.126 -0.5179 -0.4619 -0.5056
 6304SOL     OW30544   1.132   1.514   8.574 -0.0399 -0.1791 -0.0915
 6304SOL    HW130545   1.148   1.422   8.594  0.1800  0.2885  1.9327
 6304SOL    HW230546   1.085   1.506   8.491 -0.6929  0.3908  0.2195
 6305SOL     OW30547   4.019   4.166  10.483 -0.3321  0.4379 -0.7361
 6305SOL    HW130548   4.056   4.210  10.559  2.6555 -2.2281 -0.6803
 6305SOL    HW230549   3.952   4.229  10.455 -0.5500  0.3777 -0.3559
 6306SOL     OW30550   3.318   1.292   5.375  0.2979 -0.2965 -0.5018
 6306SOL    HW130551   3.298   1.285   5.468  1.0234  5.2312  0.1033
 6306SOL    HW230552   3.236   1.275   5.329  0.0085 -0.3548  0.0365
 6307SOL     OW30553   1.444   1.023   1.780 -0.4015  0.5360  0.0706
 6307SOL    HW130554   1.534   1.052   1.765 -0.8029  0.2906 -2.9046
 6307SOL    HW230555   1.402   1.103   1.751  1.0746  1.5357  0.6972
 6308SOL     OW30556   3.469   1.576   6.499 -0.4312 -0.0124 -0.0262
 6308SOL    HW130557   3.425   1.648   6.454  0.0547 -0.7763 -1.7074
 6308SOL    HW230558   3.449   1.585   6.593  0.3639 -0.8917  0.2281
 6309SOL     OW30559   3.970   4.337   4.078  0.2572  0.5366  0.1998
 6309SOL    HW130560   3.978   4.399   4.150 -0.4462  0.0468  0.6967
 6309SOL    HW230561   3.989   4.252   4.118  1.2757  0.6954  0.0647
 6310SOL     OW30562   4.007   3.715   9.000  0.0392 -0.2132  0.1689
 6310SOL    HW130563   3.948   3.640   9.009  0.7464 -1.2862 -4.3623
 6310SOL    HW230564   4.035   3.724   9.091  1.1307 -0.4255 -0.1497
 6311SOL     OW30565   3.752   2.372  10.293  0.0158 -0.3386  0.3976
 6311SOL    HW130566   3.664   2.382  10.328  0.2025 -1.5439  1.2106
 6311SOL    HW230567   3.810   2.398  10.364  1.0905 -1.1879 -0.1746
 6312SOL     OW30568   2.765   1.280  16.320  0.1514 -0.0120 -0.2331
 6312SOL    HW130569   2.732   1.358  16.275 -1.5345 -0.3892  0.3403
 6312SOL    HW230570   2.852   1.286  16.281 -0.7829 -2.3063 -2.6762
 6313SOL     OW30571   4.263   2.175   2.038 -0.3801  0.8630  0.0558
 6313SOL    HW130572   4.316   2.145   1.964 -2.7307 -2.7186 -0.1600
 6313SOL    HW230573   4.196   2.227   1.992 -0.5476 -0.0804 -0.7750
 6314SOL     OW30574   2.531   1.298   2.617 -0.5117  0.3151  0.0423
 6314SOL    HW130575   2.448   1.303   2.569 -0.8286 -0.9713  0.4550
 6314SOL    HW230576   2.513   1.359   2.689 -0.2840 -0.8737  1.1096
 6315SOL     OW30577   4.035   1.170   1.982  0.0304 -0.4762 -0.2152
 6315SOL    HW130578   4.065   1.190   1.894  0.3425  0.8318  0.1727
 6315SOL    HW230579   4.107   1.197   2.039 -1.7675  2.1797  0.8492
 6316SOL     OW30580   1.800   0.263   1.979 -0.6282  0.4099  0.0676
 6316SOL    HW130581   1.807   0.280   1.885 -2.2411  0.9318  0.0501
 6316SOL    HW230582   1.870   0.319   2.014  1.3511 -1.0521 -1.5492
 6317SOL     OW30583   3.453   4.611   4.242  0.4342  0.0510  0.3301
 6317SOL    HW130584   3.490   4.696   4.216  0.8969  0.2316  1.5849
 6317SOL    HW230585   3.444   4.571   4.155 -2.1165  0.6727  0.3073
 6318SOL     OW30586   1.813   2.591   9.247 -0.3452  0.0628 -0.1608
 6318SOL    HW130587   1.780   2.669   9.292 -1.5442  1.0707 -2.7765
 6318SOL    HW230588   1.899   2.627   9.225 -0.0141 -0.6749 -0.0751
 6319SOL     OW30589   3.907   1.637   1.285 -0.8020 -0.5749  0.2154
 6319SOL    HW130590   3.850   1.573   1.327  0.3171 -2.3875 -1.0162
 6319SOL    HW230591   3.858   1.714   1.315 -2.1487 -0.2876 -2.7220
 6320SOL     OW30592   2.599   0.950  11.760  0.1263  0.7224  0.0890
 6320SOL    HW130593   2.647   0.868  11.773  2.5417  2.5279  2.4670
 6320SOL    HW230594   2.572   0.973  11.849 -0.1853 -2.0589  0.7061
 6321SOL     OW30595   0.524   3.220   4.913  0.1987 -0.5174 -0.5593
 6321SOL    HW130596   0.541   3.263   4.998 -1.2383  1.2104 -1.1427
 6321SOL    HW230597   0.497   3.134   4.944 -3.2829  0.5721 -0.5972
 6322SOL     OW30598   4.622   3.746   2.703 -0.2159 -0.3640 -0.2122
 6322SOL    HW130599   4.638   3.661   2.663 -3.0205  0.0192 -2.1715
 6322SOL    HW230600   4.624   3.725   2.796 -0.0405 -0.0493 -0.1453
 6323SOL     OW30601   2.670   4.378  16.160  0.3067  0.3800  0.1549
 6323SOL    HW130602   2.602   4.440  16.135 -0.2771  0.0634  0.9512
 6323SOL    HW230603   2.725   4.429  16.220 -0.3513 -0.3351  1.3553
 6324SOL     OW30604   0.695   0.932   6.370  0.3337 -0.9856  0.0486
 6324SOL    HW130605   0.677   0.996   6.301  1.6620 -2.0542 -1.3164
 6324SOL    HW230606   0.655   0.964   6.450  0.8741 -1.4523  0.5045
 6325SOL     OW30607   0.683   1.960   2.591 -0.0528 -0.5456  0.1967
 6325SOL    HW130608   0.772   1.977   2.562  0.3544 -2.6044  0.1865
 6325SOL    HW230609   0.642   2.037   2.629  1.4563  0.6200 -0.5568
 6326SOL     OW30610   1.683   4.431   5.413  0.0861  0.3149  0.1393
 6326SOL    HW130611   1.627   4.363   5.376  1.5877 -0.3583 -0.9131
 6326SOL    HW230612   1.635   4.510   5.391  1.5551  1.4189  0.9096
 6327SOL     OW30613   2.539   4.178   6.059 -0.4441 -0.1574  0.0829
 6327SOL    HW130614   2.535   4.274   6.061 -0.6305 -0.1756  0.4705
 6327SOL    HW230615   2.633   4.165   6.047 -0.2054  0.5189  1.2658
 6328SOL     OW30616   2.653   3.689   8.682 -0.9434  0.1755  0.3253
 6328SOL    HW130617   2.672   3.647   8.766 -0.2559 -1.2064 -0.5202
 6328SOL    HW230618   2.561   3.665   8.690 -0.7959 -0.3619  0.3621
 6329SOL     OW30619   0.979   2.380   8.654  0.6881  0.2507 -0.6900
 6329SOL    HW130620   0.934   2.328   8.720 -1.5322  1.0992 -1.5223
 6329SOL    HW230621   1.053   2.331   8.617  1.7430  2.0839 -1.0016
 6330SOL     OW30622   0.651   4.311   1.415 -0.1144 -0.1403 -0.0600
 6330SOL    HW130623   0.709   4.267   1.477  0.5809  1.1097  0.1638
 6330SOL    HW230624   0.580   4.347   1.468  0.6480  0.2808  0.6623
 6331SOL     OW30625   0.680   1.782   8.072  0.2987 -0.2074 -0.0320
 6331SOL    HW130626   0.663   1.687   8.073 -1.4868  0.1269  1.0596
 6331SOL    HW230627   0.761   1.789   8.122 -1.3904  4.0711  2.0654
 6332SOL     OW30628   1.054   4.014   5.060 -1.0509  0.7651 -0.0856
 6332SOL    HW130629   1.127   3.953   5.063 -0.6172  1.3394  0.9973
 6332SOL    HW230630   0.980   3.954   5.058 -0.9247  0.5790  1.0038
 6333SOL     OW30631   1.184   2.194  14.740  0.0888  0.0970  0.1692
 6333SOL    HW130632   1.246   2.266  14.727 -0.1195  0.2543  0.0460
 6333SOL    HW230633   1.105   2.245  14.723  1.2979  2.4458  1.5277
 6334SOL     OW30634   2.631   1.792  15.175  0.4359  0.0597 -0.2451
 6334SOL    HW130635   2.577   1.716  15.194  0.4719  0.1048  0.0355
 6334SOL    HW230636   2.696   1.750  15.119 -1.9891 -0.7953 -2.3905
 6335SOL     OW30637   4.467   2.977   2.827  0.5465  0.4039 -0.2702
 6335SOL    HW130638   4.514   2.993   2.746  1.0391 -0.4051 -0.1466
 6335SOL    HW230639   4.544   2.973   2.885 -0.2046 -1.2654  0.6154
 6336SOL     OW30640   3.751   0.566   1.620  0.1314 -0.3750 -0.2244
 6336SOL    HW130641   3.730   0.649   1.576  2.4624  0.2518 -0.1880
 6336SOL    HW230642   3.685   0.506   1.587  1.3593 -1.6368 -0.3771
 6337SOL     OW30643   3.599   2.980  16.120  0.0806 -1.3261 -0.3766
 6337SOL    HW130644   3.673   2.938  16.076  1.0840 -2.3122  2.2971
 6337SOL    HW230645   3.566   3.037  16.050  2.0372  1.3822  0.8947
 6338SOL     OW30646   1.444   2.570   6.376  0.2978 -0.3542 -0.0412
 6338SOL    HW130647   1.473   2.617   6.453 -0.2312  1.4702 -0.9564
 6338SOL    HW230648   1.532   2.538   6.356  0.8759  0.6667  0.9311
 6339SOL     OW30649   3.936   1.330  14.608 -0.3145 -0.0041  0.2141
 6339SOL    HW130650   3.846   1.303  14.628 -0.8724 -0.3711 -2.7760
 6339SOL    HW230651   3.972   1.314  14.695  1.9173  0.3633 -0.6572
 6340SOL     OW30652   2.335   1.412   9.932 -0.3804 -0.0186 -0.8263
 6340SOL    HW130653   2.291   1.429  10.016  0.4069 -1.2785 -0.1601
 6340SOL    HW230654   2.344   1.318   9.941 -4.5901 -0.2477  1.1359
 6341SOL     OW30655   3.528   4.564  16.371  0.2996 -0.1823  0.3962
 6341SOL    HW130656   3.596   4.529  16.428 -0.7191 -2.0394  0.4697
 6341SOL    HW230657   3.464   4.495  16.390  0.5056 -0.2100  0.9677
 6342SOL     OW30658   1.808   3.002  14.445 -0.4208 -0.2767  0.2722
 6342SOL    HW130659   1.744   2.946  14.487 -0.1017  0.6240  1.9379
 6342SOL    HW230660   1.890   2.953  14.450  0.3796  1.0484  0.0294
 6343SOL     OW30661   0.947   3.247  13.018 -0.4027 -0.2836  0.3994
 6343SOL    HW130662   0.855   3.230  12.996 -0.4541 -1.5231  1.5516
 6343SOL    HW230663   0.947   3.228  13.112 -2.0268 -0.8253  0.2942
 6344SOL     OW30664   0.267   2.505   6.853 -0.4065  0.3022  0.0814
 6344SOL    HW130665   0.325   2.538   6.921  0.8589 -2.2361  0.2348
 6344SOL    HW230666   0.225   2.432   6.897 -0.8927  1.3196  1.2846
 6345SOL     OW30667   1.290   0.718  12.504 -0.3202  0.1315  0.1524
 6345SOL    HW130668   1.257   0.773  12.575  1.2535  1.4473 -0.1392
 6345SOL    HW230669   1.245   0.636  12.525  0.9727 -0.9879 -1.4412
 6346SOL     OW30670   2.892   0.246   2.985  0.2942  0.1098 -0.0230
 6346SOL    HW130671   2.858   0.175   3.040 -0.0950  0.4839  0.2209
 6346SOL    HW230672   2.981   0.213   2.971  0.2514  0.5694 -1.3350
 6347SOL     OW30673   1.760   2.710  15.775  0.4558  0.1062  0.2851
 6347SOL    HW130674   1.826   2.755  15.829 -0.9152  0.5590  1.6022
 6347SOL    HW230675   1.693   2.777  15.767 -0.4971 -0.6465  1.9387
 6348SOL     OW30676   1.468   4.354   7.980  0.4383 -0.4044  0.3772
 6348SOL    HW130677   1.472   4.332   8.073 -1.5028 -2.3506  0.0194
 6348SOL    HW230678   1.377   4.347   7.951 -0.1482  2.6961  1.4453
 6349SOL     OW30679   2.785   3.955   5.610  0.4690  0.8509  0.0935
 6349SOL    HW130680   2.799   4.037   5.564 -2.3184 -0.1073 -2.4433
 6349SOL    HW230681   2.777   3.899   5.533 -1.5902  0.5888  0.5079
 6350SOL     OW30682   1.541   2.158   4.920  0.9165  0.4993  0.2108
 6350SOL    HW130683   1.551   2.162   5.015 -0.3624  1.3644  0.3119
 6350SOL    HW230684   1.447   2.141   4.912  0.6691  2.1209 -0.2612
 6351SOL     OW30685   3.867   2.302  12.178  0.3038  0.0324  0.0327
 6351SOL    HW130686   3.805   2.292  12.250  1.1675  1.1011  0.9140
 6351SOL    HW230687   3.829   2.374  12.129  0.1851 -0.0678 -0.0237
 6352SOL     OW30688   2.934   4.449   0.760  0.0585  0.5082 -0.0820
 6352SOL    HW130689   2.855   4.442   0.707 -1.1041  1.8732  1.4957
 6352SOL    HW230690   2.984   4.376   0.722 -1.4259 -0.4223 -0.2191
 6353SOL     OW30691   4.212   1.486   7.695  0.1274 -0.1438  0.1328
 6353SOL    HW130692   4.171   1.564   7.733 -0.7726 -0.3671 -0.3692
 6353SOL    HW230693   4.138   1.454   7.642  0.7578  0.8682 -1.3780
 6354SOL     OW30694   4.192   0.504   5.096 -0.0722  0.1311  0.1509
 6354SOL    HW130695   4.256   0.446   5.136  1.0837 -0.3249 -2.3526
 6354SOL    HW230696   4.180   0.451   5.018 -0.9613  0.3530  0.1350
 6355SOL     OW30697   4.478   1.056   8.517 -0.2682  0.0189  0.3690
 6355SOL    HW130698   4.422   0.978   8.523  0.0180 -0.3064 -1.3197
 6355SOL    HW230699   4.542   1.028   8.452  0.6531 -1.4621  1.9090
 6356SOL     OW30700   2.684   3.578   7.792  0.0908  0.2549  0.1315
 6356SOL    HW130701   2.595   3.584   7.827 -0.0706 -0.0565 -0.2309
 6356SOL    HW230702   2.712   3.487   7.781 -1.2597 -0.2055  0.4886
 6357SOL     OW30703   3.936   1.487  16.450 -0.9944 -0.1272 -0.0466
 6357SOL    HW130704   3.980   1.552  16.397 -0.3639 -0.8836 -0.4502
 6357SOL    HW230705   3.869   1.455  16.389 -0.3539  0.2791 -0.9623
 6358SOL     OW30706   4.475   1.763   4.362  0.9139  0.2062  0.1713
 6358SOL    HW130707   4.443   1.674   4.351 -1.1361  0.8438  0.8995
 6358SOL    HW230708   4.437   1.807   4.286 -0.4070 -1.2337 -0.0085
 6359SOL     OW30709   2.480   1.587   7.104  0.3370 -0.3273  0.0030
 6359SOL    HW130710   2.548   1.654   7.099 -0.2562  0.4643  2.4253
 6359SOL    HW230711   2.424   1.613   7.031  2.4061 -1.4401 -1.9676
 6360SOL     OW30712   4.276   3.470   0.975 -0.2926  0.3699 -0.2881
 6360SOL    HW130713   4.267   3.566   0.975  1.1444  0.5022  1.6120
 6360SOL    HW230714   4.250   3.461   1.066  0.2245 -0.1105 -0.1929
 6361SOL     OW30715   0.566   4.222   5.898  0.6413 -0.3523 -0.4937
 6361SOL    HW130716   0.503   4.220   5.826  0.1196  0.7587 -0.0769
 6361SOL    HW230717   0.653   4.209   5.862  0.8013 -0.9454  0.1089
 6362SOL     OW30718   0.631   2.286   2.370 -0.3932 -0.2977 -0.0200
 6362SOL    HW130719   0.646   2.324   2.457 -2.5172  1.1776 -0.3019
 6362SOL    HW230720   0.547   2.241   2.384  0.2994 -0.9572  2.0239
 6363SOL     OW30721   4.541   0.009  11.807  0.4137 -0.1986 -0.6889
 6363SOL    HW130722   4.542   0.099  11.775  0.1788  0.7097  1.8319
 6363SOL    HW230723   4.627   4.731  11.845  0.9667  1.3646 -1.1717
 6364SOL     OW30724   0.078   1.440   2.183  0.2337 -0.7230 -0.3743
 6364SOL    HW130725   0.139   1.375   2.147  2.2573  1.6367 -1.2043
 6364SOL    HW230726   0.099   1.522   2.139 -1.8903 -0.2712 -0.5505
 6365SOL     OW30727   1.084   0.218  16.414 -0.2163  0.0228  0.1223
 6365SOL    HW130728   1.069   0.191  16.505  1.7668  0.0849  0.4732
 6365SOL    HW230729   1.160   0.165  16.390  0.7703  1.7873 -0.6565
 6366SOL     OW30730   3.663   4.541   9.813 -0.3505 -0.1128  0.2683
 6366SOL    HW130731   3.631   4.631   9.823  0.3429  0.1173  0.3813
 6366SOL    HW230732   3.716   4.550   9.734  0.8307  1.6311  1.2753
 6367SOL     OW30733   3.539   1.686   4.046  0.4707 -0.3648  0.2875
 6367SOL    HW130734   3.595   1.724   4.113 -1.3851  0.2915  1.4816
 6367SOL    HW230735   3.576   1.729   3.969 -0.1663  1.6887  1.1298
 6368SOL     OW30736   0.119   2.944   8.782 -0.0641 -0.3003  0.2019
 6368SOL    HW130737   0.097   2.990   8.701 -0.6861 -2.6240 -0.9705
 6368SOL    HW230738   0.048   2.959   8.843 -0.1873  1.3143 -0.3413
 6369SOL     OW30739   2.592   1.960  13.895  1.0961 -0.5133 -0.0904
 6369SOL    HW130740   2.624   1.999  13.814  1.1550  1.2824  0.8073
 6369SOL    HW230741   2.497   1.964  13.880  1.0199 -0.6230  0.3698
 6370SOL     OW30742   0.655   1.109   8.434 -0.8221  0.4186 -0.4761
 6370SOL    HW130743   0.613   1.195   8.445  1.0587  1.2506  0.2171
 6370SOL    HW230744   0.653   1.089   8.340  0.2883 -1.2381 -0.1356
 6371SOL     OW30745   2.072   2.052   8.327 -0.1132 -0.3269  0.1382
 6371SOL    HW130746   2.021   2.088   8.399 -0.4007  2.4096 -1.4395
 6371SOL    HW230747   2.155   2.092   8.354 -1.0629  0.4266  1.9806
 6372SOL     OW30748   3.460   2.244   6.494 -1.1922 -0.1776 -0.1613
 6372SOL    HW130749   3.426   2.333   6.504  0.3497  0.4464 -0.4757
 6372SOL    HW230750   3.438   2.240   6.401 -0.8685  1.3315 -0.3064
 6373SOL     OW30751   3.381   2.685   1.877  0.1227 -0.4744 -0.5990
 6373SOL    HW130752   3.476   2.678   1.874  0.3363  2.0383  0.2391
 6373SOL    HW230753   3.342   2.598   1.869  2.2422 -1.4009 -0.8295
 6374SOL     OW30754   0.835   3.464   2.218 -0.4581  0.1137 -0.0044
 6374SOL    HW130755   0.906   3.445   2.157  0.1109 -0.7263  0.9237
 6374SOL    HW230756   0.880   3.452   2.301  0.9839 -3.2397 -1.2497
 6375SOL     OW30757   3.373   2.134   3.727  0.3038  0.4642  0.0583
 6375SOL    HW130758   3.303   2.196   3.745 -0.1445 -0.1576  0.4351
 6375SOL    HW230759   3.427   2.179   3.661 -0.8180  0.9853 -0.4956
 6376SOL     OW30760   3.968   4.452  15.518 -0.6647 -0.5703  0.1734
 6376SOL    HW130761   4.035   4.397  15.477  0.2825  0.3396  0.5079
 6376SOL    HW230762   3.974   4.430  15.611 -1.1226  1.2957  0.6411
 6377SOL     OW30763   3.646   1.902  17.419 -0.0956 -0.2809  0.3413
 6377SOL    HW130764   3.609   1.886  17.333  0.3431 -0.9955  0.2909
 6377SOL    HW230765   3.733   1.941  17.406  0.3300 -1.3580 -0.0370
 6378SOL     OW30766   0.641   1.928   4.640  0.0340  0.4647  0.1365
 6378SOL    HW130767   0.581   1.990   4.683 -2.2627 -0.4755 -1.6889
 6378SOL    HW230768   0.581   1.853   4.634  0.7429 -0.1425  0.7740
 6379SOL     OW30769   1.010   3.731   2.985  0.2944  0.0773  0.4439
 6379SOL    HW130770   0.991   3.750   2.893 -2.3305 -1.5365  0.6367
 6379SOL    HW230771   0.930   3.748   3.036 -1.3985 -0.8537 -1.9176
 6380SOL     OW30772   1.123   2.473   9.222 -0.3446 -0.0620  0.1515
 6380SOL    HW130773   1.205   2.521   9.209  0.0141 -1.4736 -2.6621
 6380SOL    HW230774   1.151   2.381   9.217  1.7219  0.5962 -0.2052
 6381SOL     OW30775   0.771   3.667   3.069  0.0779  0.1173  0.0248
 6381SOL    HW130776   0.718   3.686   3.146  0.7650 -0.4561  0.6367
 6381SOL    HW230777   0.712   3.704   3.003 -1.2860  0.2169  1.2900
 6382SOL     OW30778   3.558   3.206   5.468 -0.1670 -0.0879 -0.1113
 6382SOL    HW130779   3.500   3.151   5.415 -1.5318  1.4969 -0.2778
 6382SOL    HW230780   3.524   3.167   5.549  1.5188 -2.7493 -0.6891
 6383SOL     OW30781   0.092   4.132   1.745  0.2754  0.0895  0.1201
 6383SOL    HW130782   0.030   4.138   1.672  1.3919  0.1658 -0.8088
 6383SOL    HW230783   0.177   4.152   1.705 -0.6182  0.3858 -1.6456
 6384SOL     OW30784   3.609   1.667   7.485  0.2635  0.2161  0.3277
 6384SOL    HW130785   3.699   1.693   7.466  0.7522 -1.8580 -0.1118
 6384SOL    HW230786   3.587   1.603   7.417 -2.3889 -0.6858  2.0353
 6385SOL     OW30787   2.563   1.522  13.625 -0.0386  0.0011  0.1479
 6385SOL    HW130788   2.625   1.579  13.580  1.0373 -1.4405 -0.1863
 6385SOL    HW230789   2.561   1.566  13.710 -1.3161  1.6425 -0.7249
 6386SOL     OW30790   4.360   2.419  10.103  0.0524  0.5153 -0.1103
 6386SOL    HW130791   4.308   2.341  10.084  1.5102 -0.8136  1.3897
 6386SOL    HW230792   4.429   2.416  10.036 -0.4107  0.6760 -0.5962
 6387SOL     OW30793   2.063   0.806  12.538 -0.8277 -0.2550  0.1926
 6387SOL    HW130794   2.015   0.747  12.481 -0.4698  1.3575 -1.7718
 6387SOL    HW230795   2.088   0.743  12.606 -0.8059 -1.6518 -1.1209
 6388SOL     OW30796   3.470   1.919   2.471  0.0482  0.2788 -0.2163
 6388SOL    HW130797   3.409   1.852   2.441  0.2079 -0.1746  0.4567
 6388SOL    HW230798   3.461   1.904   2.565  3.8153  0.8382  0.2351
 6389SOL     OW30799   3.736   3.753  11.720 -0.2689 -0.0039  0.6246
 6389SOL    HW130800   3.672   3.724  11.786  0.2746 -0.4294  0.9633
 6389SOL    HW230801   3.811   3.707  11.758  2.4277  1.2420 -3.1704
 6390SOL     OW30802   3.504   2.828   8.936 -0.1313  0.3184  0.1873
 6390SOL    HW130803   3.573   2.784   8.986 -2.4971 -0.6467  2.5680
 6390SOL    HW230804   3.446   2.754   8.920 -1.7084  1.9595 -1.7180
 6391SOL     OW30805   2.528   3.039   9.576  0.4649  0.3356 -0.1133
 6391SOL    HW130806   2.491   2.971   9.632  0.7900 -1.0614 -1.5902
 6391SOL    HW230807   2.455   3.100   9.569  0.5054  0.3583 -0.3357
 6392SOL     OW30808   2.109   0.793  12.205  0.8182 -0.0057 -0.4095
 6392SOL    HW130809   2.134   0.711  12.248  0.3314 -0.3378 -0.7690
 6392SOL    HW230810   2.031   0.822  12.252  0.0551 -0.4301 -1.4172
 6393SOL     OW30811   1.130   4.522   5.359 -0.0320  0.0761 -0.1892
 6393SOL    HW130812   1.085   4.526   5.275  1.1131 -2.8670 -0.9546
 6393SOL    HW230813   1.055   4.546   5.413 -1.2920 -0.3496 -1.7355
 6394SOL     OW30814   3.659   0.167  11.337  0.0954 -0.1598 -0.6295
 6394SOL    HW130815   3.571   0.137  11.362 -0.7691  0.5373 -2.8389
 6394SOL    HW230816   3.711   0.113  11.396 -1.6035 -1.6084 -0.4514
 6395SOL     OW30817   2.893   1.999   4.413 -0.1397  0.0611  0.0970
 6395SOL    HW130818   2.869   2.034   4.499  0.6259  1.1481 -0.1420
 6395SOL    HW230819   2.900   1.908   4.444  0.0440 -0.4795 -1.5321
 6396SOL     OW30820   3.981   0.919   8.806 -0.0037 -0.6865 -0.2787
 6396SOL    HW130821   3.976   0.896   8.714 -1.3458 -3.5269  0.5208
 6396SOL    HW230822   3.890   0.915   8.836  0.5337 -1.1251  1.3005
 6397SOL     OW30823   0.963   1.278  11.003  0.0167  0.2000  0.3927
 6397SOL    HW130824   1.015   1.220  11.059 -0.3532 -1.1218 -0.6325
 6397SOL    HW230825   0.942   1.351  11.061  2.0650 -0.7642  2.3556
 6398SOL     OW30826   2.357   1.982   6.951  0.2427  0.1378 -0.0324
 6398SOL    HW130827   2.408   1.907   6.921  0.4723  0.6993 -1.0812
 6398SOL    HW230828   2.418   2.054   6.966  0.6890 -0.3181  0.3430
 6399SOL     OW30829   0.754   1.567   3.266 -0.2659  0.7963 -0.6480
 6399SOL    HW130830   0.818   1.513   3.313  0.0012  0.3805 -1.4901
 6399SOL    HW230831   0.716   1.631   3.326 -0.6083  0.3348 -0.3778
 6400SOL     OW30832   4.375   2.703  10.036  0.2035  0.4814  0.2489
 6400SOL    HW130833   4.456   2.711   9.986 -1.1389  2.1780 -1.6123
 6400SOL    HW230834   4.405   2.617  10.068 -0.1199  0.6129  0.9078
 6401SOL     OW30835   0.566   4.730   8.127  0.0845 -0.2821 -0.2215
 6401SOL    HW130836   0.643   4.674   8.115 -0.1376 -0.6708  0.1872
 6401SOL    HW230837   0.584   0.073   8.083 -0.8846  0.0392 -0.0124
 6402SOL     OW30838   2.303   3.683   7.869  0.8393 -0.0385 -0.3325
 6402SOL    HW130839   2.212   3.706   7.886  0.8374  0.8155 -1.5414
 6402SOL    HW230840   2.322   3.760   7.815  0.6087  0.0586 -0.2750
 6403SOL     OW30841   2.312   0.347   8.055  0.1058 -0.0544  0.0913
 6403SOL    HW130842   2.249   0.275   8.044 -1.3153  0.9633  1.6042
 6403SOL    HW230843   2.366   0.310   8.124  0.6013 -0.3829 -0.4657
 6404SOL     OW30844   3.981   0.287   2.768  0.2248 -0.1493 -0.1248
 6404SOL    HW130845   3.918   0.219   2.741 -0.4128  0.1368  0.6546
 6404SOL    HW230846   4.034   0.236   2.829  1.1147  3.4923  2.1162
 6405SOL     OW30847   3.794   3.290   7.833 -0.1266  0.5884  0.3074
 6405SOL    HW130848   3.829   3.379   7.825 -2.3589  1.2486 -1.8996
 6405SOL    HW230849   3.740   3.303   7.911 -0.8535 -0.3085 -0.0576
 6406SOL     OW30850   3.699   0.448   3.925 -0.3815 -0.1047 -0.3766
 6406SOL    HW130851   3.770   0.473   3.866  0.6718  1.6766  1.6696
 6406SOL    HW230852   3.754   0.399   3.986  2.0788 -0.4019 -2.8412
 6407SOL     OW30853   2.652   2.295   4.733 -0.2300  0.0176 -0.0433
 6407SOL    HW130854   2.667   2.278   4.827 -0.4606  0.2201  0.0299
 6407SOL    HW230855   2.671   2.388   4.728  3.3002 -0.7116 -0.6535
 6408SOL     OW30856   1.613   1.687   1.945 -0.3914  0.3797  0.3123
 6408SOL    HW130857   1.651   1.649   2.025 -0.7874 -0.1941  0.2232
 6408SOL    HW230858   1.520   1.686   1.965 -0.4848 -1.8285 -0.2251
 6409SOL     OW30859   4.106   3.765  17.340 -0.0560 -0.1778 -0.3280
 6409SOL    HW130860   4.017   3.742  17.367  0.0140 -0.5567 -0.4194
 6409SOL    HW230861   4.157   3.715  17.404 -3.2365 -1.2968  1.3478
 6410SOL     OW30862   3.634   3.489   5.358  0.3780 -0.1227  0.1270
 6410SOL    HW130863   3.681   3.448   5.431  0.2739 -1.0638 -0.3336
 6410SOL    HW230864   3.561   3.428   5.363  0.3357 -0.0759  0.0820
 6411SOL     OW30865   2.206   0.499   4.957  0.0929  0.0582  0.4873
 6411SOL    HW130866   2.187   0.538   4.872  0.1933  0.3404  0.5948
 6411SOL    HW230867   2.202   0.577   5.013  2.3000 -0.3480  1.2020
 6412SOL     OW30868   1.600   1.997   3.107 -0.1356  0.4241 -0.1600
 6412SOL    HW130869   1.515   1.976   3.068  0.7130 -1.7149 -0.8413
 6412SOL    HW230870   1.586   1.936   3.180 -0.6352 -0.2290 -0.8087
 6413SOL     OW30871   1.670   1.722  14.871  0.2940  0.2594  0.4181
 6413SOL    HW130872   1.717   1.796  14.910  1.4508 -0.5906  0.6415
 6413SOL    HW230873   1.609   1.702  14.942 -0.5453 -3.6204 -1.4040
 6414SOL     OW30874   3.171   1.093   0.292 -0.2688 -0.3471  0.1762
 6414SOL    HW130875   3.225   1.019   0.320 -0.8297 -1.3345 -1.3328
 6414SOL    HW230876   3.147   1.122   0.380  0.3456 -2.6010  1.1056
 6415SOL     OW30877   1.263   1.079  10.562 -0.3215  0.1605  0.2935
 6415SOL    HW130878   1.245   1.173  10.554 -2.7979 -0.3095  0.4826
 6415SOL    HW230879   1.194   1.049  10.621 -0.4740 -1.2266 -0.5938
 6416SOL     OW30880   4.619   3.367   5.750  0.2695 -0.3681 -0.0440
 6416SOL    HW130881   4.568   3.353   5.829  0.0053  2.5416  0.3119
 6416SOL    HW230882   4.566   3.430   5.700  2.0772  0.1698 -1.3153
 6417SOL     OW30883   3.693   1.736   7.980  0.5889 -0.0796 -0.1005
 6417SOL    HW130884   3.662   1.818   7.942  1.1116 -0.8260 -2.1547
 6417SOL    HW230885   3.658   1.674   7.916  1.5807  0.7597 -1.4515
 6418SOL     OW30886   2.135   3.378   3.415 -0.1112 -0.1907  0.4018
 6418SOL    HW130887   2.166   3.436   3.486  1.2933  1.2921 -1.4242
 6418SOL    HW230888   2.127   3.446   3.349 -0.6538  0.9658  1.6517
 6419SOL     OW30889   1.673   4.631  16.895  0.0735 -0.3154 -0.7112
 6419SOL    HW130890   1.605   4.599  16.955  0.7180  0.9030  0.6709
 6419SOL    HW230891   1.706   4.709  16.939  0.2117 -2.6215  3.2848
 6420SOL     OW30892   2.305   4.233   1.647  0.4224 -0.0072  0.0909
 6420SOL    HW130893   2.334   4.217   1.557 -2.9368  0.0536 -1.0132
 6420SOL    HW230894   2.392   4.242   1.685  0.3120 -1.9693  0.8271
 6421SOL     OW30895   4.261   1.202   6.953 -0.6642 -0.0509 -0.1320
 6421SOL    HW130896   4.338   1.242   6.914 -1.0519 -0.0012 -0.8416
 6421SOL    HW230897   4.187   1.227   6.898 -1.3615  0.9669  1.2731
 6422SOL     OW30898   0.583   3.383   2.539 -0.6671  0.6084 -0.7848
 6422SOL    HW130899   0.678   3.371   2.543 -0.6816  0.9111  0.4651
 6422SOL    HW230900   0.565   3.327   2.615  0.9672  0.3388 -0.6043
 6423SOL     OW30901   1.034   4.010   8.824 -0.5166  0.3032  0.0135
 6423SOL    HW130902   0.971   4.074   8.791  0.5868  0.4008 -1.8995
 6423SOL    HW230903   1.094   4.063   8.876  0.0626 -0.8882  0.5593
 6424SOL     OW30904   2.007   2.772  10.828 -0.2142  0.0606  0.0378
 6424SOL    HW130905   1.962   2.708  10.884  0.3544  0.5686  1.0631
 6424SOL    HW230906   1.996   2.729  10.743  0.2724  0.4740 -0.2325
 6425SOL     OW30907   2.158   0.209   9.250 -0.0896 -0.3685  0.2643
 6425SOL    HW130908   2.181   0.159   9.171  3.4942  0.1706  0.9730
 6425SOL    HW230909   2.113   0.147   9.307  0.9814  1.4151  3.0183
 6426SOL     OW30910   0.893   3.611   4.900 -0.0635 -0.0774 -0.5141
 6426SOL    HW130911   0.800   3.588   4.900 -0.2244  0.5690 -1.6773
 6426SOL    HW230912   0.932   3.527   4.878 -1.1305 -0.0438 -2.5200
 6427SOL     OW30913   1.040   3.998   3.479 -0.5830  0.4109  0.1794
 6427SOL    HW130914   1.021   3.970   3.568  0.9907  0.4242  0.5210
 6427SOL    HW230915   1.121   4.049   3.491 -0.9868  1.0330  0.2612
 6428SOL     OW30916   0.624   0.531  11.364 -0.6547  0.3539 -0.1071
 6428SOL    HW130917   0.637   0.443  11.328 -1.7242  0.3425 -0.4432
 6428SOL    HW230918   0.530   0.537  11.353 -0.4658  0.8827 -1.5274
 6429SOL     OW30919   1.482   2.499   0.814 -0.1524 -0.1429 -0.4561
 6429SOL    HW130920   1.438   2.512   0.899  2.0020  0.9720  0.4711
 6429SOL    HW230921   1.527   2.417   0.837 -1.0599 -1.1843 -2.3980
 6430SOL     OW30922   1.046   3.734   2.456 -0.2860  0.2301  0.3262
 6430SOL    HW130923   1.095   3.733   2.374 -0.9547  0.7308 -0.0880
 6430SOL    HW230924   1.115   3.715   2.519  1.0525 -0.7018 -1.4322
 6431SOL     OW30925   3.143   4.557   7.784  0.1676 -0.3872  0.0366
 6431SOL    HW130926   3.224   4.605   7.804  0.0756  0.1552 -0.8703
 6431SOL    HW230927   3.175   4.469   7.764  0.5633  0.0052 -1.0603
 6432SOL     OW30928   4.569   0.849  10.442 -0.6337 -0.1364 -0.4021
 6432SOL    HW130929   4.612   0.839  10.527 -0.7728 -0.2183 -0.3396
 6432SOL    HW230930   4.633   0.911  10.408  1.7418 -1.5906  1.4444
 6433SOL     OW30931   4.616   3.915   3.700 -0.0551 -0.1402  0.1538
 6433SOL    HW130932   4.530   3.935   3.736 -0.2667 -0.7771 -0.0065
 6433SOL    HW230933   4.617   3.989   3.639  0.1987  1.8941  2.6015
 6434SOL     OW30934   1.413   2.413   7.461  1.0773 -0.3844 -0.2423
 6434SOL    HW130935   1.343   2.405   7.395  1.4545 -2.3065 -0.4044
 6434SOL    HW230936   1.371   2.436   7.544 -0.8490 -3.5988 -0.3080
 6435SOL     OW30937   0.688   0.697  15.916  0.5286  0.3733 -0.1362
 6435SOL    HW130938   0.626   0.638  15.871 -0.0862  1.4977 -0.7636
 6435SOL    HW230939   0.764   0.688  15.859  1.8627  0.7607  1.5999
 6436SOL     OW30940   2.153   2.421   2.763 -0.0427 -0.0702  0.0289
 6436SOL    HW130941   2.212   2.450   2.832  0.2002  2.0177 -1.0536
 6436SOL    HW230942   2.139   2.328   2.778 -1.2677 -0.0283 -0.7755
 6437SOL     OW30943   3.658   1.818   3.799 -0.0278  0.1899  0.1987
 6437SOL    HW130944   3.718   1.892   3.810  0.3443  0.0863 -1.1650
 6437SOL    HW230945   3.599   1.839   3.727  1.2844  0.0660 -0.9123
 6438SOL     OW30946   4.155   1.616   2.551  0.1909 -0.1141  0.1755
 6438SOL    HW130947   4.238   1.568   2.548  0.0699 -0.3051 -0.0862
 6438SOL    HW230948   4.115   1.566   2.622  0.2193 -0.2861  0.0709
 6439SOL     OW30949   4.165   3.024  10.114 -0.0598  0.4543 -0.0145
 6439SOL    HW130950   4.215   3.069  10.046  1.9729 -1.2654  0.3243
 6439SOL    HW230951   4.224   2.976  10.172 -3.3025 -1.5542  1.5702
 6440SOL     OW30952   2.922   2.355   6.442 -0.1616  0.5188 -0.2173
 6440SOL    HW130953   2.889   2.268   6.462 -2.9251  1.6456  0.1131
 6440SOL    HW230954   3.015   2.347   6.463 -0.4602  0.0760  0.9691
 6441SOL     OW30955   1.276   0.996   0.131  0.2415 -0.1974  0.0973
 6441SOL    HW130956   1.249   0.910   0.165  0.5766  0.0782  1.0603
 6441SOL    HW230957   1.327   1.017   0.209 -0.3672 -0.9099  0.6929
 6442SOL     OW30958   2.298   0.054   1.870 -0.2061 -0.1544  0.2889
 6442SOL    HW130959   2.390   0.052   1.898  0.2727  2.1689 -1.0698
 6442SOL    HW230960   2.277   0.148   1.873 -1.2877 -0.5215  5.4195
 6443SOL     OW30961   2.980   2.056  13.012 -0.1659  0.1183  0.7593
 6443SOL    HW130962   2.906   2.002  13.039  0.1409 -0.6819  0.0102
 6443SOL    HW230963   2.984   2.058  12.916 -0.0966  1.0457  0.7865
 6444SOL     OW30964   2.276   1.687   3.264  0.0732  0.1708  0.4758
 6444SOL    HW130965   2.212   1.753   3.237  0.2410  0.6319  1.2093
 6444SOL    HW230966   2.299   1.735   3.343 -2.1255 -0.9611  1.8319
 6445SOL     OW30967   4.122   3.793   6.257  0.1141  0.0763  0.2131
 6445SOL    HW130968   4.086   3.765   6.341 -0.7890  2.2422  0.5432
 6445SOL    HW230969   4.076   3.872   6.232 -0.1961  0.0047  0.5644
 6446SOL     OW30970   2.689   4.426  11.532 -0.1510  0.2209  0.7782
 6446SOL    HW130971   2.625   4.359  11.555  0.6157 -1.2418 -1.3055
 6446SOL    HW230972   2.641   4.480  11.469 -0.1322  0.6162  1.1078
 6447SOL     OW30973   4.190   0.536   3.607  0.0663 -0.2850  0.0123
 6447SOL    HW130974   4.192   0.442   3.628  0.9214 -0.0909  0.8472
 6447SOL    HW230975   4.209   0.573   3.694  0.4939 -1.4871  0.4388
 6448SOL     OW30976   0.568   2.106  10.056 -0.3819 -0.1320 -0.0540
 6448SOL    HW130977   0.493   2.046  10.052 -1.1557  0.9393 -1.7241
 6448SOL    HW230978   0.617   2.065  10.127  1.4136  0.7640 -0.7828
 6449SOL     OW30979   1.087   0.088   5.143  0.4066 -0.0299  0.0122
 6449SOL    HW130980   0.995   0.085   5.116  0.4782 -0.3951 -0.1873
 6449SOL    HW230981   1.095   0.148   5.217  1.3637 -0.6675  0.4192
 6450SOL     OW30982   1.613   3.100  14.703  0.2212  0.3682 -0.0340
 6450SOL    HW130983   1.652   3.042  14.768  1.1990  1.4078  0.3146
 6450SOL    HW230984   1.693   3.148  14.680  2.0696 -2.5192  0.3170
 6451SOL     OW30985   2.248   3.357   7.216 -0.3819  0.0288 -0.0359
 6451SOL    HW130986   2.259   3.396   7.303  3.0931  1.8134 -1.2927
 6451SOL    HW230987   2.322   3.396   7.169  0.6007 -0.8330  0.7980
 6452SOL     OW30988   0.656   1.806   6.209 -0.5805 -0.2777  0.2129
 6452SOL    HW130989   0.745   1.794   6.244 -0.3765 -1.8137 -0.8449
 6452SOL    HW230990   0.607   1.807   6.292 -0.4755 -0.9482  0.2880
 6453SOL     OW30991   2.161   0.320   4.317 -0.1768 -0.4803  0.6817
 6453SOL    HW130992   2.160   0.310   4.222  1.5464  1.2834  0.4786
 6453SOL    HW230993   2.253   0.332   4.339 -0.5990  1.5146  1.3839
 6454SOL     OW30994   4.620   1.553   9.862  0.1491  0.9333  0.2593
 6454SOL    HW130995   4.700   1.512   9.829  0.3891  0.2279  1.6930
 6454SOL    HW230996   4.640   1.569   9.954 -1.7400 -0.6365  0.9468
 6455SOL     OW30997   1.957   3.819   3.900  0.3938 -0.1795 -0.0300
 6455SOL    HW130998   2.018   3.890   3.881 -0.2894  0.2172 -0.7516
 6455SOL    HW230999   1.968   3.804   3.994 -0.6934  1.5674  0.3902
 6456SOL     OW31000   2.738   2.636   0.088 -0.0474 -0.7931  0.7140
 6456SOL    HW131001   2.813   2.675   0.043  0.1445  0.7400  2.3540
 6456SOL    HW231002   2.730   2.703   0.156  1.3453 -0.6287  0.7141
 6457SOL     OW31003   2.858   1.529  15.838 -0.1646  0.7301  0.3729
 6457SOL    HW131004   2.772   1.492  15.818 -0.3107 -0.6128  3.3532
 6457SOL    HW231005   2.852   1.624  15.833  1.0593  0.6382 -2.6307
 6458SOL     OW31006   2.515   2.116   4.460 -0.2087  0.7064 -0.4444
 6458SOL    HW131007   2.587   2.124   4.398 -0.3425 -1.3253 -0.8604
 6458SOL    HW231008   2.519   2.022   4.474  0.4377  0.6981 -0.6958
 6459SOL     OW31009   0.287   3.161  11.601 -0.0887 -0.7585 -0.3036
 6459SOL    HW131010   0.356   3.108  11.560 -0.7627 -2.8309  1.2838
 6459SOL    HW231011   0.300   3.131  11.691 -1.4745 -1.4806 -0.3540
 6460SOL     OW31012   4.452   2.129  10.866  0.1563 -0.5807  0.1373
 6460SOL    HW131013   4.388   2.070  10.827 -1.4154  1.2719 -0.0566
 6460SOL    HW231014   4.523   2.065  10.856  0.6024  0.3564 -2.6396
 6461SOL     OW31015   2.185   4.651   7.188 -0.0060  0.7490 -0.1162
 6461SOL    HW131016   2.170   4.700   7.269  0.0373 -1.1290  1.0290
 6461SOL    HW231017   2.276   4.625   7.203 -0.4752 -0.4495  0.7240
 6462SOL     OW31018   3.485   1.262   8.112  0.2779  0.6332  0.4898
 6462SOL    HW131019   3.397   1.295   8.098  0.0801 -0.3677 -0.6552
 6462SOL    HW231020   3.470   1.168   8.126  0.0344  1.0546  2.9897
 6463SOL     OW31021   2.626   1.647   3.674 -0.1460  0.0927 -0.4890
 6463SOL    HW131022   2.607   1.720   3.733 -2.3440 -0.9488  0.0624
 6463SOL    HW231023   2.541   1.607   3.658 -1.4942  3.9240 -2.9645
 6464SOL     OW31024   3.459   1.822   9.457  0.3214  0.2264 -0.2789
 6464SOL    HW131025   3.442   1.896   9.399  0.2451  1.0862  0.8446
 6464SOL    HW231026   3.554   1.822   9.472  0.2531 -3.5379  0.1519
 6465SOL     OW31027   3.524   3.462   5.011  0.1293 -0.1971  0.1067
 6465SOL    HW131028   3.451   3.406   5.036  0.1539  0.2227  1.0956
 6465SOL    HW231029   3.524   3.533   5.075  1.6925  0.9213 -1.1068
 6466SOL     OW31030   2.774   3.498   6.375  0.1387  0.0906 -0.2980
 6466SOL    HW131031   2.837   3.434   6.343 -3.9278 -3.2101 -1.7024
 6466SOL    HW231032   2.842   3.541   6.427 -1.0726 -1.3901  2.5478
 6467SOL     OW31033   4.451   3.697   7.971  0.2321 -0.4880 -0.0868
 6467SOL    HW131034   4.508   3.716   8.045 -2.9336  1.5484  1.8271
 6467SOL    HW231035   4.444   3.789   7.945  1.0151 -0.5529 -0.5160
 6468SOL     OW31036   2.493   2.555   0.062  0.2991 -0.4622 -0.1711
 6468SOL    HW131037   2.581   2.585   0.085  0.2674 -1.9677  1.8811
 6468SOL    HW231038   2.494   2.493   0.135  0.8762 -1.8359 -1.3247
 6469SOL     OW31039   3.028   1.742   8.726 -0.0672 -0.2568 -0.2641
 6469SOL    HW131040   3.107   1.732   8.780 -1.5595 -0.0251  1.9977
 6469SOL    HW231041   2.980   1.822   8.752  3.2090  2.3603 -2.3337
 6470SOL     OW31042   4.309   1.263   5.366 -0.0848 -1.2724  0.0030
 6470SOL    HW131043   4.391   1.295   5.404 -0.9807 -0.5505  1.3237
 6470SOL    HW231044   4.242   1.321   5.402 -1.1398 -0.8817 -2.6481
 6471SOL     OW31045   2.652   1.032   9.822  0.3422  0.2050 -0.4640
 6471SOL    HW131046   2.716   1.091   9.862  1.9767 -1.6150 -0.3795
 6471SOL    HW231047   2.692   0.955   9.861  0.4310 -0.4044 -1.7442
 6472SOL     OW31048   1.632   0.885   9.583 -0.1903  0.0144 -0.3653
 6472SOL    HW131049   1.563   0.948   9.563 -0.8060 -0.3091  0.7512
 6472SOL    HW231050   1.694   0.914   9.515 -1.5398  0.7051 -1.2871
 6473SOL     OW31051   2.764   3.011   8.371 -0.3820  0.2527 -0.1414
 6473SOL    HW131052   2.792   2.983   8.284 -3.1749  2.0732 -1.6114
 6473SOL    HW231053   2.774   2.924   8.410 -0.0561  0.8546  1.1036
 6474SOL     OW31054   2.024   0.571   7.429  0.0733  0.2393  0.3842
 6474SOL    HW131055   1.953   0.546   7.369  0.4257  0.0209  0.0590
 6474SOL    HW231056   1.989   0.649   7.472  0.7136  1.2241 -0.8775
 6475SOL     OW31057   1.035   2.850   1.397 -0.6628  0.3052 -0.4412
 6475SOL    HW131058   1.069   2.772   1.442  1.9390  0.3013 -2.4224
 6475SOL    HW231059   1.094   2.925   1.406  1.2007 -1.1401 -0.4291
 6476SOL     OW31060   3.679   4.205   5.321 -0.1888  0.0509 -0.4597
 6476SOL    HW131061   3.626   4.268   5.272 -3.2777 -0.2419  2.5155
 6476SOL    HW231062   3.734   4.161   5.256  0.4799 -0.9025  0.7537
 6477SOL     OW31063   4.029   1.467   3.784  0.3093  0.3818 -0.3922
 6477SOL    HW131064   3.977   1.502   3.711  0.4078  2.6221  0.6357
 6477SOL    HW231065   4.010   1.531   3.852 -1.0161 -1.5098  1.0283
 6478SOL     OW31066   1.312   3.825   3.591 -0.1609  0.5008 -0.3518
 6478SOL    HW131067   1.256   3.835   3.668  0.3728 -1.4251  0.2943
 6478SOL    HW231068   1.351   3.912   3.582  0.8979  0.1449  0.6802
 6479SOL     OW31069   1.264   3.184   9.111  0.1523 -0.3511  0.7801
 6479SOL    HW131070   1.190   3.218   9.161 -1.0694  0.4762 -1.5952
 6479SOL    HW231071   1.219   3.174   9.028 -2.2743  2.3156  1.7955
 6480SOL     OW31072   1.628   1.137  15.061 -0.0295  0.1799  0.8697
 6480SOL    HW131073   1.569   1.102  15.128  1.8196 -1.3247  1.7383
 6480SOL    HW231074   1.587   1.101  14.983  0.2987  1.0197  0.3075
 6481SOL     OW31075   2.246   2.547   2.376 -0.7263  0.1739  0.3477
 6481SOL    HW131076   2.175   2.538   2.313 -0.6319 -1.5851  0.5119
 6481SOL    HW231077   2.199   2.542   2.460 -2.6031  1.3198 -0.6374
 6482SOL     OW31078   3.871   4.101   7.973  0.5239  0.0028  0.1558
 6482SOL    HW131079   3.906   4.179   8.016  0.5769  0.0297  0.0655
 6482SOL    HW231080   3.784   4.099   8.014 -0.0239 -3.0671 -1.1275
 6483SOL     OW31081   4.190   4.169  11.122 -0.0300 -0.1731 -0.4177
 6483SOL    HW131082   4.213   4.247  11.071  2.6830  0.1535  1.2871
 6483SOL    HW231083   4.107   4.187  11.166  0.1907 -4.1236  1.5992
 6484SOL     OW31084   4.099   2.191   6.467 -0.7963 -0.9690 -0.0054
 6484SOL    HW131085   4.113   2.196   6.561 -0.4888  1.0648 -0.1581
 6484SOL    HW231086   4.027   2.253   6.463  1.1394  1.3553  1.0459
 6485SOL     OW31087   0.231   2.021   4.345  0.0671 -0.3760 -0.7714
 6485SOL    HW131088   0.165   1.959   4.315 -0.6539  0.5343 -1.0630
 6485SOL    HW231089   0.279   1.973   4.413  0.5422  0.7501 -0.3126
 6486SOL     OW31090   2.582   1.896  14.394 -0.0047  0.1374  0.4725
 6486SOL    HW131091   2.590   1.800  14.386  1.8151  0.3581 -0.4834
 6486SOL    HW231092   2.611   1.912  14.484 -0.4338 -1.0861  0.8286
 6487SOL     OW31093   2.030   4.686  16.822  0.1291  0.2636 -0.6344
 6487SOL    HW131094   1.950   4.733  16.846 -0.4053  0.0268 -1.9555
 6487SOL    HW231095   2.083   0.016  16.784  1.9348  0.5619  2.3584
 6488SOL     OW31096   3.510   3.667   5.693  0.3800  0.1341  0.1639
 6488SOL    HW131097   3.428   3.650   5.739  1.7303 -1.0872  2.1051
 6488SOL    HW231098   3.472   3.709   5.616 -1.9756  1.5440  2.0740
 6489SOL     OW31099   3.197   2.958  11.924  0.2529 -0.4224  0.5882
 6489SOL    HW131100   3.154   2.876  11.903 -1.9267  1.0762 -0.8570
 6489SOL    HW231101   3.127   3.020  11.904  0.1416 -1.6090 -2.7924
 6490SOL     OW31102   1.205   4.148   7.381  0.0678  0.5819  0.3186
 6490SOL    HW131103   1.225   4.152   7.287  0.4298  0.9045  0.4109
 6490SOL    HW231104   1.120   4.105   7.381 -1.1568  3.0136 -0.8186
 6491SOL     OW31105   2.175   3.300   9.222  0.2944 -0.2548 -0.1754
 6491SOL    HW131106   2.249   3.340   9.267 -0.6792  1.3959 -0.0161
 6491SOL    HW231107   2.131   3.380   9.194  0.8668  0.2447  0.3633
 6492SOL     OW31108   2.540   3.935  17.350 -0.1115 -0.6625 -0.0910
 6492SOL    HW131109   2.477   3.944  17.279  1.5748  1.2785 -1.3432
 6492SOL    HW231110   2.569   3.846  17.329 -1.1353 -0.9385 -0.2939
 6493SOL     OW31111   0.193   3.251   2.244  0.3892 -0.0548 -0.1543
 6493SOL    HW131112   0.145   3.173   2.216 -1.3150  1.7782 -2.3429
 6493SOL    HW231113   0.265   3.259   2.180  0.8163 -1.5200  0.1403
 6494SOL     OW31114   3.372   4.293  12.555  0.0422  0.0735 -0.4199
 6494SOL    HW131115   3.319   4.314  12.632  1.1195  1.3304 -0.0449
 6494SOL    HW231116   3.455   4.285  12.601 -1.3149  0.5191  2.1212
 6495SOL     OW31117   3.745   2.900  14.296  0.2496  0.0358 -0.1816
 6495SOL    HW131118   3.719   2.914  14.386 -1.2817 -1.4887 -0.3914
 6495SOL    HW231119   3.695   2.969  14.254  0.0455 -1.3206 -2.1726
 6496SOL     OW31120   3.799   1.682   0.748  0.4016 -0.3489  0.7081
 6496SOL    HW131121   3.865   1.697   0.681  0.3319 -2.2206  0.2095
 6496SOL    HW231122   3.732   1.644   0.692  0.2524 -4.0930  3.3915
 6497SOL     OW31123   0.778   3.942   8.015 -0.2973  0.1783  0.0832
 6497SOL    HW131124   0.735   4.024   7.992  0.2595  0.5641  0.4236
 6497SOL    HW231125   0.828   3.965   8.093 -1.5144  0.8169  0.6717
 6498SOL     OW31126   1.525   0.965   2.037  0.0577 -1.3318 -0.0893
 6498SOL    HW131127   1.470   0.983   1.960  0.6347  0.6126 -0.0376
 6498SOL    HW231128   1.465   0.956   2.111  0.0782 -0.2290  0.0523
 6499SOL     OW31129   2.904   3.513   9.875  0.1509 -0.0498 -0.3764
 6499SOL    HW131130   2.896   3.497   9.781 -1.6296 -0.3323 -0.1660
 6499SOL    HW231131   2.961   3.590   9.882 -1.1510  1.0058 -1.2974
 6500SOL     OW31132   0.070   1.038   1.828 -0.0676 -0.0938 -0.7605
 6500SOL    HW131133   0.165   1.050   1.837  0.0358 -0.1760 -1.7643
 6500SOL    HW231134   0.058   0.970   1.762 -0.7027  0.2705 -1.0220
 6501SOL     OW31135   0.744   1.263   5.953  0.2057  0.0307 -0.5292
 6501SOL    HW131136   0.743   1.359   5.951 -1.5606  0.0641  2.6070
 6501SOL    HW231137   0.696   1.245   5.872  2.6087  0.5764 -2.0935
 6502SOL     OW31138   2.065   0.823   6.141  0.2343  0.8284 -0.0674
 6502SOL    HW131139   2.090   0.818   6.049  1.3695 -2.9364  0.4459
 6502SOL    HW231140   2.049   0.917   6.134  1.2704  0.9578 -0.6836
 6503SOL     OW31141   0.941   3.543   0.054 -0.0115 -0.5027  0.1706
 6503SOL    HW131142   0.919   3.459   0.093 -1.0028 -1.2339 -1.9519
 6503SOL    HW231143   1.024   3.523   0.011  0.7742  1.3842  0.8052
 6504SOL     OW31144   0.065   2.216   8.460 -0.2664 -0.5900 -0.3142
 6504SOL    HW131145   0.023   2.148   8.514  1.1943 -1.2236  0.0211
 6504SOL    HW231146   0.049   2.297   8.509 -2.0770  0.1400 -2.0854
 6505SOL     OW31147   4.688   0.628   5.620  0.5253 -0.0372 -0.0228
 6505SOL    HW131148   0.030   0.582   5.638  1.4778  1.1296 -1.3982
 6505SOL    HW231149   4.647   0.632   5.706  0.7996  2.2412  0.0016
 6506SOL     OW31150   2.212   4.397   5.967 -0.4954 -0.7086 -0.0658
 6506SOL    HW131151   2.199   4.324   5.906  0.7692 -1.0203  0.0257
 6506SOL    HW231152   2.198   4.466   5.903  1.4827  0.0795  0.3627
 6507SOL     OW31153   0.411   3.287  14.921 -0.3763  0.1943 -0.3999
 6507SOL    HW131154   0.425   3.355  14.987 -0.5960  1.1611 -1.3439
 6507SOL    HW231155   0.504   3.282  14.902  0.6788  1.7149  4.1995
 6508SOL     OW31156   0.814   2.483   3.989  0.4917 -0.4648 -0.1197
 6508SOL    HW131157   0.812   2.396   4.028  1.9046 -0.3879  0.1324
 6508SOL    HW231158   0.722   2.511   3.991  0.5008 -0.3899 -0.8283
 6509SOL     OW31159   1.417   0.705   6.226 -0.1969  0.0436 -0.3410
 6509SOL    HW131160   1.395   0.630   6.171 -0.8325 -0.1031  0.1207
 6509SOL    HW231161   1.435   0.768   6.157  0.1467 -0.8776 -1.0857
 6510SOL     OW31162   1.980   4.524   0.040 -0.0951 -0.4394  0.1762
 6510SOL    HW131163   2.048   4.456   0.040  1.3389  1.0192  2.9720
 6510SOL    HW231164   1.991   4.570   0.123 -0.1260 -0.6873  0.3195
 6511SOL     OW31165   2.745   3.995   1.682 -0.4380 -0.1937  0.1551
 6511SOL    HW131166   2.738   3.928   1.751  0.4477  0.2172  0.6506
 6511SOL    HW231167   2.660   4.039   1.695 -1.8219 -2.8488  0.0205
 6512SOL     OW31168   1.711   3.841   7.510  0.5196 -0.4963 -0.1042
 6512SOL    HW131169   1.649   3.794   7.567  2.4520 -0.1304  2.3143
 6512SOL    HW231170   1.652   3.909   7.477  0.4382  1.0223  3.1559
 6513SOL     OW31171   1.330   0.144   1.868 -0.1083  0.3405 -0.0339
 6513SOL    HW131172   1.393   0.200   1.913  0.9803 -0.3052 -0.7695
 6513SOL    HW231173   1.365   0.056   1.877 -1.3596 -0.1727 -0.1995
 6514SOL     OW31174   3.695   1.461   4.699  0.8937 -0.4758  0.3077
 6514SOL    HW131175   3.773   1.493   4.653 -0.8773  1.2421 -1.5452
 6514SOL    HW231176   3.727   1.466   4.788 -0.3910 -0.4323  0.7739
 6515SOL     OW31177   3.175   0.638   3.798 -0.1549  0.7642 -0.1694
 6515SOL    HW131178   3.119   0.672   3.728 -0.3644 -0.9600 -0.8577
 6515SOL    HW231179   3.259   0.675   3.773  0.2315 -0.7225 -1.0973
 6516SOL     OW31180   1.606   3.764  15.445 -0.1022 -0.1827 -0.2953
 6516SOL    HW131181   1.623   3.789  15.354  0.0710 -0.3649 -0.3115
 6516SOL    HW231182   1.590   3.852  15.480  0.4254 -0.5084  0.7760
 6517SOL     OW31183   2.898   3.744   5.745  0.1031  0.3418 -0.0084
 6517SOL    HW131184   2.965   3.795   5.790  2.1067 -0.6134 -1.9282
 6517SOL    HW231185   2.854   3.820   5.705  0.1680 -0.0366 -0.8021
 6518SOL     OW31186   4.657   4.136   3.999  0.6734  0.2483  0.5776
 6518SOL    HW131187   4.587   4.144   3.935 -0.6100 -2.6743  1.6102
 6518SOL    HW231188   4.633   4.210   4.054  0.2576  0.4993  0.0554
 6519SOL     OW31189   4.309   1.120   3.492  0.1716  0.3432  0.3606
 6519SOL    HW131190   4.213   1.128   3.493 -0.0537 -2.3654 -0.0323
 6519SOL    HW231191   4.331   1.053   3.556 -0.8769  0.1863  0.5570
 6520SOL     OW31192   1.145   1.705   5.674  0.2350  0.6752 -0.2163
 6520SOL    HW131193   1.165   1.740   5.761  0.9776  1.2628 -0.6310
 6520SOL    HW231194   1.169   1.615   5.700  1.1144  1.3236  1.2316
 6521SOL     OW31195   3.421   3.530   7.669 -0.6207  0.1494  0.1417
 6521SOL    HW131196   3.422   3.624   7.684 -0.3427  0.3930 -1.4276
 6521SOL    HW231197   3.462   3.523   7.583  0.6367  0.5217  0.7087
 6522SOL     OW31198   0.327   4.504   0.491  0.1092  0.3751 -0.2593
 6522SOL    HW131199   0.385   4.460   0.429 -0.0070 -0.6113  0.3478
 6522SOL    HW231200   0.370   4.505   0.576 -2.1734  0.4981  0.8953
 6523SOL     OW31201   4.024   4.106   6.256  0.0836  0.1025  0.7054
 6523SOL    HW131202   4.106   4.137   6.217 -0.5365  1.5664  0.5699
 6523SOL    HW231203   3.957   4.153   6.206 -0.1488  1.6744  2.4890
 6524SOL     OW31204   1.791   1.611   6.146  0.2501  0.2800  0.7615
 6524SOL    HW131205   1.772   1.547   6.215  0.3139  3.0236  3.3051
 6524SOL    HW231206   1.880   1.587   6.123 -0.0259  0.6510 -0.7005
 6525SOL     OW31207   3.015   0.250  15.308  0.6760 -0.7131 -0.3361
 6525SOL    HW131208   2.961   0.179  15.341  1.8965 -0.3850  2.3997
 6525SOL    HW231209   2.954   0.324  15.313  0.7988 -0.6461  0.1586
 6526SOL     OW31210   0.946   4.220   9.077  0.1471 -0.0650  0.2871
 6526SOL    HW131211   0.905   4.290   9.128  0.2133  1.7742 -2.1762
 6526SOL    HW231212   0.877   4.163   9.044  1.4021 -0.8327 -0.9955
 6527SOL     OW31213   3.724   2.586  15.423 -0.4470 -0.3103 -0.0968
 6527SOL    HW131214   3.819   2.583  15.427 -0.3473  1.3235 -1.1752
 6527SOL    HW231215   3.712   2.681  15.415  0.1310 -0.3856 -1.7591
 6528SOL     OW31216   2.038   2.000   7.173  0.0382  0.5503  0.1489
 6528SOL    HW131217   2.013   1.951   7.094  3.7069  0.3843 -0.9261
 6528SOL    HW231218   2.112   1.950   7.209  0.3544 -0.0244 -1.2707
 6529SOL     OW31219   3.769   2.616   9.560  0.0745 -0.2052 -0.3475
 6529SOL    HW131220   3.856   2.608   9.599 -0.6785 -3.2716  0.6818
 6529SOL    HW231221   3.719   2.607   9.641  0.6842 -1.1185 -0.0827
 6530SOL     OW31222   0.607   2.584   5.750 -0.2470 -0.4744 -0.0425
 6530SOL    HW131223   0.520   2.589   5.790 -0.1935  2.8552 -0.3489
 6530SOL    HW231224   0.624   2.676   5.734 -1.7095 -0.4354 -1.4172
 6531SOL     OW31225   0.113   3.497   8.871  0.3935  0.0618  0.4960
 6531SOL    HW131226   0.137   3.525   8.960  0.7908 -0.4336  0.5438
 6531SOL    HW231227   0.069   3.414   8.889  1.6846 -1.1408 -1.9889
 6532SOL     OW31228   4.493   1.131  10.103 -0.1249  0.2961  0.4778
 6532SOL    HW131229   4.586   1.114  10.089 -0.1482 -1.3696  2.4009
 6532SOL    HW231230   4.491   1.202  10.167  1.8461  0.5143  0.2976
 6533SOL     OW31231   0.025   3.646   5.488  0.1512 -0.2535  0.5000
 6533SOL    HW131232   0.046   3.704   5.561 -0.8740 -0.1819  0.7376
 6533SOL    HW231233   4.720   3.702   5.425  0.5050  0.3499  0.7886
 6534SOL     OW31234   3.594   3.994   1.560  0.1111  0.0394 -0.2916
 6534SOL    HW131235   3.595   3.932   1.633 -2.0286 -0.0686 -0.3446
 6534SOL    HW231236   3.636   4.071   1.597  0.9295 -1.4079  1.7705
 6535SOL     OW31237   0.967   4.357  14.170 -1.2271  0.5277  0.4918
 6535SOL    HW131238   0.917   4.344  14.089  0.0224 -0.1516 -0.1777
 6535SOL    HW231239   1.057   4.359  14.137 -0.8533  2.4290  1.6043
 6536SOL     OW31240   0.949   2.289  13.765  0.4616  0.7741  0.0359
 6536SOL    HW131241   0.876   2.272  13.704  2.9111 -0.2240 -2.6023
 6536SOL    HW231242   0.985   2.369  13.726 -1.2516  1.7464  0.4355
 6537SOL     OW31243   2.782   4.704  15.936  0.5345  0.1296  0.9499
 6537SOL    HW131244   2.784   4.689  16.031 -0.9609 -1.2730  0.7554
 6537SOL    HW231245   2.760   0.057  15.937 -3.1020 -0.7058  0.1145
 6538SOL     OW31246   2.995   4.592   4.217 -0.1018  0.4568 -0.3275
 6538SOL    HW131247   3.004   4.569   4.309  0.2187 -0.0354 -0.4800
 6538SOL    HW231248   3.023   4.684   4.220 -0.1622  0.4423  0.6928
 6539SOL     OW31249   1.626   4.565   9.515  0.6788  0.3134 -0.3549
 6539SOL    HW131250   1.696   4.552   9.579  1.8846 -0.2036 -1.7887
 6539SOL    HW231251   1.658   4.634   9.457 -2.0028 -1.9986 -4.6041
 6540SOL     OW31252   2.768   2.025   7.460  0.2350 -0.7964 -0.3335
 6540SOL    HW131253   2.802   2.015   7.549  2.3027 -0.9546 -1.1345
 6540SOL    HW231254   2.848   2.029   7.407  0.3391 -0.2016 -0.1325
 6541SOL     OW31255   3.105   3.532   8.844 -0.6958  0.1075  0.0764
 6541SOL    HW131256   3.181   3.496   8.890  0.5222  0.6078 -1.4986
 6541SOL    HW231257   3.054   3.455   8.822 -0.3847  0.1997 -0.9787
 6542SOL     OW31258   0.673   0.874  13.818 -0.1476 -0.1585  0.0697
 6542SOL    HW131259   0.663   0.899  13.726 -0.3352  0.9385  0.3888
 6542SOL    HW231260   0.609   0.935  13.855 -0.1446 -0.9083  1.2922
 6543SOL     OW31261   4.550   0.654   3.648 -0.1120 -0.1853  0.2179
 6543SOL    HW131262   4.602   0.714   3.595  1.3187 -2.4973 -1.0076
 6543SOL    HW231263   4.573   0.575   3.599 -1.3107  0.8054 -1.9687
 6544SOL     OW31264   2.898   1.807   6.053  0.2781  0.1096 -0.4317
 6544SOL    HW131265   2.944   1.723   6.055 -1.2126 -0.6398  3.5633
 6544SOL    HW231266   2.961   1.848   6.112  1.9244 -2.9501 -0.0477
 6545SOL     OW31267   0.035   1.763   2.964  0.2816  0.6259 -0.2647
 6545SOL    HW131268   0.027   1.836   2.903  1.6827 -0.0920 -1.3010
 6545SOL    HW231269   0.130   1.750   2.965  0.2455  0.3349 -1.1025
 6546SOL     OW31270   2.881   0.384  10.248  0.5397 -0.0165 -0.0898
 6546SOL    HW131271   2.832   0.320  10.301  1.2889 -1.5526 -1.2363
 6546SOL    HW231272   2.809   0.426  10.201  2.0207 -1.8507 -3.9848
 6547SOL     OW31273   3.609   0.594  11.298  0.8487  0.2749  0.0734
 6547SOL    HW131274   3.652   0.574  11.215  1.4991 -0.1469  0.5114
 6547SOL    HW231275   3.682   0.580  11.358  1.7362 -1.3884 -1.4079
 6548SOL     OW31276   0.886   1.870  16.912 -0.1091  0.7014  0.0043
 6548SOL    HW131277   0.859   1.907  16.828  0.3117 -1.2821 -0.9901
 6548SOL    HW231278   0.813   1.901  16.966 -1.3634 -0.6893 -0.8999
 6549SOL     OW31279   2.675   1.782   7.064  0.1529 -0.1569 -0.6315
 6549SOL    HW131280   2.708   1.788   6.975  0.9263 -0.7686 -0.3824
 6549SOL    HW231281   2.734   1.839   7.113 -0.2659  0.1065 -0.4254
 6550SOL     OW31282   1.938   3.559   3.792  0.5796  0.1547 -0.4422
 6550SOL    HW131283   1.887   3.572   3.712 -2.7551 -1.7285  1.3546
 6550SOL    HW231284   1.966   3.647   3.816 -0.4335  0.8763 -1.9677
 6551SOL     OW31285   1.580   2.692   6.566 -0.2016 -0.6655  0.1949
 6551SOL    HW131286   1.622   2.758   6.512  1.3896 -0.9918  1.0224
 6551SOL    HW231287   1.621   2.715   6.649 -1.8611  1.7016  0.3383
 6552SOL     OW31288   0.619   3.848   9.369  0.5620 -0.3835  0.1803
 6552SOL    HW131289   0.629   3.817   9.279 -1.7120  0.9543 -0.5370
 6552SOL    HW231290   0.709   3.868   9.396  0.3184  0.6506  0.2369
 6553SOL     OW31291   2.325   3.023  10.252  0.0541  0.3243 -0.4291
 6553SOL    HW131292   2.273   3.068  10.185 -2.7270  0.0452  1.5730
 6553SOL    HW231293   2.390   3.084  10.288  0.9976 -1.0503  0.1744
 6554SOL     OW31294   1.142   4.246   2.497 -0.1796 -0.0779 -0.5180
 6554SOL    HW131295   1.113   4.286   2.578  1.4863  2.4704 -1.1833
 6554SOL    HW231296   1.114   4.155   2.511 -0.9718 -0.2953 -3.3325
 6555SOL     OW31297   2.153   1.955  15.704  0.2006 -0.3058  0.9759
 6555SOL    HW131298   2.221   1.954  15.771 -0.0338  0.2614  1.2293
 6555SOL    HW231299   2.067   1.969  15.744 -0.1510  1.8085 -0.4949
 6556SOL     OW31300   3.249   0.913   1.500  0.0947  0.2707  0.2499
 6556SOL    HW131301   3.218   1.003   1.507 -0.6413 -0.0538  1.1456
 6556SOL    HW231302   3.220   0.907   1.409  1.1847  2.2579 -0.2413
 6557SOL     OW31303   3.655   2.508  12.400  0.4900  0.6897  0.1274
 6557SOL    HW131304   3.735   2.531  12.448  1.0300  0.7451 -0.7815
 6557SOL    HW231305   3.593   2.575  12.428  1.5969  1.8438 -0.1686
 6558SOL     OW31306   3.566   2.713   7.788  0.5587  0.3078  0.4807
 6558SOL    HW131307   3.546   2.657   7.862  0.0143  0.0862  0.1693
 6558SOL    HW231308   3.661   2.726   7.790  0.8030 -1.3981 -0.0493
 6559SOL     OW31309   1.464   0.890   6.027  0.1325 -0.1962 -0.3359
 6559SOL    HW131310   1.534   0.944   6.064 -0.2051  0.0112  0.0008
 6559SOL    HW231311   1.509   0.871   5.945 -1.2886 -0.7015 -0.9881
 6560SOL     OW31312   3.290   4.179   6.404 -0.0758  0.2999  0.0531
 6560SOL    HW131313   3.354   4.132   6.349 -2.2777  0.5304 -2.7137
 6560SOL    HW231314   3.216   4.207   6.351  0.2106  1.7795  0.4368
 6561SOL     OW31315   0.613   1.494   2.999  0.3806 -0.7590 -0.0738
 6561SOL    HW131316   0.651   1.570   2.955 -0.1912 -1.1039 -1.1650
 6561SOL    HW231317   0.678   1.491   3.070 -1.2748  1.6006  1.5131
 6562SOL     OW31318   2.421   1.905   2.272 -0.4265  0.3812  0.2092
 6562SOL    HW131319   2.505   1.920   2.317  0.3289 -0.1720 -1.0153
 6562SOL    HW231320   2.442   1.935   2.183 -1.2572  0.8818  0.1807
 6563SOL     OW31321   3.950   4.676  12.932 -0.2296  0.3043 -0.2658
 6563SOL    HW131322   3.955   4.584  12.907  1.3246 -0.0019  1.2298
 6563SOL    HW231323   4.038   4.694  12.900  0.0330  0.9002  0.7876
 6564SOL     OW31324   3.780   0.351  11.183 -0.3509 -1.2970  0.1096
 6564SOL    HW131325   3.721   0.294  11.232 -1.4205  0.3963  0.7943
 6564SOL    HW231326   3.855   0.292  11.194 -0.9917 -1.8924  1.2900
 6565SOL     OW31327   0.541   4.265  15.036 -0.5943 -0.2903 -0.8060
 6565SOL    HW131328   0.487   4.188  15.053 -0.1092 -0.5322 -0.3492
 6565SOL    HW231329   0.621   4.234  15.077 -0.0609  0.7538 -1.0629
 6566SOL     OW31330   2.149   0.465   8.280 -0.3477  0.1219  0.0313
 6566SOL    HW131331   2.195   0.395   8.234  1.0573  0.4957  0.8832
 6566SOL    HW231332   2.218   0.531   8.288  0.0909 -0.2027 -1.0403
 6567SOL     OW31333   1.006   1.626   5.953 -0.4948 -0.1686 -0.6723
 6567SOL    HW131334   0.957   1.593   6.028 -0.1422  0.7051 -0.0677
 6567SOL    HW231335   0.930   1.637   5.896 -1.4506  0.4969  0.7317
 6568SOL     OW31336   3.104   1.095   6.971 -0.2835 -0.1651  0.4747
 6568SOL    HW131337   3.010   1.084   6.961  0.0388 -2.3444 -0.1679
 6568SOL    HW231338   3.114   1.186   6.997 -2.1506  0.1469  0.0989
 6569SOL     OW31339   4.269   1.120   4.790  0.2519 -0.1501 -0.1052
 6569SOL    HW131340   4.344   1.126   4.730 -0.2094 -1.3353 -0.7974
 6569SOL    HW231341   4.287   1.040   4.838 -2.5783 -1.2102 -0.8228
 6570SOL     OW31342   4.646   3.576   9.211  0.1553  0.3871  0.2560
 6570SOL    HW131343   4.566   3.628   9.204  0.8371  1.4064  0.0787
 6570SOL    HW231344   4.628   3.516   9.139 -0.2499  0.6956  0.0986
 6571SOL     OW31345   2.441   1.308   7.110  0.8500  0.8387  0.1008
 6571SOL    HW131346   2.453   1.400   7.134  2.1736  1.3202 -2.4021
 6571SOL    HW231347   2.514   1.300   7.049  2.1884  0.7056  1.7057
 6572SOL     OW31348   0.071   0.494   0.867  0.3086  0.4168  0.4050
 6572SOL    HW131349   0.165   0.504   0.881  0.2589 -0.7616  1.6566
 6572SOL    HW231350   0.034   0.470   0.952 -0.5222  1.7017  0.4066
 6573SOL     OW31351   0.247   1.488   7.439  0.5382  0.1563  0.3222
 6573SOL    HW131352   0.298   1.412   7.411 -1.1348 -0.4371 -1.1116
 6573SOL    HW231353   0.170   1.474   7.384  0.6941  1.3193 -0.1985
 6574SOL     OW31354   2.777   0.575   9.049 -0.3794 -0.8535  0.5178
 6574SOL    HW131355   2.750   0.552   9.138 -1.8496  3.4212  1.1734
 6574SOL    HW231356   2.762   0.669   9.043 -2.2574 -1.1428  0.7870
 6575SOL     OW31357   3.856   0.169   4.575 -0.1697 -0.2035  0.1797
 6575SOL    HW131358   3.773   0.190   4.617 -0.3886  0.7728 -0.7554
 6575SOL    HW231359   3.813   0.127   4.501  0.3426  0.5684 -0.5453
 6576SOL     OW31360   1.162   3.108   5.803 -0.3157  0.1271  0.0530
 6576SOL    HW131361   1.178   3.107   5.898 -0.0262 -0.6959 -0.0028
 6576SOL    HW231362   1.248   3.113   5.762  0.2126 -0.8934  1.0233
 6577SOL     OW31363   1.892   4.544   9.656 -0.0932 -0.0661  0.1955
 6577SOL    HW131364   1.950   4.577   9.725  0.9617 -0.5563 -0.4482
 6577SOL    HW231365   1.952   4.494   9.600  0.0196 -1.0679  1.2223
 6578SOL     OW31366   4.382   1.679   6.581 -0.9766 -0.2829 -0.0606
 6578SOL    HW131367   4.463   1.639   6.549 -0.4881  1.4598 -1.0006
 6578SOL    HW231368   4.333   1.607   6.620 -2.1890  1.5736  1.8307
 6579SOL     OW31369   4.238   1.020   7.537 -0.0441  0.5434  0.7934
 6579SOL    HW131370   4.297   1.070   7.481 -0.9774  1.5492  0.7173
 6579SOL    HW231371   4.227   1.091   7.600  1.2982 -0.4631  2.1869
 6580SOL     OW31372   2.415   3.427   1.257  0.2587  0.0370  0.3135
 6580SOL    HW131373   2.346   3.437   1.192  1.1643  0.4990 -0.5806
 6580SOL    HW231374   2.491   3.411   1.201 -1.7329 -0.3508 -2.3076
 6581SOL     OW31375   3.869   3.290   3.798  0.0963 -0.0636 -0.2506
 6581SOL    HW131376   3.892   3.212   3.748  0.2951 -0.8046  0.9783
 6581SOL    HW231377   3.793   3.321   3.749 -1.0100 -1.4305  0.5851
 6582SOL     OW31378   1.092   4.055  17.653  0.0256  0.0576  0.8931
 6582SOL    HW131379   1.085   4.003  17.733 -1.8675  0.7354  1.1665
 6582SOL    HW231380   1.017   4.108  17.683 -1.3209 -1.3218 -0.0505
 6583SOL     OW31381   0.644   0.080  11.136  0.2567 -0.3059 -0.0732
 6583SOL    HW131382   0.558   0.071  11.095  0.9076 -0.7437 -1.3276
 6583SOL    HW231383   0.696   0.096  11.057 -0.3168  2.3322  0.0681
 6584SOL     OW31384   3.111   2.452  12.889  0.3844 -0.8804  0.3350
 6584SOL    HW131385   3.126   2.436  12.796  1.0958  1.1202  0.1251
 6584SOL    HW231386   3.019   2.478  12.888  0.7450  0.3072 -1.1138
 6585SOL     OW31387   4.079   0.310   0.403 -0.2672 -0.0769 -0.5331
 6585SOL    HW131388   4.170   0.308   0.433 -1.3328 -0.8894  2.5463
 6585SOL    HW231389   4.052   0.234   0.453  2.3042  0.3638  1.5426
 6586SOL     OW31390   2.890   1.292   3.929  0.8337 -0.5644 -0.1376
 6586SOL    HW131391   2.974   1.318   3.969  0.6282  0.4675 -0.3795
 6586SOL    HW231392   2.876   1.203   3.960 -1.0514 -0.4451 -0.6701
 6587SOL     OW31393   1.172   3.447  17.694  0.0932 -0.1291 -0.5418
 6587SOL    HW131394   1.189   3.372  17.751  0.6698  0.0854 -0.4380
 6587SOL    HW231395   1.233   3.425  17.624  0.0398  0.7268 -0.8590
 6588SOL     OW31396   4.192   0.021  12.824 -0.1403 -0.7046 -0.7883
 6588SOL    HW131397   4.247   4.709  12.882  0.8713 -0.4668 -1.5444
 6588SOL    HW231398   4.182   0.104  12.870  0.3635 -1.6897  1.0865
 6589SOL     OW31399   3.409   3.457  16.128  0.4943  0.0338 -0.1890
 6589SOL    HW131400   3.398   3.365  16.152 -1.6139 -0.1825 -2.0076
 6589SOL    HW231401   3.328   3.483  16.084  1.0812 -0.3640 -1.5214
 6590SOL     OW31402   1.000   0.877   3.007  0.3555  0.0267 -0.0319
 6590SOL    HW131403   0.959   0.960   3.034 -0.4928 -0.5927  0.5669
 6590SOL    HW231404   1.076   0.874   3.064  0.9837  0.0885 -0.8696
 6591SOL     OW31405   0.601   4.013   3.031  0.3747 -0.2277 -0.1927
 6591SOL    HW131406   0.512   3.997   2.999 -0.6813  0.7876  2.2319
 6591SOL    HW231407   0.586   4.012   3.126  3.3277  0.1073  0.2643
 6592SOL     OW31408   3.494   1.582   5.985  0.2280  0.2350 -0.1959
 6592SOL    HW131409   3.430   1.633   6.035  0.5158  0.9885 -0.5876
 6592SOL    HW231410   3.559   1.551   6.048 -0.8970 -0.0498  0.8197
 6593SOL     OW31411   2.297   3.931  14.786 -0.4257  0.1859 -0.2256
 6593SOL    HW131412   2.326   3.954  14.875 -3.2957 -1.3440  1.1069
 6593SOL    HW231413   2.203   3.914  14.796 -0.2494 -0.3328  0.5607
 6594SOL     OW31414   4.495   0.756   3.062 -0.3301 -0.1636  0.2892
 6594SOL    HW131415   4.506   0.745   2.967  0.4147 -0.1356  0.3720
 6594SOL    HW231416   4.527   0.846   3.056 -0.3770 -0.1516  0.2073
 6595SOL     OW31417   2.180   0.122   0.026 -0.3682  0.5482  0.4282
 6595SOL    HW131418   2.233   0.044   0.043 -1.3630  0.2162  2.0740
 6595SOL    HW231419   2.100   0.092   0.070  0.1964  1.1375  1.8471
 6596SOL     OW31420   1.077   3.768   8.541 -0.0473  0.1304 -0.0674
 6596SOL    HW131421   0.987   3.791   8.519  0.5039  2.3622 -0.0355
 6596SOL    HW231422   1.068   3.763   8.636 -0.7480 -0.5041 -0.1718
 6597SOL     OW31423   3.164   2.975  16.116  0.1425  0.1811  0.5196
 6597SOL    HW131424   3.103   3.029  16.067  0.6644  0.8573  0.6213
 6597SOL    HW231425   3.112   2.900  16.145  0.5898 -0.9801 -1.6657
 6598SOL     OW31426   0.665   3.033  14.305  0.4544  0.9746 -0.2199
 6598SOL    HW131427   0.731   2.994  14.362  0.0794 -0.2507 -0.6118
 6598SOL    HW231428   0.670   3.123  14.336  0.5630  0.3049  1.6940
 6599SOL     OW31429   0.398   4.490   1.303 -1.0528  0.8173 -0.6033
 6599SOL    HW131430   0.308   4.458   1.310  0.2036 -2.4566  0.8724
 6599SOL    HW231431   0.402   4.496   1.398  1.4207 -1.3515 -0.5650
 6600SOL     OW31432   1.329   3.587   7.735  0.0474  0.2030 -0.8029
 6600SOL    HW131433   1.423   3.600   7.729  0.0436 -0.0589 -1.4862
 6600SOL    HW231434   1.299   3.652   7.798  1.6269 -0.9499  1.1059
 6601SOL     OW31435   2.503   2.576   5.908 -0.0156 -0.3227  0.0337
 6601SOL    HW131436   2.472   2.584   5.998 -0.4483 -0.0549 -0.1389
 6601SOL    HW231437   2.449   2.641   5.863  0.9093  1.0275  0.8777
 6602SOL     OW31438   4.609   4.459   6.285 -0.9024 -0.1451 -0.2246
 6602SOL    HW131439   4.702   4.463   6.305 -1.0568 -0.5138  0.5521
 6602SOL    HW231440   4.571   4.539   6.322  1.3647  0.2855  1.1299
 6603SOL     OW31441   3.252   3.334  12.066  0.5861 -0.1758  0.1083
 6603SOL    HW131442   3.342   3.356  12.041  0.5875  1.6408  1.7296
 6603SOL    HW231443   3.211   3.328  11.980 -0.7036 -2.0040  0.8396
 6604SOL     OW31444   0.973   3.293   3.293  0.1756 -1.5771 -0.2977
 6604SOL    HW131445   1.045   3.332   3.243 -0.3402  0.2831  0.4028
 6604SOL    HW231446   1.029   3.257   3.362  0.1610  0.9776  1.0726
 6605SOL     OW31447   0.552   0.808   2.842  0.1007 -0.3006  0.6346
 6605SOL    HW131448   0.644   0.803   2.867  0.0258 -1.6552  0.6275
 6605SOL    HW231449   0.560   0.749   2.767  3.5427 -0.6363  1.2358
 6606SOL     OW31450   0.582   4.296   5.189 -0.0408  0.2723  0.1185
 6606SOL    HW131451   0.509   4.300   5.128 -0.4809 -2.9110  0.4302
 6606SOL    HW231452   0.549   4.364   5.248 -0.8337  0.1064 -0.1408
 6607SOL     OW31453   3.818   0.067   4.021  0.5767 -0.1389  0.2209
 6607SOL    HW131454   3.736   0.033   4.056  0.8388  0.8546  1.7741
 6607SOL    HW231455   3.817   0.147   4.074 -1.6159 -0.2949  0.3922
 6608SOL     OW31456   3.814   0.535   3.035  0.3792  0.0837 -0.0711
 6608SOL    HW131457   3.785   0.444   3.032 -2.1776  0.9690 -2.0675
 6608SOL    HW231458   3.829   0.542   3.130  1.3026 -0.3493 -0.1862
 6609SOL     OW31459   1.787   3.706  17.669 -0.4413  0.0294  0.5470
 6609SOL    HW131460   1.752   3.617  17.663  0.8586 -0.2791 -2.3952
 6609SOL    HW231461   1.823   3.715  17.581 -1.0804  0.9907  0.3807
 6610SOL     OW31462   4.494   0.837   6.010 -0.3292  0.5124  0.1225
 6610SOL    HW131463   4.535   0.923   6.003 -1.1853  0.9655  0.7021
 6610SOL    HW231464   4.464   0.829   6.101  0.7630 -0.6223  0.3950
 6611SOL     OW31465   0.444   1.307   7.798 -0.0953 -0.0647 -0.3931
 6611SOL    HW131466   0.415   1.393   7.768 -2.2318 -1.2976 -1.8842
 6611SOL    HW231467   0.418   1.312   7.890 -1.3296  2.9950 -0.9096
 6612SOL     OW31468   3.742   3.730   7.253 -0.8230 -0.3999  0.2540
 6612SOL    HW131469   3.710   3.818   7.232  1.1339  0.9219  2.8405
 6612SOL    HW231470   3.748   3.734   7.348  1.0924 -2.3167  0.2112
 6613SOL     OW31471   1.846   2.648   3.655  0.1970 -0.5699 -0.2384
 6613SOL    HW131472   1.762   2.640   3.699 -0.3307 -0.9325 -1.3037
 6613SOL    HW231473   1.833   2.737   3.621  0.0362 -0.3222  0.4849
 6614SOL     OW31474   1.857   3.448   0.560  0.2844 -0.1992  0.3877
 6614SOL    HW131475   1.892   3.513   0.621 -0.1115  0.7341 -0.3881
 6614SOL    HW231476   1.763   3.463   0.561  0.3922  0.5266 -0.3983
 6615SOL     OW31477   1.182   0.343   6.428 -0.1435  0.7223 -0.7702
 6615SOL    HW131478   1.090   0.329   6.450  0.2455  1.5174  1.3315
 6615SOL    HW231479   1.181   0.429   6.386  1.0829  0.3294 -1.5754
 6616SOL     OW31480   4.571   3.491   4.356  0.0970 -0.5900  0.7730
 6616SOL    HW131481   4.544   3.409   4.315  1.2105 -0.0985 -0.9803
 6616SOL    HW231482   4.645   3.510   4.298  0.4677  2.0582  2.1437
 6617SOL     OW31483   4.615   4.156   9.439  0.0774 -0.2419 -0.9562
 6617SOL    HW131484   4.671   4.169   9.516 -1.6241 -0.4754  0.3379
 6617SOL    HW231485   4.627   4.062   9.431  0.8624 -0.1556 -0.7506
 6618SOL     OW31486   3.606   1.004  11.525 -0.1250  0.1205  0.1211
 6618SOL    HW131487   3.553   1.036  11.597 -0.8767 -0.4884 -0.1613
 6618SOL    HW231488   3.561   0.924  11.496  1.3924 -1.0944  1.1481
 6619SOL     OW31489   0.706   3.346   7.741  0.1649 -0.3795 -0.0701
 6619SOL    HW131490   0.779   3.300   7.701  0.9320  0.4339  0.4083
 6619SOL    HW231491   0.654   3.267   7.757  0.0162 -0.1963  0.3546
 6620SOL     OW31492   0.934   1.649   0.598  0.7477  0.0122 -0.7318
 6620SOL    HW131493   0.880   1.714   0.642 -0.4057 -1.2877 -0.2519
 6620SOL    HW231494   0.987   1.604   0.663 -1.5795  0.5845  1.5500
 6621SOL     OW31495   4.226   4.544   9.632  0.4387 -0.2888  0.4657
 6621SOL    HW131496   4.183   4.505   9.556 -1.1151  2.4719 -0.0862
 6621SOL    HW231497   4.281   4.478   9.674  1.1416 -0.5287 -0.8478
 6622SOL     OW31498   4.349   3.993   1.626  0.2409 -0.0487 -0.6695
 6622SOL    HW131499   4.277   3.944   1.585 -1.7900  1.3228  1.3186
 6622SOL    HW231500   4.307   4.034   1.701 -1.3983  0.7886 -2.0458
 6623SOL     OW31501   1.741   4.137   0.308 -0.4713 -0.0753 -0.0611
 6623SOL    HW131502   1.755   4.043   0.313  0.0980 -0.0088 -0.3106
 6623SOL    HW231503   1.730   4.139   0.213 -0.3310 -1.3045 -0.1019
 6624SOL     OW31504   0.159   3.125  16.202  0.4502  0.0355  0.2921
 6624SOL    HW131505   0.242   3.124  16.154  0.2858  1.3257 -0.0247
 6624SOL    HW231506   0.110   3.191  16.152  1.6485 -0.4499 -1.5077
 6625SOL     OW31507   3.230   1.789  11.071  0.4734 -0.4425  0.3882
 6625SOL    HW131508   3.286   1.864  11.053 -0.6832  0.3855  0.2545
 6625SOL    HW231509   3.164   1.833  11.125  1.2180  2.5859 -1.1610
 6626SOL     OW31510   0.287   2.857   7.550  0.1456  0.6847 -0.3263
 6626SOL    HW131511   0.201   2.878   7.586  0.9924 -0.7439  2.5416
 6626SOL    HW231512   0.287   2.899   7.464 -2.3619  1.2679 -0.0468
 6627SOL     OW31513   1.230   0.275  10.228 -0.0752 -0.1053  0.2670
 6627SOL    HW131514   1.146   0.321  10.224 -1.8092 -3.2090  0.4889
 6627SOL    HW231515   1.271   0.310  10.149 -1.5653  1.5777  0.2395
 6628SOL     OW31516   1.626   2.709   5.716 -0.8710 -0.6652 -0.8445
 6628SOL    HW131517   1.578   2.736   5.795 -1.9043  1.5594 -2.2357
 6628SOL    HW231518   1.624   2.614   5.731 -1.7621 -0.1848  2.1674
 6629SOL     OW31519   3.577   4.617   5.530  0.3476 -0.0145  0.1707
 6629SOL    HW131520   3.560   4.595   5.439 -2.3773  0.3469  0.5870
 6629SOL    HW231521   3.493   4.649   5.562  0.3064 -0.4972  0.5398
 6630SOL     OW31522   0.895   4.175  12.405 -0.2914 -0.0641  0.6369
 6630SOL    HW131523   0.914   4.214  12.490 -0.6596 -0.3604  0.8579
 6630SOL    HW231524   0.811   4.220  12.400 -0.9589 -1.2778  0.8823
 6631SOL     OW31525   2.550   3.232  11.863  0.1705 -0.3464 -0.5188
 6631SOL    HW131526   2.588   3.180  11.935 -0.8837 -1.0880 -0.4878
 6631SOL    HW231527   2.552   3.168  11.792  0.1690  0.1178 -0.9307
 6632SOL     OW31528   3.617   3.829   8.038  0.0963  0.3830 -0.6080
 6632SOL    HW131529   3.540   3.811   7.984 -1.6079  1.7674  1.3987
 6632SOL    HW231530   3.604   3.918   8.070  0.8727  0.2855 -0.0083
 6633SOL     OW31531   1.811   0.601  16.325 -0.8822 -0.0899  0.2087
 6633SOL    HW131532   1.811   0.690  16.288  0.7227  0.0461  0.5319
 6633SOL    HW231533   1.748   0.561  16.266 -1.5904  2.1765 -0.5913
 6634SOL     OW31534   0.230   2.835  12.121  0.1526 -0.0991  0.1203
 6634SOL    HW131535   0.301   2.897  12.135  0.2724  0.0123 -1.0090
 6634SOL    HW231536   0.155   2.874  12.167  0.7664  1.9584 -0.6588
 6635SOL     OW31537   0.445   3.489   8.356 -0.1051 -0.4831  0.3509
 6635SOL    HW131538   0.496   3.443   8.289 -2.4789 -1.6921 -0.6625
 6635SOL    HW231539   0.514   3.514   8.416  0.4130 -1.4394  0.1608
 6636SOL     OW31540   2.360   3.593  16.384  0.2994  0.3512 -0.1796
 6636SOL    HW131541   2.326   3.515  16.339  0.4915 -0.8168  1.7216
 6636SOL    HW231542   2.280   3.643  16.400 -0.9208 -1.6566 -0.0432
 6637SOL     OW31543   4.619   1.089   5.910 -0.7578  0.3182  0.0921
 6637SOL    HW131544   4.710   1.120   5.905  0.1366 -2.3106 -0.0956
 6637SOL    HW231545   4.567   1.146   5.854  1.0732  1.7122 -0.2155
 6638SOL     OW31546   4.567   0.456   1.688  0.0525  0.1034 -0.2427
 6638SOL    HW131547   4.478   0.428   1.707 -0.0135 -0.2248 -1.0473
 6638SOL    HW231548   4.585   0.511   1.765  0.9194 -2.3341  1.2726
 6639SOL     OW31549   2.477   3.865   6.318  0.1890  0.0230  0.1179
 6639SOL    HW131550   2.412   3.854   6.387  0.7401  0.3743  0.6857
 6639SOL    HW231551   2.506   3.953   6.342 -0.2247  0.2677 -0.2553
 6640SOL     OW31552   0.750   4.034   9.067 -0.0225 -0.5691  0.5662
 6640SOL    HW131553   0.681   4.031   9.001  0.7150  2.1526 -0.3560
 6640SOL    HW231554   0.808   3.961   9.046  0.4289  0.1779 -0.8079
 6641SOL     OW31555   3.610   0.510   8.472 -0.2768 -0.6446 -0.0913
 6641SOL    HW131556   3.534   0.452   8.480  1.3584 -2.7045  0.4321
 6641SOL    HW231557   3.610   0.518   8.376 -1.9133  0.0972 -0.0261
 6642SOL     OW31558   2.400   0.855   9.064  0.0459  0.4299 -0.1056
 6642SOL    HW131559   2.314   0.862   9.024 -0.3738 -0.2382  0.6758
 6642SOL    HW231560   2.370   0.836   9.153  2.4193 -0.7673  0.4355
 6643SOL     OW31561   0.003   2.474   4.412 -0.1958 -0.0351  0.3466
 6643SOL    HW131562   0.044   2.423   4.343  0.4356 -0.3124  0.9227
 6643SOL    HW231563   4.649   2.462   4.395  0.2403 -1.0970 -1.3043
 6644SOL     OW31564   0.958   2.490   3.758 -0.1135  0.5064 -0.2159
 6644SOL    HW131565   0.895   2.502   3.829 -0.4427  1.3721 -0.6506
 6644SOL    HW231566   0.899   2.446   3.696 -0.3247  0.0306  0.3236
 6645SOL     OW31567   1.588   2.214  17.225  0.0594  0.4760 -0.4983
 6645SOL    HW131568   1.588   2.249  17.136  3.0942  0.8319 -0.3522
 6645SOL    HW231569   1.681   2.217  17.248 -0.3332  0.0795  1.1499
 6646SOL     OW31570   3.532   0.586   1.953  0.0851 -0.1530  0.0375
 6646SOL    HW131571   3.504   0.611   2.041  2.0517 -0.0886  0.6438
 6646SOL    HW231572   3.472   0.618   1.886 -1.1846 -1.9860  0.2690
 6647SOL     OW31573   0.751   3.472   5.365 -0.6279 -0.5597 -0.0487
 6647SOL    HW131574   0.773   3.381   5.381  0.9923  0.1057  1.5428
 6647SOL    HW231575   0.701   3.488   5.445  0.3352  1.5406  0.1370
 6648SOL     OW31576   0.067   0.388   0.610 -0.2504  0.4842 -0.0629
 6648SOL    HW131577   0.061   0.420   0.701 -0.2127 -1.3829  0.5857
 6648SOL    HW231578   0.159   0.412   0.596  0.8347 -2.7239  1.4872
 6649SOL     OW31579   2.379   1.146   3.086 -0.1223  0.2632  0.1796
 6649SOL    HW131580   2.429   1.187   3.158  0.0246  1.3614 -0.5477
 6649SOL    HW231581   2.427   1.065   3.068  0.7758  0.6741  0.6826
 6650SOL     OW31582   1.574   1.401   4.658  0.3234 -0.3199 -0.0908
 6650SOL    HW131583   1.514   1.461   4.614  0.9708  1.3003  1.2353
 6650SOL    HW231584   1.657   1.440   4.633  0.3935 -1.3402 -1.4105
 6651SOL     OW31585   0.988   3.210   8.016  0.1387 -0.2982  0.1306
 6651SOL    HW131586   0.933   3.265   8.071  1.6080  0.2251  1.0910
 6651SOL    HW231587   0.984   3.123   8.056  0.6175 -0.6740 -0.6425
 6652SOL     OW31588   0.160   2.510   7.674  0.3357 -0.0760 -0.0838
 6652SOL    HW131589   0.231   2.520   7.612  1.2077  1.5273  1.1827
 6652SOL    HW231590   0.193   2.440   7.730  1.4518 -0.1822 -0.8811
 6653SOL     OW31591   0.647   0.798   7.574  0.2350 -0.1484  0.6322
 6653SOL    HW131592   0.742   0.785   7.580  0.1015 -0.8906  1.1242
 6653SOL    HW231593   0.635   0.787   7.480  4.7714 -0.3310  0.0627
 6654SOL     OW31594   2.661   1.250  11.410  0.1443  0.9870 -0.1498
 6654SOL    HW131595   2.721   1.321  11.430 -0.0503  0.8632  0.8685
 6654SOL    HW231596   2.709   1.191  11.351 -2.9909 -0.2567 -1.4796
 6655SOL     OW31597   3.421   0.799  11.425  0.4119  0.3546  0.1457
 6655SOL    HW131598   3.400   0.870  11.365  1.3462  0.4275 -0.0912
 6655SOL    HW231599   3.458   0.746  11.354  1.2164 -1.1747  1.7054
 6656SOL     OW31600   0.711   1.914   8.392 -0.0539 -0.0723 -0.2163
 6656SOL    HW131601   0.709   1.986   8.329  1.7159  0.3737  0.2435
 6656SOL    HW231602   0.616   1.903   8.395  0.1065 -0.9733  1.4763
 6657SOL     OW31603   3.510   1.115  12.657 -0.1406  0.0973  0.1991
 6657SOL    HW131604   3.415   1.103  12.654 -0.0336 -0.6448 -0.0960
 6657SOL    HW231605   3.554   1.033  12.636  0.6890  0.5007  0.3582
 6658SOL     OW31606   3.870   0.699   4.105  0.1017  0.2559  0.0580
 6658SOL    HW131607   3.813   0.683   4.029  0.0804 -0.6958  0.2699
 6658SOL    HW231608   3.947   0.714   4.051  1.3426  1.1201  2.0631
 6659SOL     OW31609   3.402   1.868   3.715  0.1222  0.4036 -0.5236
 6659SOL    HW131610   3.361   1.955   3.711 -1.1268 -0.1445  0.2266
 6659SOL    HW231611   3.415   1.877   3.810  2.5099 -0.2020 -0.8015
 6660SOL     OW31612   4.344   3.505   7.724 -0.4453  0.3773 -0.8427
 6660SOL    HW131613   4.368   3.549   7.805  1.0516 -0.1638 -0.9856
 6660SOL    HW231614   4.401   3.428   7.724  0.4106  0.9961  1.5623
 6661SOL     OW31615   1.154   4.551   7.787  0.3681 -0.5483 -0.3680
 6661SOL    HW131616   1.116   4.478   7.739  0.1982 -0.0353 -1.0123
 6661SOL    HW231617   1.202   4.590   7.714 -2.1237  0.3502 -1.5077
 6662SOL     OW31618   1.996   0.315   4.983  0.2209 -0.3751  0.5605
 6662SOL    HW131619   1.972   0.330   4.892  1.9395  0.9925  0.3380
 6662SOL    HW231620   2.076   0.367   4.988  0.1422 -0.1949 -0.0310
 6663SOL     OW31621   2.618   3.599  15.126  0.7378 -0.0913 -0.3758
 6663SOL    HW131622   2.573   3.623  15.207 -1.0526 -1.8879 -0.8346
 6663SOL    HW231623   2.661   3.683  15.110 -0.4911  0.2962 -1.6377
 6664SOL     OW31624   1.254   3.031   6.042  0.0794 -0.1317  0.4309
 6664SOL    HW131625   1.277   2.949   6.085 -1.2464  0.0815  1.5593
 6664SOL    HW231626   1.341   3.065   6.022  0.0726 -0.6099 -0.4247
 6665SOL     OW31627   4.306   4.310   8.317 -0.5678  0.2307 -0.0264
 6665SOL    HW131628   4.318   4.337   8.408  0.7214 -0.2188 -0.0644
 6665SOL    HW231629   4.396   4.294   8.290 -1.7555 -2.9026 -2.0834
 6666SOL     OW31630   0.821   2.498  13.511  0.1995  0.2964 -0.2895
 6666SOL    HW131631   0.854   2.411  13.486  0.2663 -0.1080  1.2533
 6666SOL    HW231632   0.777   2.480  13.594 -1.0505  0.6305 -0.8753
 6667SOL     OW31633   1.752   2.304   0.448 -0.2531  0.0754 -0.1125
 6667SOL    HW131634   1.758   2.264   0.361  0.2248  1.9360 -0.9277
 6667SOL    HW231635   1.659   2.327   0.458 -0.1861 -0.8753  2.6228
 6668SOL     OW31636   4.530   4.011   6.176  0.3966 -0.4184  0.7313
 6668SOL    HW131637   4.615   4.055   6.172 -1.3757  2.7405 -2.7234
 6668SOL    HW231638   4.531   3.969   6.262 -0.1525  0.2067  1.0434
 6669SOL     OW31639   2.230   2.031   4.741  0.6550  0.4535 -0.2268
 6669SOL    HW131640   2.311   1.987   4.717  0.6201  0.6890 -0.7839
 6669SOL    HW231641   2.181   2.023   4.659 -1.1447 -0.4457  0.9284
 6670SOL     OW31642   0.176   4.635   0.779  0.0309  0.0455 -0.0000
 6670SOL    HW131643   0.172   4.707   0.715  1.6367 -0.5607 -0.7804
 6670SOL    HW231644   0.256   4.592   0.749  0.1582  0.4255 -0.2118
 6671SOL     OW31645   0.171   3.382   4.247  0.0169  0.0289 -0.1885
 6671SOL    HW131646   0.107   3.365   4.178  0.2034 -1.5652  0.0177
 6671SOL    HW231647   0.212   3.295   4.244  0.7330  0.3323  0.7348
 6672SOL     OW31648   0.584   3.148   1.725 -0.0588  0.1702  0.5271
 6672SOL    HW131649   0.597   3.057   1.752  0.2389  0.5876  1.7619
 6672SOL    HW231650   0.660   3.185   1.770  0.7504  0.3605 -0.9942
 6673SOL     OW31651   0.127   0.292   2.938  0.2646 -0.1895 -0.2829
 6673SOL    HW131652   0.039   0.324   2.916  0.2153  1.0226  1.7727
 6673SOL    HW231653   0.111   0.198   2.930 -0.9225 -0.0496  0.5268
 6674SOL     OW31654   4.313   2.966   3.488  0.3456 -0.3345  0.2889
 6674SOL    HW131655   4.341   2.875   3.499  1.1980 -0.3231 -1.7662
 6674SOL    HW231656   4.395   3.013   3.475  0.4068  0.2725  3.0587
 6675SOL     OW31657   4.343   2.466   1.665  0.0118 -0.5132 -0.6395
 6675SOL    HW131658   4.328   2.559   1.677 -0.3218 -0.9461  2.2423
 6675SOL    HW231659   4.409   2.458   1.734 -0.6845  1.2508  0.2259
 6676SOL     OW31660   1.263   0.384  11.253  0.1876  0.1612 -0.4258
 6676SOL    HW131661   1.348   0.339  11.259 -0.5729 -1.2146 -0.0194
 6676SOL    HW231662   1.215   0.308  11.287  1.7815 -1.2040 -1.1925
 6677SOL     OW31663   2.028   0.352   3.804  0.4474  0.1802  0.0125
 6677SOL    HW131664   2.085   0.374   3.730 -0.6428 -2.5788 -1.6699
 6677SOL    HW231665   1.955   0.411   3.789  0.2513  0.2709  1.3172
 6678SOL     OW31666   1.940   3.080   8.101 -0.1258 -0.9058 -1.0792
 6678SOL    HW131667   1.851   3.102   8.075 -1.0774 -0.5884  2.3895
 6678SOL    HW231668   1.923   3.104   8.192  0.5920 -0.2504 -1.1188
 6679SOL     OW31669   0.851   3.076   2.847 -0.0033 -0.0014 -0.2900
 6679SOL    HW131670   0.835   3.042   2.935  0.6248  1.1024  0.2417
 6679SOL    HW231671   0.884   3.165   2.858  1.1167 -0.4843  0.2649
 6680SOL     OW31672   1.209   4.004  17.399 -0.0209 -0.2087 -0.1824
 6680SOL    HW131673   1.151   3.932  17.376 -0.2378  0.4314 -1.6712
 6680SOL    HW231674   1.172   4.014  17.486  1.6450 -0.5604  0.5664
 6681SOL     OW31675   3.605   0.020   6.672 -0.1548 -0.3045  0.0496
 6681SOL    HW131676   3.650   0.090   6.625 -1.1587  0.8137  0.7685
 6681SOL    HW231677   3.544   0.074   6.722 -1.1528 -1.7084  0.3351
 6682SOL     OW31678   4.346   2.250  12.325  0.3578  0.0870 -0.6117
 6682SOL    HW131679   4.259   2.215  12.305 -0.1827  0.8322  0.4651
 6682SOL    HW231680   4.371   2.174  12.378  2.0839  1.6390  0.8184
 6683SOL     OW31681   3.316   2.570   6.986  0.0594 -0.2112 -0.2362
 6683SOL    HW131682   3.407   2.581   7.014 -0.0299  2.9330 -1.1918
 6683SOL    HW231683   3.310   2.481   7.022  0.4593 -0.3530 -0.5170
 6684SOL     OW31684   1.863   3.113   8.388 -0.5484  0.1881 -0.1390
 6684SOL    HW131685   1.937   3.145   8.439 -1.7492  1.8061  0.5745
 6684SOL    HW231686   1.839   3.038   8.442  1.2597  0.7202  1.3933
 6685SOL     OW31687   3.991   1.543  12.487 -0.4914  0.0274  0.0137
 6685SOL    HW131688   3.946   1.610  12.436  2.3428  1.8307 -0.1046
 6685SOL    HW231689   4.060   1.596  12.526  0.8565 -1.9132  0.2598
 6686SOL     OW31690   0.410   2.364   8.003  0.3961  0.0383 -0.1861
 6686SOL    HW131691   0.482   2.311   7.968  0.0906 -0.6932  0.2919
 6686SOL    HW231692   0.342   2.324   7.949 -1.7102  2.9725  0.3311
 6687SOL     OW31693   2.997   1.768  12.185  0.1319  0.0035 -0.3094
 6687SOL    HW131694   3.013   1.847  12.236  0.9279 -0.9170  0.8767
 6687SOL    HW231695   3.062   1.784  12.118 -1.2515  0.0694 -1.6325
 6688SOL     OW31696   3.999   1.404   7.537 -0.0174  0.0431 -0.6161
 6688SOL    HW131697   3.926   1.461   7.559 -0.5354 -0.8927  0.1196
 6688SOL    HW231698   3.972   1.317   7.569  0.2043  0.8367  1.7518
 6689SOL     OW31699   0.760   3.990   6.747  0.9968  0.6722 -0.4234
 6689SOL    HW131700   0.810   4.066   6.776  1.4154  0.3018 -0.1807
 6689SOL    HW231701   0.806   3.926   6.801 -1.7441 -1.9952 -1.2448
 6690SOL     OW31702   1.818   1.292   8.989 -0.1882  0.5509  0.4114
 6690SOL    HW131703   1.891   1.351   8.969  0.8499 -1.3587 -1.4002
 6690SOL    HW231704   1.854   1.223   9.044  2.0621  0.2235 -1.4713
 6691SOL     OW31705   0.204   4.715   4.440 -0.2883 -0.1817  0.2120
 6691SOL    HW131706   0.184   4.693   4.349  0.6571  0.4743 -0.1652
 6691SOL    HW231707   0.300   4.720   4.431 -0.4411  1.1249 -0.7834
 6692SOL     OW31708   4.254   4.081   1.871 -1.3282  0.0651  0.4325
 6692SOL    HW131709   4.320   4.092   1.939  1.3688 -0.3729 -2.0787
 6692SOL    HW231710   4.202   4.008   1.906 -0.3678 -0.5898  0.4943
 6693SOL     OW31711   2.340   1.820   2.685 -0.3939  0.3502 -0.1384
 6693SOL    HW131712   2.262   1.874   2.670 -0.8830 -0.4061 -0.3194
 6693SOL    HW231713   2.382   1.872   2.753  1.5409 -0.9524 -0.3441
 6694SOL     OW31714   1.821   3.533   3.383  0.6058  0.1489  0.0535
 6694SOL    HW131715   1.857   3.588   3.452 -0.2989 -0.0229  0.6563
 6694SOL    HW231716   1.821   3.452   3.435 -0.3879  0.0254 -0.1314
 6695SOL     OW31717   0.161   1.000   0.092 -0.0295 -0.2112  0.1495
 6695SOL    HW131718   0.202   0.946   0.024  1.6250 -1.0338  1.8022
 6695SOL    HW231719   0.237   1.055   0.106 -0.1648  0.0307 -0.0678
 6696SOL     OW31720   0.838   3.188   5.413  0.0749  0.3020 -0.0403
 6696SOL    HW131721   0.890   3.124   5.461 -1.0877 -2.6681 -2.7578
 6696SOL    HW231722   0.751   3.184   5.452  0.4380 -1.3286  0.5954
 6697SOL     OW31723   2.608   1.532   7.646 -0.2767 -0.4961 -0.1613
 6697SOL    HW131724   2.669   1.458   7.646 -0.7733 -0.9089  0.3678
 6697SOL    HW231725   2.589   1.527   7.552 -1.5401 -1.8990  0.1702
 6698SOL     OW31726   4.389   1.817   1.572  0.5873  0.2099  0.1771
 6698SOL    HW131727   4.351   1.905   1.570  1.3193  0.4940 -0.8429
 6698SOL    HW231728   4.482   1.828   1.593  0.1661 -1.0418  2.7921
 6699SOL     OW31729   0.733   2.746  13.407 -0.4322  0.0440  0.1437
 6699SOL    HW131730   0.779   2.664  13.424  0.4542  0.9672  2.1502
 6699SOL    HW231731   0.641   2.726  13.421 -0.6018  2.2098  2.0171
 6700SOL     OW31732   0.627   1.449   1.208 -0.4262  0.2263  0.2872
 6700SOL    HW131733   0.608   1.539   1.233  0.7257  0.4100  0.4907
 6700SOL    HW231734   0.544   1.404   1.224 -0.5882 -0.0481 -1.3150
 6701SOL     OW31735   2.001   3.397  14.884  0.1098  0.0733  0.3187
 6701SOL    HW131736   2.034   3.480  14.917 -0.5605  0.7310 -0.6872
 6701SOL    HW231737   2.067   3.354  14.829  0.9580  1.4028  0.2952
 6702SOL     OW31738   1.876   0.924   3.187 -0.3397 -0.4731  0.3219
 6702SOL    HW131739   1.937   0.969   3.245 -0.1131 -0.7450  0.2926
 6702SOL    HW231740   1.926   0.916   3.105 -0.9812  1.0014 -0.2091
 6703SOL     OW31741   4.580   3.115  15.659  0.0785  0.4357 -0.7153
 6703SOL    HW131742   4.484   3.119  15.660  0.0650  0.5839 -2.8449
 6703SOL    HW231743   4.609   3.173  15.730 -1.7437  0.9809 -0.4114
 6704SOL     OW31744   2.899   0.073  16.547  0.1578 -0.9339  0.0264
 6704SOL    HW131745   2.985   0.070  16.504  0.0262 -2.6223 -0.0891
 6704SOL    HW231746   2.912   0.088  16.641 -2.2660  0.6380  0.1181
 6705SOL     OW31747   0.805   4.624  14.274  0.4079  0.2926  0.2142
 6705SOL    HW131748   0.737   4.684  14.303 -1.3868 -0.6618 -2.0237
 6705SOL    HW231749   0.867   4.631  14.346 -0.1301 -2.7625  0.9874
 6706SOL     OW31750   4.250   1.874   2.600 -0.1167  0.1701 -0.2032
 6706SOL    HW131751   4.336   1.833   2.600 -0.2727 -0.1518  0.9734
 6706SOL    HW231752   4.194   1.797   2.604 -0.1124  0.2986  2.2232
 6707SOL     OW31753   1.279   4.239  10.262  0.9788 -0.2624 -0.2587
 6707SOL    HW131754   1.351   4.183  10.233  1.0874 -1.2999  2.0340
 6707SOL    HW231755   1.212   4.215  10.198 -0.5692  1.6708  0.6462
 6708SOL     OW31756   1.279   0.932   5.406  0.1577  0.6275  0.0811
 6708SOL    HW131757   1.328   0.951   5.325  1.1943  0.8361  0.7540
 6708SOL    HW231758   1.302   0.844   5.434  3.8315  0.9385 -1.9493
 6709SOL     OW31759   0.217   1.966   8.152 -0.3214  0.2530  0.2586
 6709SOL    HW131760   0.191   1.957   8.060 -0.5954  0.1965  0.3407
 6709SOL    HW231761   0.136   1.945   8.198 -0.9529 -0.2001 -1.0585
 6710SOL     OW31762   1.252   0.168   3.267 -0.0393  0.6165 -0.1704
 6710SOL    HW131763   1.318   0.115   3.313 -0.4586 -0.1424 -0.4384
 6710SOL    HW231764   1.311   0.237   3.236  3.2030 -1.6311  0.9364
 6711SOL     OW31765   4.146   4.024   5.948 -0.3704 -0.4492  0.0525
 6711SOL    HW131766   4.061   4.001   5.987 -0.1260 -1.3429  0.0675
 6711SOL    HW231767   4.194   4.074   6.013 -0.8710  1.2367 -0.8653
 6712SOL     OW31768   0.009   0.670   2.348 -0.2905 -0.5382  0.6063
 6712SOL    HW131769   0.055   0.593   2.383  0.4816 -0.1107  0.5295
 6712SOL    HW231770   4.710   0.637   2.267 -0.3941 -1.2950  0.9663
 6713SOL     OW31771   1.338   3.183  10.092 -0.2762  0.0844  0.2591
 6713SOL    HW131772   1.279   3.231  10.035 -0.2479 -1.5049 -1.1349
 6713SOL    HW231773   1.394   3.257  10.114 -0.9910  0.8280 -0.4190
 6714SOL     OW31774   1.620   2.066   8.438  0.5151  0.2094  0.0809
 6714SOL    HW131775   1.541   2.044   8.389 -1.2828  0.6444  2.7859
 6714SOL    HW231776   1.660   2.099   8.357 -1.7441  2.5313 -0.0701
 6715SOL     OW31777   3.902   2.006  17.328  0.1438 -0.2681 -0.0348
 6715SOL    HW131778   3.886   1.924  17.280  1.0282 -0.9848  0.8913
 6715SOL    HW231779   3.996   2.007  17.310  0.3966  0.2692  1.3371
 6716SOL     OW31780   1.370   3.023   4.282 -0.0372  0.5960 -0.8190
 6716SOL    HW131781   1.299   2.980   4.331  0.5658  1.9796  1.2917
 6716SOL    HW231782   1.419   2.957   4.233 -1.6303 -0.1157 -1.4413
 6717SOL     OW31783   2.327   3.949   5.954 -0.4599 -0.2781  0.8275
 6717SOL    HW131784   2.406   3.921   5.907  0.6518  0.6511  2.1319
 6717SOL    HW231785   2.375   3.989   6.027  0.4465 -1.3264  0.8066
 6718SOL     OW31786   3.438   2.782  14.150 -0.4937  0.5788  0.2312
 6718SOL    HW131787   3.491   2.736  14.085 -1.4867 -0.8005  0.4023
 6718SOL    HW231788   3.487   2.861  14.170 -1.7352  1.4425 -0.1317
 6719SOL     OW31789   3.008   2.351   9.231 -0.0782  0.0310  0.0196
 6719SOL    HW131790   2.916   2.357   9.207 -0.8614 -0.6576  2.8707
 6719SOL    HW231791   3.023   2.446   9.238  0.7691 -0.0154 -1.0634
 6720SOL     OW31792   0.484   0.441   8.613  0.0226 -0.3683 -0.8270
 6720SOL    HW131793   0.485   0.374   8.681 -0.2862  0.4990  0.0392
 6720SOL    HW231794   0.551   0.505   8.637 -0.1640 -0.1639 -0.8437
 6721SOL     OW31795   1.710   1.974   5.865 -0.1429  0.6324 -0.3500
 6721SOL    HW131796   1.775   2.034   5.902  0.8572 -0.4390 -0.3706
 6721SOL    HW231797   1.644   2.031   5.825 -1.5909 -0.2713  0.7421
 6722SOL     OW31798   2.243   4.380   0.083 -0.0584  0.5729  0.4752
 6722SOL    HW131799   2.274   4.290   0.091 -1.1148  0.3554  2.0475
 6722SOL    HW231800   2.248   4.384  17.746 -1.1836 -0.2224  0.3865
 6723SOL     OW31801   2.096   2.146   2.824 -0.3460 -0.3159 -0.0901
 6723SOL    HW131802   2.019   2.110   2.780  1.4818 -2.0248 -1.8908
 6723SOL    HW231803   2.156   2.144   2.749 -1.0100 -0.0990 -0.6370
 6724SOL     OW31804   1.897   0.326   8.614 -0.2815  0.4596 -0.0176
 6724SOL    HW131805   1.827   0.270   8.582 -1.0129  1.4575 -0.1884
 6724SOL    HW231806   1.848   0.401   8.648  1.2508  1.0738  0.8608
 6725SOL     OW31807   1.538   0.873   6.914 -0.4599 -0.0796 -0.1871
 6725SOL    HW131808   1.586   0.844   6.836 -1.4967 -0.2682 -0.7687
 6725SOL    HW231809   1.488   0.793   6.930 -1.6151  0.0500 -3.0383
 6726SOL     OW31810   0.524   0.887   8.785 -0.6963 -0.2882  0.1074
 6726SOL    HW131811   0.620   0.882   8.788 -0.6579  1.3289  1.7218
 6726SOL    HW231812   0.507   0.906   8.877 -0.6256 -1.3254  0.3313
 6727SOL     OW31813   4.490   2.620   7.580  0.0019 -0.2950 -0.5298
 6727SOL    HW131814   4.436   2.699   7.578  0.9784  0.3411 -1.7645
 6727SOL    HW231815   4.438   2.572   7.645 -0.9095  1.2710 -0.1007
 6728SOL     OW31816   3.807   1.086   8.094  0.6115 -0.0885  0.5792
 6728SOL    HW131817   3.883   1.108   8.147  0.9959 -2.4432  0.9882
 6728SOL    HW231818   3.744   1.124   8.155  0.5157  0.3301  0.2240
 6729SOL     OW31819   3.372   4.460   7.685  0.3233  0.5109 -0.5028
 6729SOL    HW131820   3.332   4.479   7.600  2.7249  0.0522 -1.7296
 6729SOL    HW231821   3.436   4.392   7.663 -1.1607 -1.3931  1.0739
 6730SOL     OW31822   0.478   0.061  14.901  0.1720  0.0493  0.5186
 6730SOL    HW131823   0.490   4.713  14.935 -0.4110  0.0957  0.8372
 6730SOL    HW231824   0.497   0.043  14.808 -0.3565 -2.3986  0.8864
 6731SOL     OW31825   4.462   3.564   8.429  0.5155 -0.0179  0.7674
 6731SOL    HW131826   4.389   3.567   8.490 -0.7044  1.2277 -0.7567
 6731SOL    HW231827   4.481   3.654   8.403  0.9313 -0.1640  0.5476
 6732SOL     OW31828   3.364   4.679   7.069  0.5227 -0.1762 -0.3602
 6732SOL    HW131829   3.343   0.001   6.999  0.8961  0.7250  0.3323
 6732SOL    HW231830   3.452   4.655   7.042  0.2962 -0.2354 -1.0345
 6733SOL     OW31831   3.959   3.923   0.635 -0.5174  0.1469 -0.5005
 6733SOL    HW131832   3.964   3.915   0.539  1.6893 -1.4122 -0.2634
 6733SOL    HW231833   3.900   3.997   0.647 -0.7268 -0.0947 -0.0454
 6734SOL     OW31834   3.016   4.128   2.057 -0.4349 -0.5954  0.1507
 6734SOL    HW131835   3.059   4.208   2.026  1.2749 -1.3744  0.5661
 6734SOL    HW231836   3.049   4.117   2.146 -2.3374 -3.0977  0.5408
 6735SOL     OW31837   0.125   2.785  10.559 -0.3148  0.1887 -0.7701
 6735SOL    HW131838   0.076   2.711  10.593  1.4123  0.1947  1.7567
 6735SOL    HW231839   0.164   2.812  10.643 -2.4900  0.8206  0.0312
 6736SOL     OW31840   1.852   4.650   1.512  0.3322 -0.3860 -0.2803
 6736SOL    HW131841   1.788   4.632   1.581 -0.9234  1.4413 -0.9806
 6736SOL    HW231842   1.920   4.594   1.549 -0.6920 -0.3439  1.6237
 6737SOL     OW31843   4.377   1.236   1.121  0.0388 -0.1812  0.1020
 6737SOL    HW131844   4.318   1.290   1.068 -2.7596 -1.7032  1.6275
 6737SOL    HW231845   4.439   1.208   1.054 -0.1625 -0.0257 -0.1499
 6738SOL     OW31846   3.865   2.680  11.526 -0.0517 -0.1395  0.0501
 6738SOL    HW131847   3.895   2.609  11.582  0.9551  0.4053  0.2107
 6738SOL    HW231848   3.925   2.747  11.560 -2.3906  1.7346  0.4498
 6739SOL     OW31849   2.894   3.119   7.526  0.2218  0.3176 -0.2545
 6739SOL    HW131850   2.907   3.197   7.472 -1.1897  0.6652 -0.0853
 6739SOL    HW231851   2.974   3.067   7.517 -0.4826 -0.5581 -1.4649
 6740SOL     OW31852   3.241   0.321   6.332 -0.1855  0.9592 -0.1813
 6740SOL    HW131853   3.180   0.280   6.270  0.8571 -1.7627  0.6002
 6740SOL    HW231854   3.279   0.379   6.267  1.4293  0.3605  0.2265
 6741SOL     OW31855   2.468   4.529  12.192 -0.8990 -0.7053  0.4520
 6741SOL    HW131856   2.527   4.454  12.185  0.9221  0.7735 -0.0544
 6741SOL    HW231857   2.492   4.582  12.116 -3.6906  0.7488  0.6153
 6742SOL     OW31858   2.719   3.456   6.820 -0.2415 -0.0336 -0.0260
 6742SOL    HW131859   2.731   3.363   6.798  0.6189  0.0893 -0.0748
 6742SOL    HW231860   2.726   3.458   6.915  0.3032  0.0567 -0.0657
 6743SOL     OW31861   2.895   0.323   4.217 -0.6253 -0.1460  0.5491
 6743SOL    HW131862   2.874   0.386   4.286  1.4276  2.5629 -1.2669
 6743SOL    HW231863   2.820   0.264   4.222 -2.3253  2.0301  0.6684
 6744SOL     OW31864   3.340   2.931   8.675 -0.6426 -0.3017  0.2437
 6744SOL    HW131865   3.265   2.872   8.678 -1.1307  0.1966 -2.3697
 6744SOL    HW231866   3.314   3.001   8.735  1.1530  0.9690 -0.4414
 6745SOL     OW31867   1.229   4.356   0.796 -0.4662  0.3707 -0.2876
 6745SOL    HW131868   1.237   4.286   0.731  1.4384 -0.9472  1.3385
 6745SOL    HW231869   1.281   4.419   0.747  1.6284 -0.9254  0.2138
 6746SOL     OW31870   0.574   3.466   6.489 -0.1724 -0.9644  0.4596
 6746SOL    HW131871   0.480   3.478   6.502  0.1445  2.9243 -0.8631
 6746SOL    HW231872   0.593   3.373   6.503 -0.0449 -0.4393  3.7160
 6747SOL     OW31873   0.631   1.588   1.960  0.4882  0.3329  0.1418
 6747SOL    HW131874   0.682   1.551   1.888 -0.8521 -1.2995  0.0346
 6747SOL    HW231875   0.600   1.510   2.007  0.6206 -0.1613 -0.5888
 6748SOL     OW31876   4.667   0.082   0.585 -0.3367 -0.3851  0.5379
 6748SOL    HW131877   0.021   0.074   0.575 -0.3242 -1.2874  1.3170
 6748SOL    HW231878   4.654   0.174   0.564  1.2862 -0.2874 -0.0196
 6749SOL     OW31879   2.973   3.248   6.301 -0.0346  0.4386  0.2138
 6749SOL    HW131880   2.924   3.205   6.231 -0.1500  1.2923 -0.2242
 6749SOL    HW231881   3.058   3.205   6.288 -1.4146 -2.7516  1.6488
 6750SOL     OW31882   4.103   0.660   3.173  0.2062 -0.5551 -0.8320
 6750SOL    HW131883   4.031   0.619   3.222 -0.5293 -0.0563 -1.4877
 6750SOL    HW231884   4.175   0.644   3.234  1.2875 -0.5624 -2.1026
 6751SOL     OW31885   4.533   0.699   4.844 -0.4131  0.3357 -0.0199
 6751SOL    HW131886   4.524   0.617   4.795 -1.2179  0.8345 -0.7147
 6751SOL    HW231887   4.559   0.654   4.924  1.1683 -0.2672 -0.8719
 6752SOL     OW31888   3.199   2.237  13.076  0.2012 -0.0245  0.3224
 6752SOL    HW131889   3.134   2.171  13.051 -1.3956  1.3619  0.8336
 6752SOL    HW231890   3.145   2.315  13.079  0.5622  0.2099  0.7777
 6753SOL     OW31891   0.705   4.044  14.708  0.6544 -0.0283  0.5590
 6753SOL    HW131892   0.796   4.043  14.736  0.7172  0.8621  0.3938
 6753SOL    HW231893   0.681   3.951  14.714  1.9601 -0.3353  1.0142
 6754SOL     OW31894   4.336   4.620  12.210  0.0475  0.1570  0.2498
 6754SOL    HW131895   4.305   4.537  12.247 -1.2533  0.3647 -0.3669
 6754SOL    HW231896   4.248   4.657  12.197  0.7095  2.1002  1.1769
 6755SOL     OW31897   0.726   3.676   9.151 -1.0319  0.4243  0.5797
 6755SOL    HW131898   0.801   3.703   9.097  0.0005 -1.1679  1.2148
 6755SOL    HW231899   0.742   3.585   9.176  0.3927  1.2801  2.7563
 6756SOL     OW31900   3.686   0.146   9.256  0.1945 -0.3280 -0.0217
 6756SOL    HW131901   3.755   0.167   9.193  1.1238 -1.8856  0.4682
 6756SOL    HW231902   3.695   0.229   9.302  0.1498  1.6357 -3.4843
 6757SOL     OW31903   0.415   3.018   5.905  0.2146 -0.6641  0.9701
 6757SOL    HW131904   0.400   3.043   5.814  1.1720  1.7219  1.4707
 6757SOL    HW231905   0.481   3.085   5.921 -0.9164  0.6010  0.2968
 6758SOL     OW31906   3.359   2.465  12.976  0.4754 -0.0843 -0.3762
 6758SOL    HW131907   3.274   2.465  12.931 -0.1548 -0.8517  0.8175
 6758SOL    HW231908   3.347   2.394  13.038 -0.9906  1.3852  1.0332
 6759SOL     OW31909   2.986   3.184   9.395 -1.1045 -0.2520  0.5160
 6759SOL    HW131910   3.055   3.117   9.396 -1.6302 -0.7866  0.8671
 6759SOL    HW231911   2.908   3.137   9.422 -1.4768  0.3872  0.5546
 6760SOL     OW31912   0.673   4.159   1.181  0.1304  0.3024  0.2874
 6760SOL    HW131913   0.670   4.218   1.257  0.8865 -0.8096  1.1739
 6760SOL    HW231914   0.709   4.216   1.113 -1.1165  0.0068 -0.6149
 6761SOL     OW31915   3.956   4.062  10.917 -0.4621  0.4109 -0.3216
 6761SOL    HW131916   3.918   4.010  10.988  0.3895 -0.6391 -0.6311
 6761SOL    HW231917   4.035   4.011  10.899  1.1047  2.7690 -0.0188
 6762SOL     OW31918   3.731   4.501   5.808 -0.4181 -0.5946 -0.5443
 6762SOL    HW131919   3.784   4.518   5.886 -2.6109 -2.5437  1.3598
 6762SOL    HW231920   3.658   4.563   5.802  0.3156  0.5161  1.9137
 6763SOL     OW31921   0.749   4.108   5.289  0.6888  0.4820  0.1144
 6763SOL    HW131922   0.681   4.047   5.318  2.0883 -1.0494  0.1434
 6763SOL    HW231923   0.691   4.180   5.261  0.3101  0.4250  0.7600
 6764SOL     OW31924   1.588   1.018   5.500  0.0264 -0.3427  0.4691
 6764SOL    HW131925   1.581   0.924   5.481 -0.0058 -0.7337  2.4357
 6764SOL    HW231926   1.549   1.053   5.420  0.8205  1.7984  1.0153
 6765SOL     OW31927   2.865   2.219   3.821  0.1351 -0.6199  0.4254
 6765SOL    HW131928   2.863   2.124   3.810  0.5702 -0.8383  2.4047
 6765SOL    HW231929   2.939   2.241   3.765  0.5172  1.3562  1.7223
 6766SOL     OW31930   2.175   1.413   6.586  0.3527 -0.3085 -0.2169
 6766SOL    HW131931   2.159   1.320   6.570  0.7733 -0.3408 -0.4565
 6766SOL    HW231932   2.095   1.450   6.548  1.4782  0.0454 -2.2213
 6767SOL     OW31933   0.799   3.522   8.453  0.4021 -0.5224  0.2661
 6767SOL    HW131934   0.726   3.529   8.516 -1.7346 -1.7124 -2.0865
 6767SOL    HW231935   0.845   3.477   8.524  0.4360  2.9296  2.4798
 6768SOL     OW31936   0.674   2.337   8.443 -0.3444 -0.2322 -0.3925
 6768SOL    HW131937   0.720   2.420   8.450 -0.7392 -0.1391  1.0454
 6768SOL    HW231938   0.607   2.358   8.377 -1.0917 -1.3913 -0.0151
 6769SOL     OW31939   0.667   3.080   7.561 -0.2818  0.1465  0.2975
 6769SOL    HW131940   0.639   3.170   7.548 -0.7842 -0.1357 -0.6090
 6769SOL    HW231941   0.732   3.067   7.491 -1.8126  0.9812 -1.2972
 6770SOL     OW31942   4.263   0.367   6.970 -0.1033  0.8073  0.2361
 6770SOL    HW131943   4.202   0.379   7.043  0.0677 -2.1347  0.8683
 6770SOL    HW231944   4.348   0.390   7.005 -0.5799  1.6304  0.8473
 6771SOL     OW31945   1.161   2.169   8.565 -0.8836  0.3554  0.1330
 6771SOL    HW131946   1.198   2.082   8.580  0.7557  0.9436 -0.5672
 6771SOL    HW231947   1.137   2.144   8.476  2.5029  3.2415 -1.5804
 6772SOL     OW31948   0.128   3.394  16.049  0.4563 -0.0239 -0.2608
 6772SOL    HW131949   0.047   3.441  16.069 -0.4896 -2.1481  0.8638
 6772SOL    HW231950   0.150   3.431  15.964  1.0509  1.2189  0.4330
 6773SOL     OW31951   1.960   0.425   9.223 -0.4929 -0.9077  0.1135
 6773SOL    HW131952   2.021   0.360   9.258  0.0323 -0.9367 -0.8591
 6773SOL    HW231953   2.014   0.470   9.159 -2.3796  2.5057  0.9280
 6774SOL     OW31954   1.891   1.911  10.420 -0.1962 -0.1459  0.2231
 6774SOL    HW131955   1.958   1.875  10.363 -1.4228 -0.4771 -1.0254
 6774SOL    HW231956   1.866   1.828  10.461  0.4286 -0.4668 -0.0571
 6775SOL     OW31957   3.849   3.957   6.998 -0.4755 -0.0029  0.1082
 6775SOL    HW131958   3.762   3.973   7.035 -0.7554  0.6433 -0.8500
 6775SOL    HW231959   3.847   3.975   6.904 -1.1213  1.5706  0.4163
 6776SOL     OW31960   2.279   2.199   8.703 -0.1647  0.6853 -0.2990
 6776SOL    HW131961   2.221   2.168   8.773 -0.8992  1.3031 -0.6443
 6776SOL    HW231962   2.362   2.155   8.721 -0.1493  0.7109 -0.3075
 6777SOL     OW31963   2.734   0.691   0.832 -0.5221  0.3615  0.0982
 6777SOL    HW131964   2.737   0.778   0.791  0.0015  0.7619  0.9746
 6777SOL    HW231965   2.766   0.626   0.771 -0.4387  1.9133 -1.5032
 6778SOL     OW31966   3.404   4.640  10.151 -0.0082  0.1638 -0.3257
 6778SOL    HW131967   3.310   4.634  10.163 -0.2829  3.4959 -0.7900
 6778SOL    HW231968   3.407   4.682  10.065  1.7019 -0.1612 -0.4369
 6779SOL     OW31969   0.192   1.824   0.536  0.0862  0.6309 -0.0584
 6779SOL    HW131970   0.102   1.794   0.522 -0.0192  0.1947  1.5745
 6779SOL    HW231971   0.210   1.768   0.611 -1.3265 -1.1651 -1.0707
 6780SOL     OW31972   3.812   1.258   9.847  0.4565  0.3018 -0.3697
 6780SOL    HW131973   3.904   1.243   9.827  1.0178  0.7499  1.8486
 6780SOL    HW231974   3.779   1.253   9.757 -1.3320 -0.4612  0.3314
 6781SOL     OW31975   0.551   3.482   1.968  0.0116 -0.0450 -0.3752
 6781SOL    HW131976   0.566   3.554   1.907 -0.0978 -2.4692 -3.2380
 6781SOL    HW231977   0.489   3.539   2.014  1.2278 -1.8270  3.4620
 6782SOL     OW31978   4.395   3.136  10.432  0.2854 -0.1924 -0.2332
 6782SOL    HW131979   4.394   3.043  10.453 -1.7624  0.2600  1.5946
 6782SOL    HW231980   4.311   3.162  10.470  0.2460 -0.8477  0.1182
 6783SOL     OW31981   1.658   1.116   3.084  0.2894 -0.0302 -0.1811
 6783SOL    HW131982   1.722   1.046   3.099 -1.9167 -2.0463 -0.1365
 6783SOL    HW231983   1.670   1.146   2.994 -0.6683 -0.2730 -0.3873
 6784SOL     OW31984   3.363   4.236  14.007 -0.2093 -0.0085  0.3529
 6784SOL    HW131985   3.446   4.222  14.052 -0.1285  0.8708  0.4756
 6784SOL    HW231986   3.390   4.308  13.950 -0.0162 -0.1664  0.2424
 6785SOL     OW31987   0.775   3.595  11.926  0.2307  0.3513 -0.1155
 6785SOL    HW131988   0.815   3.560  12.006 -0.4101 -0.0769  0.0209
 6785SOL    HW231989   0.814   3.682  11.920 -0.6117  0.7586  0.1960
 6786SOL     OW31990   0.718   0.116   3.500 -0.3349 -0.8379  0.2930
 6786SOL    HW131991   0.779   0.090   3.570 -1.4299  0.0008  1.5392
 6786SOL    HW231992   0.645   0.138   3.556  0.2296  1.3454  0.1420
 6787SOL     OW31993   2.732   4.593   4.504 -0.0636 -0.5023 -0.2687
 6787SOL    HW131994   2.815   4.551   4.525  0.1843  0.0451 -0.1719
 6787SOL    HW231995   2.738   4.667   4.564  0.8266 -0.2018 -0.7408
 6788SOL     OW31996   2.595   4.589   8.496  0.3003  0.0991 -0.0556
 6788SOL    HW131997   2.623   4.499   8.479 -1.2687 -0.4042  0.0712
 6788SOL    HW231998   2.599   4.602   8.591  2.1811  1.7848 -0.3388
 6789SOL     OW31999   1.321   2.347   4.627 -0.2455 -0.0202 -0.4940
 6789SOL    HW132000   1.233   2.322   4.599 -0.4990 -0.5858  0.8561
 6789SOL    HW232001   1.347   2.274   4.683  0.7217 -1.9469 -3.4255
 6790SOL     OW32002   2.296   4.080   6.571  0.0678  0.0721 -1.4309
 6790SOL    HW132003   2.277   4.145   6.639  2.0153  0.6180 -1.3943
 6790SOL    HW232004   2.374   4.115   6.528  1.0640  0.7599  0.9076
 6791SOL     OW32005   2.617   3.215   8.038  0.0180  0.4312  0.5938
 6791SOL    HW132006   2.554   3.250   8.100  0.7550 -0.8049  2.0357
 6791SOL    HW232007   2.579   3.242   7.954  0.7828 -0.6095 -0.1001
 6792SOL     OW32008   0.691   1.655  16.804 -0.3278 -0.4560 -0.0299
 6792SOL    HW132009   0.615   1.712  16.813 -0.6126 -0.8237 -0.0686
 6792SOL    HW232010   0.705   1.620  16.892  2.7629 -1.8977 -1.0857
 6793SOL     OW32011   4.098   1.763   3.033  1.0865  0.6514 -0.0628
 6793SOL    HW132012   4.106   1.824   2.959 -0.8121 -0.0578 -0.8446
 6793SOL    HW232013   4.074   1.825   3.102  0.7565  0.1373  0.2785
 6794SOL     OW32014   4.530   2.097   3.468 -0.1728  0.3864  0.2229
 6794SOL    HW132015   4.467   2.153   3.422 -0.0102 -0.9214 -1.6176
 6794SOL    HW232016   4.614   2.116   3.426 -0.0635  0.5606  0.5254
 6795SOL     OW32017   4.628   1.999   8.539 -0.1261  0.3041 -0.6774
 6795SOL    HW132018   4.644   1.950   8.620  2.0664  1.8527 -0.1582
 6795SOL    HW232019   4.534   2.013   8.528 -0.0201  0.6918 -1.0700
 6796SOL     OW32020   1.383   1.007   4.049 -0.1369 -0.6763  0.0289
 6796SOL    HW132021   1.324   0.939   4.017  0.9428 -0.7425 -1.8117
 6796SOL    HW232022   1.452   0.957   4.093 -0.0882  1.4217  2.3515
 6797SOL     OW32023   1.337   2.818  11.397  0.5991  0.0673 -0.2101
 6797SOL    HW132024   1.391   2.892  11.423 -0.2656  0.6173  0.0254
 6797SOL    HW232025   1.293   2.802  11.480  1.6277  0.4943  0.4184
 6798SOL     OW32026   1.745   1.554   5.849 -0.5643 -0.5799 -1.0219
 6798SOL    HW132027   1.759   1.587   5.938 -0.8773 -0.4493 -1.0225
 6798SOL    HW232028   1.835   1.558   5.816  0.4339  0.3458  1.7629
 6799SOL     OW32029   2.196   4.596   4.714  0.1364 -0.2768  0.2961
 6799SOL    HW132030   2.110   4.557   4.698 -0.3224  0.8743 -0.0848
 6799SOL    HW232031   2.252   4.544   4.656  0.6892  2.0679 -1.2839
 6800SOL     OW32032   3.579   2.489   1.198 -0.6993  0.0490  0.5930
 6800SOL    HW132033   3.536   2.403   1.207 -1.8304  0.4762 -0.7486
 6800SOL    HW232034   3.659   2.474   1.248 -0.3176  1.4621  0.4032
 6801SOL     OW32035   0.557   0.617   2.641  0.3889  0.4000  0.8545
 6801SOL    HW132036   0.559   0.568   2.559  0.2589  1.5114  0.1812
 6801SOL    HW232037   0.561   0.543   2.701 -0.2718  1.2790  2.0032
 6802SOL     OW32038   1.515   3.468   0.267  0.0777  0.2423  0.0625
 6802SOL    HW132039   1.457   3.439   0.337 -2.3705  0.9711 -1.6508
 6802SOL    HW232040   1.454   3.478   0.194  1.3695  3.8219 -0.5126
 6803SOL     OW32041   3.366   3.686   3.233  0.1686 -0.3050 -0.2773
 6803SOL    HW132042   3.309   3.629   3.181 -1.2092 -2.1269  3.1618
 6803SOL    HW232043   3.441   3.626   3.234  1.1883  1.0535  3.2429
 6804SOL     OW32044   1.085   1.781   8.243  0.5860  0.0199 -0.0210
 6804SOL    HW132045   1.014   1.844   8.238  1.3059  0.8660  0.4219
 6804SOL    HW232046   1.147   1.821   8.181 -1.1559 -0.5825 -2.1588
 6805SOL     OW32047   2.971   0.039  10.055  0.4297 -0.1705 -0.4641
 6805SOL    HW132048   3.025   4.721  10.109 -1.0333 -1.5502 -0.5040
 6805SOL    HW232049   2.985   0.006   9.966 -0.9479  1.6599 -1.3662
 6806SOL     OW32050   2.523   1.527  12.026 -0.6482  0.0137  0.1129
 6806SOL    HW132051   2.435   1.562  12.009 -0.3130  1.4201  1.3155
 6806SOL    HW232052   2.518   1.446  11.975 -0.2195 -0.3425  0.6318
 6807SOL     OW32053   3.419   3.693   9.231 -0.6886 -0.0225 -0.0040
 6807SOL    HW132054   3.455   3.778   9.205  0.8676 -0.7889 -0.4044
 6807SOL    HW232055   3.332   3.719   9.260 -0.8441  0.0979 -0.5821
 6808SOL     OW32056   1.673   1.808   6.494 -0.7204 -0.1804  0.1679
 6808SOL    HW132057   1.639   1.719   6.486  0.1088 -0.5789  1.1456
 6808SOL    HW232058   1.687   1.816   6.589  0.5574  2.9109 -0.2979
 6809SOL     OW32059   4.137   3.446   8.944  0.8294 -0.0585 -0.0469
 6809SOL    HW132060   4.131   3.350   8.951 -0.5337 -0.0060 -0.5132
 6809SOL    HW232061   4.053   3.473   8.909  0.0987 -0.6516  1.2208
 6810SOL     OW32062   3.921   1.013   0.763 -0.1636 -0.0413 -0.0220
 6810SOL    HW132063   3.910   1.026   0.668  0.2049  0.6617  0.0297
 6810SOL    HW232064   3.868   1.085   0.798  2.8483  1.5276  1.3316
 6811SOL     OW32065   0.588   1.810   7.471 -0.5104  0.2997  0.1611
 6811SOL    HW132066   0.620   1.791   7.383  0.2361 -0.7304  0.6470
 6811SOL    HW232067   0.493   1.809   7.455 -0.6221  0.4342  0.8040
 6812SOL     OW32068   1.171   3.400  16.657  0.3891  0.2292  0.4480
 6812SOL    HW132069   1.210   3.316  16.632 -0.7983 -1.2285  3.4807
 6812SOL    HW232070   1.253   3.424  16.701  1.7766 -0.3150 -1.8571
 6813SOL     OW32071   0.575   2.581   6.237  0.2984  0.0941 -0.0369
 6813SOL    HW132072   0.497   2.619   6.197  1.0365  1.0829 -0.5144
 6813SOL    HW232073   0.626   2.564   6.158  1.3313  1.1103  0.4159
 6814SOL     OW32074   2.168   4.502  11.419 -0.4942  0.1140 -0.0026
 6814SOL    HW132075   2.178   4.595  11.442  1.4013  0.5069 -2.3543
 6814SOL    HW232076   2.141   4.480  11.508  0.7014 -0.5986  0.1909
 6815SOL     OW32077   1.572   3.052   9.258 -0.2343  0.1316 -0.3227
 6815SOL    HW132078   1.578   3.117   9.187  1.6089  2.2923  1.8228
 6815SOL    HW232079   1.478   3.040   9.272 -0.4117  1.1546 -0.6247
 6816SOL     OW32080   3.714   4.270   0.946  0.2022 -0.0290 -0.3373
 6816SOL    HW132081   3.774   4.285   1.020 -3.0294  0.5034  2.1754
 6816SOL    HW232082   3.721   4.174   0.944 -2.1031 -0.2688  2.8493
 6817SOL     OW32083   4.032   1.371   5.034 -0.5331  0.2005 -0.3160
 6817SOL    HW132084   4.041   1.434   4.963  1.3688  0.8422  0.4935
 6817SOL    HW232085   4.120   1.334   5.028 -0.3899  0.5951 -0.6978
 6818SOL     OW32086   3.300   0.643   4.875  0.1140 -0.8082  0.2651
 6818SOL    HW132087   3.301   0.739   4.871 -3.7776 -0.7204  1.8764
 6818SOL    HW232088   3.210   0.632   4.844  0.2795 -1.7441  0.1214
 6819SOL     OW32089   2.460   0.288   3.398  0.3820  0.1109  0.2172
 6819SOL    HW132090   2.519   0.356   3.363  0.4900 -0.9566 -1.7024
 6819SOL    HW232091   2.376   0.327   3.373  0.9273  0.6740 -0.7747
 6820SOL     OW32092   4.201   1.689  14.987 -0.6602  0.1941 -0.4294
 6820SOL    HW132093   4.173   1.629  14.918  0.7833 -2.2210  1.0979
 6820SOL    HW232094   4.218   1.623  15.055  0.9595  1.4577  0.4030
 6821SOL     OW32095   0.007   1.895  16.647 -0.1883  0.4626 -0.2929
 6821SOL    HW132096   0.012   1.978  16.695 -1.8066  0.8713 -0.8217
 6821SOL    HW232097   0.099   1.871  16.635 -0.3050 -1.4579  2.7253
 6822SOL     OW32098   4.584   4.000  10.594  0.4624 -0.7739  0.3636
 6822SOL    HW132099   4.609   3.978  10.684  0.1150 -1.4078  0.3046
 6822SOL    HW232100   4.501   3.953  10.590 -0.9659  1.7412  0.6032
 6823SOL     OW32101   3.782   1.416   6.261 -0.3255  0.2490 -0.4334
 6823SOL    HW132102   3.802   1.338   6.210  1.6010 -0.1485  0.9355
 6823SOL    HW232103   3.864   1.435   6.307  0.2008 -0.9411 -0.8831
 6824SOL     OW32104   3.798   2.156  13.142  0.3482 -0.3132  0.5017
 6824SOL    HW132105   3.800   2.221  13.212 -1.3046 -0.3438  0.5769
 6824SOL    HW232106   3.739   2.203  13.083  1.1685  0.8681  0.6202
 6825SOL     OW32107   2.254   2.876  11.825 -0.5929 -0.5906 -0.0056
 6825SOL    HW132108   2.158   2.872  11.816 -0.4232 -0.7441 -1.6457
 6825SOL    HW232109   2.261   2.786  11.858  0.7154 -0.3053  0.4711
 6826SOL     OW32110   0.769   1.690   4.254 -0.1179 -0.3271 -0.0645
 6826SOL    HW132111   0.741   1.765   4.306  1.3703 -0.7432  1.3303
 6826SOL    HW232112   0.681   1.659   4.231  0.1415 -1.2776  0.2354
 6827SOL     OW32113   1.624   1.120   8.463 -0.1308  0.2753  0.3139
 6827SOL    HW132114   1.607   1.189   8.399 -0.9683 -0.9864 -0.8507
 6827SOL    HW232115   1.696   1.165   8.507  0.5497 -0.7938  0.3166
 6828SOL     OW32116   4.049   0.998   6.679  0.0183  0.8344  0.9393
 6828SOL    HW132117   3.982   1.008   6.746  1.7837 -0.5135  2.9405
 6828SOL    HW232118   4.128   0.982   6.730  0.4271 -2.3454 -0.7081
 6829SOL     OW32119   3.117   3.418   5.903  0.6587  0.5487  0.1548
 6829SOL    HW132120   3.089   3.485   5.965 -1.8692 -1.8222  1.5748
 6829SOL    HW232121   3.052   3.349   5.917  0.9478 -0.1404 -1.8253
 6830SOL     OW32122   0.401   4.158   7.369  0.0725 -0.0406 -0.4074
 6830SOL    HW132123   0.317   4.193   7.398  0.1977 -2.0481  2.4263
 6830SOL    HW232124   0.470   4.206   7.415 -0.1145 -0.0445 -0.1214
 6831SOL     OW32125   4.369   0.219   2.401 -0.7720  0.4272  0.3086
 6831SOL    HW132126   4.333   0.243   2.316  2.7394  1.6750 -0.8214
 6831SOL    HW232127   4.351   0.294   2.458  1.1037  0.1531  1.2655
 6832SOL     OW32128   0.547   4.123   4.340 -0.2008 -0.3580 -0.4352
 6832SOL    HW132129   0.583   4.208   4.315 -2.3156 -0.2862 -3.3277
 6832SOL    HW232130   0.624   4.086   4.382 -0.7785  0.7426  1.5924
 6833SOL     OW32131   2.430   3.917  15.799 -0.3764  0.2928 -0.6760
 6833SOL    HW132132   2.413   3.911  15.893 -1.8216 -1.0274 -1.0209
 6833SOL    HW232133   2.338   3.921  15.773  0.1727 -1.1531 -2.8127
 6834SOL     OW32134   4.429   0.042   1.592 -0.2611 -0.8731  0.0930
 6834SOL    HW132135   4.422   0.118   1.534 -0.3844  0.0966  1.4052
 6834SOL    HW232136   4.494   0.074   1.653 -0.2785 -1.4889  0.4343
 6835SOL     OW32137   1.650   0.558   6.820  0.2885 -0.2025 -0.5497
 6835SOL    HW132138   1.644   0.489   6.754  1.2748  0.4463 -1.3192
 6835SOL    HW232139   1.711   0.617   6.776  2.2308 -1.4938  0.4685
 6836SOL     OW32140   1.448   0.676   4.064 -0.4379 -0.0207 -0.3300
 6836SOL    HW132141   1.385   0.674   3.992  1.3592  0.0978 -1.9166
 6836SOL    HW232142   1.523   0.624   4.033  0.1072  1.2449 -1.1048
 6837SOL     OW32143   3.713   4.030   8.481  0.6467 -0.4078  0.0660
 6837SOL    HW132144   3.737   3.962   8.419 -2.1837 -2.6231  1.3903
 6837SOL    HW232145   3.624   4.050   8.453  0.8249 -0.3545 -0.4486
 6838SOL     OW32146   3.745   3.838   8.285 -0.2704  0.7106 -0.0403
 6838SOL    HW132147   3.763   3.747   8.307 -2.2023  0.5473  0.8647
 6838SOL    HW232148   3.697   3.835   8.202 -0.9566 -1.5818  0.4536
 6839SOL     OW32149   1.274   2.688   3.507  0.0632 -0.8057 -0.3127
 6839SOL    HW132150   1.183   2.657   3.512 -0.0070 -0.7377 -1.1542
 6839SOL    HW232151   1.264   2.772   3.461  1.5913  0.1831  1.1914
 6840SOL     OW32152   1.408   1.005   2.535 -0.0095 -0.6123 -0.7105
 6840SOL    HW132153   1.367   0.918   2.533 -4.1143  1.2589  1.8981
 6840SOL    HW232154   1.358   1.038   2.610 -1.0294 -2.3892 -0.5836
 6841SOL     OW32155   2.759   4.418   2.280 -0.3383  0.3425  0.0754
 6841SOL    HW132156   2.795   4.402   2.367  1.3895  2.2464 -0.2892
 6841SOL    HW232157   2.840   4.424   2.229  1.0717  0.8666  2.3487
 6842SOL     OW32158   1.022   1.535   4.275  0.1558  1.9762 -0.3109
 6842SOL    HW132159   1.020   1.489   4.360 -0.4498  1.8926 -0.3664
 6842SOL    HW232160   0.939   1.582   4.279 -1.3775 -0.7033 -0.1998
 6843SOL     OW32161   3.289   2.967  13.952 -0.3061  0.1783 -0.3612
 6843SOL    HW132162   3.347   2.904  13.996 -0.7737  0.2292  0.3278
 6843SOL    HW232163   3.200   2.948  13.980  0.1010  0.2929  0.9987
 6844SOL     OW32164   2.751   4.239   6.429  0.3720  0.1040 -0.3908
 6844SOL    HW132165   2.801   4.315   6.458  0.6616 -0.5874  0.9469
 6844SOL    HW232166   2.806   4.201   6.361  2.0050 -1.5152  1.8382
 6845SOL     OW32167   1.184   4.563  16.868 -0.2709 -0.3229  0.1006
 6845SOL    HW132168   1.126   4.539  16.940  2.4378 -1.6342  1.8854
 6845SOL    HW232169   1.195   4.652  16.903 -3.6161  1.1333 -2.5803
 6846SOL     OW32170   0.566   1.390   3.560 -0.5763  0.1919 -0.4958
 6846SOL    HW132171   0.631   1.321   3.572  0.6405  1.3262 -0.4949
 6846SOL    HW232172   0.620   1.454   3.513 -1.0745  0.4809 -0.6712
 6847SOL     OW32173   1.328   3.811   3.291  0.5439  0.0998 -0.3209
 6847SOL    HW132174   1.258   3.772   3.343  0.2333 -1.1843 -1.6794
 6847SOL    HW232175   1.405   3.755   3.305  0.9636  0.4861 -1.0943
 6848SOL     OW32176   1.882   3.569  14.683  0.3195  0.6316 -0.2697
 6848SOL    HW132177   1.846   3.511  14.616  2.1574  0.0258 -0.7614
 6848SOL    HW232178   1.923   3.501  14.738  0.6063  0.6797 -0.4221
 6849SOL     OW32179   1.362   0.514   7.904  0.4291 -0.0716 -0.7361
 6849SOL    HW132180   1.347   0.423   7.933 -0.0942 -0.1751 -1.3443
 6849SOL    HW232181   1.419   0.534   7.979 -0.0539 -0.0019 -0.3878
 6850SOL     OW32182   1.598   4.551   3.112  0.5475 -0.5846 -0.6317
 6850SOL    HW132183   1.686   4.531   3.080  0.7298 -0.9070  0.0653
 6850SOL    HW232184   1.559   4.601   3.041  0.4081  1.0105  0.5652
 6851SOL     OW32185   0.927   0.637   5.792 -0.0201 -0.1638  0.2337
 6851SOL    HW132186   0.870   0.647   5.868  0.1852 -0.7515  0.4654
 6851SOL    HW232187   0.982   0.716   5.790  1.2206 -0.9958  1.0621
 6852SOL     OW32188   4.693   4.537   1.758 -0.2234  0.0523 -0.1079
 6852SOL    HW132189   4.631   4.606   1.734  0.8581  0.4591 -1.7106
 6852SOL    HW232190   4.658   4.462   1.710  1.2133  0.5322 -1.9160
 6853SOL     OW32191   2.929   3.758   9.556 -0.2708  0.0973  0.0806
 6853SOL    HW132192   3.014   3.755   9.599  0.3727 -2.2059 -1.4079
 6853SOL    HW232193   2.904   3.668   9.536 -0.5206  0.2391 -0.2488
 6854SOL     OW32194   2.914   3.957   1.473 -0.2200 -0.7590  0.5363
 6854SOL    HW132195   2.881   3.984   1.388 -0.4912 -0.1052  0.8523
 6854SOL    HW232196   2.835   3.970   1.525 -0.0130  0.6008  0.4943
 6855SOL     OW32197   0.561   4.722   4.252 -0.2612  0.3781  0.1205
 6855SOL    HW132198   0.636   4.678   4.213 -0.8292  0.8974 -1.5975
 6855SOL    HW232199   0.517   4.652   4.300 -1.2442  0.1872 -1.0658
 6856SOL     OW32200   3.986   1.112   4.348 -0.0597  0.6765  0.2339
 6856SOL    HW132201   4.040   1.189   4.331  0.4071  0.3523  0.2691
 6856SOL    HW232202   4.000   1.079   4.437  1.2300  0.8013  0.0747
 6857SOL     OW32203   1.818   1.154   6.614 -0.0279  0.6138 -1.1205
 6857SOL    HW132204   1.835   1.193   6.699 -0.6167  0.5808 -0.9857
 6857SOL    HW232205   1.731   1.191   6.597  0.1678  1.4976 -0.1682
 6858SOL     OW32206   1.333   1.729  10.266 -0.3921  0.2341  0.2986
 6858SOL    HW132207   1.393   1.773  10.206 -0.2892  0.7444  0.7772
 6858SOL    HW232208   1.280   1.801  10.301  0.0698  0.2772  0.9091
 6859SOL     OW32209   1.495   4.732   4.816 -0.6057 -0.5016  0.1128
 6859SOL    HW132210   1.471   4.649   4.857  0.1879 -1.0225 -0.4861
 6859SOL    HW232211   1.414   0.034   4.844 -1.1244 -1.9400  0.8140
 6860SOL     OW32212   3.123   2.814   3.853 -0.1491  0.2803  0.3196
 6860SOL    HW132213   3.130   2.845   3.763  1.3207 -0.2046  0.2633
 6860SOL    HW232214   3.130   2.720   3.836 -2.2997  0.1761  0.0006
 6861SOL     OW32215   1.065   2.704  11.278 -0.1514 -0.9767  0.1374
 6861SOL    HW132216   1.025   2.791  11.286  0.7263 -0.2889 -3.0842
 6861SOL    HW232217   1.038   2.662  11.360  1.3645 -2.8975 -0.3446
 6862SOL     OW32218   1.388   3.628  17.753  0.1412 -0.1212  0.1568
 6862SOL    HW132219   1.300   3.591   0.006  0.7256 -0.9206  1.9512
 6862SOL    HW232220   1.403   3.601  17.662  1.6552  1.4806 -0.0628
 6863SOL     OW32221   2.828   3.276   9.061  0.1753  0.4671  1.1173
 6863SOL    HW132222   2.905   3.224   9.083 -0.1436 -0.3414  0.3543
 6863SOL    HW232223   2.773   3.230   9.124  0.8329 -1.9698 -0.0522
 6864SOL     OW32224   0.644   2.839  13.797 -0.3457  0.0140 -0.3414
 6864SOL    HW132225   0.625   2.894  13.873  0.4285  0.5748 -0.5500
 6864SOL    HW232226   0.702   2.901  13.751  0.1888 -1.2587 -1.3833
 6865SOL     OW32227   3.420   0.752   4.096  0.0727 -0.2068 -0.4156
 6865SOL    HW132228   3.332   0.774   4.066 -0.5006 -0.8363  0.8243
 6865SOL    HW232229   3.417   0.658   4.075 -2.1034 -0.1228 -0.4767
 6866SOL     OW32230   0.148   3.801  15.700 -0.3796  0.1645 -0.2532
 6866SOL    HW132231   0.136   3.791  15.795  0.8005 -1.0650 -0.2406
 6866SOL    HW232232   0.232   3.844  15.687 -0.4114  0.4032  0.3259
 6867SOL     OW32233   0.849   3.483   8.709  0.4283  0.5436 -0.1283
 6867SOL    HW132234   0.854   3.576   8.688 -2.8993  0.6935 -0.3613
 6867SOL    HW232235   0.798   3.481   8.790 -0.0331  0.3808 -0.4239
 6868SOL     OW32236   0.428   0.486   1.237 -0.6312 -0.5749  0.7660
 6868SOL    HW132237   0.497   0.545   1.210  0.3888 -0.7615  2.9714
 6868SOL    HW232238   0.475   0.458   1.316 -0.5135  2.2646  1.6798
 6869SOL     OW32239   0.975   3.484   2.712 -0.4202 -0.3393 -0.4401
 6869SOL    HW132240   1.068   3.507   2.713 -0.5455  0.2166 -1.1583
 6869SOL    HW232241   0.941   3.561   2.666 -1.5140 -0.0068  0.9023
 6870SOL     OW32242   4.569   4.265   3.185 -0.2985  0.4021  0.0408
 6870SOL    HW132243   4.570   4.313   3.103 -0.9944 -2.0438 -1.3812
 6870SOL    HW232244   4.629   4.319   3.238 -1.3347 -0.4768  2.1291
 6871SOL     OW32245   0.689   1.596   0.894 -0.3008  0.4048 -0.1236
 6871SOL    HW132246   0.711   1.506   0.917  2.1301  0.6015 -1.6304
 6871SOL    HW232247   0.716   1.636   0.977  0.4052  0.4772 -0.3856
 6872SOL     OW32248   2.726   0.444   7.401 -0.2479  0.9308 -0.0296
 6872SOL    HW132249   2.666   0.376   7.431 -1.0757  1.0655 -1.3804
 6872SOL    HW232250   2.734   0.494   7.482 -0.2701  0.8244  0.0384
 6873SOL     OW32251   3.247   4.363   5.323  0.1910  0.3849 -0.4994
 6873SOL    HW132252   3.286   4.365   5.235 -1.0984 -0.0951 -1.0814
 6873SOL    HW232253   3.183   4.293   5.320 -0.6656  1.1231  0.5513
 6874SOL     OW32254   3.678   0.398  15.432  0.1140 -0.1725  0.0063
 6874SOL    HW132255   3.631   0.318  15.457  1.1046 -0.2307  1.6810
 6874SOL    HW232256   3.713   0.416  15.519  2.8134  2.0162 -1.5283
 6875SOL     OW32257   0.491   4.165   1.840 -0.2683  0.2910 -0.2373
 6875SOL    HW132258   0.504   4.085   1.889 -1.1942 -0.1873 -0.7745
 6875SOL    HW232259   0.513   4.218   1.916  0.2774  1.4572 -1.1948
 6876SOL     OW32260   2.023   0.533   4.225  0.0788 -0.5817  0.3440
 6876SOL    HW132261   2.062   0.457   4.268  1.3739  0.3407  0.8165
 6876SOL    HW232262   1.959   0.491   4.168  1.1733 -0.0706 -1.2512
 6877SOL     OW32263   1.378   0.226   7.978  0.3022  0.4756  0.0115
 6877SOL    HW132264   1.474   0.232   7.982  0.4776 -1.8193 -1.0094
 6877SOL    HW232265   1.356   0.218   8.070 -1.7198 -1.8581 -0.6884
 6878SOL     OW32266   2.618   4.594   5.788  0.5313 -0.1200  0.2715
 6878SOL    HW132267   2.695   4.643   5.760 -0.7967  2.5860  1.4415
 6878SOL    HW232268   2.568   4.596   5.707  0.1008  1.2851  0.5825
 6879SOL     OW32269   1.409   3.566   2.840  0.0020  0.1989  0.0189
 6879SOL    HW132270   1.407   3.628   2.913  1.7637 -0.1266  0.3446
 6879SOL    HW232271   1.503   3.558   2.822 -0.1671  0.8402 -1.1068
 6880SOL     OW32272   2.122   4.630   8.246 -0.2398  0.6318 -0.2687
 6880SOL    HW132273   2.086   4.666   8.327 -0.4903  0.3426 -0.2509
 6880SOL    HW232274   2.152   4.707   8.197 -1.5361  0.1511 -1.8263
 6881SOL     OW32275   2.317   2.125   2.629 -0.4963  0.0717  0.1544
 6881SOL    HW132276   2.396   2.072   2.638 -2.4919 -2.8759  0.3047
 6881SOL    HW232277   2.331   2.175   2.548  2.3204 -1.2516 -0.1681
 6882SOL     OW32278   3.577   3.000   7.950  0.6300  0.0373  0.6991
 6882SOL    HW132279   3.527   2.983   8.029 -0.3462  0.4877  0.1863
 6882SOL    HW232280   3.608   3.088   7.971 -0.0465  0.3338  0.4733
 6883SOL     OW32281   2.034   4.389   3.459  0.0652  0.2360 -0.0096
 6883SOL    HW132282   1.985   4.345   3.528 -1.3182  1.5930 -0.1162
 6883SOL    HW232283   1.977   4.372   3.383 -0.9140  0.8436  0.5880
 6884SOL     OW32284   3.296   0.718   7.018  0.1405  0.2595 -0.1434
 6884SOL    HW132285   3.356   0.690   7.087  1.0754 -0.8903 -1.4264
 6884SOL    HW232286   3.217   0.716   7.072  0.1700  0.5836 -0.0918
 6885SOL     OW32287   2.159   2.520   5.764 -0.3706 -0.2016 -0.1612
 6885SOL    HW132288   2.134   2.544   5.853 -0.3625 -0.9883  0.0504
 6885SOL    HW232289   2.087   2.559   5.714  0.9722 -0.5293 -2.3503
 6886SOL     OW32290   4.078   1.432   2.145 -0.0997  0.0577 -0.9563
 6886SOL    HW132291   4.061   1.425   2.051  0.2309  0.7777 -1.0693
 6886SOL    HW232292   4.152   1.385   2.182 -0.6748  0.7681  1.0919
 6887SOL     OW32293   3.848   0.806   5.541 -0.5276  0.3537  0.0797
 6887SOL    HW132294   3.778   0.746   5.514 -0.0852  0.9014 -2.2587
 6887SOL    HW232295   3.926   0.752   5.537 -0.7546  0.0832 -0.7096
 6888SOL     OW32296   1.687   0.425   9.158 -0.1467 -0.4707 -0.2643
 6888SOL    HW132297   1.777   0.404   9.186 -0.4979  0.1910  1.3573
 6888SOL    HW232298   1.664   0.502   9.210 -2.1854 -0.8717 -0.5636
 6889SOL     OW32299   3.347   3.462   1.108 -0.3564 -0.0498 -0.5937
 6889SOL    HW132300   3.272   3.454   1.167 -0.5731 -1.8613 -1.1249
 6889SOL    HW232301   3.344   3.557   1.098 -2.6681 -0.0920 -0.1123
 6890SOL     OW32302   4.371   3.668   3.597 -0.1714 -0.6882 -0.2820
 6890SOL    HW132303   4.432   3.734   3.631  0.4765 -0.5699 -1.6739
 6890SOL    HW232304   4.302   3.697   3.656  1.6307  1.9995  0.5230
 6891SOL     OW32305   0.642   0.117   8.421  0.9522  0.6310  0.3214
 6891SOL    HW132306   0.633   0.031   8.381 -0.5207  0.4102  1.1588
 6891SOL    HW232307   0.577   0.172   8.378  1.7289 -0.0526 -1.7038
 6892SOL     OW32308   2.674   3.841   7.433 -0.1947 -0.4434 -0.2527
 6892SOL    HW132309   2.656   3.876   7.520 -0.6539 -0.2553 -0.4244
 6892SOL    HW232310   2.731   3.767   7.452  0.2253 -0.1973 -0.5452
 6893SOL     OW32311   2.860   4.649   6.321  0.6042 -0.5029 -0.2284
 6893SOL    HW132312   2.907   4.732   6.328 -2.0624  1.2041 -2.7685
 6893SOL    HW232313   2.780   4.665   6.371 -0.6008 -1.7988 -1.7456
 6894SOL     OW32314   0.613   2.773   5.972  0.0431 -0.3523 -0.1899
 6894SOL    HW132315   0.697   2.792   5.930 -0.3216  3.4324  0.7717
 6894SOL    HW232316   0.559   2.817   5.906 -0.8221  0.3304  0.9533
 6895SOL     OW32317   4.014   3.149  10.296 -0.4637  0.0040 -0.1686
 6895SOL    HW132318   4.068   3.099  10.235  0.2201  0.8768 -0.2923
 6895SOL    HW232319   3.981   3.221  10.243 -0.8008  1.7253  2.3636
 6896SOL     OW32320   4.285   4.652   3.787 -0.5178  0.5696  0.1224
 6896SOL    HW132321   4.348   4.720   3.808  0.1579  0.0265 -0.1603
 6896SOL    HW232322   4.247   4.691   3.708 -0.0015 -1.8969 -1.3556
 6897SOL     OW32323   0.330   3.876   3.166  0.6336 -0.2143 -0.4477
 6897SOL    HW132324   0.335   3.834   3.079  1.1493  0.4346 -0.7285
 6897SOL    HW232325   0.352   3.799   3.218 -2.8051 -0.6037  0.4370
 6898SOL     OW32326   2.169   0.557   9.552 -0.4941  0.4742  0.4903
 6898SOL    HW132327   2.149   0.506   9.631 -2.0996 -1.2451 -1.0210
 6898SOL    HW232328   2.222   0.494   9.503  0.6595 -0.0597  2.4127
 6899SOL     OW32329   3.315   0.169   6.916 -0.2334 -0.3951 -0.5488
 6899SOL    HW132330   3.331   0.241   6.855 -0.3316  0.3969  0.3542
 6899SOL    HW232331   3.221   0.176   6.931 -0.1359 -0.5215  0.1211
 6900SOL     OW32332   2.689   4.340   8.429 -0.0599  0.2291 -0.0692
 6900SOL    HW132333   2.667   4.249   8.408  0.8603  0.6799 -2.8721
 6900SOL    HW232334   2.783   4.324   8.430  0.2518  1.9658 -1.6399
 6901SOL     OW32335   3.344   1.994   5.389  0.5153  0.2577 -0.0468
 6901SOL    HW132336   3.338   1.908   5.348  1.0681  0.1482  0.0956
 6901SOL    HW232337   3.295   1.979   5.470  0.4453 -1.2220 -0.3562
 6902SOL     OW32338   4.141   3.015   5.061 -0.5216  0.2075 -0.2441
 6902SOL    HW132339   4.137   2.984   4.970  1.1240 -2.1032  0.4518
 6902SOL    HW232340   4.065   2.970   5.099 -0.7884  1.3005  0.4955
 6903SOL     OW32341   3.682   3.103   8.483  0.6267 -0.1405  0.5132
 6903SOL    HW132342   3.688   3.117   8.577 -3.4162 -1.4065  0.9346
 6903SOL    HW232343   3.769   3.120   8.446  0.3768 -1.5170 -0.7126
 6904SOL     OW32344   3.297   1.256   4.655 -0.4625 -0.1419  0.6999
 6904SOL    HW132345   3.342   1.315   4.594 -1.3400  1.1669  1.3245
 6904SOL    HW232346   3.331   1.289   4.738 -3.9483 -1.0257  2.4642
 6905SOL     OW32347   3.790   3.201   7.145  0.2739  0.3011 -0.1452
 6905SOL    HW132348   3.781   3.291   7.112 -1.2623  0.5595  0.9812
 6905SOL    HW232349   3.745   3.214   7.229 -1.2246 -1.8685 -0.6251
 6906SOL     OW32350   0.242   2.271   4.537  0.1508  0.5195  0.6642
 6906SOL    HW132351   0.243   2.176   4.535 -0.3141  0.5096  0.6760
 6906SOL    HW232352   0.166   2.297   4.483 -0.3337  0.2032  1.1927
 6907SOL     OW32353   3.703   1.355   6.923 -0.0933 -0.6306 -0.3711
 6907SOL    HW132354   3.610   1.339   6.909 -0.6740  0.2756  2.5001
 6907SOL    HW232355   3.735   1.281   6.976 -0.4668  1.6423  2.9902
 6908SOL     OW32356   0.018   3.185   5.342  0.1539 -0.4656 -0.0470
 6908SOL    HW132357   0.004   3.156   5.432  3.2008  0.0736  0.6032
 6908SOL    HW232358   4.689   3.249   5.329 -0.8210 -1.1936  1.4847
 6909SOL     OW32359   4.341   2.083   8.251  0.3763 -0.2010 -0.5370
 6909SOL    HW132360   4.371   2.120   8.334 -1.2513 -1.3340  0.5606
 6909SOL    HW232361   4.390   2.001   8.242 -0.0831 -0.4488 -0.8055
 6910SOL     OW32362   1.658   2.542   4.527 -0.0347 -0.5114  0.2928
 6910SOL    HW132363   1.598   2.531   4.453  2.6751 -0.1068 -1.9343
 6910SOL    HW232364   1.595   2.546   4.599 -1.1529 -1.9863 -0.6070
 6911SOL     OW32365   2.195   2.388   9.242 -0.0015  0.7225 -0.3591
 6911SOL    HW132366   2.195   2.442   9.321  0.4234 -0.1245  0.2188
 6911SOL    HW232367   2.116   2.420   9.197 -1.0424 -0.1625  0.8196
 6912SOL     OW32368   1.159   0.824   3.217  0.7227 -0.1487  0.0203
 6912SOL    HW132369   1.254   0.813   3.207  0.8449  0.3157  0.6843
 6912SOL    HW232370   1.168   0.852   3.308 -0.3940  1.3714 -0.3335
 6913SOL     OW32371   0.871   3.308   7.009 -0.2470  0.0358 -0.1579
 6913SOL    HW132372   0.876   3.404   7.002 -2.4249  0.2694  1.6285
 6913SOL    HW232373   0.955   3.282   6.970  1.5543  0.6482  3.3655
 6914SOL     OW32374   1.761   2.659   0.533  0.1635 -0.5022  0.3835
 6914SOL    HW132375   1.768   2.683   0.441 -0.1530  4.4276  1.6107
 6914SOL    HW232376   1.810   2.577   0.529 -2.2645 -1.9167 -0.5013
 6915SOL     OW32377   3.988   4.710   7.881 -0.0370  0.0995 -0.3005
 6915SOL    HW132378   4.077   4.680   7.863  0.6049  1.2527  0.9778
 6915SOL    HW232379   4.003   0.036   7.948  1.3715 -0.3546 -0.1748
 6916SOL     OW32380   3.469   0.324  16.229  0.3121  0.1834  0.0255
 6916SOL    HW132381   3.431   0.348  16.144  0.6613 -2.0063 -0.7738
 6916SOL    HW232382   3.459   0.228  16.231 -0.8467  0.2745 -0.7792
 6917SOL     OW32383   0.226   1.973   0.318 -0.0783 -0.0649  0.5534
 6917SOL    HW132384   0.227   1.940   0.408 -1.7254 -1.1282  0.1845
 6917SOL    HW232385   0.217   1.890   0.273  1.3170  0.3833 -0.5336
 6918SOL     OW32386   1.890   2.711   6.232  0.4596 -0.3256 -0.4183
 6918SOL    HW132387   1.926   2.687   6.147  0.3513 -3.2819  0.3615
 6918SOL    HW232388   1.963   2.692   6.291  0.0380  1.0048  0.5406
 6919SOL     OW32389   3.510   4.626   9.145 -0.4955  0.2245  0.0581
 6919SOL    HW132390   3.575   4.601   9.080 -0.7463 -0.7536  0.1845
 6919SOL    HW232391   3.438   4.618   9.083 -0.3156  1.5760 -0.3327
 6920SOL     OW32392   3.607   1.415   9.388  0.9752 -0.0743  0.0101
 6920SOL    HW132393   3.533   1.427   9.329  0.2595 -1.5435  0.5850
 6920SOL    HW232394   3.601   1.497   9.437 -2.0356 -0.3740  0.1212
 6921SOL     OW32395   1.018   3.770  17.635  0.2187 -0.1428 -0.3983
 6921SOL    HW132396   0.979   3.706  17.695 -0.4617  0.1742 -0.5091
 6921SOL    HW232397   1.073   3.821  17.695 -0.7481 -0.3777  0.6871
 6922SOL     OW32398   1.044   1.952   7.891  0.3511 -0.0515 -0.2783
 6922SOL    HW132399   1.014   1.874   7.938  0.1749  0.2985  0.1809
 6922SOL    HW232400   1.118   1.906   7.850  1.4644 -0.7439  2.4918
 6923SOL     OW32401   3.753   0.831  13.582  0.1813 -0.0709 -0.4076
 6923SOL    HW132402   3.826   0.856  13.638  2.0218 -0.4883 -2.5981
 6923SOL    HW232403   3.686   0.798  13.641  0.7047  0.8673  0.7172
 6924SOL     OW32404   3.396   3.563  13.080  0.1619 -0.0196  0.0902
 6924SOL    HW132405   3.361   3.474  13.076  2.4897 -0.9137 -0.1587
 6924SOL    HW232406   3.473   3.548  13.025  0.1541  1.2219 -0.2548
 6925SOL     OW32407   1.182   1.803   2.891  1.0141 -0.0169 -0.3542
 6925SOL    HW132408   1.161   1.718   2.929 -0.7392  0.9676  0.9086
 6925SOL    HW232409   1.207   1.771   2.804  0.5682  0.1384 -0.5439
 6926SOL     OW32410   0.096   2.290   6.175 -0.4028  0.4498  0.2192
 6926SOL    HW132411   0.082   2.218   6.113  1.8126 -0.1864  0.4799
 6926SOL    HW232412   0.067   2.352   6.108 -0.9181 -1.4400 -1.3051
 6927SOL     OW32413   2.251   0.734   7.332 -0.0196  0.2925 -0.5541
 6927SOL    HW132414   2.207   0.775   7.257 -0.6914  1.0842  0.2680
 6927SOL    HW232415   2.186   0.672   7.363 -1.2203  0.8504 -1.9560
 6928SOL     OW32416   1.590   0.315   4.293 -0.3275  0.2393  0.3241
 6928SOL    HW132417   1.561   0.246   4.352 -1.6212  0.3576 -0.1862
 6928SOL    HW232418   1.584   0.395   4.345  1.4413  0.2283  0.5408
 6929SOL     OW32419   0.685   0.411  16.349  0.2911 -0.3764 -0.6836
 6929SOL    HW132420   0.748   0.439  16.282  1.2131 -0.7539  0.0205
 6929SOL    HW232421   0.706   0.318  16.338 -1.6164 -0.8339 -0.3148
 6930SOL     OW32422   2.931   3.654   5.073  0.3384  0.1082 -0.2849
 6930SOL    HW132423   2.926   3.644   4.978  0.5758 -0.9653 -0.1902
 6930SOL    HW232424   2.841   3.667   5.104 -0.1144 -1.2809 -1.0327
 6931SOL     OW32425   4.340   3.794  11.303  0.9685  0.8529  0.1953
 6931SOL    HW132426   4.416   3.771  11.250 -0.5227  0.8881 -1.9615
 6931SOL    HW232427   4.356   3.889  11.300  0.5961  0.8386 -2.3103
 6932SOL     OW32428   4.151   4.389   9.417  0.1123  0.1976 -0.0839
 6932SOL    HW132429   4.155   4.389   9.321  2.5915  0.2234 -0.0025
 6932SOL    HW232430   4.068   4.345   9.435 -0.3472  0.3076 -1.9225
 6933SOL     OW32431   4.505   2.590   4.633  0.0968  0.0704 -0.3206
 6933SOL    HW132432   4.472   2.505   4.662  1.3555  0.4183  2.1593
 6933SOL    HW232433   4.466   2.600   4.546 -2.5974 -3.0169  0.5725
 6934SOL     OW32434   0.087   0.681  14.280  0.0716 -0.0638  0.0164
 6934SOL    HW132435   0.023   0.704  14.348  1.4970  0.0765  1.2998
 6934SOL    HW232436   0.040   0.737  14.219  1.3459 -0.8377 -1.6731
 6935SOL     OW32437   0.194   3.508  12.055 -0.1192  0.1509 -0.1782
 6935SOL    HW132438   0.153   3.494  12.140  0.7400 -0.5139  0.1339
 6935SOL    HW232439   0.156   3.593  12.032 -0.8667 -0.6325 -1.8037
 6936SOL     OW32440   3.606   2.243  15.835  0.2012  0.6654  0.0282
 6936SOL    HW132441   3.667   2.176  15.867 -3.0533 -2.1916  0.2499
 6936SOL    HW232442   3.663   2.291  15.775  1.2244 -1.2465 -0.5500
 6937SOL     OW32443   3.112   0.238   4.599 -0.2156 -0.1085 -0.4755
 6937SOL    HW132444   3.118   0.182   4.522  2.2134  0.4749 -0.7143
 6937SOL    HW232445   3.097   0.323   4.558 -0.3989 -0.0999 -0.3912
 6938SOL     OW32446   1.474   4.557   3.981  0.6386  0.4353 -0.0935
 6938SOL    HW132447   1.449   4.556   4.074  1.3572  0.7760  0.1049
 6938SOL    HW232448   1.546   4.620   3.990 -0.7001  1.9871 -0.2647
 6939SOL     OW32449   3.540   0.824   1.414 -0.0394  0.1347 -0.2577
 6939SOL    HW132450   3.462   0.874   1.438 -0.6414  0.5797 -3.1384
 6939SOL    HW232451   3.535   0.810   1.320 -0.5724  0.5583 -0.2930
 6940SOL     OW32452   3.750   1.377   1.848  0.0277  0.7893 -0.0616
 6940SOL    HW132453   3.844   1.366   1.863  0.0295 -1.4062 -1.6291
 6940SOL    HW232454   3.758   1.431   1.769  1.1582 -2.0138 -1.8564
 6941SOL     OW32455   0.006   0.780   4.379 -0.3024 -0.0561  0.0399
 6941SOL    HW132456   4.710   0.862   4.413 -1.6288 -1.7015  2.6135
 6941SOL    HW232457   4.686   0.720   4.423 -0.1133  0.0344  0.4259
 6942SOL     OW32458   0.816   4.124   1.594 -0.3953  0.5959 -0.0898
 6942SOL    HW132459   0.901   4.099   1.558 -1.2844 -2.0300 -0.4077
 6942SOL    HW232460   0.842   4.135   1.685 -0.4068  1.0273 -0.1404
 6943SOL     OW32461   3.697   0.260   8.246  0.1996 -0.0320  0.0959
 6943SOL    HW132462   3.689   0.281   8.153  0.9984 -0.6328 -0.1015
 6943SOL    HW232463   3.627   0.195   8.256 -0.7640  1.0788  0.6098
 6944SOL     OW32464   3.817   1.985   5.463  0.4783  0.1095 -0.2096
 6944SOL    HW132465   3.752   1.942   5.518 -0.3979  0.7108 -0.7763
 6944SOL    HW232466   3.761   2.047   5.417 -0.1560 -0.4687 -0.2031
 6945SOL     OW32467   1.383   2.139   3.382  0.1947  0.3942 -0.0295
 6945SOL    HW132468   1.293   2.145   3.414  0.5284  0.6094  0.8660
 6945SOL    HW232469   1.396   2.226   3.344 -0.2336 -0.0428 -1.1748
 6946SOL     OW32470   2.341   1.307   7.512  0.5147  0.5137  0.4014
 6946SOL    HW132471   2.279   1.364   7.468  2.8376  1.1448 -2.0711
 6946SOL    HW232472   2.338   1.236   7.448 -2.1549 -0.4306  1.5861
 6947SOL     OW32473   0.786   1.867   7.745 -0.3346  0.1904 -0.1259
 6947SOL    HW132474   0.736   1.785   7.748 -1.2971  0.7136 -1.5961
 6947SOL    HW232475   0.845   1.847   7.818  0.4196  3.0260  0.0335
 6948SOL     OW32476   3.898   3.577   4.199  0.1206 -0.1984 -0.7792
 6948SOL    HW132477   3.867   3.492   4.231  0.3525  0.1554  0.4106
 6948SOL    HW232478   3.869   3.583   4.108 -1.3064  3.6494 -0.0861
 6949SOL     OW32479   4.428   0.282   4.332 -0.2760 -0.0028 -0.1809
 6949SOL    HW132480   4.458   0.320   4.249  2.9427 -1.7071  0.1848
 6949SOL    HW232481   4.386   0.354   4.381  0.2547  1.7036 -2.2373
 6950SOL     OW32482   2.722   1.165   7.208  0.2139 -0.4856 -0.5062
 6950SOL    HW132483   2.721   1.208   7.123 -0.6373  2.3923  0.9412
 6950SOL    HW232484   2.670   1.226   7.261  1.9820  1.7608 -1.3749
 6951SOL     OW32485   3.721   0.617   3.696  0.0168  0.5606  0.2173
 6951SOL    HW132486   3.789   0.552   3.680  1.3668  1.6324  1.6474
 6951SOL    HW232487   3.689   0.638   3.608 -0.9649  0.8687  0.6467
 6952SOL     OW32488   1.032   4.347   7.635 -0.2078  0.1762 -0.0424
 6952SOL    HW132489   0.990   4.392   7.562  0.1568  1.4044  0.4962
 6952SOL    HW232490   0.959   4.298   7.672  0.8255 -0.8006  0.7094
 6953SOL     OW32491   4.037   4.277  13.437 -0.2109 -0.3857  0.0391
 6953SOL    HW132492   3.990   4.288  13.520 -1.5457  0.5025 -0.8246
 6953SOL    HW232493   3.980   4.213  13.395  0.7258 -0.2160 -1.4935
 6954SOL     OW32494   3.193   2.711   2.221  0.0245 -0.6769  0.0623
 6954SOL    HW132495   3.099   2.698   2.220  0.0744 -0.9224 -1.3962
 6954SOL    HW232496   3.227   2.687   2.307  0.1779  1.8120  0.6997
 6955SOL     OW32497   1.874   4.196  11.172 -0.0353  0.5312 -0.4738
 6955SOL    HW132498   1.938   4.267  11.162  0.1547  0.5731  1.0344
 6955SOL    HW232499   1.793   4.239  11.142 -1.8736 -2.1258  0.6855
 6956SOL     OW32500   1.351   0.620  16.257 -0.4169  0.0653  0.3646
 6956SOL    HW132501   1.433   0.650  16.295  0.8472 -1.9026 -0.8041
 6956SOL    HW232502   1.336   0.703  16.213 -0.0549  0.5861  1.2199
 6957SOL     OW32503   0.171   0.047   2.145  0.0092 -0.0509  0.0718
 6957SOL    HW132504   0.200   0.051   2.236 -1.4995 -1.4209  0.6178
 6957SOL    HW232505   0.251   0.053   2.092 -1.0661 -0.2730 -1.5959
 6958SOL     OW32506   2.664   2.375   3.669 -0.0758 -0.1790 -0.4286
 6958SOL    HW132507   2.583   2.344   3.709  0.7028  1.1866  2.2261
 6958SOL    HW232508   2.720   2.321   3.726 -0.0732 -0.3445 -0.5869
 6959SOL     OW32509   1.283   1.198   4.188 -0.2626  0.4109 -0.0933
 6959SOL    HW132510   1.244   1.141   4.254 -0.6669  2.0369  1.0549
 6959SOL    HW232511   1.327   1.130   4.136 -1.3679 -2.2520  2.4827
 6960SOL     OW32512   3.717   0.763  15.584 -0.4154  0.2436 -0.2063
 6960SOL    HW132513   3.664   0.814  15.645 -0.0285 -1.4664  1.5354
 6960SOL    HW232514   3.719   0.670  15.604  0.4352  0.5042  0.8794
 6961SOL     OW32515   3.041   3.232   9.683 -0.2839  0.0297  0.4373
 6961SOL    HW132516   3.087   3.229   9.767  0.4248  1.1090  0.0928
 6961SOL    HW232517   3.116   3.221   9.623 -0.7843  0.2579 -0.2336
 6962SOL     OW32518   3.815   0.403   4.977  0.0685  0.4464  0.6470
 6962SOL    HW132519   3.773   0.354   5.048 -1.4637 -1.0348 -1.2592
 6962SOL    HW232520   3.745   0.461   4.947 -1.1129 -1.1246  0.3388
 6963SOL     OW32521   3.522   2.703   4.847 -0.2494 -0.2433  0.2730
 6963SOL    HW132522   3.474   2.623   4.826 -4.5579  2.3070  0.4095
 6963SOL    HW232523   3.489   2.729   4.933 -0.4178  0.1021  0.1055
 6964SOL     OW32524   4.679   0.932   4.756  0.2234 -0.2914  0.3052
 6964SOL    HW132525   4.640   0.845   4.754 -0.4852  0.1011 -3.6614
 6964SOL    HW232526   0.024   0.915   4.796 -0.1433  0.1093  1.2512
 6965SOL     OW32527   0.560   4.192   8.564  0.7952 -0.3960 -0.0958
 6965SOL    HW132528   0.540   4.168   8.474 -2.0939  0.8347  0.2114
 6965SOL    HW232529   0.489   4.253   8.586  0.9507 -0.5754  0.9038
 6966SOL     OW32530   3.839   1.895  12.340  0.2004  0.2492  0.0024
 6966SOL    HW132531   3.853   1.961  12.408 -0.7143  0.0573  0.3642
 6966SOL    HW232532   3.931   1.882  12.315  0.1585  1.5306 -0.8006
 6967SOL     OW32533   0.827   3.645   5.691  0.3327 -0.1206  0.0296
 6967SOL    HW132534   0.806   3.658   5.783  0.0249 -1.7247  0.1906
 6967SOL    HW232535   0.751   3.596   5.659 -0.2838  2.1574 -1.9938
 6968SOL     OW32536   1.368   4.029   8.197 -0.0160  0.3057 -0.7755
 6968SOL    HW132537   1.307   4.029   8.122 -0.3100  3.1976 -0.5464
 6968SOL    HW232538   1.375   3.939   8.230  0.7400  0.4797 -0.4835
 6969SOL     OW32539   0.314   4.066  17.213 -0.4086  0.3509  0.4807
 6969SOL    HW132540   0.291   4.088  17.123  1.0804  2.2362  0.5602
 6969SOL    HW232541   0.229   4.079  17.255 -0.7577 -1.5294  0.3477
 6970SOL     OW32542   3.132   3.557   3.135 -0.1457  0.1998 -0.0141
 6970SOL    HW132543   3.092   3.477   3.103  1.9145 -1.7470  2.1953
 6970SOL    HW232544   3.059   3.618   3.129  1.2788  2.0748  1.4185
 6971SOL     OW32545   4.140   2.092   6.198  0.2042 -0.0167  0.1846
 6971SOL    HW132546   4.148   2.129   6.285 -1.6807  0.5474  0.1190
 6971SOL    HW232547   4.151   2.173   6.148  2.0016 -0.4743 -0.1709
 6972SOL     OW32548   2.640   2.276   7.492 -0.0704 -0.1857 -0.4862
 6972SOL    HW132549   2.729   2.307   7.505  0.1465 -0.7561 -0.5996
 6972SOL    HW232550   2.661   2.183   7.483  1.1424  0.1280 -0.8535
 6973SOL     OW32551   2.776   1.959   0.705 -0.3536 -0.0220  0.1604
 6973SOL    HW132552   2.837   1.988   0.773  0.1224 -0.2794 -0.1555
 6973SOL    HW232553   2.829   1.890   0.664 -0.4049 -1.0996  1.8561
 6974SOL     OW32554   0.323   2.992   1.906  0.0173  0.4086 -0.4044
 6974SOL    HW132555   0.410   2.953   1.901 -0.6523 -1.0995 -0.3012
 6974SOL    HW232556   0.335   3.073   1.955  1.2560 -0.2955  0.4539
 6975SOL     OW32557   2.317   4.213   8.116 -0.0262  0.4535 -0.1780
 6975SOL    HW132558   2.261   4.279   8.075 -1.0020 -1.0920 -1.3465
 6975SOL    HW232559   2.243   4.173   8.162  0.1128 -0.2250 -0.5333
 6976SOL     OW32560   4.510   0.579   6.708 -0.2609  0.3560 -0.2456
 6976SOL    HW132561   4.571   0.644   6.674 -0.9499  1.0765 -0.1349
 6976SOL    HW232562   4.571   0.513   6.740 -1.9705 -0.2261  1.8360
 6977SOL     OW32563   0.504   0.812  14.808 -0.2090 -0.1059 -0.5801
 6977SOL    HW132564   0.505   0.749  14.736  0.4722 -1.4341  0.5914
 6977SOL    HW232565   0.536   0.762  14.883 -1.7470 -3.1008 -1.9254
 6978SOL     OW32566   3.322   0.095   7.621 -0.1844 -0.8980  0.6173
 6978SOL    HW132567   3.360   0.091   7.709  3.0429 -0.0652 -0.7641
 6978SOL    HW232568   3.365   0.023   7.575 -0.1676  0.1559 -0.9932
 6979SOL     OW32569   3.678   1.569  12.462 -0.2070 -0.4725 -0.1181
 6979SOL    HW132570   3.690   1.626  12.386 -1.1467 -0.6511 -0.4022
 6979SOL    HW232571   3.628   1.624  12.522 -0.4813 -0.1633 -0.6253
 6980SOL     OW32572   0.056   3.721   8.736 -0.2331  0.0772  0.1004
 6980SOL    HW132573   0.075   3.655   8.803 -1.4320  0.5600  0.9177
 6980SOL    HW232574   0.041   3.659   8.665 -1.1307 -0.3629  0.6649
 6981SOL     OW32575   3.225   2.444   9.075 -0.4198 -0.2383 -0.3664
 6981SOL    HW132576   3.280   2.445   9.153  0.5404 -1.5581 -1.0088
 6981SOL    HW232577   3.175   2.364   9.093  0.3785 -1.3724 -3.1580
 6982SOL     OW32578   1.851   4.248   8.389  0.1561 -0.2778  0.3170
 6982SOL    HW132579   1.869   4.325   8.443 -0.2659 -0.6239  0.9536
 6982SOL    HW232580   1.783   4.281   8.330  2.7083  0.0540 -2.4195
 6983SOL     OW32581   1.660   2.763  14.548  0.4264 -0.5533 -0.1587
 6983SOL    HW132582   1.584   2.723  14.591  0.0540 -0.8941 -1.1320
 6983SOL    HW232583   1.649   2.727  14.460 -1.2349 -1.2421  0.3341
 6984SOL     OW32584   1.877   3.637  11.728 -0.1124 -0.2997 -0.2112
 6984SOL    HW132585   1.815   3.667  11.794 -0.6455 -2.1504  0.1430
 6984SOL    HW232586   1.823   3.617  11.651  1.4085 -1.7710 -0.9023
 6985SOL     OW32587   0.626   3.400   8.863 -0.0781  0.1696  0.1435
 6985SOL    HW132588   0.601   3.319   8.818 -2.6662  1.7887 -1.2752
 6985SOL    HW232589   0.571   3.462   8.816 -0.5333 -2.0383 -2.2324
 6986SOL     OW32590   3.931   3.663   7.527 -0.2911  0.0959  0.2629
 6986SOL    HW132591   3.880   3.604   7.582 -0.0758  0.5009  0.9016
 6986SOL    HW232592   3.926   3.748   7.572 -2.1752  0.0101  0.1932
 6987SOL     OW32593   1.305   3.326  17.486 -0.2780 -0.1619  0.2078
 6987SOL    HW132594   1.366   3.310  17.414  0.9128 -0.7814  1.3648
 6987SOL    HW232595   1.271   3.236  17.491  2.5822 -1.0717  2.8662
 6988SOL     OW32596   2.087   0.177   5.273 -0.6219 -0.1838 -0.4016
 6988SOL    HW132597   2.057   0.245   5.212 -2.1704 -1.4943 -1.0984
 6988SOL    HW232598   2.007   0.151   5.317  0.3199  0.8678  1.9471
 6989SOL     OW32599   2.259   1.108   7.711 -0.2765  0.4066  0.2677
 6989SOL    HW132600   2.326   1.097   7.778 -0.1073  1.1874  0.2317
 6989SOL    HW232601   2.275   1.195   7.674  0.1297  0.1050 -0.2502
 6990SOL     OW32602   4.369   3.630   4.212 -0.0221 -0.4588  0.1533
 6990SOL    HW132603   4.409   3.699   4.159  1.0385  0.9552  2.7796
 6990SOL    HW232604   4.437   3.623   4.279 -1.0078 -0.4175  1.1552
 6991SOL     OW32605   3.882   2.726  11.040 -0.2204  0.4071  0.3344
 6991SOL    HW132606   3.865   2.689  11.126  0.8808 -1.1087 -0.0930
 6991SOL    HW232607   3.844   2.813  11.057  0.8388  1.2125 -1.3708
 6992SOL     OW32608   3.271   1.901   1.665  0.2937 -0.0027  0.2869
 6992SOL    HW132609   3.317   1.842   1.724  1.5049  1.9551  1.2965
 6992SOL    HW232610   3.179   1.891   1.689  0.9099  0.9385  3.0295
 6993SOL     OW32611   4.228   1.894   6.677 -0.8550  0.3017  0.0453
 6993SOL    HW132612   4.207   1.921   6.588 -0.2309  0.5117 -0.0385
 6993SOL    HW232613   4.291   1.826   6.654 -0.5338  0.5533  0.1734
 6994SOL     OW32614   4.178   2.208   8.646 -0.0673  0.4495  0.4186
 6994SOL    HW132615   4.124   2.247   8.715 -0.2524 -0.6077  0.8712
 6994SOL    HW232616   4.169   2.272   8.576  0.8227  0.5378  0.3866
 6995SOL     OW32617   2.924   1.134   4.253  0.0960 -0.2787  0.0560
 6995SOL    HW132618   2.989   1.146   4.322 -0.6044  0.6382  0.5644
 6995SOL    HW232619   2.968   1.087   4.182  0.9869  1.2591 -0.4201
 6996SOL     OW32620   1.758   1.903   9.968  0.3309 -0.3931  0.2375
 6996SOL    HW132621   1.663   1.917   9.968  0.2286 -1.1250  1.3517
 6996SOL    HW232622   1.756   1.808   9.983  1.5877 -0.3629  0.5286
 6997SOL     OW32623   1.440   3.894  13.552  0.2738  0.3537 -0.3703
 6997SOL    HW132624   1.515   3.931  13.600  1.1697 -4.5914  2.0500
 6997SOL    HW232625   1.476   3.882  13.464 -0.0867  0.1199 -0.4829
 6998SOL     OW32626   2.038   1.659   5.172  0.5290  0.4731  0.2591
 6998SOL    HW132627   2.131   1.643   5.154  0.8816  2.9012 -0.0352
 6998SOL    HW232628   2.040   1.683   5.265 -2.2783 -0.0517  0.4510
 6999SOL     OW32629   2.642   0.109   5.141  0.2271 -0.1633  0.4112
 6999SOL    HW132630   2.578   0.087   5.209  1.5916 -2.0078  1.0899
 6999SOL    HW232631   2.701   0.159   5.197 -0.9687  0.2617  1.2914
 7000SOL     OW32632   0.059   4.257   9.213 -0.0856  0.4527  0.0663
 7000SOL    HW132633   0.127   4.222   9.270 -0.8384  2.0100  1.9265
 7000SOL    HW232634   4.728   4.238   9.274  0.8320  2.9039  1.8993
 7001SOL     OW32635   3.517   2.712   7.515 -0.4383 -0.6625  0.2981
 7001SOL    HW132636   3.536   2.697   7.608  0.3555  1.3071  0.4558
 7001SOL    HW232637   3.584   2.775   7.487 -0.9831 -0.6178 -0.8941
 7002SOL     OW32638   2.517   2.969   4.978  0.0300  0.4961  0.1205
 7002SOL    HW132639   2.562   3.027   4.917  1.3569  1.8010  2.3562
 7002SOL    HW232640   2.547   3.009   5.060 -0.8524 -0.4232  0.8989
 7003SOL     OW32641   1.181   0.893   3.467 -0.3940 -0.6266  0.0011
 7003SOL    HW132642   1.108   0.871   3.525  0.9434 -1.5987  1.3160
 7003SOL    HW232643   1.218   0.970   3.510 -1.6622  0.6771 -1.2592
 7004SOL     OW32644   2.501   0.861  13.962 -0.3151 -0.0845  0.0570
 7004SOL    HW132645   2.479   0.925  14.030  0.3083 -2.5688  2.6005
 7004SOL    HW232646   2.558   0.795  14.002  0.6604  1.6897  1.6485
 7005SOL     OW32647   2.015   0.318   4.554 -0.3694 -0.7229 -0.4758
 7005SOL    HW132648   2.051   0.321   4.466  1.2115 -0.5402  0.1709
 7005SOL    HW232649   1.991   0.226   4.564  1.6860 -0.9939  2.0233
 7006SOL     OW32650   3.013   2.694   4.541 -0.3725 -0.1654  0.1634
 7006SOL    HW132651   3.014   2.617   4.486 -0.9017 -1.4211  1.9216
 7006SOL    HW232652   3.104   2.684   4.571  0.1469 -0.7473 -1.6482
 7007SOL     OW32653   0.097   3.325  16.582 -0.0824 -0.5908 -0.0011
 7007SOL    HW132654   0.033   3.254  16.569 -0.5036 -0.3411  0.6883
 7007SOL    HW232655   0.183   3.282  16.587 -0.0293 -0.5403 -0.5686
 7008SOL     OW32656   0.387   2.166  15.351  0.3135 -0.0937  0.1485
 7008SOL    HW132657   0.352   2.116  15.425 -0.3342 -0.5830 -0.4869
 7008SOL    HW232658   0.343   2.121  15.279  1.2745  0.1896 -0.6172
 7009SOL     OW32659   0.311   2.530  12.256  0.0495  0.2122  0.2468
 7009SOL    HW132660   0.400   2.536  12.221  0.4538 -1.4133  0.9882
 7009SOL    HW232661   0.317   2.454  12.315 -0.9443  0.0721  0.1690
 7010SOL     OW32662   4.701   4.519   3.992 -0.3287 -0.1005 -0.4680
 7010SOL    HW132663   4.663   4.529   4.079  1.0183  0.2901  0.0721
 7010SOL    HW232664   0.054   4.540   3.999 -0.5740  1.4547 -1.7371
 7011SOL     OW32665   1.418   1.738   4.892 -0.4408 -0.1424 -0.2011
 7011SOL    HW132666   1.354   1.743   4.964 -0.3467  1.9712 -0.2685
 7011SOL    HW232667   1.378   1.780   4.817  0.4670 -0.6814 -0.9807
 7012SOL     OW32668   0.737   1.130   1.916  0.2695  0.2702 -0.2753
 7012SOL    HW132669   0.766   1.049   1.959  1.2341 -0.2036 -1.8535
 7012SOL    HW232670   0.683   1.169   1.985  2.7469 -1.4203  2.6309
 7013SOL     OW32671   3.035   3.985  12.583 -0.1084  0.0976  0.3560
 7013SOL    HW132672   3.066   3.974  12.493  0.8097 -1.2713  0.8336
 7013SOL    HW232673   2.950   3.941  12.577  0.9433 -1.9111  0.1369
 7014SOL     OW32674   3.476   1.071  14.906  0.5338  0.1876  0.2858
 7014SOL    HW132675   3.450   1.045  14.994 -0.1827  2.1309  0.6441
 7014SOL    HW232676   3.428   1.014  14.846 -2.0814  2.3568  0.3003
 7015SOL     OW32677   2.251   3.106   5.045  0.1492  0.5023  0.0092
 7015SOL    HW132678   2.180   3.088   5.106 -0.7612 -0.2297 -1.2799
 7015SOL    HW232679   2.303   3.028   5.062 -2.3710 -1.0414  0.5829
 7016SOL     OW32680   0.012   1.025  10.361 -0.2254  0.3247 -0.1502
 7016SOL    HW132681   0.079   0.991  10.301 -1.3274 -2.0381 -0.0159
 7016SOL    HW232682   0.015   1.113  10.323 -1.3056  0.1128 -0.7346
 7017SOL     OW32683   2.097   1.660  14.385 -0.8228 -0.0766 -0.2573
 7017SOL    HW132684   2.061   1.609  14.457 -1.0035  0.3166 -0.0683
 7017SOL    HW232685   2.154   1.595  14.342  0.8147  1.9688 -1.2162
 7018SOL     OW32686   4.543   0.685   2.784 -0.2459  0.4473 -0.6218
 7018SOL    HW132687   4.636   0.664   2.794  0.1202  0.8954 -2.9853
 7018SOL    HW232688   4.523   0.676   2.691  2.0161  1.2457 -1.2073
 7019SOL     OW32689   1.110   2.898   5.144  0.5329 -0.2277 -0.0605
 7019SOL    HW132690   1.033   2.953   5.159  0.0787 -0.9359  0.2024
 7019SOL    HW232691   1.160   2.924   5.221  0.9073  0.8411 -0.6707
 7020SOL     OW32692   4.490   0.699   9.767  0.4321 -0.2931 -0.6374
 7020SOL    HW132693   4.434   0.725   9.840  2.2152  0.9004  0.2879
 7020SOL    HW232694   4.432   0.723   9.694 -0.5879 -0.0479  0.2569
 7021SOL     OW32695   0.850   4.416   7.219 -0.1032  0.1247  0.1202
 7021SOL    HW132696   0.840   4.361   7.297  1.5246  1.8366  1.5179
 7021SOL    HW232697   0.893   4.351   7.163  1.9488  0.2503  1.5754
 7022SOL     OW32698   1.847   1.672   5.549  0.5077 -0.5610  0.7032
 7022SOL    HW132699   1.784   1.626   5.494 -0.5898  1.5381  0.2141
 7022SOL    HW232700   1.781   1.715   5.603  1.4156  0.2622  1.1556
 7023SOL     OW32701   2.276   0.267  16.483  0.4726 -0.1835 -0.1501
 7023SOL    HW132702   2.260   0.338  16.421  2.4858 -0.1968 -0.6929
 7023SOL    HW232703   2.368   0.251  16.463  0.4388  2.1214 -2.2303
 7024SOL     OW32704   2.734   2.308   0.544 -0.6793  0.2020  0.6810
 7024SOL    HW132705   2.828   2.325   0.551 -0.1360 -2.1455 -1.2841
 7024SOL    HW232706   2.728   2.260   0.627  1.8407 -0.6725  0.3223
 7025SOL     OW32707   0.193   3.925   5.779  0.0836  0.1777  0.1536
 7025SOL    HW132708   0.129   3.868   5.738 -0.0040  0.4862 -0.1386
 7025SOL    HW232709   0.140   3.955   5.853 -0.8003  1.6586 -1.0874
 7026SOL     OW32710   2.161   0.514  14.850  0.1049  0.3669  0.0246
 7026SOL    HW132711   2.079   0.540  14.806 -0.2199 -0.2638  0.2677
 7026SOL    HW232712   2.132   0.530  14.940 -1.8664  3.9076 -1.1819
 7027SOL     OW32713   4.155   3.866   1.512 -0.1817  0.1890 -0.1505
 7027SOL    HW132714   4.070   3.909   1.521  0.4309  1.2425  0.5518
 7027SOL    HW232715   4.130   3.785   1.556  1.7936  0.0769  0.7875
 7028SOL     OW32716   4.428   4.475   0.981  0.2353 -0.2184  0.0793
 7028SOL    HW132717   4.352   4.521   1.019 -0.6489 -1.3784 -0.2816
 7028SOL    HW232718   4.466   4.534   0.916 -0.1324  1.5018  1.4018
 7029SOL     OW32719   0.816   0.612  15.673 -0.3995  0.5519  0.5130
 7029SOL    HW132720   0.827   0.669  15.597 -2.9467 -0.0103 -0.2630
 7029SOL    HW232721   0.790   0.532  15.628  2.0753  0.0394 -0.0125
 7030SOL     OW32722   0.969   4.271   2.743  0.2234 -0.0307  0.4490
 7030SOL    HW132723   0.981   4.204   2.811 -2.0801 -1.7860 -0.8487
 7030SOL    HW232724   0.873   4.279   2.745  0.1272 -0.9615 -0.4512
 7031SOL     OW32725   1.281   2.388   5.054 -0.3395  0.0767 -0.2256
 7031SOL    HW132726   1.213   2.380   5.121  0.4144  0.9634  0.6486
 7031SOL    HW232727   1.353   2.350   5.104  0.3492 -1.0551 -2.0816
 7032SOL     OW32728   1.336   2.203   3.742  0.4084  0.0621 -0.1633
 7032SOL    HW132729   1.305   2.292   3.757 -2.0790 -0.3324 -2.8182
 7032SOL    HW232730   1.260   2.161   3.700 -0.1563  1.5593 -0.6345
 7033SOL     OW32731   2.151   3.486  16.715  0.2512 -0.2492 -0.1873
 7033SOL    HW132732   2.163   3.579  16.697  2.2556 -0.6373 -0.8233
 7033SOL    HW232733   2.169   3.487  16.809  1.3417  0.4968 -0.4009
 7034SOL     OW32734   0.991   2.967   3.870 -0.6721  0.0858  0.1361
 7034SOL    HW132735   0.928   2.908   3.913  1.4540 -2.3369 -0.0619
 7034SOL    HW232736   1.072   2.915   3.869 -0.1935  0.8152  1.1207
 7035SOL     OW32737   1.241   2.959  16.757 -0.0583 -0.6214  0.4659
 7035SOL    HW132738   1.191   2.878  16.771  0.5582 -0.7059  2.2139
 7035SOL    HW232739   1.294   2.957  16.837  2.8107 -0.3941 -1.4286
 7036SOL     OW32740   1.602   1.572  16.286 -0.5541 -0.0789  0.0341
 7036SOL    HW132741   1.586   1.533  16.372 -0.4410  1.2787  0.6664
 7036SOL    HW232742   1.515   1.554  16.250 -0.3089  2.9297 -2.1145
 7037SOL     OW32743   4.403   0.363   5.231 -0.0058 -0.0621  0.1891
 7037SOL    HW132744   4.412   0.286   5.288 -0.4791 -0.2842 -0.0329
 7037SOL    HW232745   4.429   0.430   5.295 -0.2250 -0.5365  0.7781
 7038SOL     OW32746   3.051   1.339   5.280 -0.7248 -0.2116  0.7134
 7038SOL    HW132747   3.052   1.321   5.186 -4.3315 -0.1072  0.6745
 7038SOL    HW232748   3.050   1.435   5.282  0.7471 -0.1622 -0.9644
 7039SOL     OW32749   2.642   4.296   3.412  0.4436  0.0537  0.2952
 7039SOL    HW132750   2.637   4.319   3.505 -1.6660  0.3118  0.1158
 7039SOL    HW232751   2.701   4.221   3.407  1.9602  1.2869 -0.3838
 7040SOL     OW32752   4.507   1.221  12.673  0.2719  0.3567  0.2099
 7040SOL    HW132753   4.585   1.241  12.621  1.4998 -2.3921  1.0340
 7040SOL    HW232754   4.474   1.149  12.619 -0.4166  0.8098  0.0274
 7041SOL     OW32755   3.360   0.124   5.620 -0.6249  0.2170  0.0809
 7041SOL    HW132756   3.343   0.208   5.662  2.4367  1.3289 -0.8618
 7041SOL    HW232757   3.270   0.098   5.602 -1.2700  2.3585  0.2149
 7042SOL     OW32758   3.666   2.945   6.421 -0.2921  0.5973 -0.4979
 7042SOL    HW132759   3.726   2.949   6.496 -1.7006  1.5556  0.5954
 7042SOL    HW232760   3.692   2.859   6.391  0.3078  0.3400  0.7447
 7043SOL     OW32761   2.925   4.312   5.397  0.3331  0.8643 -0.0428
 7043SOL    HW132762   2.854   4.320   5.461  0.0110  3.0439 -0.6601
 7043SOL    HW232763   2.992   4.277   5.456 -0.1686  0.1163  0.0792
 7044SOL     OW32764   0.454   1.275   7.138 -0.2021 -0.4386  0.2703
 7044SOL    HW132765   0.537   1.230   7.157  0.0261 -1.2381 -2.4740
 7044SOL    HW232766   0.469   1.365   7.166 -1.3677 -0.3491  0.5685
 7045SOL     OW32767   0.549   3.355   9.170 -0.3156 -0.7865  0.7573
 7045SOL    HW132768   0.536   3.338   9.263 -0.4576 -1.0759  0.6859
 7045SOL    HW232769   0.471   3.399   9.137  0.0006  0.5279  1.7407
 7046SOL     OW32770   4.351   2.220  14.159  0.0645  0.1871  0.9215
 7046SOL    HW132771   4.430   2.274  14.168 -0.8144  2.1187 -3.1900
 7046SOL    HW232772   4.275   2.264  14.196 -1.1494 -0.2991 -1.0135
 7047SOL     OW32773   1.605   3.695  13.219 -0.2963 -0.5658  0.3180
 7047SOL    HW132774   1.626   3.610  13.180 -2.2750 -0.5957 -0.6809
 7047SOL    HW232775   1.668   3.760  13.187  0.7888 -1.4783  0.5929
 7048SOL     OW32776   4.084   1.499   9.942  0.6541  0.2053 -0.0746
 7048SOL    HW132777   4.167   1.545   9.934  0.3814 -0.0534 -4.4846
 7048SOL    HW232778   4.113   1.428  10.000 -0.1262  0.1182  0.2074
 7049SOL     OW32779   4.711   4.493   6.012 -0.0743  0.0755 -0.2188
 7049SOL    HW132780   4.712   4.584   6.044  0.1264  0.5125 -1.4622
 7049SOL    HW232781   4.625   4.469   6.044 -0.5106  1.0073 -0.6887
 7050SOL     OW32782   3.326   3.163  15.431  0.2392  0.3711 -0.3202
 7050SOL    HW132783   3.310   3.141  15.340  0.2689 -1.7274  0.1656
 7050SOL    HW232784   3.315   3.258  15.437 -0.2337  0.1932  1.9115
 7051SOL     OW32785   1.965   3.168   3.330  0.2253 -0.3564 -0.5234
 7051SOL    HW132786   1.917   3.168   3.413 -0.8968  0.9398 -1.1704
 7051SOL    HW232787   2.030   3.235   3.348  1.8251 -1.7269 -1.1904
 7052SOL     OW32788   4.052   3.249   1.758 -0.3441 -0.6990  1.0495
 7052SOL    HW132789   4.062   3.179   1.823  0.6720 -0.9611  0.6243
 7052SOL    HW232790   3.962   3.233   1.731 -0.0174 -2.7178  1.1524
 7053SOL     OW32791   3.443   4.097  15.965 -0.2582  0.3073 -0.1712
 7053SOL    HW132792   3.511   4.048  15.919  0.4514  1.1114  0.0031
 7053SOL    HW232793   3.368   4.096  15.907  1.3506 -1.4612 -2.2336
 7054SOL     OW32794   2.744   2.986   8.100  0.1870 -0.8390 -0.2224
 7054SOL    HW132795   2.675   2.955   8.042 -1.1484 -1.6223  1.7711
 7054SOL    HW232796   2.725   3.080   8.094 -0.4490 -0.8533  1.6927
 7055SOL     OW32797   0.475   2.081  10.493 -0.2979 -0.6315 -0.4694
 7055SOL    HW132798   0.468   2.000  10.543  1.1864 -1.6061 -1.8019
 7055SOL    HW232799   0.429   2.062  10.411 -1.4788 -0.5411  0.1767
 7056SOL     OW32800   3.016   2.647   8.344 -0.2713  0.7427  0.4971
 7056SOL    HW132801   3.057   2.720   8.299  1.0164  0.9485  1.9828
 7056SOL    HW232802   3.074   2.575   8.319  1.0247  1.9025  0.1810
 7057SOL     OW32803   2.429   1.136   8.065  0.1151  0.1634 -0.0159
 7057SOL    HW132804   2.498   1.110   8.125 -1.1101 -1.5188  0.6631
 7057SOL    HW232805   2.387   1.058   8.028  1.3542 -0.1885 -0.6639
 7058SOL     OW32806   1.033   3.789  17.360  0.1418 -0.5080  0.0306
 7058SOL    HW132807   1.025   3.790  17.455  2.4617 -0.4298  0.2265
 7058SOL    HW232808   1.078   3.706  17.346  3.5168  1.1029  1.2002
 7059SOL     OW32809   3.638   0.646   4.446  0.2972 -0.1388  0.1278
 7059SOL    HW132810   3.586   0.606   4.515 -1.5334 -0.6848 -1.5514
 7059SOL    HW232811   3.570   0.703   4.408 -1.3253 -1.1263  1.5426
 7060SOL     OW32812   0.612   0.293   3.145  0.6243 -0.4113 -0.0365
 7060SOL    HW132813   0.660   0.373   3.123  0.4649 -0.9479 -2.2812
 7060SOL    HW232814   0.678   0.259   3.205 -1.1460  1.3992  2.9475
 7061SOL     OW32815   1.115   3.351   4.726  0.0614 -0.0598 -0.7839
 7061SOL    HW132816   1.205   3.380   4.707  0.6258 -0.6771  0.9769
 7061SOL    HW232817   1.066   3.376   4.648 -0.5600 -3.5134 -1.4697
 7062SOL     OW32818   3.953   0.794   0.456 -0.2668  0.3886 -0.1338
 7062SOL    HW132819   3.931   0.793   0.363  2.0858 -1.4018 -0.6645
 7062SOL    HW232820   3.900   0.867   0.489 -1.1155 -0.3027  0.0349
 7063SOL     OW32821   2.315   0.276   3.084  0.2750  0.5680  0.2570
 7063SOL    HW132822   2.335   0.186   3.108 -3.1087 -0.4443 -0.7494
 7063SOL    HW232823   2.298   0.328   3.162 -0.2610  0.1877  0.3862
 7064SOL     OW32824   2.369   1.224   4.059  0.2189  0.5140 -0.5174
 7064SOL    HW132825   2.400   1.305   4.099  3.8200 -1.8910  1.5446
 7064SOL    HW232826   2.358   1.169   4.136 -1.1378  1.4174 -0.0625
 7065SOL     OW32827   4.116   1.974  13.638  0.3378 -0.6459  0.0105
 7065SOL    HW132828   4.108   1.953  13.731  0.2020  2.2840  0.6522
 7065SOL    HW232829   4.104   1.882  13.613  0.9453 -0.3271 -1.4413
 7066SOL     OW32830   4.210   1.717   0.380  0.2064  0.2399 -0.1830
 7066SOL    HW132831   4.217   1.763   0.296 -1.1625 -1.4341 -1.2082
 7066SOL    HW232832   4.239   1.787   0.439 -2.8416  1.2643  0.0970
 7067SOL     OW32833   2.644   3.391   8.852  0.2508 -0.2489 -0.2759
 7067SOL    HW132834   2.616   3.326   8.788  0.8301 -3.2739  2.5184
 7067SOL    HW232835   2.696   3.333   8.908 -0.2553 -1.2956 -0.8996
 7068SOL     OW32836   3.701   0.913   7.240 -0.0651  0.2442 -0.2028
 7068SOL    HW132837   3.779   0.903   7.186 -0.2251  0.8717 -0.5461
 7068SOL    HW232838   3.732   0.856   7.310  2.1190  1.4561 -0.2012
 7069SOL     OW32839   2.662   1.744   4.907 -0.0935  0.2090 -0.0130
 7069SOL    HW132840   2.708   1.820   4.874 -1.5719  2.3204  2.7525
 7069SOL    HW232841   2.591   1.796   4.945  0.1348 -0.1112  0.8552
 7070SOL     OW32842   1.445   1.042   9.107  0.1363  0.2965  0.0184
 7070SOL    HW132843   1.492   1.033   9.024  2.1169 -1.0197  1.2949
 7070SOL    HW232844   1.501   1.106   9.151  0.8023 -1.5586  1.8434
 7071SOL     OW32845   0.747   3.879   7.220  0.0068 -0.4791  0.0090
 7071SOL    HW132846   0.680   3.817   7.249 -0.8460  1.3064  1.8707
 7071SOL    HW232847   0.685   3.939   7.177 -1.7973  0.0457  3.3273
 7072SOL     OW32848   1.669   1.642  16.673  0.3596  0.2382 -0.2215
 7072SOL    HW132849   1.686   1.556  16.633 -0.8401 -0.6066  1.0895
 7072SOL    HW232850   1.738   1.658  16.737  0.3090 -0.0828 -0.0848
 7073SOL     OW32851   3.171   3.022   5.753  0.8396 -0.5902  0.2402
 7073SOL    HW132852   3.137   3.041   5.840  0.2280 -3.1223  0.5516
 7073SOL    HW232853   3.097   2.973   5.717 -0.4211  0.8636  0.8689
 7074SOL     OW32854   1.345   0.138   6.904  0.2552  0.1257 -0.0159
 7074SOL    HW132855   1.315   0.055   6.941  0.7379 -0.5307 -1.0929
 7074SOL    HW232856   1.410   0.110   6.839  0.0594  0.0090 -0.1635
 7075SOL     OW32857   1.268   1.198   6.874 -0.1893  0.4336 -0.7195
 7075SOL    HW132858   1.344   1.253   6.857  1.2988 -0.5007  2.8940
 7075SOL    HW232859   1.234   1.249   6.948  1.2458 -1.2413  1.0949
 7076SOL     OW32860   0.356   1.158   6.414 -0.7922 -0.4718 -0.0854
 7076SOL    HW132861   0.301   1.083   6.435 -2.6865  0.8590 -0.3176
 7076SOL    HW232862   0.291   1.206   6.362 -0.0528  0.8685  0.2232
 7077SOL     OW32863   4.450   0.561   9.178  0.5912  0.0574  0.0028
 7077SOL    HW132864   4.423   0.649   9.206 -1.3250 -0.6393  0.3304
 7077SOL    HW232865   4.520   0.553   9.243 -1.4894 -2.2020  1.9321
 7078SOL     OW32866   1.586   3.305   1.233 -0.4612 -0.0546  0.0218
 7078SOL    HW132867   1.638   3.287   1.155  3.0424  0.1804  2.3349
 7078SOL    HW232868   1.498   3.309   1.195 -0.7896 -0.8106  0.6953
 7079SOL     OW32869   1.956   3.234   6.958  0.0768 -0.0337 -0.0969
 7079SOL    HW132870   1.895   3.174   6.917 -0.0745  0.3327 -0.4092
 7079SOL    HW232871   1.900   3.312   6.950  0.3945  0.3811  1.8592
 7080SOL     OW32872   3.274   0.331   5.777 -0.7213  0.0742 -0.3905
 7080SOL    HW132873   3.251   0.417   5.743 -1.5356 -0.1967 -0.5199
 7080SOL    HW232874   3.191   0.284   5.784 -0.1963 -0.8371 -0.1398
 7081SOL     OW32875   0.903   0.214   8.485 -0.5170  0.5621  0.4539
 7081SOL    HW132876   0.809   0.212   8.466 -0.7911 -2.4752  2.2017
 7081SOL    HW232877   0.922   0.121   8.495  2.9359  1.1832 -0.3950
 7082SOL     OW32878   1.456   4.685   2.908  0.0304  0.3419  0.2945
 7082SOL    HW132879   1.469   0.037   2.928  1.0904  0.1029  0.6942
 7082SOL    HW232880   1.369   4.686   2.948 -0.2349  0.2839 -0.2797
 7083SOL     OW32881   2.398   1.189   2.224 -0.0530 -0.4897 -0.2084
 7083SOL    HW132882   2.370   1.136   2.299  0.1288  0.8185  0.7930
 7083SOL    HW232883   2.492   1.178   2.238 -0.1218  0.8462  1.4150
 7084SOL     OW32884   1.439   4.637   1.825 -0.7964  0.0931  0.1062
 7084SOL    HW132885   1.399   4.602   1.745 -1.9538  0.5401  0.4891
 7084SOL    HW232886   1.517   4.662   1.776 -0.4560  1.0225  1.1290
 7085SOL     OW32887   3.249   4.033  10.644 -0.2446  0.0827 -0.2683
 7085SOL    HW132888   3.156   4.030  10.621  0.1026 -1.3184 -1.5226
 7085SOL    HW232889   3.264   4.127  10.653 -2.5198  0.4142 -0.1420
 7086SOL     OW32890   2.189   4.019   5.186  0.1270  0.2970  0.4431
 7086SOL    HW132891   2.157   3.956   5.250  0.6917 -0.4145  0.0259
 7086SOL    HW232892   2.250   3.966   5.135 -1.1074 -2.1440  1.5059
 7087SOL     OW32893   3.975   3.928   5.709 -0.8501  0.1397 -0.1579
 7087SOL    HW132894   3.980   3.932   5.804 -0.0854  0.9478 -0.2325
 7087SOL    HW232895   3.959   3.836   5.690 -2.0566  0.2960  0.0926
 7088SOL     OW32896   0.366   0.124   0.714  0.0299 -0.2612  0.0251
 7088SOL    HW132897   0.358   0.109   0.620 -0.4536  2.0294 -0.3073
 7088SOL    HW232898   0.313   0.203   0.728 -0.2662 -0.4229 -0.2036
 7089SOL     OW32899   2.598   2.400  12.957  0.1913  0.1004 -0.0547
 7089SOL    HW132900   2.524   2.458  12.937 -1.7243 -1.8129  1.3784
 7089SOL    HW232901   2.582   2.342  12.883 -0.1822  0.2222 -0.0713
 7090SOL     OW32902   4.550   0.403   1.996 -0.2314 -0.0389  0.2877
 7090SOL    HW132903   4.637   0.371   2.021  0.1330  1.3281  0.7667
 7090SOL    HW232904   4.496   0.324   2.003 -1.4638  0.6194 -1.7415
 7091SOL     OW32905   0.313   1.051   3.747  0.1940 -0.2080 -0.7297
 7091SOL    HW132906   0.324   0.982   3.812  1.1739  2.5628  2.0030
 7091SOL    HW232907   0.239   1.015   3.698  0.2726 -2.4803  0.8306
 7092SOL     OW32908   1.360   2.423   9.913  0.1298 -0.2503 -0.0655
 7092SOL    HW132909   1.418   2.375   9.855  0.4909  0.1212 -0.0204
 7092SOL    HW232910   1.407   2.423   9.997  3.2663 -0.5831 -1.8443
 7093SOL     OW32911   2.765   3.737  11.697  0.1203  0.2580 -0.2087
 7093SOL    HW132912   2.770   3.677  11.622  2.8720 -0.6729  0.7269
 7093SOL    HW232913   2.807   3.685  11.765  1.0547  2.6122  1.0182
 7094SOL     OW32914   1.158   3.761   8.155  0.6169 -0.0590  0.1236
 7094SOL    HW132915   1.236   3.795   8.113  0.2967  1.0231  0.3994
 7094SOL    HW232916   1.194   3.727   8.237 -1.3191 -2.7764 -0.1160
 7095SOL     OW32917   4.371   1.686   3.824  0.1159  0.6020  0.1243
 7095SOL    HW132918   4.420   1.604   3.819  2.5876  1.9400  2.4213
 7095SOL    HW232919   4.322   1.669   3.905 -2.4610  2.8465 -0.9625
 7096SOL     OW32920   2.293   2.498   7.219 -0.5682  0.5200  0.0539
 7096SOL    HW132921   2.219   2.550   7.250 -1.5274 -0.6162 -0.3377
 7096SOL    HW232922   2.345   2.487   7.298 -0.7819 -1.9460 -0.1737
 7097SOL     OW32923   0.326   0.569   6.369 -0.6381 -0.3996  0.3967
 7097SOL    HW132924   0.393   0.638   6.372  1.3972 -2.4298  1.6678
 7097SOL    HW232925   0.358   0.513   6.298 -0.9359  0.3646 -0.3464
 7098SOL     OW32926   3.448   4.377   8.419  0.5876 -0.4457 -0.1543
 7098SOL    HW132927   3.540   4.398   8.403  0.4982  0.7110  0.8766
 7098SOL    HW232928   3.445   4.421   8.504 -2.4174 -0.6565 -0.1608
 7099SOL     OW32929   3.567   3.366   8.680  0.3130 -0.2907  0.3138
 7099SOL    HW132930   3.604   3.286   8.718 -0.4989 -0.2827  1.1461
 7099SOL    HW232931   3.475   3.349   8.699 -0.5346  3.0950 -0.8209
 7100SOL     OW32932   1.085   2.087   4.302 -0.3335  0.3467 -0.3008
 7100SOL    HW132933   1.082   2.083   4.207 -2.6566  1.0146 -0.2658
 7100SOL    HW232934   1.118   2.000   4.322 -2.7094  0.1923  3.1457
 7101SOL     OW32935   2.862   1.114   8.450 -0.1845 -0.2068  0.1071
 7101SOL    HW132936   2.934   1.055   8.470 -0.5891 -1.5609 -2.3222
 7101SOL    HW232937   2.829   1.117   8.539 -0.8401 -0.6772 -0.1208
 7102SOL     OW32938   3.240   3.222   7.390  0.0645 -0.2850 -0.0401
 7102SOL    HW132939   3.297   3.168   7.445 -0.5371 -1.8416 -0.9167
 7102SOL    HW232940   3.222   3.302   7.438  0.1885  0.1333 -0.7002
 7103SOL     OW32941   2.845   3.825   8.212  0.1355 -0.1406  0.3372
 7103SOL    HW132942   2.752   3.813   8.231  0.7330 -0.9489  2.8252
 7103SOL    HW232943   2.870   3.755   8.151 -0.8039 -0.4166  0.2792
 7104SOL     OW32944   0.574   1.240   6.513  0.0676 -0.2792  0.7642
 7104SOL    HW132945   0.571   1.170   6.579 -2.4624 -0.6425  0.2458
 7104SOL    HW232946   0.497   1.217   6.462  1.6891  1.1767 -2.3300
 7105SOL     OW32947   3.314   1.172   6.391  0.0461 -0.5656  0.2130
 7105SOL    HW132948   3.308   1.096   6.333  0.6678  1.1719 -2.1186
 7105SOL    HW232949   3.387   1.218   6.351 -0.8449  0.6013 -0.0658
 7106SOL     OW32950   2.170   3.863   2.585  0.2011  0.3310 -0.5134
 7106SOL    HW132951   2.156   3.845   2.492 -1.6120 -1.7962  0.1621
 7106SOL    HW232952   2.265   3.860   2.588  0.2091 -0.6521 -1.5954
 7107SOL     OW32953   2.388   3.144  15.535  0.8853 -0.3089  0.5768
 7107SOL    HW132954   2.426   3.224  15.497 -0.0969  0.4068  1.1001
 7107SOL    HW232955   2.435   3.079  15.482  0.0766 -0.2195 -0.2445
 7108SOL     OW32956   1.211   1.512   6.759 -0.0117  0.1997  0.1887
 7108SOL    HW132957   1.125   1.544   6.786 -0.6195 -0.1521 -1.3903
 7108SOL    HW232958   1.187   1.438   6.704 -1.3366  0.2899  0.6416
 7109SOL     OW32959   0.891   3.325   2.493 -0.1007 -0.0127 -0.5651
 7109SOL    HW132960   0.945   3.362   2.563  0.7170 -0.5120 -0.9352
 7109SOL    HW232961   0.897   3.231   2.509 -1.8470 -0.1119 -0.4864
 7110SOL     OW32962   2.972   0.976  11.688 -0.6992  0.4987  0.1038
 7110SOL    HW132963   3.000   1.015  11.771  1.2248  0.3564 -0.4853
 7110SOL    HW232964   3.039   0.992  11.621 -0.6531 -2.0519 -0.4482
 7111SOL     OW32965   2.219   4.634   6.135  0.2399  0.1402  0.4978
 7111SOL    HW132966   2.265   4.718   6.144 -0.4085  0.4052  1.2368
 7111SOL    HW232967   2.221   4.614   6.041 -0.6873 -1.9254  0.9232
 7112SOL     OW32968   4.619   1.053   0.083  0.4595  0.1912 -0.4573
 7112SOL    HW132969   4.713   1.041   0.096  0.6144  1.0679 -0.8000
 7112SOL    HW232970   4.602   0.996   0.007 -1.3009 -0.0951  0.1459
 7113SOL     OW32971   2.143   4.427   6.511  0.1906  0.4615  0.4087
 7113SOL    HW132972   2.128   4.430   6.416  0.5309 -0.1847  0.3344
 7113SOL    HW232973   2.219   4.485   6.519  1.0949 -0.5273 -0.8050
 7114SOL     OW32974   3.378   0.886   5.423 -0.3994 -0.1432 -0.2559
 7114SOL    HW132975   3.401   0.793   5.420  2.4963  0.5706 -0.7935
 7114SOL    HW232976   3.446   0.924   5.480  0.1159 -1.7434  0.1745
 7115SOL     OW32977   3.296   4.461   3.606 -0.6345 -0.0859 -0.1059
 7115SOL    HW132978   3.219   4.482   3.657  0.2393  1.7461  0.4698
 7115SOL    HW232979   3.277   4.492   3.517  1.7989  1.9311  0.0562
 7116SOL     OW32980   2.488   3.783   0.249  0.5190 -0.7720  0.1007
 7116SOL    HW132981   2.501   3.757   0.340 -1.8873  1.3591  1.0417
 7116SOL    HW232982   2.523   3.705   0.206 -1.2336 -2.0171  0.9242
 7117SOL     OW32983   4.257   2.685   8.931  0.3085  0.1047  0.6600
 7117SOL    HW132984   4.310   2.721   9.002 -0.1925  1.4760  0.3249
 7117SOL    HW232985   4.304   2.601   8.927  0.3783  0.0328  3.1523
 7118SOL     OW32986   2.134   2.740   2.832  0.2419 -0.1792  0.1478
 7118SOL    HW132987   2.177   2.820   2.861  2.6106 -1.5593  0.4510
 7118SOL    HW232988   2.202   2.673   2.843  0.3483  0.0325  0.7799
 7119SOL     OW32989   3.134   4.493   7.138  0.8038 -0.5284 -0.6193
 7119SOL    HW132990   3.136   4.463   7.047  0.4185  0.7824 -1.0589
 7119SOL    HW232991   3.200   4.562   7.143 -0.3429  0.4905  0.1627
 7120SOL     OW32992   3.863   3.739   1.940 -0.7052 -0.1897  0.1977
 7120SOL    HW132993   3.867   3.653   1.899 -1.2954 -1.3271  2.5061
 7120SOL    HW232994   3.809   3.772   1.869  0.8971  0.6367 -0.6507
 7121SOL     OW32995   2.719   4.317   5.574  0.1056 -0.1131 -0.7594
 7121SOL    HW132996   2.752   4.346   5.659  0.0265  1.8788 -1.4068
 7121SOL    HW232997   2.625   4.308   5.587  0.0664  2.6171  0.8167
 7122SOL     OW32998   2.296   1.335   5.672 -0.6090 -0.2609  0.2229
 7122SOL    HW132999   2.233   1.263   5.664 -0.4000 -0.3334 -0.8312
 7122SOL    HW233000   2.238   1.401   5.709 -0.8975 -0.6180  0.4160
 7123SOL     OW33001   4.016   2.978  15.743 -0.1980 -0.1922 -0.0915
 7123SOL    HW133002   3.941   2.933  15.780  1.2235 -3.2413 -0.9489
 7123SOL    HW233003   4.056   3.026  15.816 -1.2682  2.1063 -1.0046
 7124SOL     OW33004   4.048   3.615   0.194 -0.2408  0.1378  0.1613
 7124SOL    HW133005   3.956   3.628   0.217 -0.3528  0.7046 -0.5904
 7124SOL    HW233006   4.085   3.693   0.235 -0.7228  0.4485  0.0058
 7125SOL     OW33007   3.406   3.744   4.132  0.0302 -0.8837 -0.2753
 7125SOL    HW133008   3.331   3.768   4.078  0.8909  0.4314 -0.8905
 7125SOL    HW233009   3.476   3.728   4.069 -0.3360 -0.1802 -0.8561
 7126SOL     OW33010   0.433   4.605  14.131  0.2656  0.0434 -0.5487
 7126SOL    HW133011   0.372   4.592  14.204 -0.9943  1.0410 -1.4286
 7126SOL    HW233012   0.493   4.532  14.146  0.5832  0.2227 -0.9411
 7127SOL     OW33013   3.221   0.977   9.011  0.6531 -0.0338  0.1980
 7127SOL    HW133014   3.132   1.010   9.017 -0.2028 -1.8124 -2.7057
 7127SOL    HW233015   3.197   0.890   8.978  0.6045  0.3317 -0.7164
 7128SOL     OW33016   1.837   0.518   3.670  0.6113 -0.2345  0.0313
 7128SOL    HW133017   1.812   0.432   3.637  0.3753 -1.2361  2.7565
 7128SOL    HW233018   1.827   0.569   3.590  0.2270  0.9767  0.8465
 7129SOL     OW33019   4.604   3.232   2.349 -0.3890  0.1547 -0.3974
 7129SOL    HW133020   4.644   3.170   2.288 -2.2750 -0.2751 -1.1969
 7129SOL    HW233021   4.623   3.314   2.303 -0.3537  1.0516  1.2117
 7130SOL     OW33022   0.872   2.309   5.554  0.0524 -0.1765  0.0080
 7130SOL    HW133023   0.835   2.226   5.585 -1.6884  0.1551 -1.2093
 7130SOL    HW233024   0.907   2.353   5.632  0.7323 -0.8789  0.1050
 7131SOL     OW33025   2.170   4.300   3.911  0.0028  0.5854  0.0829
 7131SOL    HW133026   2.215   4.339   3.836 -0.9927  0.6246 -0.5030
 7131SOL    HW233027   2.108   4.372   3.926  0.5074  1.4965 -2.1474
 7132SOL     OW33028   1.237   1.802  13.264 -0.4556 -0.5545  0.0535
 7132SOL    HW133029   1.330   1.784  13.250  0.0720  1.2594  1.2396
 7132SOL    HW233030   1.221   1.777  13.355  2.5705  0.6002  0.8903
 7133SOL     OW33031   1.235   4.188   8.912  0.1312 -0.0116  0.3019
 7133SOL    HW133032   1.258   4.168   9.003 -0.6567 -0.1196  0.4719
 7133SOL    HW233033   1.285   4.267   8.893  0.0425  0.2837  1.2686
 7134SOL     OW33034   0.367   2.451   4.293 -0.0516 -0.0337  0.2948
 7134SOL    HW133035   0.293   2.395   4.315 -1.0086  0.7981 -0.8498
 7134SOL    HW233036   0.374   2.499   4.375  0.6755 -0.0511  0.2474
 7135SOL     OW33037   4.487   0.729   2.477 -0.4197 -0.1589 -0.3631
 7135SOL    HW133038   4.557   0.719   2.413  1.2470 -1.9747  1.7529
 7135SOL    HW233039   4.463   0.820   2.458 -2.1356 -0.8593 -1.5352
 7136SOL     OW33040   0.992   0.822   4.094 -0.3634  0.6640  0.2244
 7136SOL    HW133041   1.052   0.800   4.023 -0.2548 -0.0994  0.5523
 7136SOL    HW233042   0.949   0.902   4.065  1.2651  1.3450 -0.2875
 7137SOL     OW33043   0.051   3.179  12.783 -0.0571  0.0440 -0.7681
 7137SOL    HW133044   4.733   3.108  12.808 -0.3684  1.1595  1.6181
 7137SOL    HW233045   0.108   3.179  12.860 -1.7494  0.1141  0.4587
 7138SOL     OW33046   2.098   1.118   5.570 -0.2442 -0.6975 -0.2389
 7138SOL    HW133047   2.008   1.095   5.590 -0.9063  0.2416 -2.1565
 7138SOL    HW233048   2.129   1.041   5.523  2.5685 -0.2070  0.7940
 7139SOL     OW33049   4.680   1.043   7.375 -0.3422 -0.9146 -0.0611
 7139SOL    HW133050   4.733   0.968   7.347 -0.2258 -0.1819 -1.8289
 7139SOL    HW233051   4.721   1.068   7.458  0.3634  1.5299 -1.1283
 7140SOL     OW33052   2.715   0.075   3.135  0.1502  0.3898  0.4827
 7140SOL    HW133053   2.680   0.006   3.079  0.7646  0.9099 -0.5334
 7140SOL    HW233054   2.740   0.034   3.218 -0.5606 -0.6917  0.1613
 7141SOL     OW33055   1.099   3.551   3.466  0.5758 -0.6128  0.0184
 7141SOL    HW133056   1.100   3.609   3.542 -1.0911 -0.4411 -0.0906
 7141SOL    HW233057   1.006   3.541   3.450  0.1612 -0.6843  2.5224
 7142SOL     OW33058   1.135   3.393   2.203 -0.0005  0.7833 -0.0656
 7142SOL    HW133059   1.151   3.300   2.186 -0.1308  0.6938  0.3121
 7142SOL    HW233060   1.160   3.431   2.118 -0.1355  0.6464 -0.1658
 7143SOL     OW33061   0.915   0.166  12.101  0.3093  0.5096  0.3032
 7143SOL    HW133062   0.860   0.149  12.025 -1.4330  2.9588  1.0348
 7143SOL    HW233063   0.857   0.235  12.133  0.2615  0.7324 -0.2716
 7144SOL     OW33064   1.654   2.038   2.719  0.8137 -0.1403  0.2790
 7144SOL    HW133065   1.616   2.117   2.681  0.5618 -0.3390  0.1154
 7144SOL    HW233066   1.746   2.038   2.693  1.2683  2.5738  1.8538
 7145SOL     OW33067   3.088   4.203   5.585 -0.4704  0.6425 -0.1698
 7145SOL    HW133068   3.176   4.210   5.547 -0.8532  0.8468 -1.0111
 7145SOL    HW233069   3.090   4.119   5.630 -1.2991  2.0492  2.5131
 7146SOL     OW33070   0.527   0.208   3.699 -0.3062  0.5044  0.4361
 7146SOL    HW133071   0.550   0.120   3.730 -1.9905  0.3198  1.1138
 7146SOL    HW233072   0.442   0.195   3.657 -0.0450  0.3065 -0.0387
 7147SOL     OW33073   1.434   2.133   4.014 -0.4074 -0.4550 -0.2686
 7147SOL    HW133074   1.427   2.039   3.996  0.3773 -0.5135 -0.2409
 7147SOL    HW233075   1.399   2.165   3.930  1.8749 -0.5539 -1.2406
 7148SOL     OW33076   0.626   1.679  17.628 -0.6233 -0.1429  0.0842
 7148SOL    HW133077   0.687   1.732  17.576 -1.8885  2.4254  1.2094
 7148SOL    HW233078   0.570   1.749  17.660 -0.5398  1.2601 -2.8951
 7149SOL     OW33079   1.971   0.866   3.830  0.0683  0.5052  0.3718
 7149SOL    HW133080   1.952   0.959   3.820  1.3782  0.7878  0.4733
 7149SOL    HW233081   1.890   0.842   3.876  0.1780  1.7197  1.1980
 7150SOL     OW33082   1.492   0.047  10.106 -0.4036 -0.1623  0.1741
 7150SOL    HW133083   1.485   0.047  10.201 -1.3068 -0.5432  0.1106
 7150SOL    HW233084   1.574   0.004  10.083  0.2244  1.7074 -1.1362
 7151SOL     OW33085   0.172   2.863   2.402 -0.9224  0.2597  0.2097
 7151SOL    HW133086   0.222   2.893   2.478 -0.1529  2.2213 -1.0693
 7151SOL    HW233087   0.245   2.861   2.341  0.9227  0.6432  2.4157
 7152SOL     OW33088   1.929   3.400   2.390 -0.2112  0.3152 -0.5576
 7152SOL    HW133089   1.869   3.396   2.465 -0.9847  1.1405 -1.1392
 7152SOL    HW233090   1.937   3.307   2.368 -0.7787  0.0909  0.2087
 7153SOL     OW33091   0.399   4.300   7.767  0.0102  1.1612  0.8231
 7153SOL    HW133092   0.307   4.323   7.773 -0.7487 -1.9646  0.9797
 7153SOL    HW233093   0.430   4.385   7.799 -0.5847  1.6786  0.0243
 7154SOL     OW33094   1.455   2.122   1.275 -0.4518 -0.8440  0.3497
 7154SOL    HW133095   1.404   2.097   1.351  0.8025  0.4342  1.6088
 7154SOL    HW233096   1.528   2.170   1.316  1.1028 -1.0995 -2.0948
 7155SOL     OW33097   2.862   0.878   1.286 -0.1775 -0.1372  0.0975
 7155SOL    HW133098   2.858   0.902   1.379  2.6906  1.1852 -0.1202
 7155SOL    HW233099   2.911   0.956   1.258  0.9622  0.1286  2.8656
 7156SOL     OW33100   1.317   1.673   8.484  0.2150 -0.2707 -0.1611
 7156SOL    HW133101   1.319   1.625   8.401  0.6845 -0.5151 -0.0142
 7156SOL    HW233102   1.266   1.608   8.532 -0.8727  2.2874  2.1221
 7157SOL     OW33103   2.317   3.525   3.551  0.2164 -0.0758 -0.7199
 7157SOL    HW133104   2.355   3.612   3.551  0.4410 -0.1736  0.2903
 7157SOL    HW233105   2.370   3.478   3.615 -0.5534  0.7262  0.5063
 7158SOL     OW33106   3.832   0.848   9.692 -0.2315 -0.2967  0.0704
 7158SOL    HW133107   3.777   0.857   9.770  0.8719  0.1403  0.7893
 7158SOL    HW233108   3.761   0.848   9.628 -0.9017  1.7392  0.8197
 7159SOL     OW33109   3.237   2.499  14.656 -0.0073  0.6786  0.2535
 7159SOL    HW133110   3.324   2.458  14.649 -0.1505  0.1136  1.8320
 7159SOL    HW233111   3.179   2.424  14.668  0.5688  0.0599 -0.7840
 7160SOL     OW33112   1.942   4.385  12.765  0.5164 -0.2301  0.0466
 7160SOL    HW133113   1.868   4.324  12.773  2.8971 -3.2188 -0.5874
 7160SOL    HW233114   1.997   4.352  12.836 -1.1102  0.1090  1.4589
 7161SOL     OW33115   2.015   1.882   9.682 -0.1248  0.3507  0.1093
 7161SOL    HW133116   1.986   1.843   9.765 -2.6793 -0.0716 -1.0051
 7161SOL    HW233117   2.044   1.967   9.715  0.7281  0.4377 -0.8815
 7162SOL     OW33118   0.219   0.491   3.592  0.5919 -0.2850  0.3491
 7162SOL    HW133119   0.222   0.576   3.549 -0.3545  0.5054  1.8428
 7162SOL    HW233120   0.223   0.502   3.687 -2.1627  1.4026  0.2630
 7163SOL     OW33121   1.365   1.092  17.661  0.2495 -0.2089  0.8304
 7163SOL    HW133122   1.387   1.184  17.678  1.8667 -0.6064  0.8723
 7163SOL    HW233123   1.330   1.068  17.747  2.6210  0.5362  2.0047
 7164SOL     OW33124   0.545   4.542   6.530 -0.0718 -0.1619  0.3891
 7164SOL    HW133125   0.515   4.628   6.500 -1.2938 -1.2226 -1.4061
 7164SOL    HW233126   0.632   4.573   6.555 -0.5034 -0.8945  2.7599
 7165SOL     OW33127   4.084   3.462   0.733 -0.0250  0.8889  0.8476
 7165SOL    HW133128   4.090   3.556   0.715  0.9404  0.4245 -1.2476
 7165SOL    HW233129   4.164   3.456   0.785  0.2618 -1.1304  0.1738
 7166SOL     OW33130   4.239   1.193   7.744 -0.1073  0.6738 -0.2730
 7166SOL    HW133131   4.165   1.207   7.803 -1.5364 -0.7658 -1.7196
 7166SOL    HW233132   4.262   1.286   7.739  1.0362  0.2275 -3.1774
 7167SOL     OW33133   3.477   4.705   5.211  0.1505 -0.4559  0.1061
 7167SOL    HW133134   3.395   4.659   5.193  1.8915 -3.5494  0.0613
 7167SOL    HW233135   3.529   4.655   5.149 -0.3633 -2.6084  1.4259
 7168SOL     OW33136   0.523   3.173   7.845 -0.2948  0.0759  0.5675
 7168SOL    HW133137   0.474   3.211   7.918  0.0509 -0.6631  1.1864
 7168SOL    HW233138   0.548   3.092   7.889 -3.0314 -1.7242 -1.2155
 7169SOL     OW33139   2.783   3.010   3.176 -0.0420  0.2399 -0.1158
 7169SOL    HW133140   2.714   3.076   3.171 -0.4635 -0.1524  0.5711
 7169SOL    HW233141   2.733   2.954   3.235 -2.7232 -0.2845 -2.9346
 7170SOL     OW33142   1.857   3.358   6.359 -0.6385  0.7130  0.0793
 7170SOL    HW133143   1.853   3.334   6.452  2.1680 -0.2893 -0.0711
 7170SOL    HW233144   1.810   3.442   6.363 -1.7577  0.1255 -0.8943
 7171SOL     OW33145   0.007   3.789   0.637  0.0630 -0.3858 -0.0004
 7171SOL    HW133146   4.716   3.702   0.614 -0.7936  0.1092 -0.7397
 7171SOL    HW233147   4.670   3.844   0.655  0.5765 -0.2542  1.7512
 7172SOL     OW33148   4.244   3.059   6.667 -0.8095 -0.1385 -0.1768
 7172SOL    HW133149   4.309   2.989   6.677 -0.9085 -0.2335 -0.1983
 7172SOL    HW233150   4.179   3.010   6.617 -2.0172 -0.6828  1.9390
 7173SOL     OW33151   0.467   4.714   2.167 -0.8302 -0.4334 -0.4405
 7173SOL    HW133152   0.424   4.651   2.225  1.9940 -0.1494  1.9825
 7173SOL    HW233153   0.559   4.687   2.167 -0.8961 -0.6660  0.1085
 7174SOL     OW33154   1.362   4.691  12.449 -0.2677 -0.0505  0.0437
 7174SOL    HW133155   1.442   4.648  12.477  0.2991  0.4819 -0.7528
 7174SOL    HW233156   1.335   4.737  12.528  2.2645 -0.0773  0.9015
 7175SOL     OW33157   3.118   2.564  16.959  0.2314 -0.1164  0.0447
 7175SOL    HW133158   3.136   2.544  17.051  0.8119  1.3277  0.2376
 7175SOL    HW233159   3.061   2.492  16.929 -1.6417  1.2594  0.3100
 7176SOL     OW33160   3.093   0.397   3.913 -0.0224  0.1025  0.4102
 7176SOL    HW133161   3.116   0.472   3.859 -0.2456 -0.3676 -0.3390
 7176SOL    HW233162   3.039   0.435   3.982 -0.6075  0.6380 -0.3431
 7177SOL     OW33163   1.344   0.977  10.974 -0.2353  0.0127 -0.2557
 7177SOL    HW133164   1.371   0.954  11.064 -1.6471  0.1195  0.1904
 7177SOL    HW233165   1.250   0.979  10.988  0.2134 -1.0182  3.1593
 7178SOL     OW33166   3.368   0.432  11.345  0.2915 -0.2003  0.2201
 7178SOL    HW133167   3.425   0.505  11.320  0.0598 -0.0738  0.0629
 7178SOL    HW233168   3.414   0.418  11.428 -0.8351 -0.4337  0.7971
 7179SOL     OW33169   1.650   3.142   7.188 -0.7219  0.3713 -0.0497
 7179SOL    HW133170   1.676   3.092   7.265 -1.4686 -1.1692 -0.8007
 7179SOL    HW233171   1.579   3.082   7.162  0.3566 -1.0553  0.3217
 7180SOL     OW33172   1.525   1.925   7.644  0.6984 -0.4063 -0.0901
 7180SOL    HW133173   1.596   1.967   7.693  0.3798  0.3819 -0.3147
 7180SOL    HW233174   1.512   1.992   7.577 -0.3443 -1.4332 -0.9243
 7181SOL     OW33175   1.615   2.832   2.325  0.0924 -0.2079  0.3661
 7181SOL    HW133176   1.626   2.923   2.351 -1.7204 -0.1720  0.9891
 7181SOL    HW233177   1.688   2.792   2.372 -1.2316 -1.2150  1.5609
 7182SOL     OW33178   3.305   3.299  17.549  0.3319  0.2895  0.2503
 7182SOL    HW133179   3.334   3.384  17.582 -1.8031  0.7662  0.8405
 7182SOL    HW233180   3.368   3.236  17.584 -1.3656 -0.4729  1.9186
 7183SOL     OW33181   0.705   0.281   5.855 -0.3616  0.2074  0.3020
 7183SOL    HW133182   0.647   0.264   5.781  0.7539 -0.1933 -0.4709
 7183SOL    HW233183   0.695   0.376   5.857 -0.0356  0.2473  0.0106
 7184SOL     OW33184   4.302   0.650   3.389 -0.1542  0.4851  0.3396
 7184SOL    HW133185   4.398   0.644   3.391 -0.1693  0.1774  0.0764
 7184SOL    HW233186   4.264   0.614   3.470 -0.7592  1.6518  0.5747
 7185SOL     OW33187   4.010   4.339   2.717  0.8139  0.2548 -0.5505
 7185SOL    HW133188   4.061   4.342   2.636  0.1992  0.5197 -0.9311
 7185SOL    HW233189   4.002   4.430   2.747 -1.9303  0.3303 -1.5067
 7186SOL     OW33190   4.417   1.285  14.077 -0.3148 -0.1100  0.0756
 7186SOL    HW133191   4.345   1.279  14.139 -0.9117  1.5762 -0.4442
 7186SOL    HW233192   4.493   1.268  14.132  0.5293  1.2344 -0.6661
 7187SOL     OW33193   1.284   2.822   6.385 -0.0684  0.7051 -0.2177
 7187SOL    HW133194   1.335   2.897   6.354  2.1109 -1.5345 -2.0502
 7187SOL    HW233195   1.310   2.750   6.327  2.6323  2.3933 -1.0991
 7188SOL     OW33196   0.133   4.390   3.778  1.1518 -0.2081  0.0404
 7188SOL    HW133197   0.040   4.381   3.758  1.2212 -0.6355 -0.0909
 7188SOL    HW233198   0.165   4.449   3.710  2.7346 -1.7189 -0.5251
 7189SOL     OW33199   4.254   1.918   4.613  0.7174  0.4830 -0.2243
 7189SOL    HW133200   4.239   1.894   4.704 -1.7152 -0.9865 -1.0097
 7189SOL    HW233201   4.240   1.838   4.562 -0.5208  1.2146 -1.0411
 7190SOL     OW33202   2.460   0.618  16.188  0.5600 -0.2841  0.1427
 7190SOL    HW133203   2.490   0.646  16.274 -0.3018  0.6503  0.1371
 7190SOL    HW233204   2.487   0.690  16.130  1.4960 -1.4880 -0.9215
 7191SOL     OW33205   1.946   0.385   7.962 -0.7166 -0.6924 -0.6170
 7191SOL    HW133206   1.943   0.461   8.020 -1.3608 -0.2769 -1.2037
 7191SOL    HW233207   2.002   0.415   7.890 -1.4445 -0.4722 -1.0961
 7192SOL     OW33208   0.410   3.245   2.013 -0.0037 -0.4296 -0.0842
 7192SOL    HW133209   0.470   3.207   2.078 -0.4683 -1.1586 -0.0771
 7192SOL    HW233210   0.459   3.322   1.985 -1.5239  1.1236  1.4918
 7193SOL     OW33211   0.919   1.378   4.912  0.3684  0.0674  0.0050
 7193SOL    HW133212   0.832   1.407   4.885 -0.5792 -0.6264  2.2827
 7193SOL    HW233213   0.892   1.302   4.963 -0.0398 -0.1980 -0.5987
 7194SOL     OW33214   3.467   0.377   3.788 -0.6317  0.3195 -0.1420
 7194SOL    HW133215   3.460   0.399   3.695  2.4071  1.2510 -0.1379
 7194SOL    HW233216   3.561   0.366   3.797 -0.5099  0.6689 -0.9951
 7195SOL     OW33217   2.119   1.427   9.018  0.5185 -0.3593 -0.4823
 7195SOL    HW133218   2.191   1.470   8.972  0.4976  0.3933  0.1876
 7195SOL    HW233219   2.086   1.501   9.069 -0.4459 -0.1541 -1.4070
 7196SOL     OW33220   3.636   4.560  15.712  0.6273 -0.1272 -0.3802
 7196SOL    HW133221   3.558   4.614  15.722  0.2600 -1.2305  2.8761
 7196SOL    HW233222   3.696   4.621  15.755 -0.2704 -0.3161  1.1318
 7197SOL     OW33223   2.534   3.132   4.177  0.3570  0.3688 -0.5603
 7197SOL    HW133224   2.603   3.068   4.166 -0.8197 -1.1949  1.1658
 7197SOL    HW233225   2.576   3.194   4.117 -0.4523  0.2569 -1.2547
 7198SOL     OW33226   4.042   1.885   2.793  0.3537  0.1368 -0.2499
 7198SOL    HW133227   4.106   1.895   2.723  1.2292 -1.4696  0.3029
 7198SOL    HW233228   3.976   1.841   2.740 -1.4526  1.3181  1.0422
 7199SOL     OW33229   2.980   0.576  11.099  0.3053 -0.6770  0.6775
 7199SOL    HW133230   2.964   0.496  11.150  0.3080  2.3831  5.4125
 7199SOL    HW233231   2.962   0.650  11.156  0.9652  1.0178 -1.3313
 7200SOL     OW33232   3.607   2.940   7.330  0.0926  0.2562 -0.0854
 7200SOL    HW133233   3.673   2.966   7.267 -0.9031 -0.4374 -1.4013
 7200SOL    HW233234   3.573   2.867   7.279 -1.4639  1.4927 -0.8183
 7201SOL     OW33235   2.582   1.207   5.434  0.1867  0.5408  0.4698
 7201SOL    HW133236   2.670   1.220   5.471  0.8118  0.5722 -1.0224
 7201SOL    HW233237   2.592   1.224   5.341 -0.5313 -0.1298  0.2690
 7202SOL     OW33238   2.774   4.238   8.745  0.3944 -0.6090  0.0203
 7202SOL    HW133239   2.734   4.272   8.665 -0.2126  1.7330  1.3087
 7202SOL    HW233240   2.743   4.148   8.757 -2.8167  0.3951 -0.9750
 7203SOL     OW33241   4.628   2.250   7.692 -0.1594 -0.2906  0.0217
 7203SOL    HW133242   4.641   2.341   7.719 -0.3494 -0.2061 -0.1708
 7203SOL    HW233243   4.636   2.222   7.783  1.8148  1.3937  0.3699
 7204SOL     OW33244   1.497   0.731   5.116 -0.0345 -0.2862 -0.3985
 7204SOL    HW133245   1.420   0.786   5.132  2.0657  1.7160  2.8564
 7204SOL    HW233246   1.543   0.734   5.200 -2.6435  1.5190  0.9508
 7205SOL     OW33247   0.298   4.659   3.341 -0.4175  0.2799 -0.2863
 7205SOL    HW133248   0.333   0.006   3.322 -1.1171  0.1841 -1.9927
 7205SOL    HW233249   0.237   4.648   3.269 -0.8456 -1.9652  0.4075
 7206SOL     OW33250   2.538   3.122  13.879 -0.3983 -0.0258 -0.0671
 7206SOL    HW133251   2.507   3.106  13.968 -3.9069  1.9815 -0.9378
 7206SOL    HW233252   2.457   3.124  13.828 -0.4822 -2.6966 -0.0479
 7207SOL     OW33253   0.718   3.747   6.918  0.0918  0.4265 -0.6162
 7207SOL    HW133254   0.694   3.774   7.006 -1.7612 -0.5699 -0.8158
 7207SOL    HW233255   0.634   3.744   6.873 -0.0088  0.0377 -0.3967
 7208SOL     OW33256   1.020   1.774   4.535 -0.3202 -0.1017  0.5625
 7208SOL    HW133257   0.938   1.791   4.582 -0.2300 -0.3963  0.8305
 7208SOL    HW233258   1.062   1.704   4.586  0.1524 -2.0687 -2.5258
 7209SOL     OW33259   4.382   4.682  11.388 -0.3415 -0.5274 -0.0852
 7209SOL    HW133260   4.403   4.660  11.479 -0.5555  1.9562  0.5722
 7209SOL    HW233261   4.436   4.625  11.335  0.0540 -0.0901 -0.1534
 7210SOL     OW33262   2.226   2.705  10.067  0.3864 -0.0216  0.0262
 7210SOL    HW133263   2.240   2.620  10.108  1.4292  0.4371  0.6273
 7210SOL    HW233264   2.271   2.704   9.982 -2.7269  2.0006 -1.6653
 7211SOL     OW33265   1.957   0.065  12.507 -0.4312  0.2182 -0.1821
 7211SOL    HW133266   2.011   0.037  12.433 -1.2401 -1.7068 -0.0246
 7211SOL    HW233267   1.900   4.729  12.502 -1.0419  0.7809 -1.6155
 7212SOL     OW33268   1.532   1.324   1.986 -0.2299  0.4604 -0.6223
 7212SOL    HW133269   1.585   1.246   1.967  0.6886  1.0687 -0.5838
 7212SOL    HW233270   1.588   1.389   1.945 -1.1894 -0.5150 -3.4566
 7213SOL     OW33271   1.192   2.552   3.214 -0.3870 -0.0274  0.0664
 7213SOL    HW133272   1.252   2.478   3.199 -0.2375  0.9227 -3.9966
 7213SOL    HW233273   1.240   2.633   3.200 -3.3823  1.1877 -3.0357
 7214SOL     OW33274   2.070   2.731   8.551  0.2527  0.2973 -0.3345
 7214SOL    HW133275   1.992   2.718   8.498  0.4955 -0.3796 -0.5299
 7214SOL    HW233276   2.039   2.750   8.640  1.3874 -0.7633  0.2859
 7215SOL     OW33277   0.611   0.940   9.287  0.2345 -0.7654 -0.1788
 7215SOL    HW133278   0.585   0.865   9.339  2.9359 -1.2319  0.4939
 7215SOL    HW233279   0.703   0.918   9.275  0.4848 -0.2205  0.7633
 7216SOL     OW33280   2.442   1.522   3.068  0.3612  0.2176  0.3858
 7216SOL    HW133281   2.509   1.501   3.133 -0.2746 -0.2844  0.8769
 7216SOL    HW233282   2.377   1.567   3.122 -1.5407 -1.9096 -0.1338
 7217SOL     OW33283   2.323   2.353  15.491  0.3186  0.3783 -0.1292
 7217SOL    HW133284   2.346   2.265  15.521 -0.2912 -0.7069 -2.8487
 7217SOL    HW233285   2.241   2.361  15.539  0.0986 -3.7222  0.1919
 7218SOL     OW33286   4.108   4.675   7.545 -0.2074  0.0793  0.1047
 7218SOL    HW133287   4.012   4.676   7.541 -0.1985  1.7646 -0.1225
 7218SOL    HW233288   4.133   0.013   7.594 -0.3381 -0.5877  1.2348
 7219SOL     OW33289   3.716   2.153   6.337 -0.3086 -0.2177  0.5179
 7219SOL    HW133290   3.629   2.155   6.375  0.0014  1.0951  1.1457
 7219SOL    HW233291   3.750   2.080   6.388 -1.1151  0.2331  1.6950
 7220SOL     OW33292   4.700   0.747   3.861 -0.0030 -0.0790 -0.2021
 7220SOL    HW133293   4.638   0.723   3.792  0.2390 -1.4969  0.0768
 7220SOL    HW233294   0.005   0.815   3.810  0.6358  1.0500  1.8842
 7221SOL     OW33295   1.338   3.341  15.473 -0.6495  0.2701  0.5024
 7221SOL    HW133296   1.414   3.296  15.507 -0.4256  1.4988  1.6555
 7221SOL    HW233297   1.348   3.426  15.517  0.4663  0.5712 -0.3429
 7222SOL     OW33298   0.477   1.753  17.016  0.5776 -0.3092  0.3654
 7222SOL    HW133299   0.543   1.697  17.058  1.3385  0.5708  0.3519
 7222SOL    HW233300   0.395   1.705  17.030 -0.4808  1.0056 -1.3495
 7223SOL     OW33301   1.538   1.719  15.108  0.4194 -0.0789 -0.1048
 7223SOL    HW133302   1.464   1.772  15.137  2.0635  2.0522  0.1872
 7223SOL    HW233303   1.609   1.747  15.166  1.4500  2.1520 -2.4555
 7224SOL     OW33304   0.624   1.160  10.170  0.3629 -0.1960 -0.1871
 7224SOL    HW133305   0.572   1.239  10.151  1.6378  0.5335 -0.6079
 7224SOL    HW233306   0.650   1.180  10.259 -2.2701 -1.9658  0.9978
 7225SOL     OW33307   1.911   0.076  17.300 -0.2555 -0.0093 -0.1816
 7225SOL    HW133308   1.928   0.127  17.379 -2.3403 -2.4988  1.8404
 7225SOL    HW233309   1.997   0.080  17.257 -0.2104 -0.0665 -0.0968
 7226SOL     OW33310   4.163   3.390   7.183 -0.3477 -0.0033 -0.0950
 7226SOL    HW133311   4.111   3.470   7.192  1.7633  1.2170  1.0347
 7226SOL    HW233312   4.220   3.373   7.257 -1.4704 -0.6376  0.6286
 7227SOL     OW33313   3.347   1.679   1.825  0.0532 -0.4176  0.3532
 7227SOL    HW133314   3.440   1.696   1.813 -0.5215  2.2078 -0.3763
 7227SOL    HW233315   3.328   1.722   1.908 -1.0606  0.4903 -0.3615
 7228SOL     OW33316   0.867   3.753   8.760 -0.2659 -0.1179  0.5613
 7228SOL    HW133317   0.909   3.751   8.846  0.9520  2.2546  0.0255
 7228SOL    HW233318   0.828   3.840   8.769  0.6772  0.7999 -4.3098
 7229SOL     OW33319   0.526   2.566  14.009  0.0974  0.6864  0.6127
 7229SOL    HW133320   0.516   2.658  14.034 -1.1887  0.7640 -0.2134
 7229SOL    HW233321   0.449   2.532  14.054  0.2663  0.1558  0.5012
 7230SOL     OW33322   4.504   4.341   0.193 -0.3069 -0.1550 -0.2036
 7230SOL    HW133323   4.422   4.308   0.231  0.5222 -0.7179  1.1135
 7230SOL    HW233324   4.567   4.270   0.205  0.8097  1.2882  2.4563
 7231SOL     OW33325   4.442   2.996   7.221  0.0218  0.7484 -0.4994
 7231SOL    HW133326   4.378   2.934   7.185  1.5579 -0.2885 -1.4540
 7231SOL    HW233327   4.505   2.929   7.249  0.2424  0.5381 -1.4922
 7232SOL     OW33328   0.082   1.840   3.769 -0.5522  1.0135 -0.3470
 7232SOL    HW133329   4.739   1.798   3.750  0.3163 -2.3188  3.2087
 7232SOL    HW233330   0.139   1.780   3.722  0.4951  1.0611  0.8326
 7233SOL     OW33331   0.836   3.519   6.600  0.5925 -0.0968  0.3508
 7233SOL    HW133332   0.754   3.475   6.579  1.2232 -1.6980  1.2330
 7233SOL    HW233333   0.903   3.457   6.572  1.5048  0.3477  1.5158
 7234SOL     OW33334   2.733   4.299  17.078 -0.2555  0.2627 -0.7642
 7234SOL    HW133335   2.736   4.205  17.091  0.5854  0.4556  0.3893
 7234SOL    HW233336   2.690   4.337  17.154 -1.8954 -1.5977 -0.7620
 7235SOL     OW33337   2.186   0.982  14.106  0.1143 -0.3222 -0.2206
 7235SOL    HW133338   2.279   1.003  14.120  0.0727 -1.5027  1.8286
 7235SOL    HW233339   2.156   0.971  14.196 -1.3191  0.6937 -0.5869
 7236SOL     OW33340   4.272   3.932   7.043 -0.7175  0.3310  0.0418
 7236SOL    HW133341   4.257   3.926   6.948  1.8010  0.2569 -0.3543
 7236SOL    HW233342   4.248   3.846   7.077 -2.1461  1.1223  1.0305
 7237SOL     OW33343   2.597   3.915   7.692 -0.2005  0.0735  0.1005
 7237SOL    HW133344   2.581   4.009   7.685  0.8348  0.0960 -1.9331
 7237SOL    HW233345   2.510   3.878   7.706  0.8441 -2.3499  0.2818
 7238SOL     OW33346   3.416   2.190  13.236  0.0505  0.2684 -0.0141
 7238SOL    HW133347   3.345   2.199  13.173  0.7144  0.5675 -0.7069
 7238SOL    HW233348   3.468   2.270  13.230  0.8184 -0.0821  2.0022
 7239SOL     OW33349   1.636   3.397   2.096 -0.2036  0.0625  0.3653
 7239SOL    HW133350   1.700   3.337   2.058 -1.3408 -0.9869  0.1069
 7239SOL    HW233351   1.626   3.362   2.184  0.8388  1.3946  1.0163
 7240SOL     OW33352   1.294   2.452  14.776 -0.1324 -0.2641 -0.1228
 7240SOL    HW133353   1.333   2.537  14.759  0.4066 -0.5857 -0.4829
 7240SOL    HW233354   1.203   2.469  14.800 -0.6413 -2.5400 -0.4231
 7241SOL     OW33355   3.453   0.362   6.733  0.2515 -0.2880 -0.1218
 7241SOL    HW133356   3.505   0.343   6.811 -1.1354  2.6408  1.5262
 7241SOL    HW233357   3.423   0.451   6.749  2.2807  0.6880 -1.8602
 7242SOL     OW33358   0.592   2.442   6.810 -0.0566 -0.2500  0.6261
 7242SOL    HW133359   0.628   2.527   6.785  0.8756 -0.6106  0.7271
 7242SOL    HW233360   0.579   2.460   6.903 -0.0759 -0.0382  0.5821
 7243SOL     OW33361   0.362   1.575   2.414  0.2494  0.0781 -0.3988
 7243SOL    HW133362   0.294   1.580   2.480 -0.5527 -1.2378 -1.1236
 7243SOL    HW233363   0.441   1.566   2.468 -0.2684  1.4420  0.5631
 7244SOL     OW33364   3.610   0.210   3.477  0.3882  0.1319  0.2554
 7244SOL    HW133365   3.543   0.271   3.508 -1.5642 -1.7662 -0.2456
 7244SOL    HW233366   3.584   0.196   3.386  0.0461 -2.4720  0.7668
 7245SOL     OW33367   3.237   0.697  11.594 -0.4533  0.2087  0.6739
 7245SOL    HW133368   3.242   0.764  11.663 -1.7567  0.9934 -0.0134
 7245SOL    HW233369   3.301   0.734  11.533 -1.5332  0.4162 -0.3235
 7246SOL     OW33370   1.623   0.317   6.712 -0.7984  0.5766 -0.2655
 7246SOL    HW133371   1.686   0.289   6.645  0.0745  1.9252 -0.0001
 7246SOL    HW233372   1.541   0.298   6.667 -0.6411  2.3932 -1.2767
 7247SOL     OW33373   0.637   1.165   6.201 -0.3669 -0.2200 -0.1217
 7247SOL    HW133374   0.549   1.189   6.172 -0.1493  1.1387  0.3293
 7247SOL    HW233375   0.688   1.194   6.126 -1.5968  1.6738 -0.2280
 7248SOL     OW33376   1.929   2.684  12.051  0.5838 -0.0766 -0.1818
 7248SOL    HW133377   1.951   2.593  12.033  0.7903 -0.3319  1.3508
 7248SOL    HW233378   1.973   2.699  12.135  0.9300 -2.9409  0.1324
 7249SOL     OW33379   0.615   1.131   1.275 -0.4533  0.5355  0.1979
 7249SOL    HW133380   0.655   1.161   1.356  1.3237  0.4417 -0.6487
 7249SOL    HW233381   0.542   1.193   1.282 -0.3056  0.7561 -0.1996
 7250SOL     OW33382   2.548   0.875   7.533 -0.3361 -0.1882  0.3791
 7250SOL    HW133383   2.472   0.818   7.520 -1.3719  0.8885  1.6103
 7250SOL    HW233384   2.527   0.945   7.471 -0.7284 -1.0199 -0.4273
 7251SOL     OW33385   1.792   3.431  11.943 -0.2886 -0.4141  0.3291
 7251SOL    HW133386   1.857   3.481  11.992  0.2101 -0.2407 -0.5202
 7251SOL    HW233387   1.845   3.372  11.889 -1.5879  0.6128 -2.0615
 7252SOL     OW33388   3.563   1.031  11.039  0.4236  0.1569  0.0747
 7252SOL    HW133389   3.647   1.053  11.080 -0.1161 -1.6329  2.1393
 7252SOL    HW233390   3.521   1.117  11.039  0.8521  0.3659  2.2390
 7253SOL     OW33391   2.647   1.505  16.210 -0.1840  1.1395 -0.1467
 7253SOL    HW133392   2.703   1.572  16.170 -0.1190  0.4085 -1.2958
 7253SOL    HW233393   2.568   1.544  16.247  0.1440  2.0622 -0.4066
 7254SOL     OW33394   3.311   2.593   3.173  0.6337  0.0667  0.3591
 7254SOL    HW133395   3.249   2.527   3.140 -0.9599  1.8016 -0.0998
 7254SOL    HW233396   3.291   2.601   3.266 -0.3727  2.0022 -0.0245
 7255SOL     OW33397   1.584   3.217   6.493 -0.2763  0.1945 -0.0108
 7255SOL    HW133398   1.527   3.292   6.510 -2.1976 -1.9544  3.1204
 7255SOL    HW233399   1.645   3.219   6.567 -1.6878 -0.3945  1.1693
 7256SOL     OW33400   1.377   2.616   8.633  0.4708  0.1826  0.0408
 7256SOL    HW133401   1.402   2.538   8.583  0.9344  0.5551 -0.3044
 7256SOL    HW233402   1.343   2.668   8.560  0.9771  0.4214 -0.0281
 7257SOL     OW33403   4.291   2.760  13.604 -0.4917 -0.1984 -0.0421
 7257SOL    HW133404   4.230   2.742  13.676 -0.5719 -1.5852 -0.4652
 7257SOL    HW233405   4.296   2.856  13.605 -1.4144 -0.1261 -4.5917
 7258SOL     OW33406   0.100   4.679   3.112 -0.1111  0.1710  0.2392
 7258SOL    HW133407   0.090   4.709   3.021  0.1445 -0.4733 -0.0051
 7258SOL    HW233408   0.041   0.004   3.148 -0.3954 -0.1100  0.2769
 7259SOL     OW33409   1.546   1.051   6.275  0.0810 -0.0365 -0.2507
 7259SOL    HW133410   1.515   0.998   6.348 -0.7207  1.4169  0.4531
 7259SOL    HW233411   1.478   1.117   6.261 -0.9397 -0.9591  0.3638
 7260SOL     OW33412   0.226   0.146   5.846  0.4267 -0.6963  0.2644
 7260SOL    HW133413   0.318   0.136   5.870  0.2935 -0.0456  1.0506
 7260SOL    HW233414   0.213   0.229   5.891 -0.2080 -0.6279 -0.0365
 7261SOL     OW33415   2.837   1.707  10.843 -0.6353 -0.1730 -0.4480
 7261SOL    HW133416   2.752   1.663  10.844 -0.7162 -0.0272 -0.9566
 7261SOL    HW233417   2.822   1.762  10.920  1.4061  1.0564 -0.9108
 7262SOL     OW33418   0.379   2.325   7.297 -0.7075  0.0705  0.1938
 7262SOL    HW133419   0.323   2.396   7.266 -2.6614 -0.5727  2.2015
 7262SOL    HW233420   0.460   2.346   7.251 -1.4693 -0.0868 -1.2007
 7263SOL     OW33421   3.719   0.815   6.024  0.1983 -0.6636 -0.0189
 7263SOL    HW133422   3.801   0.827   6.071 -0.9631 -0.1880  1.9047
 7263SOL    HW233423   3.670   0.751   6.075 -1.5471 -0.2141 -1.1096
 7264SOL     OW33424   2.520   4.204   5.223  0.8555 -0.0749 -0.1673
 7264SOL    HW133425   2.556   4.160   5.146 -0.7012  1.3010 -1.6849
 7264SOL    HW233426   2.457   4.146   5.267  2.4355  0.4732  2.8271
 7265SOL     OW33427   4.694   1.771   6.120 -0.2596 -0.0645  0.2931
 7265SOL    HW133428   4.654   1.788   6.035  1.2005 -0.9156 -0.5755
 7265SOL    HW233429   4.663   1.849   6.165 -0.0040 -0.2854  0.8539
 7266SOL     OW33430   1.260   3.529   8.606  0.0558  0.5418  0.0084
 7266SOL    HW133431   1.184   3.585   8.623 -0.3090 -0.3517  1.3196
 7266SOL    HW233432   1.240   3.452   8.659  4.0195  0.0585  0.8514
 7267SOL     OW33433   4.270   1.426  15.075  0.6188 -0.1470 -0.1314
 7267SOL    HW133434   4.334   1.385  15.134  1.2955 -0.0999 -0.8372
 7267SOL    HW233435   4.233   1.348  15.035 -0.5393  1.1581 -1.5831
 7268SOL     OW33436   1.704   1.042   4.965  0.7309 -0.4520 -0.2571
 7268SOL    HW133437   1.660   1.095   4.899  1.2495 -2.8328 -2.4900
 7268SOL    HW233438   1.690   0.956   4.926  0.2622 -0.5310  0.0817
 7269SOL     OW33439   4.328   4.712   9.067  0.0039  0.4036  0.1034
 7269SOL    HW133440   4.265   4.647   9.037  0.3822  0.2727 -0.4277
 7269SOL    HW233441   4.270   0.042   9.093  3.0912  2.4643  1.4011
 7270SOL     OW33442   3.232   4.175   3.271  0.1339 -0.2046  0.1158
 7270SOL    HW133443   3.243   4.236   3.344 -0.5053  0.2272 -0.1452
 7270SOL    HW233444   3.258   4.090   3.307  0.8839  0.1097  0.3116
 7271SOL     OW33445   0.917   1.532   7.238  0.4886  0.2230 -0.3033
 7271SOL    HW133446   0.987   1.549   7.175  2.6566  0.9867  2.3289
 7271SOL    HW233447   0.891   1.451   7.194  0.0884  0.4537 -0.5002
 7272SOL     OW33448   0.290   1.589  12.431 -0.3279  0.4777 -0.2919
 7272SOL    HW133449   0.278   1.630  12.517  0.6995 -1.5492  0.8065
 7272SOL    HW233450   0.300   1.669  12.380 -0.7931 -0.2156 -1.4666
 7273SOL     OW33451   4.061   4.383  14.732  0.0636 -0.0756  0.5028
 7273SOL    HW133452   4.083   4.381  14.639 -1.6244  1.4842  0.0541
 7273SOL    HW233453   3.977   4.338  14.731 -1.0601  2.0130  0.6816
 7274SOL     OW33454   4.607   1.312   0.002 -0.1212 -0.4749 -0.0111
 7274SOL    HW133455   4.581   1.307  17.669 -2.2737 -2.1295  0.7096
 7274SOL    HW233456   4.595   1.219   0.020  2.2721 -0.9436 -0.7762
 7275SOL     OW33457   0.925   3.129  14.065 -0.3749  0.3197  0.2186
 7275SOL    HW133458   0.976   3.138  13.985 -2.9948  0.0871 -1.4487
 7275SOL    HW233459   0.891   3.218  14.076  0.1046  0.4576  0.6094
 7276SOL     OW33460   3.910   4.491   0.892 -0.3776 -0.3540  0.2970
 7276SOL    HW133461   3.861   4.415   0.922  0.6329 -0.2053  2.3155
 7276SOL    HW233462   3.935   4.462   0.804 -2.0204 -3.4671  0.8700
 7277SOL     OW33463   3.593   3.171   9.102 -0.3425  0.5263 -0.0514
 7277SOL    HW133464   3.532   3.237   9.136 -1.1582  0.9140 -2.2746
 7277SOL    HW233465   3.671   3.203   9.147  0.9640 -2.1164 -0.4275
 7278SOL     OW33466   3.670   1.940   1.608  0.1213  0.2803  0.0475
 7278SOL    HW133467   3.644   1.862   1.657 -2.7262 -0.7398 -3.0796
 7278SOL    HW233468   3.716   1.985   1.679 -1.5477  0.5451  0.9564
 7279SOL     OW33469   2.402   1.712   1.878  0.0767 -0.1989  0.2162
 7279SOL    HW133470   2.377   1.803   1.858 -1.3562 -0.8747 -1.0882
 7279SOL    HW233471   2.484   1.723   1.926 -0.0771 -2.0776  0.8830
 7280SOL     OW33472   4.648   0.363  10.905  0.0737  0.4611 -0.1462
 7280SOL    HW133473   4.601   0.443  10.882 -0.2866  0.1401 -0.5262
 7280SOL    HW233474   4.580   0.296  10.903  0.8921 -0.4460  1.8565
 7281SOL     OW33475   2.303   2.945  16.173  0.1890 -0.6778 -0.4960
 7281SOL    HW133476   2.339   3.005  16.108  0.3036  3.2066  3.1892
 7281SOL    HW233477   2.346   2.864  16.144  0.9249  0.2651 -2.0289
 7282SOL     OW33478   3.518   1.614   9.061  0.4479  0.2772 -0.6811
 7282SOL    HW133479   3.527   1.662   9.143  2.2629  1.8608 -1.8052
 7282SOL    HW233480   3.547   1.527   9.089  3.3475  1.4456 -0.1281
 7283SOL     OW33481   0.673   1.921   8.704  0.2113  0.0123 -0.7476
 7283SOL    HW133482   0.686   2.013   8.682  3.7525 -0.0820  1.0748
 7283SOL    HW233483   0.747   1.872   8.668  2.3232  1.5461  1.5236
 7284SOL     OW33484   2.003   2.382   0.221 -0.6405  0.7634 -0.3119
 7284SOL    HW133485   1.963   2.335   0.148 -1.8742  1.1989  0.0807
 7284SOL    HW233486   2.095   2.357   0.231 -0.0977  2.6622 -0.7186
 7285SOL     OW33487   3.480   1.293   3.726 -0.0591 -0.2321  0.7571
 7285SOL    HW133488   3.539   1.219   3.740 -0.5301 -0.4561  1.5958
 7285SOL    HW233489   3.514   1.376   3.762  3.4185 -1.2721 -0.1727
 7286SOL     OW33490   4.344   0.167  12.630 -0.2931 -0.3118  0.0849
 7286SOL    HW133491   4.426   0.156  12.678 -0.3043  0.6786  0.3309
 7286SOL    HW233492   4.293   0.096  12.669  1.3109 -1.0987  0.7378
 7287SOL     OW33493   1.019   3.839   7.504  0.1801  0.3786  0.0199
 7287SOL    HW133494   1.075   3.761   7.506  0.1602  0.4536  2.4945
 7287SOL    HW233495   0.939   3.794   7.527  0.7440 -0.7716 -0.2932
 7288SOL     OW33496   1.289   0.068   6.078 -0.4809  0.1764 -0.1943
 7288SOL    HW133497   1.247   0.050   5.994 -0.8744 -0.7536  0.1975
 7288SOL    HW233498   1.325   4.722   6.101 -0.4498  0.9232  2.5694
 7289SOL     OW33499   3.331   3.733  14.493  0.3095  0.7309 -0.2556
 7289SOL    HW133500   3.344   3.828  14.495 -0.0284  0.8668 -3.8511
 7289SOL    HW233501   3.373   3.715  14.409  0.3528 -1.4782  0.2521
 7290SOL     OW33502   2.952   2.296  11.542 -0.3816 -0.1187  0.3279
 7290SOL    HW133503   2.897   2.280  11.618 -2.6195  0.3175 -1.2095
 7290SOL    HW233504   3.039   2.299  11.582 -0.2368 -1.3866  0.1007
 7291SOL     OW33505   2.301   0.386   9.395 -0.4468 -0.0192 -0.1711
 7291SOL    HW133506   2.392   0.365   9.414 -0.0495  0.1636 -1.8767
 7291SOL    HW233507   2.279   0.309   9.343 -0.8018  0.0386 -0.1137
 7292SOL     OW33508   3.894   4.328   1.142  0.2995  0.4159 -0.0814
 7292SOL    HW133509   3.969   4.269   1.135  0.0686  0.3450 -1.8790
 7292SOL    HW233510   3.901   4.355   1.234 -0.8148  0.4677 -0.0136
 7293SOL     OW33511   1.892   1.879  13.301 -0.3763 -0.3691 -0.4165
 7293SOL    HW133512   1.848   1.815  13.244 -0.5793 -0.4803 -0.1336
 7293SOL    HW233513   1.813   1.910  13.346 -0.1827 -0.3860 -0.0672
 7294SOL     OW33514   4.319   2.377  10.770 -0.3263  0.2469  0.3137
 7294SOL    HW133515   4.230   2.405  10.752  0.0886  0.2142 -1.7439
 7294SOL    HW233516   4.302   2.295  10.817  0.0179  0.3006  0.5357
 7295SOL     OW33517   1.701   3.655   4.201 -0.1840  0.4693  0.7425
 7295SOL    HW133518   1.778   3.607   4.230 -0.1194  0.7022  0.9525
 7295SOL    HW233519   1.732   3.738   4.237  2.0543 -0.3067  0.5429
 7296SOL     OW33520   3.920   0.376   4.085  0.6149  0.0877  0.0730
 7296SOL    HW133521   3.902   0.400   4.176 -1.5533  0.8228 -0.5466
 7296SOL    HW233522   4.012   0.400   4.071  0.3758  0.0807 -1.5403
 7297SOL     OW33523   2.299   3.383   5.180  0.5810  0.5197  0.4383
 7297SOL    HW133524   2.327   3.298   5.146 -2.6021 -0.0747 -0.6361
 7297SOL    HW233525   2.212   3.389   5.143  0.5609  1.0958  0.5794
 7298SOL     OW33526   1.176   1.217   5.785 -0.0885 -0.3438  0.8177
 7298SOL    HW133527   1.158   1.236   5.876  1.2403  1.7372  0.6588
 7298SOL    HW233528   1.243   1.148   5.784  0.5838  0.3156 -0.1391
 7299SOL     OW33529   4.222   4.123   2.250 -0.1267 -0.3700 -0.3792
 7299SOL    HW133530   4.297   4.095   2.196  0.1461 -1.6027  0.6273
 7299SOL    HW233531   4.146   4.082   2.209 -1.6492  3.3394 -1.2154
 7300SOL     OW33532   4.149   1.120  17.716 -0.5826  0.7345 -0.2530
 7300SOL    HW133533   4.106   1.150  17.636 -1.2954 -1.9087 -0.8513
 7300SOL    HW233534   4.170   1.206  17.752 -0.6265  0.0075  1.5338
 7301SOL     OW33535   4.213   2.787   5.804 -0.2336  0.4841  0.3919
 7301SOL    HW133536   4.238   2.874   5.835 -0.8216  0.7564  0.0980
 7301SOL    HW233537   4.218   2.729   5.880  2.2041  0.4453  0.2066
 7302SOL     OW33538   0.842   0.327   0.959  0.3192  0.0732  0.3347
 7302SOL    HW133539   0.881   0.257   0.907  0.3020  0.4953 -0.2402
 7302SOL    HW233540   0.901   0.335   1.035 -0.2887 -3.2735  1.1507
 7303SOL     OW33541   3.102   0.311   2.180 -0.1631  0.2110  0.3239
 7303SOL    HW133542   3.037   0.257   2.224  1.0738  1.0220  3.1291
 7303SOL    HW233543   3.119   0.266   2.098  1.2451 -0.5942  1.0522
 7304SOL     OW33544   0.537   1.909   3.912 -0.2883  0.3119  0.3775
 7304SOL    HW133545   0.448   1.943   3.917 -0.9989 -1.5010  0.3169
 7304SOL    HW233546   0.537   1.840   3.979  0.0494 -0.1327 -0.0749
 7305SOL     OW33547   2.591   0.023   6.501 -0.8952  0.2028  0.5014
 7305SOL    HW133548   2.653   0.092   6.525 -0.6486  0.2434 -0.2256
 7305SOL    HW233549   2.585   0.033   6.406  0.1551  0.2362  0.4313
 7306SOL     OW33550   2.864   2.579   3.736 -0.4515 -0.2826 -0.2641
 7306SOL    HW133551   2.769   2.564   3.743 -0.4997 -0.0958 -0.5147
 7306SOL    HW233552   2.862   2.674   3.748 -0.9403 -0.0896 -1.8347
 7307SOL     OW33553   3.346   2.500   3.679 -0.2066  0.3839 -0.1366
 7307SOL    HW133554   3.439   2.521   3.673  0.2544 -1.6567  0.1019
 7307SOL    HW233555   3.341   2.476   3.772  1.1557 -0.5979 -0.3207
 7308SOL     OW33556   0.945   1.929   6.857 -0.2926 -0.2923  0.1936
 7308SOL    HW133557   0.868   1.971   6.895 -0.9167 -0.2032 -1.1624
 7308SOL    HW233558   1.008   1.936   6.928 -0.5998 -0.7402  0.5100
 7309SOL     OW33559   2.783   4.294   4.812  0.2625 -0.0148  0.0409
 7309SOL    HW133560   2.740   4.375   4.839  0.7929  0.9004 -1.8000
 7309SOL    HW233561   2.710   4.233   4.815 -1.1054  1.5055 -2.0333
 7310SOL     OW33562   4.622   1.532   5.345 -0.2834  0.1891  0.0784
 7310SOL    HW133563   4.558   1.533   5.274 -1.9128  2.4884  1.5961
 7310SOL    HW233564   4.569   1.535   5.424 -0.8962 -0.2243 -0.3105
 7311SOL     OW33565   3.046   4.041   5.068  0.2068  0.2398 -0.0861
 7311SOL    HW133566   2.975   4.010   5.123  0.0385 -1.3166 -1.1657
 7311SOL    HW233567   3.051   3.980   4.994  2.8514  0.3786 -0.0399
 7312SOL     OW33568   0.864   3.739   6.401  0.3717  0.2470 -0.3255
 7312SOL    HW133569   0.840   3.667   6.342  1.3877  0.1761 -0.6506
 7312SOL    HW233570   0.879   3.686   6.480 -0.6808 -0.6347 -0.7107
 7313SOL     OW33571   3.630   2.967   4.796  0.3187 -0.1684 -0.2934
 7313SOL    HW133572   3.635   2.876   4.824  0.3116  0.2404  1.0409
 7313SOL    HW233573   3.555   2.993   4.849 -0.6870 -1.1286 -1.2448
 7314SOL     OW33574   2.156   3.918   4.437 -0.4351  0.2111  0.4314
 7314SOL    HW133575   2.108   3.844   4.474 -1.6095  1.7221  1.9839
 7314SOL    HW233576   2.240   3.908   4.482 -0.1493 -1.9454 -0.5842
 7315SOL     OW33577   4.344   1.981   5.654 -0.2122  0.6529  0.3424
 7315SOL    HW133578   4.380   2.067   5.633 -0.1453  0.7147  0.7268
 7315SOL    HW233579   4.263   1.996   5.605  0.8144  0.5706 -1.4168
 7316SOL     OW33580   2.771   1.228   6.452 -0.3935 -0.4188 -0.0388
 7316SOL    HW133581   2.688   1.205   6.494 -0.4995 -1.1023 -0.6395
 7316SOL    HW233582   2.741   1.305   6.402 -2.9450 -0.7707  0.9289
 7317SOL     OW33583   1.356   3.740  16.217  0.1262 -0.2302  0.0217
 7317SOL    HW133584   1.371   3.748  16.123  0.7828  1.5780  0.2903
 7317SOL    HW233585   1.441   3.724  16.257  1.0163  2.4905 -0.7916
 7318SOL     OW33586   3.418   4.094  16.250  0.0122 -0.0565  0.0813
 7318SOL    HW133587   3.402   4.005  16.282  0.2234 -0.7326 -1.6879
 7318SOL    HW233588   3.425   4.078  16.156 -2.4625 -2.4939  0.3064
 7319SOL     OW33589   2.994   2.104   8.576  0.2088  0.0779  0.4662
 7319SOL    HW133590   2.933   2.083   8.647  0.4447  3.9876  1.8237
 7319SOL    HW233591   3.001   2.023   8.526 -0.5236 -0.2031  0.8216
 7320SOL     OW33592   2.180   1.572  17.163 -0.1441  0.0535  0.0902
 7320SOL    HW133593   2.101   1.596  17.212  0.4196  0.3044  0.8746
 7320SOL    HW233594   2.195   1.480  17.181 -1.4974  0.2449  2.1610
 7321SOL     OW33595   1.333   2.338   6.012 -0.1852  0.1374  0.0190
 7321SOL    HW133596   1.312   2.418   6.060  2.6457  1.2841 -0.6176
 7321SOL    HW233597   1.251   2.318   5.967 -0.7442  0.2899  0.9702
 7322SOL     OW33598   1.347   4.506   4.913 -1.0917 -0.0235  0.1664
 7322SOL    HW133599   1.268   4.548   4.878 -1.0391  1.1465  1.4108
 7322SOL    HW233600   1.309   4.467   4.992 -0.9851  1.7312  1.0835
 7323SOL     OW33601   0.810   1.583  16.556 -0.2912 -0.0994 -0.4535
 7323SOL    HW133602   0.801   1.616  16.645  2.3888 -0.9538  0.1437
 7323SOL    HW233603   0.740   1.631  16.513  0.2886  0.3853 -0.8577
 7324SOL     OW33604   0.307   3.337   1.192 -0.1705 -0.0850 -0.3277
 7324SOL    HW133605   0.363   3.391   1.249 -0.9804  0.0043  0.3958
 7324SOL    HW233606   0.229   3.353   1.245  0.3753  1.1923  0.1034
 7325SOL     OW33607   1.693   3.535  11.446  0.4358 -0.6376  0.3742
 7325SOL    HW133608   1.779   3.494  11.432  0.0703 -1.5468  0.8228
 7325SOL    HW233609   1.698   3.614  11.392 -2.0467 -0.1949  0.7858
 7326SOL     OW33610   0.361   1.813  11.508  0.0013 -0.1844  0.4654
 7326SOL    HW133611   0.307   1.798  11.585  0.3670 -0.5053  0.6580
 7326SOL    HW233612   0.306   1.869  11.453  2.0533 -0.0077 -1.4195
 7327SOL     OW33613   1.516   0.414   3.571 -0.1322  0.4628  0.3480
 7327SOL    HW133614   1.507   0.462   3.489  2.5080  0.3784  0.0024
 7327SOL    HW233615   1.589   0.360   3.542  0.3500  2.4209 -2.0415
 7328SOL     OW33616   0.119   2.015   2.462 -0.0854  0.0127  0.5329
 7328SOL    HW133617   0.189   1.952   2.481 -0.0252  0.1636  0.8202
 7328SOL    HW233618   0.043   1.971   2.501 -0.4895  1.1689  1.0407
 7329SOL     OW33619   4.596   0.605   6.265 -0.0824  0.2937 -0.3115
 7329SOL    HW133620   4.513   0.599   6.313  0.5265  2.5505  1.0597
 7329SOL    HW233621   4.649   0.655   6.328 -0.8947 -0.1223  0.7038
 7330SOL     OW33622   4.578   0.836  11.300  0.2328  0.4547  0.1025
 7330SOL    HW133623   4.572   0.772  11.370  1.7667 -0.5051 -0.6549
 7330SOL    HW233624   4.650   0.803  11.247  1.6815  1.2781  1.5530
 7331SOL     OW33625   3.889   3.407  15.279 -0.4094  0.2557 -0.3146
 7331SOL    HW133626   3.900   3.313  15.298  3.0104  1.1534  2.1559
 7331SOL    HW233627   3.975   3.425  15.242  0.1715 -1.8775 -0.0578
 7332SOL     OW33628   4.197   2.309   5.298 -0.0586 -0.1402 -0.2014
 7332SOL    HW133629   4.131   2.326   5.231  1.2556 -0.9441 -1.6878
 7332SOL    HW233630   4.150   2.328   5.379  2.4423 -0.1659  1.2674
 7333SOL     OW33631   0.536   3.006   8.207 -0.1555  0.4665 -0.2939
 7333SOL    HW133632   0.591   2.934   8.176  1.0760  0.2066  2.5243
 7333SOL    HW233633   0.608   3.041   8.260  0.6595  0.2223 -1.2170
 7334SOL     OW33634   3.800   3.571   8.416 -0.1275 -0.1589  0.4738
 7334SOL    HW133635   3.895   3.575   8.410 -0.0405 -1.7278  0.8374
 7334SOL    HW233636   3.779   3.591   8.507 -0.1460 -0.9661  0.6482
 7335SOL     OW33637   4.113   2.337   6.064  0.7232  0.1383  0.0593
 7335SOL    HW133638   4.126   2.405   6.130 -1.4598  3.7860 -3.1971
 7335SOL    HW233639   4.204   2.317   6.044  0.8850  1.7525 -0.8503
 7336SOL     OW33640   4.669   3.932  15.553  0.4952  0.3150  0.3145
 7336SOL    HW133641   0.007   3.919  15.606  0.8885  3.1242  0.4100
 7336SOL    HW233642   4.672   4.025  15.532 -0.7337  0.0999 -0.8980
 7337SOL     OW33643   3.063   4.465   8.068  0.7783 -0.4165  0.0360
 7337SOL    HW133644   3.136   4.426   8.020 -0.0365  1.6593 -2.8745
 7337SOL    HW233645   3.010   4.510   8.002  2.1731 -0.6018 -1.2100
 7338SOL     OW33646   2.423   4.374   8.356 -0.0972  0.1562 -0.2740
 7338SOL    HW133647   2.510   4.359   8.391 -0.7316 -0.0559  1.2082
 7338SOL    HW233648   2.392   4.297   8.309 -3.2845  0.2580  1.6265
 7339SOL     OW33649   1.353   1.608   3.256  0.0555 -0.4289  0.0226
 7339SOL    HW133650   1.351   1.596   3.351 -0.0400  0.1105  0.0888
 7339SOL    HW233651   1.445   1.618   3.234 -0.2378 -0.3514 -1.1999
 7340SOL     OW33652   0.358   3.609   2.087  0.2088 -0.2201 -0.1433
 7340SOL    HW133653   0.371   3.565   2.171 -0.6888 -1.0179 -0.4262
 7340SOL    HW233654   0.314   3.689   2.114  0.8051  0.1474 -0.2495
 7341SOL     OW33655   3.114   3.933   2.313  0.4263  0.1213  0.2667
 7341SOL    HW133656   3.186   3.885   2.354  0.9302  1.1453  0.5712
 7341SOL    HW233657   3.084   3.976   2.392  0.3270 -2.1846  1.4876
 7342SOL     OW33658   2.007   2.831  16.148 -0.4537  0.0882  0.5498
 7342SOL    HW133659   2.078   2.895  16.154 -1.1518  0.8601  0.6373
 7342SOL    HW233660   2.026   2.794  16.234 -1.9749 -1.1221  0.3615
 7343SOL     OW33661   0.521   4.047   3.727  0.5217 -0.3925 -0.3951
 7343SOL    HW133662   0.445   4.077   3.776 -0.4717 -2.2522 -0.7617
 7343SOL    HW233663   0.596   4.053   3.786  0.9472 -1.1308 -0.8532
 7344SOL     OW33664   2.832   3.505   2.659 -0.4041 -0.4632  0.4460
 7344SOL    HW133665   2.803   3.417   2.684 -1.7196 -0.8563 -2.3902
 7344SOL    HW233666   2.772   3.518   2.585 -1.2629 -0.8327  1.0712
 7345SOL     OW33667   2.175   3.126   3.839 -0.1110  0.4578  0.3438
 7345SOL    HW133668   2.166   3.221   3.847 -0.3136  0.5664 -1.1164
 7345SOL    HW233669   2.218   3.120   3.753 -1.2007 -0.2301 -0.1602
 7346SOL     OW33670   2.426   4.531  16.370 -0.3812  0.0971 -0.0001
 7346SOL    HW133671   2.360   4.572  16.425 -2.2093 -1.6111 -0.9130
 7346SOL    HW233672   2.379   4.450  16.350 -1.2972  0.2302  1.6032
 7347SOL     OW33673   4.738   0.557   9.280  0.0394  0.3163 -0.1278
 7347SOL    HW133674   0.014   0.620   9.351 -2.3026  0.5877  0.1523
 7347SOL    HW233675   0.013   0.603   9.198 -2.0787 -1.2849 -1.4154
 7348SOL     OW33676   0.280   2.101   2.155 -0.5526 -0.1566  0.3479
 7348SOL    HW133677   0.333   2.052   2.092  0.9041  0.7173  0.9005
 7348SOL    HW233678   0.213   2.147   2.105 -0.0981 -0.5757 -0.6556
 7349SOL     OW33679   1.684   3.929   7.877  0.0830 -0.3006 -0.4556
 7349SOL    HW133680   1.714   3.988   7.809  0.9914  1.1358  1.1878
 7349SOL    HW233681   1.624   3.990   7.921 -2.1538 -1.7603 -1.5010
 7350SOL     OW33682   1.250   1.030   3.728 -0.3664 -0.7782  0.1693
 7350SOL    HW133683   1.338   0.992   3.734  0.5585  1.9062  3.4891
 7350SOL    HW233684   1.254   1.087   3.651  0.3897 -1.7558 -0.5115
 7351SOL     OW33685   1.074   1.010   6.448  0.0142  0.3045 -0.0232
 7351SOL    HW133686   1.021   0.931   6.460  0.7099 -0.0567  0.6659
 7351SOL    HW233687   1.068   1.052   6.534  2.7960 -0.8904  0.7589
 7352SOL     OW33688   0.743   3.001  16.207  0.3894 -0.2408  0.6525
 7352SOL    HW133689   0.752   3.003  16.302  1.4009  1.9473  0.5161
 7352SOL    HW233690   0.782   2.916  16.186  0.8162 -0.0990  0.8813
 7353SOL     OW33691   0.608   1.341   2.078 -0.2440 -0.0511  0.1546
 7353SOL    HW133692   0.585   1.255   2.114  3.6752 -0.5945  1.2677
 7353SOL    HW233693   0.617   1.397   2.154 -0.5512  0.4498 -0.1807
 7354SOL     OW33694   4.246   3.708  17.751 -0.3513 -0.1422  0.1255
 7354SOL    HW133695   4.309   3.698   0.064 -0.7250  1.1318  0.6425
 7354SOL    HW233696   4.179   3.651   0.030 -0.0384  0.1701  1.1539
 7355SOL     OW33697   2.913   2.856   3.414 -0.0250 -0.6986 -0.4417
 7355SOL    HW133698   2.871   2.873   3.330 -0.0953 -1.8838 -0.6341
 7355SOL    HW233699   2.905   2.762   3.431 -0.1823 -0.3258  1.6267
 7356SOL     OW33700   1.575   2.069  15.599  0.0835 -0.1344 -0.0771
 7356SOL    HW133701   1.662   2.095  15.570  0.2005 -0.4433 -0.0068
 7356SOL    HW233702   1.594   2.009  15.671  2.1294  0.5335 -0.0526
 7357SOL     OW33703   3.965   2.152   2.581 -0.0516  0.0523 -0.5547
 7357SOL    HW133704   3.878   2.121   2.557 -1.1391  1.4646  1.5312
 7357SOL    HW233705   3.965   2.238   2.537 -0.5028 -1.0777 -2.7596
 7358SOL     OW33706   2.972   1.171   2.901 -0.0121  0.3303  0.0253
 7358SOL    HW133707   2.881   1.173   2.871  0.4835 -0.4748 -1.5285
 7358SOL    HW233708   2.958   1.227   2.977 -0.0877 -0.4340  0.5781
 7359SOL     OW33709   0.002   4.217  12.944 -0.3916  0.2804  0.0821
 7359SOL    HW133710   0.076   4.276  12.933  0.6149 -0.6596  1.7863
 7359SOL    HW233711   0.022   4.182  13.031  1.7754  1.1749 -0.0685
 7360SOL     OW33712   1.712   2.622  10.140  0.0549  0.1209  0.1650
 7360SOL    HW133713   1.636   2.658  10.095 -2.0365 -0.6369  3.1390
 7360SOL    HW233714   1.669   2.579  10.214 -0.6306  2.1679  0.9361
 7361SOL     OW33715   0.950   0.639  12.153 -0.2570 -0.7743 -0.3099
 7361SOL    HW133716   0.943   0.563  12.210  1.4591 -0.6778  0.0287
 7361SOL    HW233717   1.027   0.683  12.189 -0.1862 -0.8648 -0.3513
 7362SOL     OW33718   1.650   3.301   2.811  1.3119 -0.0998  0.1565
 7362SOL    HW133719   1.640   3.210   2.840  1.5753 -0.5437 -1.1478
 7362SOL    HW233720   1.659   3.345   2.896 -1.4114 -0.6714  0.7351
 7363SOL     OW33721   0.132   3.991   3.871  0.1362 -0.2836 -0.4954
 7363SOL    HW133722   0.067   4.003   3.801 -0.2490  0.7898  0.0584
 7363SOL    HW233723   0.074   4.007   3.945 -0.8016  0.1054 -1.3135
 7364SOL     OW33724   1.131   1.571  14.080  0.0958  0.6113  0.3765
 7364SOL    HW133725   1.132   1.481  14.049 -2.7039 -0.1246  2.4866
 7364SOL    HW233726   1.197   1.609  14.021 -0.6888  0.1570 -0.7834
 7365SOL     OW33727   3.289   4.218   4.525  0.6918 -0.5418 -0.0637
 7365SOL    HW133728   3.211   4.240   4.576  0.6506  0.8814 -0.7582
 7365SOL    HW233729   3.290   4.286   4.459 -0.2552  0.4256  0.9200
 7366SOL     OW33730   1.281   2.934   3.394  0.1557  0.3196  0.5774
 7366SOL    HW133731   1.303   3.003   3.456  2.7693 -0.9830  1.0915
 7366SOL    HW233732   1.253   2.984   3.317 -1.0615 -0.0360  0.7827
 7367SOL     OW33733   1.347   1.188   9.784 -0.3261 -1.1882 -0.0756
 7367SOL    HW133734   1.302   1.250   9.841  2.2422  0.1302  0.5235
 7367SOL    HW233735   1.438   1.173   9.811 -0.3621 -1.9264 -0.3624
 7368SOL     OW33736   1.795   2.996   3.185 -0.8829 -0.6074 -0.1220
 7368SOL    HW133737   1.852   2.924   3.159 -1.3555 -0.4834 -1.5041
 7368SOL    HW233738   1.854   3.042   3.245  1.2936 -2.2340 -1.0277
 7369SOL     OW33739   2.724   3.121   5.546 -0.2775  0.1505  0.2586
 7369SOL    HW133740   2.704   3.190   5.483  1.1619  0.5458  0.2320
 7369SOL    HW233741   2.795   3.075   5.502  0.6388  0.2743  1.5877
 7370SOL     OW33742   4.086   1.573   4.873  0.0836  0.6854 -0.2359
 7370SOL    HW133743   4.146   1.646   4.886  1.5322 -0.4590 -0.5521
 7370SOL    HW233744   4.004   1.618   4.852 -0.7032  0.6288  2.6972
 7371SOL     OW33745   1.193   0.824   3.922  0.3026 -0.3145 -0.4365
 7371SOL    HW133746   1.245   0.752   3.886  1.1639 -0.3347  0.8612
 7371SOL    HW233747   1.155   0.865   3.844 -0.3293  0.1364  0.1136
 7372SOL     OW33748   2.443   2.242  13.770 -0.3208  0.8334 -0.0683
 7372SOL    HW133749   2.371   2.297  13.802 -0.3746 -0.1901  1.5484
 7372SOL    HW233750   2.510   2.300  13.806 -0.4510  1.2430 -0.4873
 7373SOL     OW33751   3.891   3.069   4.094 -0.1343 -0.0185  0.4218
 7373SOL    HW133752   3.920   3.015   4.020  0.0106  0.7119 -0.0449
 7373SOL    HW233753   3.809   3.108   4.066  0.7042  0.3889 -1.4834
 7374SOL     OW33754   0.840   4.224   3.685 -0.1053  0.5243 -0.0976
 7374SOL    HW133755   0.800   4.203   3.770  1.5677  0.6041  0.7165
 7374SOL    HW233756   0.931   4.200   3.703 -0.7835 -1.2291  0.9636
 7375SOL     OW33757   1.888   3.165   7.800 -0.0037 -0.0815  0.3574
 7375SOL    HW133758   1.820   3.097   7.797 -1.2374  1.0539  2.4325
 7375SOL    HW233759   1.957   3.118   7.754  0.0514 -0.5540  0.9200
 7376SOL     OW33760   3.284   3.826   5.225 -0.4730 -0.3816 -0.4861
 7376SOL    HW133761   3.234   3.745   5.212  0.8015 -1.2474  0.0307
 7376SOL    HW233762   3.350   3.809   5.158 -1.7653  0.2167 -1.8863
 7377SOL     OW33763   3.596   4.232   4.289  0.0208  0.7996 -0.1769
 7377SOL    HW133764   3.525   4.171   4.268 -1.2874  2.5223 -0.7616
 7377SOL    HW233765   3.603   4.265   4.200  1.0747 -2.3579 -1.2520
 7378SOL     OW33766   2.457   1.046  13.024  0.6449 -0.2428  0.1858
 7378SOL    HW133767   2.505   0.992  12.962 -1.6406 -1.1921 -0.7632
 7378SOL    HW233768   2.511   1.011  13.095  0.4398 -2.0496 -0.5367
 7379SOL     OW33769   4.527   3.955   0.708 -0.3943  0.6745 -0.0089
 7379SOL    HW133770   4.456   3.955   0.773  1.5144  1.7931  2.0556
 7379SOL    HW233771   4.533   4.043   0.671 -1.9689  0.8023  0.0312
 7380SOL     OW33772   0.683   4.511  14.802  0.4732 -0.1873 -0.2586
 7380SOL    HW133773   0.708   4.581  14.742 -0.2927 -1.1512 -1.7085
 7380SOL    HW233774   0.737   4.441  14.763 -1.0647 -0.3025 -2.1878
 7381SOL     OW33775   3.384   2.063   3.003  0.0504  0.1441 -0.2710
 7381SOL    HW133776   3.355   2.053   3.094 -0.5348 -0.9045 -0.5719
 7381SOL    HW233777   3.382   1.970   2.980  0.1289  0.7459 -2.6590
 7382SOL     OW33778   2.139   3.017  16.496  0.1815 -0.4850  0.4513
 7382SOL    HW133779   2.184   3.081  16.551  1.0873 -0.4660 -0.3079
 7382SOL    HW233780   2.149   3.048  16.407 -1.3065  0.9522  0.7884
 7383SOL     OW33781   2.730   1.606   8.304  0.4464  0.6277  0.3204
 7383SOL    HW133782   2.740   1.669   8.375  0.4743 -0.4131  1.2362
 7383SOL    HW233783   2.819   1.582   8.280 -0.1203  1.1945 -2.3704
 7384SOL     OW33784   4.682   2.560   5.810 -0.1354  0.5359  0.3792
 7384SOL    HW133785   4.610   2.622   5.826  0.0579  0.2416  2.3641
 7384SOL    HW233786   4.709   2.590   5.724 -1.2714 -1.3325 -0.6367
 7385SOL     OW33787   4.624   3.061  14.890 -0.3140  0.2362  0.5056
 7385SOL    HW133788   4.632   2.974  14.929 -1.5730 -0.4076 -0.6650
 7385SOL    HW233789   4.659   3.048  14.802  0.1288  1.1352  0.5466
 7386SOL     OW33790   0.199   1.312   1.084 -0.1330  0.2129  0.0239
 7386SOL    HW133791   0.208   1.323   0.989  3.0420  1.2212  0.4470
 7386SOL    HW233792   0.116   1.355   1.103  1.1087  1.8287  1.8334
 7387SOL     OW33793   0.592   1.203   7.562 -0.4500  0.1547 -0.0028
 7387SOL    HW133794   0.518   1.145   7.542  1.1380 -1.9044  0.1572
 7387SOL    HW233795   0.569   1.236   7.649  0.2229 -0.5745  0.4495
 7388SOL     OW33796   2.568   3.149  10.281 -0.0996  0.0937 -0.2561
 7388SOL    HW133797   2.583   3.134  10.188  1.8379 -1.3709  0.2775
 7388SOL    HW233798   2.520   3.232  10.285  0.6906  0.6105 -1.8461
 7389SOL     OW33799   3.013   4.102   3.088  0.0256  0.0626 -0.0338
 7389SOL    HW133800   2.949   4.164   3.123  0.4657  1.6466 -2.0534
 7389SOL    HW233801   3.097   4.139   3.113  1.2440 -0.9006 -2.6951
 7390SOL     OW33802   4.052   2.849  17.369  0.0818  0.5282  0.0161
 7390SOL    HW133803   4.113   2.918  17.395 -1.4213  1.2010  1.7933
 7390SOL    HW233804   4.084   2.791  17.438  0.2661 -0.1845 -0.6660
 7391SOL     OW33805   1.487   3.396   3.187  0.6581 -0.5990 -0.0691
 7391SOL    HW133806   1.511   3.488   3.193 -1.9968  0.0404  0.5427
 7391SOL    HW233807   1.433   3.386   3.265  0.2205 -1.2929 -0.4507
 7392SOL     OW33808   1.511   4.033   9.335 -0.5628 -0.2548  0.2779
 7392SOL    HW133809   1.578   4.100   9.332 -1.2352  0.4018 -0.2365
 7392SOL    HW233810   1.553   3.955   9.299 -0.7648  0.5839 -1.7738
 7393SOL     OW33811   2.524   2.137  16.687  0.0584  0.2195  0.1223
 7393SOL    HW133812   2.557   2.077  16.753 -1.3846 -1.4554 -0.6731
 7393SOL    HW233813   2.585   2.113  16.617 -0.6594 -0.5504 -0.2425
 7394SOL     OW33814   4.731   2.059  10.702  0.2742 -0.3869  0.2772
 7394SOL    HW133815   0.019   1.985  10.649  1.0801  0.7665 -0.9252
 7394SOL    HW233816   0.076   2.102  10.707  1.3224 -2.0778 -3.1133
 7395SOL     OW33817   0.245   4.321  16.314  0.5603  0.2809 -0.7050
 7395SOL    HW133818   0.169   4.264  16.307  2.7639 -2.7365 -0.0065
 7395SOL    HW233819   0.296   4.279  16.245 -0.7659  0.0850 -1.5638
 7396SOL     OW33820   3.984   1.049   4.078 -0.3032  0.5610 -0.0786
 7396SOL    HW133821   4.048   1.014   4.141 -1.0474 -2.4700 -0.9869
 7396SOL    HW233822   3.919   0.979   4.069 -1.1138  1.6989 -2.7902
 7397SOL     OW33823   1.891   3.178  14.613  0.2215 -0.3625  0.3808
 7397SOL    HW133824   1.978   3.153  14.643  0.5210  0.9942  0.6460
 7397SOL    HW233825   1.862   3.102  14.564  1.5541 -0.7127  0.1552
 7398SOL     OW33826   3.465   3.788   7.035 -0.5937  0.2232  0.0622
 7398SOL    HW133827   3.445   3.694   7.033 -0.8183  0.2225  1.9110
 7398SOL    HW233828   3.470   3.805   6.941  1.8700  2.0004  0.4967
 7399SOL     OW33829   1.913   4.040   4.545  0.1975 -0.4887 -0.1571
 7399SOL    HW133830   2.007   4.034   4.532  0.3366  1.0403  0.0826
 7399SOL    HW233831   1.897   4.001   4.631 -2.2521 -1.5723 -1.1061
 7400SOL     OW33832   1.774   2.361   9.426 -0.3430  0.4683 -0.2767
 7400SOL    HW133833   1.760   2.394   9.338 -0.3197  1.4221  0.0711
 7400SOL    HW233834   1.715   2.422   9.471 -1.2563 -0.9035  0.3853
 7401SOL     OW33835   0.928   2.801   0.271  0.2511 -0.2965 -0.9290
 7401SOL    HW133836   0.912   2.869   0.336  1.4412 -3.1419  2.3553
 7401SOL    HW233837   1.005   2.762   0.312  0.6965  2.3215  0.7341
 7402SOL     OW33838   4.034   4.127   5.225  0.3318 -0.0150 -0.2106
 7402SOL    HW133839   4.128   4.118   5.209  0.5678  1.2296  0.5408
 7402SOL    HW233840   4.030   4.095   5.315  2.7300  0.2996 -0.0121
 7403SOL     OW33841   0.540   3.948  16.060 -0.1413  0.0697 -0.8672
 7403SOL    HW133842   0.448   3.922  16.069 -0.0773  0.6055  1.3453
 7403SOL    HW233843   0.536   4.038  16.091  0.2150  0.5959 -2.3365
 7404SOL     OW33844   2.508   2.149   9.440  1.2232 -0.1241 -0.2366
 7404SOL    HW133845   2.579   2.115   9.496  0.2679  0.0067  1.0566
 7404SOL    HW233846   2.500   2.232   9.487 -1.6504 -0.2721 -0.4688
 7405SOL     OW33847   2.654   1.629   8.796  0.1816 -0.6415  0.5511
 7405SOL    HW133848   2.579   1.686   8.781 -1.0349 -2.6374 -0.9772
 7405SOL    HW233849   2.711   1.684   8.850  0.8293 -0.1315 -0.6582
 7406SOL     OW33850   2.067   2.704   9.212  0.6944 -0.1900 -0.3809
 7406SOL    HW133851   2.081   2.782   9.158  0.9525 -2.1586 -3.1861
 7406SOL    HW233852   2.075   2.732   9.303 -0.9761  2.0504 -0.9202
 7407SOL     OW33853   0.924   0.250   6.510  0.1215 -0.4584 -0.1672
 7407SOL    HW133854   0.845   0.275   6.558 -0.8941 -1.8676 -1.0838
 7407SOL    HW233855   0.882   0.200   6.440 -0.6602 -2.1114  1.4864
 7408SOL     OW33856   4.505   3.092   1.822 -0.0423 -0.0344  0.2479
 7408SOL    HW133857   4.441   3.146   1.868  0.0342 -1.6363  2.2436
 7408SOL    HW233858   4.498   3.007   1.865  0.9914  0.2238  0.9424
 7409SOL     OW33859   1.512   1.611   3.531 -0.3434  0.7810 -0.0930
 7409SOL    HW133860   1.591   1.590   3.481 -1.2077  2.3119 -2.1254
 7409SOL    HW233861   1.549   1.674   3.592  0.8390  0.7469 -0.7780
 7410SOL     OW33862   2.089   4.383   7.161  0.7451 -0.1091  0.0535
 7410SOL    HW133863   2.104   4.395   7.068 -1.0509  1.6171 -0.0223
 7410SOL    HW233864   2.125   4.467   7.192  0.9922 -0.6139  1.1350
 7411SOL     OW33865   0.222   0.102   8.417 -0.1673  0.3017 -0.4034
 7411SOL    HW133866   0.173   0.048   8.479  2.5648 -0.8270  0.7510
 7411SOL    HW233867   0.280   0.039   8.376  0.4804  0.9204 -0.4472
 7412SOL     OW33868   1.911   2.357   3.923 -0.2928  0.0365  0.1865
 7412SOL    HW133869   1.982   2.297   3.900 -0.1493 -1.0687  3.5098
 7412SOL    HW233870   1.875   2.306   3.995 -0.3477 -0.4213 -0.1635
 7413SOL     OW33871   2.636   0.468   6.334  0.1664  0.2437  0.0919
 7413SOL    HW133872   2.688   0.501   6.261  0.2352  1.3427  0.6386
 7413SOL    HW233873   2.680   0.506   6.410  0.2720 -0.7627  0.5293
 7414SOL     OW33874   4.101   3.776   2.287  0.4233  0.8815  0.1254
 7414SOL    HW133875   4.068   3.778   2.377 -0.4529 -2.9266 -0.0962
 7414SOL    HW233876   4.070   3.858   2.247 -0.7701 -0.0916 -0.9590
 7415SOL     OW33877   3.708   0.644  14.682 -0.4817 -0.5365 -0.1221
 7415SOL    HW133878   3.670   0.578  14.624 -2.8887 -0.4111  1.3190
 7415SOL    HW233879   3.657   0.719  14.649  1.2179 -0.5095 -2.7033
 7416SOL     OW33880   1.622   1.283   6.073  0.0035 -0.2132 -0.0712
 7416SOL    HW133881   1.679   1.274   5.997 -0.3582 -0.9522 -0.2514
 7416SOL    HW233882   1.554   1.343   6.042 -1.2635 -0.8652  1.4719
 7417SOL     OW33883   3.942   0.858   5.052 -0.5313  0.1187 -0.3722
 7417SOL    HW133884   3.852   0.884   5.032 -0.7580 -0.0513  0.4276
 7417SOL    HW233885   3.971   0.846   4.962 -0.7689  0.2184 -0.4612
 7418SOL     OW33886   3.025   0.945   5.858  0.8135 -0.1562 -0.5127
 7418SOL    HW133887   3.105   0.946   5.805  0.4548 -0.6039 -1.0730
 7418SOL    HW233888   3.059   0.987   5.937  2.7425 -1.4469 -0.6356
 7419SOL     OW33889   0.708   2.874  17.155  0.1425 -0.3265  0.1899
 7419SOL    HW133890   0.617   2.867  17.126  0.5036  1.3348 -1.3910
 7419SOL    HW233891   0.717   2.968  17.172  1.9150 -0.8947  2.3630
 7420SOL     OW33892   3.937   3.470   6.925  0.0151 -0.2515 -0.1382
 7420SOL    HW133893   3.979   3.553   6.899 -1.4934  1.5647  3.2571
 7420SOL    HW233894   3.980   3.449   7.008 -0.3218 -2.5922 -0.5676
 7421SOL     OW33895   0.373   4.663   5.166 -0.8685 -0.5468 -0.5915
 7421SOL    HW133896   0.279   4.655   5.148 -0.4190 -0.4755 -2.9687
 7421SOL    HW233897   0.409   4.691   5.082  0.4993  0.7005  0.4127
 7422SOL     OW33898   1.916   3.412   8.693  0.2839  0.8914  0.3055
 7422SOL    HW133899   1.962   3.330   8.675 -1.4050  1.0631 -4.7674
 7422SOL    HW233900   1.884   3.435   8.606  0.7055  1.4627  0.3057
 7423SOL     OW33901   4.353   2.767   1.659  0.1529 -0.5157 -0.2992
 7423SOL    HW133902   4.303   2.763   1.578  0.6736  0.3706 -0.6672
 7423SOL    HW233903   4.341   2.857   1.691  1.1209 -1.4873  2.7650
 7424SOL     OW33904   4.126   1.291  15.902  0.1892  0.0881 -0.2319
 7424SOL    HW133905   4.162   1.202  15.893 -1.2107 -0.4860 -0.1894
 7424SOL    HW233906   4.106   1.318  15.812  1.9366 -1.3870 -1.0763
 7425SOL     OW33907   0.827   1.682  14.946  0.3574 -0.7587  0.1840
 7425SOL    HW133908   0.922   1.671  14.936  0.6876  0.2920  2.1602
 7425SOL    HW233909   0.803   1.599  14.987  1.0830 -1.0527  0.0161
 7426SOL     OW33910   3.199   4.475   6.485 -0.7632  0.5827 -0.3260
 7426SOL    HW133911   3.256   4.523   6.546  0.0225 -0.9381  0.1309
 7426SOL    HW233912   3.263   4.427   6.432 -0.5573 -0.5802  0.9931
 7427SOL     OW33913   2.476   2.496  14.757 -0.1544  0.0683  0.0886
 7427SOL    HW133914   2.496   2.567  14.819 -0.3823  1.5215 -1.4960
 7427SOL    HW233915   2.410   2.537  14.701  1.0734 -0.2193 -1.5525
 7428SOL     OW33916   1.340   0.666   4.337  0.2914 -0.0204  0.1159
 7428SOL    HW133917   1.406   0.677   4.268  1.7889 -1.8702  1.2647
 7428SOL    HW233918   1.385   0.606   4.396  2.8084  0.4882 -1.2480
 7429SOL     OW33919   1.709   3.416  16.057  0.2579 -0.0839  0.2976
 7429SOL    HW133920   1.692   3.451  15.969 -1.6936 -0.3209  0.5926
 7429SOL    HW233921   1.710   3.491  16.116 -1.5180 -0.6328  1.0218
 7430SOL     OW33922   4.120   2.243   6.716 -0.2451 -0.3366  0.2220
 7430SOL    HW133923   4.097   2.307   6.783  1.2275 -0.3589  0.7574
 7430SOL    HW233924   4.113   2.164   6.770  2.2288 -1.2021 -0.7014
 7431SOL     OW33925   2.121   4.422  11.670 -0.3063  0.7821  0.4967
 7431SOL    HW133926   2.066   4.496  11.694 -0.2548  0.9447  0.1076
 7431SOL    HW233927   2.181   4.426  11.745  1.8528 -3.1381 -1.0073
 7432SOL     OW33928   2.594   0.239   7.825 -0.0936 -1.1007  0.2803
 7432SOL    HW133929   2.561   0.295   7.755 -2.3368 -2.4378  0.2489
 7432SOL    HW233930   2.668   0.298   7.835  1.1230 -2.6644  0.3937
 7433SOL     OW33931   3.907   3.897   6.003  0.3161  0.2989  0.0378
 7433SOL    HW133932   3.895   3.844   6.083 -2.8382 -0.3627 -0.8658
 7433SOL    HW233933   3.828   3.893   5.949 -0.6779  0.4894  1.4678
 7434SOL     OW33934   2.860   0.049   7.008  0.1355 -0.1936  0.1806
 7434SOL    HW133935   2.943   0.093   6.986 -0.2274  0.6283  0.4680
 7434SOL    HW233936   2.816   0.060   6.924  0.1052 -1.1516  0.0769
 7435SOL     OW33937   3.050   3.780   3.959  0.6265  0.2295 -0.0302
 7435SOL    HW133938   3.037   3.736   4.044  0.0002 -0.4297 -0.4718
 7435SOL    HW233939   2.962   3.770   3.924  0.3194 -1.3597  1.1792
 7436SOL     OW33940   0.680   2.851   6.460  0.2813  0.2157 -0.0204
 7436SOL    HW133941   0.694   2.944   6.442 -0.1160 -0.0955 -1.9056
 7436SOL    HW233942   0.589   2.853   6.490 -0.6525  2.1427 -2.9740
 7437SOL     OW33943   2.476   2.374   9.070 -0.0861 -0.2282 -0.9820
 7437SOL    HW133944   2.472   2.281   9.046  3.4882 -0.1807 -1.8442
 7437SOL    HW233945   2.396   2.389   9.120  0.4868  1.0293 -0.4356
 7438SOL     OW33946   3.216   1.358   7.137 -0.0683  0.1232  0.0189
 7438SOL    HW133947   3.179   1.342   7.223  1.8074 -0.3151  0.7464
 7438SOL    HW233948   3.220   1.453   7.137 -0.9839  0.1618  0.0237
 7439SOL     OW33949   1.945   1.471   6.465 -0.2441  0.3831 -0.1664
 7439SOL    HW133950   1.900   1.427   6.392 -0.2909  1.8686 -1.0440
 7439SOL    HW233951   1.920   1.563   6.451  2.6955  0.8648 -2.3260
 7440SOL     OW33952   3.894   2.690   7.736  0.6280  0.3785  0.3140
 7440SOL    HW133953   3.913   2.634   7.811  1.4277  1.8405  1.2112
 7440SOL    HW233954   3.945   2.768   7.759 -0.6910  0.2860  3.6189
 7441SOL     OW33955   1.587   3.600  11.706 -0.1107  0.6026  0.6593
 7441SOL    HW133956   1.568   3.682  11.659 -2.6529 -0.3152  0.0508
 7441SOL    HW233957   1.616   3.544  11.634 -3.0921  0.9822 -0.8768
 7442SOL     OW33958   3.482   0.748   7.247  0.3011  0.2231 -0.4798
 7442SOL    HW133959   3.550   0.814   7.230  1.4389 -1.3207 -1.9464
 7442SOL    HW233960   3.428   0.800   7.306 -0.6698  1.0278 -2.0771
 7443SOL     OW33961   3.983   2.456   2.217  0.4360  0.3690 -0.2362
 7443SOL    HW133962   4.018   2.368   2.210 -1.8924 -0.6588  0.8586
 7443SOL    HW233963   4.061   2.510   2.204  1.7277 -0.9571  2.0034
 7444SOL     OW33964   2.418   1.891  13.210  0.7087 -0.1796  0.0638
 7444SOL    HW133965   2.465   1.915  13.290 -0.6836  2.7876 -0.0016
 7444SOL    HW233966   2.384   1.804  13.232 -0.1501  0.8951  2.9619
 7445SOL     OW33967   0.431   4.342   9.163 -0.4033  0.1217 -0.9625
 7445SOL    HW133968   0.385   4.285   9.225  0.6956  1.0273  0.7002
 7445SOL    HW233969   0.402   4.429   9.191  0.6341 -0.5180  2.1141
 7446SOL     OW33970   0.272   3.796   3.544 -0.0406 -0.3433 -0.4052
 7446SOL    HW133971   0.192   3.748   3.567 -0.8083  1.1102  0.0023
 7446SOL    HW233972   0.321   3.808   3.625 -0.7182 -1.6547  0.1886
 7447SOL     OW33973   4.169   1.809   7.530  0.0654 -0.7596  0.6380
 7447SOL    HW133974   4.246   1.755   7.511 -0.2699 -0.7874 -0.6240
 7447SOL    HW233975   4.203   1.888   7.489  0.9371 -0.9323  1.0236
 7448SOL     OW33976   1.533   3.463   5.907 -0.1428  0.0669  0.1743
 7448SOL    HW133977   1.496   3.417   5.832  2.8426 -1.1707 -0.5398
 7448SOL    HW233978   1.457   3.511   5.938 -1.8535 -2.0709 -0.7379
 7449SOL     OW33979   1.363   1.297  13.492 -0.0624  0.2415  0.5321
 7449SOL    HW133980   1.320   1.267  13.412 -1.4689  0.8454  1.0735
 7449SOL    HW233981   1.367   1.217  13.545  2.0146  0.5809  0.8932
 7450SOL     OW33982   3.253   3.419   6.765  0.5584  0.2073  0.2765
 7450SOL    HW133983   3.246   3.423   6.670 -0.7189  2.0767  0.4607
 7450SOL    HW233984   3.297   3.334   6.767 -0.3692 -0.3402 -2.5049
 7451SOL     OW33985   1.586   3.362   2.376 -0.3277 -0.1900  0.5682
 7451SOL    HW133986   1.649   3.394   2.440  0.4337 -1.0674  0.2592
 7451SOL    HW233987   1.515   3.337   2.435 -1.4190 -1.8028 -1.4207
 7452SOL     OW33988   1.462   0.241   9.117 -0.1367 -0.3531 -0.1308
 7452SOL    HW133989   1.474   0.217   9.025 -1.1951 -0.9065 -0.1164
 7452SOL    HW233990   1.556   0.248   9.133 -0.1561  0.7868 -0.4904
 7453SOL     OW33991   0.238   3.922   8.690  1.0352 -0.3797 -0.2717
 7453SOL    HW133992   0.222   3.967   8.772  0.0765  1.2197 -1.3490
 7453SOL    HW233993   0.169   3.856   8.699 -1.2181  1.9800 -0.2952
 7454SOL     OW33994   0.309   2.714   8.319 -0.2635 -0.4098 -0.1763
 7454SOL    HW133995   0.362   2.778   8.270  0.8114 -2.3762 -1.6143
 7454SOL    HW233996   0.228   2.713   8.268 -0.0006  3.8032 -0.7259
 7455SOL     OW33997   4.595   2.795   1.449 -0.1608  0.3198  0.2683
 7455SOL    HW133998   4.506   2.766   1.427  0.0616  0.3286 -0.6193
 7455SOL    HW233999   4.639   2.740   1.384  2.4855 -0.1978  2.4715
 7456SOL     OW34000   2.271   2.102   9.293  0.5597 -0.5884 -0.0087
 7456SOL    HW134001   2.344   2.131   9.349 -0.3372  1.1859  0.2663
 7456SOL    HW234002   2.234   2.188   9.274  0.0449 -0.8585 -0.2176
 7457SOL     OW34003   4.339   1.172   8.112  0.4038 -0.5848  0.1932
 7457SOL    HW134004   4.381   1.238   8.057 -2.5605 -1.4033 -3.0818
 7457SOL    HW234005   4.340   1.092   8.059  1.1743  0.8911 -2.0711
 7458SOL     OW34006   2.943   4.412   6.542 -0.6368  0.2659 -0.1897
 7458SOL    HW134007   3.013   4.468   6.508 -0.4768  0.1565 -0.0404
 7458SOL    HW234008   3.001   4.354   6.591 -2.2275 -0.0442  1.3498
 7459SOL     OW34009   0.037   1.868  10.492  0.0926 -0.6546 -0.1483
 7459SOL    HW134010   0.004   1.818  10.417 -1.5717  2.3021 -1.3874
 7459SOL    HW234011   0.010   1.956  10.464  1.8812  0.6565  2.3349
 7460SOL     OW34012   1.618   2.789   3.184 -0.8600  0.4543 -0.0662
 7460SOL    HW134013   1.622   2.796   3.089  0.9197  2.3016  0.1341
 7460SOL    HW234014   1.658   2.874   3.203 -2.8322  1.6659 -1.3157
 7461SOL     OW34015   3.727   3.581   8.716 -0.4500 -0.1333  0.1646
 7461SOL    HW134016   3.672   3.504   8.702 -0.3451 -0.3079  0.7220
 7461SOL    HW234017   3.767   3.566   8.801 -0.2350 -0.9554 -0.0779
 7462SOL     OW34018   4.267   2.655   6.012  0.2556 -0.3688  0.7463
 7462SOL    HW134019   4.252   2.618   6.099  2.6384 -3.2597 -0.0556
 7462SOL    HW234020   4.356   2.690   6.018 -0.3866  1.6754 -1.8864
 7463SOL     OW34021   3.673   4.139   6.323 -0.3722 -0.4678 -0.0480
 7463SOL    HW134022   3.712   4.155   6.236  0.9434 -0.4456  0.5428
 7463SOL    HW234023   3.586   4.168   6.294 -0.0039 -1.1431 -1.8544
 7464SOL     OW34024   3.810   4.057   7.353  0.2045  0.0842 -0.2091
 7464SOL    HW134025   3.787   4.133   7.299 -2.8942 -1.4296 -0.9962
 7464SOL    HW234026   3.736   4.000   7.333 -1.0036  1.3706  0.5852
 7465SOL     OW34027   4.513   3.628  16.480  0.3021  0.0642  0.5430
 7465SOL    HW134028   4.477   3.547  16.516 -1.8840  0.9511  0.3633
 7465SOL    HW234029   4.431   3.675  16.488 -1.0685 -2.1857 -0.2008
 7466SOL     OW34030   0.277   3.619   5.008 -0.8979 -0.3560 -0.1269
 7466SOL    HW134031   0.278   3.545   4.949  2.7898 -0.0524 -0.4627
 7466SOL    HW234032   0.240   3.585   5.090  1.9099 -0.9285  0.9246
 7467SOL     OW34033   3.055   2.904   6.854 -0.3961  0.4930  0.1424
 7467SOL    HW134034   3.123   2.888   6.919 -1.0215 -0.2431  0.6143
 7467SOL    HW234035   3.062   2.998   6.837 -0.0348  0.7859  1.9438
 7468SOL     OW34036   1.911   1.496   7.299 -0.6982 -0.2919 -0.5839
 7468SOL    HW134037   1.960   1.524   7.222 -0.3929  1.8657  0.3927
 7468SOL    HW234038   1.859   1.573   7.321  0.5086  0.1524  0.7972
 7469SOL     OW34039   4.443   3.263  14.877 -0.7874 -0.5821 -0.8121
 7469SOL    HW134040   4.504   3.191  14.859 -0.5281 -0.0040 -2.2694
 7469SOL    HW234041   4.378   3.236  14.813 -2.0210  0.1726  0.1209
 7470SOL     OW34042   3.150   0.616   7.507 -0.0100 -0.4132 -0.0025
 7470SOL    HW134043   3.230   0.667   7.491 -2.9315  3.3094 -2.5250
 7470SOL    HW234044   3.179   0.530   7.474  0.9363  0.8563 -2.4800
 7471SOL     OW34045   2.918   3.881   2.126  0.2332 -0.7704 -0.6727
 7471SOL    HW134046   2.956   3.934   2.056  0.0734  1.6952  1.0957
 7471SOL    HW234047   2.994   3.887   2.184  0.0500 -0.5518 -0.4577
 7472SOL     OW34048   3.591   0.996  16.417 -0.1964  0.2191  0.2677
 7472SOL    HW134049   3.500   1.022  16.404 -0.2239 -0.0978 -0.1539
 7472SOL    HW234050   3.586   0.913  16.463  1.9418 -0.5779 -0.9184
 7473SOL     OW34051   1.604   2.292   8.953 -0.0427 -0.4224  0.1107
 7473SOL    HW134052   1.548   2.223   8.989  2.9776 -2.5938  0.6285
 7473SOL    HW234053   1.596   2.270   8.860 -0.0400 -1.9736  0.4797
 7474SOL     OW34054   1.589   3.860   6.461  0.1556  0.0325 -0.1503
 7474SOL    HW134055   1.515   3.892   6.511  0.2320 -0.9463  0.6044
 7474SOL    HW234056   1.660   3.884   6.521 -0.4518  1.3855  0.0192
 7475SOL     OW34057   0.215   1.459   0.834 -0.7967  0.0419 -0.2557
 7475SOL    HW134058   0.258   1.431   0.753  1.7468  2.5169  0.2283
 7475SOL    HW234059   0.134   1.493   0.797 -2.2023 -1.1862  1.7569
 7476SOL     OW34060   4.737   3.344   4.554  0.0650 -0.0472  0.7521
 7476SOL    HW134061   0.086   3.316   4.576  1.0373  2.4968  0.0757
 7476SOL    HW234062   0.006   3.392   4.471  0.3311  0.2474  0.9530
 7477SOL     OW34063   4.719   1.045  13.298  0.2625 -0.7767 -0.1035
 7477SOL    HW134064   0.027   1.128  13.298  0.4147 -0.8562  1.2199
 7477SOL    HW234065   4.633   1.075  13.268  0.3883 -0.8361 -0.5137
 7478SOL     OW34066   1.292   2.312   6.605 -0.5677 -0.3418 -0.3410
 7478SOL    HW134067   1.345   2.374   6.555  1.0892 -0.6140  1.0744
 7478SOL    HW234068   1.307   2.228   6.563 -2.2516 -0.3896 -0.8685
 7479SOL     OW34069   0.972   3.072  16.683  0.7448 -0.0656  0.0998
 7479SOL    HW134070   1.054   3.072  16.732  1.8044  1.1143 -1.6902
 7479SOL    HW234071   0.924   3.144  16.724 -0.9210 -0.5655 -0.9744
 7480SOL     OW34072   1.002   3.988   2.535  0.0919  0.6875  0.5836
 7480SOL    HW134073   1.017   3.904   2.492  1.5666  0.4503  1.5662
 7480SOL    HW234074   0.912   3.995   2.504  0.1156 -1.3271  0.0643
 7481SOL     OW34075   3.838   1.722   2.391  0.3597 -0.0870  0.0759
 7481SOL    HW134076   3.861   1.764   2.308 -0.7612 -0.5271 -0.4585
 7481SOL    HW234077   3.775   1.662   2.352  1.7512 -1.0323 -0.7293
 7482SOL     OW34078   1.970   2.174   9.497 -0.0768  0.1429 -0.5171
 7482SOL    HW134079   2.004   2.151   9.411  0.8874 -0.7164  0.0967
 7482SOL    HW234080   1.895   2.224   9.463 -1.9230 -0.4422  2.6974
 7483SOL     OW34081   4.692   0.760   8.738 -0.4331 -0.3589 -0.1834
 7483SOL    HW134082   4.618   0.708   8.769 -1.4145  0.6112 -0.9102
 7483SOL    HW234083   4.694   0.737   8.645 -1.4336  0.2122 -0.3441
 7484SOL     OW34084   4.068   0.401   4.854  0.1812 -0.7117 -0.7734
 7484SOL    HW134085   3.986   0.411   4.902  0.9893 -2.3354  0.9709
 7484SOL    HW234086   4.056   0.323   4.800 -1.5050 -1.7930  1.1671
 7485SOL     OW34087   3.899   3.961   1.510 -0.6020 -0.2521  0.2132
 7485SOL    HW134088   3.878   4.033   1.569  1.8702  0.0831  0.6800
 7485SOL    HW234089   3.838   3.977   1.438  0.6276 -0.1255 -0.8038
 7486SOL     OW34090   4.543   1.966   4.124 -0.0599 -0.0770 -0.3375
 7486SOL    HW134091   4.496   2.049   4.116  0.8376  0.5263  0.7796
 7486SOL    HW234092   4.510   1.920   4.047  0.6042 -1.3342  0.1275
 7487SOL     OW34093   0.816   3.373  12.417  0.0834 -0.6897  0.5452
 7487SOL    HW134094   0.783   3.460  12.439 -0.7098 -0.3117 -2.1149
 7487SOL    HW234095   0.788   3.332  12.498  1.0696 -2.2741  0.0886
 7488SOL     OW34096   1.163   3.535  16.132 -0.7032  0.0464  0.6144
 7488SOL    HW134097   1.223   3.603  16.162  0.9758 -0.8469 -0.6819
 7488SOL    HW234098   1.129   3.499  16.214  3.9999 -2.7322  1.3597
 7489SOL     OW34099   1.240   4.635  12.088  0.0319 -0.4599  0.0329
 7489SOL    HW134100   1.186   4.676  12.021 -2.4984 -2.8576  0.6168
 7489SOL    HW234101   1.172   4.594  12.142  2.2876 -2.7817  1.1473
 7490SOL     OW34102   2.690   1.721   2.745  0.1004 -0.3650  1.1345
 7490SOL    HW134103   2.785   1.718   2.739 -0.1282 -0.3624 -2.3760
 7490SOL    HW234104   2.673   1.796   2.802  2.5029 -0.5208  2.0478
 7491SOL     OW34105   2.337   0.159   6.162 -0.0829  0.2555 -0.1473
 7491SOL    HW134106   2.346   0.223   6.232  1.4286  0.6214 -0.6602
 7491SOL    HW234107   2.259   0.183   6.112  0.1991  2.5219  0.4876
 7492SOL     OW34108   3.609   2.994   1.532  0.4857 -0.1997  0.2333
 7492SOL    HW134109   3.550   2.921   1.514 -0.1470  0.9243 -2.1418
 7492SOL    HW234110   3.637   2.973   1.622  0.7935 -0.4128  0.0877
 7493SOL     OW34111   0.467   0.244   0.338  0.7761 -0.6237 -0.2271
 7493SOL    HW134112   0.533   0.267   0.272  1.4812 -0.8198  0.4093
 7493SOL    HW234113   0.441   0.160   0.300 -1.4569 -0.9863  2.1062
 7494SOL     OW34114   1.849   1.967   3.558  0.4929  0.1864 -0.1808
 7494SOL    HW134115   1.842   1.909   3.482 -1.6554  0.0404  0.1178
 7494SOL    HW234116   1.764   2.012   3.566 -0.7582 -2.5373  1.7740
 7495SOL     OW34117   3.268   3.571   4.810  0.2014  0.3410  0.3314
 7495SOL    HW134118   3.339   3.525   4.854 -1.2499 -1.6478  0.6206
 7495SOL    HW234119   3.288   3.582   4.717 -1.2152  0.2643  0.0139
 7496SOL     OW34120   0.500   1.642   5.640  0.0059  0.3272 -0.1184
 7496SOL    HW134121   0.577   1.697   5.622 -0.4620  0.5804 -1.3955
 7496SOL    HW234122   0.465   1.684   5.719 -1.0094 -1.2547  0.2544
 7497SOL     OW34123   4.263   1.033  10.022 -0.1497  0.1414  0.0206
 7497SOL    HW134124   4.298   0.959   9.972  0.6514  0.9121 -0.5808
 7497SOL    HW234125   4.342   1.079  10.050  0.3861 -0.1474 -1.0041
 7498SOL     OW34126   0.463   1.273   3.955 -0.4666  0.0446 -0.0072
 7498SOL    HW134127   0.516   1.194   3.947  0.8524  0.6789  2.4608
 7498SOL    HW234128   0.532   1.327   3.994  1.3360 -1.7338 -0.7756
 7499SOL     OW34129   3.575   0.921  14.614  0.4058  0.2021  0.1903
 7499SOL    HW134130   3.503   0.905  14.676  0.9420 -2.1246  0.2097
 7499SOL    HW234131   3.530   0.933  14.531  0.9216 -0.2156 -0.1431
 7500SOL     OW34132   0.037   1.444   5.000  0.6694 -0.0442  0.2682
 7500SOL    HW134133   0.096   1.495   5.055 -0.0847  0.9928  0.1298
 7500SOL    HW234134   4.719   1.395   5.058 -0.4292  1.1450  0.1883
 7501SOL     OW34135   3.687   2.435   7.832 -0.0334 -0.0805 -0.3357
 7501SOL    HW134136   3.728   2.358   7.870  1.8823  0.4500 -1.2945
 7501SOL    HW234137   3.625   2.453   7.903  0.9458 -3.3992  1.3296
 7502SOL     OW34138   4.022   1.997   4.766  0.7587  0.2130  0.1474
 7502SOL    HW134139   4.109   1.970   4.737  0.7999  0.2587  0.2297
 7502SOL    HW234140   4.034   2.090   4.784 -0.9732  0.3006  0.8385
 7503SOL     OW34141   1.681   1.712  10.267 -0.9333 -0.1998 -0.4466
 7503SOL    HW134142   1.727   1.678  10.344 -0.2494  0.7202 -0.4481
 7503SOL    HW234143   1.644   1.631  10.233  1.7034 -1.6503  0.1627
 7504SOL     OW34144   4.182   1.723   5.660 -0.2283 -0.1865  0.1031
 7504SOL    HW134145   4.272   1.703   5.684 -0.4197 -0.7771  0.3171
 7504SOL    HW234146   4.192   1.763   5.573  2.1714  1.6221  1.2144
 7505SOL     OW34147   2.693   4.139  15.304  0.3756  0.4401  0.2700
 7505SOL    HW134148   2.633   4.098  15.366 -0.7272  0.0040 -1.0733
 7505SOL    HW234149   2.712   4.228  15.334 -2.7088  1.3014 -0.2911
 7506SOL     OW34150   3.390   4.028   7.598  0.3580 -0.1114 -0.2723
 7506SOL    HW134151   3.295   4.032   7.585  0.1619 -0.9785  0.8221
 7506SOL    HW234152   3.418   4.119   7.594  0.3901 -0.0144  1.9970
 7507SOL     OW34153   0.305   1.950  10.286 -0.3186  0.1479 -0.2023
 7507SOL    HW134154   0.280   1.864  10.322  0.2352 -0.8457 -2.1691
 7507SOL    HW234155   0.317   1.935  10.192  0.7386  1.5696 -0.2918
 7508SOL     OW34156   0.303   0.227   7.057 -0.3517 -0.2511  0.4309
 7508SOL    HW134157   0.283   0.145   7.011  0.0355 -0.9206  1.4607
 7508SOL    HW234158   0.398   0.240   7.064 -0.2943 -0.6366  0.3680
 7509SOL     OW34159   0.855   0.677   2.658  0.2041  0.3939 -0.4302
 7509SOL    HW134160   0.761   0.681   2.641 -0.0073  1.9262  1.0345
 7509SOL    HW234161   0.895   0.682   2.572 -1.3945  1.9901 -1.1011
 7510SOL     OW34162   3.315   0.937   3.889 -0.8451  0.0186  0.7598
 7510SOL    HW134163   3.381   0.871   3.868 -1.3910  0.3622 -1.9554
 7510SOL    HW234164   3.366   1.013   3.863  2.2397 -2.0082  0.9109
 7511SOL     OW34165   3.318   1.688   2.424 -0.0183  0.4018  0.2240
 7511SOL    HW134166   3.358   1.616   2.474 -1.9311 -0.6795  0.2241
 7511SOL    HW234167   3.229   1.653   2.413 -0.3601  0.7169  1.9525
 7512SOL     OW34168   3.499   1.364   1.951 -0.6798  0.1991  0.6478
 7512SOL    HW134169   3.518   1.289   2.007  0.1522  0.2035  0.3657
 7512SOL    HW234170   3.587   1.389   1.924 -0.1030 -1.0550  1.3749
 7513SOL     OW34171   1.245   4.628  15.583 -0.2140  0.2853 -0.8143
 7513SOL    HW134172   1.240   4.658  15.674  0.3565 -1.0283 -0.3581
 7513SOL    HW234173   1.205   4.704  15.541  0.5134  0.9345 -0.3360
 7514SOL     OW34174   2.098   1.041   3.009  0.7098 -0.6266 -0.2108
 7514SOL    HW134175   2.159   0.993   2.953  3.0524  1.2793  0.7328
 7514SOL    HW234176   2.163   1.050   3.079 -0.9342 -3.2532  1.6535
 7515SOL     OW34177   1.052   1.496   2.702 -0.0107  0.4270  0.3258
 7515SOL    HW134178   1.013   1.494   2.615 -0.9774  1.3253  0.7362
 7515SOL    HW234179   1.076   1.404   2.711  1.3604  0.9048  1.5312
 7516SOL     OW34180   2.265   0.972   6.372  0.6326 -0.9291 -0.0418
 7516SOL    HW134181   2.184   0.982   6.323  1.4729 -0.0527 -1.2631
 7516SOL    HW234182   2.250   0.970   6.466 -2.5973  0.0813 -0.5649
 7517SOL     OW34183   3.465   2.724   5.104 -0.5807  0.3283 -0.1318
 7517SOL    HW134184   3.417   2.760   5.178 -0.7477 -0.2057  0.0208
 7517SOL    HW234185   3.557   2.739   5.125 -0.2449 -2.6358  0.5614
 7518SOL     OW34186   4.425   1.088   6.650  0.0618 -0.4823 -0.1548
 7518SOL    HW134187   4.404   1.178   6.678  0.0328 -1.3265  2.5296
 7518SOL    HW234188   4.362   1.042   6.706 -0.3623 -1.8337 -1.7341
 7519SOL     OW34189   1.812   0.875   1.081  0.0173  0.0365 -0.5682
 7519SOL    HW134190   1.778   0.896   1.169  0.5578  1.4774 -0.7081
 7519SOL    HW234191   1.734   0.825   1.057  0.1209 -0.8357  0.8568
 7520SOL     OW34192   0.484   3.815   5.745  0.0723 -0.0731 -0.4756
 7520SOL    HW134193   0.445   3.728   5.744  1.6021 -0.7547 -0.2470
 7520SOL    HW234194   0.413   3.876   5.764 -0.2362 -0.0405 -1.7117
 7521SOL     OW34195   2.991   0.799   4.870 -0.1372  0.6871 -0.9455
 7521SOL    HW134196   3.023   0.752   4.793  0.5174 -1.8808  0.8853
 7521SOL    HW234197   2.898   0.777   4.870 -0.4639  2.0624 -2.9617
 7522SOL     OW34198   0.424   0.074   6.512 -0.0157 -0.5440 -0.1451
 7522SOL    HW134199   0.396   0.111   6.595  0.0230 -0.3208 -0.2319
 7522SOL    HW234200   0.380   0.126   6.445 -1.2073 -1.9072 -0.4119
 7523SOL     OW34201   3.518   1.056   1.230 -0.2484 -0.7233 -0.6937
 7523SOL    HW134202   3.501   1.116   1.303 -1.6441 -1.8882 -0.0718
 7523SOL    HW234203   3.600   1.096   1.199  0.0663 -1.8092 -1.2775
 7524SOL     OW34204   0.762   2.375   4.624 -0.0401 -0.0927 -0.0982
 7524SOL    HW134205   0.774   2.280   4.634  0.0080 -0.0975 -0.2025
 7524SOL    HW234206   0.670   2.374   4.596  0.0520 -0.2609 -0.3949
 7525SOL     OW34207   4.397   0.796   9.286  0.1567  0.6983 -0.0483
 7525SOL    HW134208   4.341   0.872   9.270 -3.0054 -1.7408 -0.5237
 7525SOL    HW234209   4.404   0.793   9.381  0.3568 -3.5764 -0.2176
 7526SOL     OW34210   2.605   4.079   4.735  0.5977  0.3036  0.1248
 7526SOL    HW134211   2.560   3.995   4.733 -1.6173  1.6124 -3.3631
 7526SOL    HW234212   2.674   4.050   4.675  0.3845  0.3987 -0.1624
 7527SOL     OW34213   2.098   1.553   4.037 -0.3448  0.0201 -0.5622
 7527SOL    HW134214   2.059   1.631   3.997  0.4508  0.9184  0.4273
 7527SOL    HW234215   2.188   1.584   4.028  0.0891 -0.4747  2.1893
 7528SOL     OW34216   1.521   2.940   7.828  0.3872  0.0025 -0.2957
 7528SOL    HW134217   1.449   2.984   7.784  0.0732  2.0003  2.1726
 7528SOL    HW234218   1.498   2.961   7.919  0.2911 -0.5775 -0.1866
 7529SOL     OW34219   0.328   1.141   2.692  0.5609  0.0147 -0.7581
 7529SOL    HW134220   0.358   1.119   2.780  0.7773 -0.2669 -0.9017
 7529SOL    HW234221   0.268   1.212   2.711 -1.2210 -2.1882  1.7957
 7530SOL     OW34222   2.053   1.982   5.191 -0.4128  0.3509  0.0181
 7530SOL    HW134223   2.041   1.911   5.255  1.0039 -0.4504 -0.5883
 7530SOL    HW234224   1.972   2.030   5.207 -0.5506  0.0591  0.2005
 7531SOL     OW34225   2.423   4.241   4.059  0.0870  0.0722 -0.0664
 7531SOL    HW134226   2.332   4.263   4.039 -0.2012 -0.0545  1.0520
 7531SOL    HW234227   2.447   4.286   4.140  0.6415 -0.5692  0.1270
 7532SOL     OW34228   3.183   4.627   5.853  0.0952  0.1758 -0.1567
 7532SOL    HW134229   3.218   4.708   5.816  1.2337 -0.9090 -1.4463
 7532SOL    HW234230   3.115   4.598   5.793 -0.0838 -0.2635  0.2602
 7533SOL     OW34231   0.234   0.848   7.374 -0.5629  0.3980  0.5762
 7533SOL    HW134232   0.226   0.856   7.279  1.4480 -0.1712  0.3671
 7533SOL    HW234233   0.277   0.764   7.384  0.8490  1.2073  1.1953
 7534SOL     OW34234   0.410   1.150   2.959  0.0041 -0.2898 -0.9112
 7534SOL    HW134235   0.433   1.215   3.025  1.1819  0.5598 -2.1577
 7534SOL    HW234236   0.476   1.084   2.976 -0.2171 -0.3783 -0.4051
 7535SOL     OW34237   1.841   2.551   2.253  0.6828  0.5840  0.8457
 7535SOL    HW134238   1.806   2.617   2.314  1.3217 -0.3599  2.2361
 7535SOL    HW234239   1.821   2.584   2.166 -2.8989 -0.9126  1.1124
 7536SOL     OW34240   4.320   4.138  15.216  0.1441 -0.2233  0.0719
 7536SOL    HW134241   4.247   4.083  15.185  2.5692 -2.2960 -1.9861
 7536SOL    HW234242   4.387   4.114  15.152  0.8517  0.2345  0.6414
 7537SOL     OW34243   0.555   3.621   4.295  0.1450 -0.0208 -0.2313
 7537SOL    HW134244   0.543   3.576   4.211  2.8262  2.6310 -2.0806
 7537SOL    HW234245   0.479   3.678   4.302  0.4306  0.4849 -1.1278
 7538SOL     OW34246   0.936   3.646  17.131  0.1711  0.3444 -0.6054
 7538SOL    HW134247   0.965   3.730  17.165 -0.9056  0.5302 -0.1753
 7538SOL    HW234248   0.982   3.575  17.177 -0.0360  1.0301  0.6463
 7539SOL     OW34249   0.126   2.167  13.417 -0.3480  0.2191  0.0956
 7539SOL    HW134250   0.172   2.182  13.334  2.4521 -0.9068  1.4334
 7539SOL    HW234251   0.051   2.115  13.389 -0.2940  0.7473 -1.0045
 7540SOL     OW34252   3.865   4.274   2.204  0.1616 -0.0143 -0.0067
 7540SOL    HW134253   3.888   4.183   2.182 -2.2349 -0.3774 -1.0103
 7540SOL    HW234254   3.819   4.296   2.123  0.0328  0.2461  0.1390
 7541SOL     OW34255   1.347   0.259   5.862  0.1770  0.1964  0.4505
 7541SOL    HW134256   1.371   0.300   5.779 -0.4123  0.5059  0.4289
 7541SOL    HW234257   1.275   0.316   5.889 -0.1581  0.1736 -0.4214
 7542SOL     OW34258   1.069   0.245   0.551  0.3661  0.4024 -0.4468
 7542SOL    HW134259   1.022   0.213   0.628 -1.0683  1.3314 -0.9222
 7542SOL    HW234260   1.062   0.339   0.567 -0.3684  0.3376 -0.3704
 7543SOL     OW34261   3.202   2.730  16.791  0.7393 -0.5180  0.4208
 7543SOL    HW134262   3.173   2.664  16.855  0.2241 -0.5139  0.1905
 7543SOL    HW234263   3.239   2.779  16.865 -0.2133 -0.6280  0.9840
 7544SOL     OW34264   1.384   3.685   6.450  0.1206  0.0604 -0.2999
 7544SOL    HW134265   1.356   3.742   6.522 -1.0612 -0.2099 -0.5424
 7544SOL    HW234266   1.475   3.714   6.442  0.3669 -0.8390 -0.6533
 7545SOL     OW34267   1.678   2.017  11.654 -0.2864  0.2866 -0.0278
 7545SOL    HW134268   1.621   2.012  11.731 -3.4109 -1.3835 -2.4172
 7545SOL    HW234269   1.612   2.023  11.585  1.3977  2.5446 -1.4286
 7546SOL     OW34270   1.488   3.361  11.455  0.0671 -0.2561 -0.3084
 7546SOL    HW134271   1.558   3.338  11.516 -1.6500  0.0669  1.7759
 7546SOL    HW234272   1.493   3.456  11.457  1.7680 -0.3538  0.0906
 7547SOL     OW34273   3.427   3.079   7.510 -0.1984 -0.5406  0.2705
 7547SOL    HW134274   3.487   3.077   7.585  0.2552 -1.8815 -0.1243
 7547SOL    HW234275   3.456   2.999   7.466  1.3277  1.3776 -2.2488
 7548SOL     OW34276   0.340   1.759   4.040 -0.0731  0.2657 -0.1695
 7548SOL    HW134277   0.320   1.684   3.984  0.3973  0.8610 -1.1242
 7548SOL    HW234278   0.366   1.716   4.122 -0.9411 -0.1232 -0.1008
 7549SOL     OW34279   0.648   3.738   8.183  0.4803 -0.2509 -0.2865
 7549SOL    HW134280   0.712   3.792   8.135  0.4843 -1.1819 -1.3238
 7549SOL    HW234281   0.568   3.787   8.161 -0.3373 -2.2315 -1.7143
 7550SOL     OW34282   4.617   2.997  12.870  0.0819  0.1881 -0.1601
 7550SOL    HW134283   4.591   2.964  12.956 -1.9785  2.7231  0.1709
 7550SOL    HW234284   4.566   2.940  12.812 -2.7080  3.1279 -0.5855
 7551SOL     OW34285   0.220   4.407   2.036 -0.0482  0.3259  0.3290
 7551SOL    HW134286   0.287   4.419   2.103 -1.8238 -1.8455  2.4742
 7551SOL    HW234287   0.161   4.334   2.053  1.0947 -0.5330  0.6106
 7552SOL     OW34288   4.193   0.302   1.337  0.0167 -0.2490 -0.1205
 7552SOL    HW134289   4.264   0.287   1.399 -0.6088  0.8433  0.8651
 7552SOL    HW234290   4.142   0.375   1.373  1.9795  1.8834 -1.6543
 7553SOL     OW34291   1.269   1.479   4.150  0.2106 -0.1218 -0.2740
 7553SOL    HW134292   1.195   1.521   4.194  1.5175  0.5669  1.2658
 7553SOL    HW234293   1.292   1.395   4.189  1.1738 -1.0264 -2.7451
 7554SOL     OW34294   4.331   3.203   2.006  0.5259 -0.2652  0.5393
 7554SOL    HW134295   4.344   3.120   2.052  1.1919 -0.5769 -0.2201
 7554SOL    HW234296   4.272   3.243   2.070  0.4688  2.1104 -0.9868
 7555SOL     OW34297   3.147   3.429   7.530  0.9073 -0.4679 -1.0478
 7555SOL    HW134298   3.084   3.412   7.600 -0.2113 -1.5156 -2.3118
 7555SOL    HW234299   3.178   3.517   7.552  0.3318 -0.3363 -0.7761
 7556SOL     OW34300   4.692   4.567   5.648  0.6798  0.4859  0.4814
 7556SOL    HW134301   4.716   4.600   5.734  0.6419  1.1395  0.2400
 7556SOL    HW234302   4.618   4.515   5.677  1.5558 -1.0637 -0.0426
 7557SOL     OW34303   4.229   4.729   4.522  0.0361 -0.0246 -0.6752
 7557SOL    HW134304   4.219   4.639   4.493  1.3415 -1.3539  2.9455
 7557SOL    HW234305   4.312   4.720   4.569  0.5358 -2.3592 -2.0165
 7558SOL     OW34306   3.475   4.021   4.160  0.0210 -0.0653  0.7108
 7558SOL    HW134307   3.427   3.939   4.167 -0.4254 -0.0543 -2.1916
 7558SOL    HW234308   3.416   4.074   4.106  0.1237 -0.1384  0.5274
 7559SOL     OW34309   4.520   4.284  11.518  0.1204 -0.0296 -0.2111
 7559SOL    HW134310   4.472   4.315  11.595 -1.1346 -0.1091 -0.9606
 7559SOL    HW234311   4.452   4.294  11.452 -1.8065  1.6026  2.0260
 7560SOL     OW34312   0.799   1.330   6.349 -0.0725 -0.7467 -0.0935
 7560SOL    HW134313   0.768   1.312   6.438 -0.7929  1.5289  0.1071
 7560SOL    HW234314   0.726   1.281   6.313  0.8524 -0.8330 -1.8371
 7561SOL     OW34315   3.519   3.507  13.555 -0.0657  0.6116 -0.3478
 7561SOL    HW134316   3.553   3.534  13.469 -0.1448  2.1253  0.0907
 7561SOL    HW234317   3.431   3.544  13.553 -0.3357  0.1403  2.8650
 7562SOL     OW34318   0.602   0.250  12.109  0.3280  0.5787 -0.1020
 7562SOL    HW134319   0.529   0.308  12.086  0.4922  0.4393 -0.9958
 7562SOL    HW234320   0.575   0.171  12.061  0.7028  0.8963 -0.8422
 7563SOL     OW34321   1.893   4.375   3.224 -0.2221 -0.1121 -0.1959
 7563SOL    HW134322   1.877   4.469   3.230 -2.1389 -0.5442  1.3000
 7563SOL    HW234323   1.965   4.371   3.161 -1.4979 -0.2389 -1.6224
 7564SOL     OW34324   2.359   0.781   5.229 -0.3146 -0.5073 -0.5906
 7564SOL    HW134325   2.316   0.846   5.174 -1.1585  0.3659  1.0836
 7564SOL    HW234326   2.424   0.761   5.162 -0.3546  1.1418 -1.1016
 7565SOL     OW34327   0.812   2.721   7.090 -0.4275 -0.2655 -0.3814
 7565SOL    HW134328   0.875   2.659   7.053  0.9626 -0.1423  1.7510
 7565SOL    HW234329   0.839   2.797   7.037  0.3734 -1.2160 -1.3325
 7566SOL     OW34330   2.870   0.287   3.424 -0.5831  0.3934 -0.3873
 7566SOL    HW134331   2.910   0.362   3.467 -0.6246  0.4215 -0.3979
 7566SOL    HW234332   2.816   0.331   3.358  0.8107 -0.3363 -2.0168
 7567SOL     OW34333   4.341   2.266   3.355 -0.2169 -0.6634 -0.3834
 7567SOL    HW134334   4.260   2.291   3.312  0.5362 -0.2420 -1.5539
 7567SOL    HW234335   4.344   2.335   3.421 -2.1869  0.5654 -1.5946
 7568SOL     OW34336   3.071   1.965  11.985  0.0336 -0.2324  0.3183
 7568SOL    HW134337   2.980   1.963  11.958  0.3828 -2.7041 -0.6488
 7568SOL    HW234338   3.068   2.032  12.054 -0.3532  0.2675 -0.1852
 7569SOL     OW34339   1.433   4.401   4.686  0.3744  0.2013 -0.3730
 7569SOL    HW134340   1.395   4.432   4.768 -1.7762 -2.6731 -0.3187
 7569SOL    HW234341   1.511   4.355   4.717 -0.5206 -1.3623 -0.4505
 7570SOL     OW34342   1.071   0.424  17.021 -0.3093  0.0804 -0.2722
 7570SOL    HW134343   1.002   0.361  17.000 -0.5850  0.0073  0.8868
 7570SOL    HW234344   1.111   0.380  17.096  0.0096 -0.6022 -0.8450
 7571SOL     OW34345   2.989   3.075  13.782 -0.5065  0.0302  0.0533
 7571SOL    HW134346   2.925   3.142  13.809 -0.5310  0.0716 -0.1114
 7571SOL    HW234347   3.016   3.034  13.864 -0.1917  0.2379  0.0530
 7572SOL     OW34348   3.786   3.743   9.710 -0.0917  0.5780 -0.3733
 7572SOL    HW134349   3.730   3.704   9.777  0.2799  0.5777 -0.0629
 7572SOL    HW234350   3.853   3.788   9.763 -2.1434  0.3267  2.4441
 7573SOL     OW34351   4.078   0.120   4.739 -0.1320  0.1699 -0.4271
 7573SOL    HW134352   3.991   0.116   4.700  0.3337  0.7690 -1.5155
 7573SOL    HW234353   4.129   0.081   4.669 -1.0280 -1.2520 -0.2846
 7574SOL     OW34354   0.670   1.930   7.043 -0.2249  0.7330 -0.4976
 7574SOL    HW134355   0.639   1.869   6.977 -0.5728 -1.1727  1.4325
 7574SOL    HW234356   0.685   1.876   7.121 -1.0573  0.1763 -0.7181
 7575SOL     OW34357   3.279   3.461   8.239 -0.4034 -0.4380  0.2815
 7575SOL    HW134358   3.351   3.487   8.297 -0.2971  0.3756 -0.2146
 7575SOL    HW234359   3.319   3.391   8.188  0.4452 -0.5053  1.0304
 7576SOL     OW34360   1.193   4.060  13.124 -0.2625 -0.3681 -0.2250
 7576SOL    HW134361   1.211   4.027  13.035 -0.0105 -0.3810 -0.1714
 7576SOL    HW234362   1.273   4.041  13.173  1.1264 -0.4141 -2.4689
 7577SOL     OW34363   0.211   0.895   5.745 -0.0757 -0.2498  0.0058
 7577SOL    HW134364   0.187   0.850   5.826  1.5087 -1.2483 -0.0733
 7577SOL    HW234365   0.255   0.978   5.762 -0.1418 -0.4065  0.9196
 7578SOL     OW34366   3.152   0.256   8.384 -0.7172 -0.3133  0.4031
 7578SOL    HW134367   3.196   0.192   8.328 -0.7179  0.5644 -0.5926
 7578SOL    HW234368   3.064   0.219   8.371 -0.9232  1.2036 -2.5761
 7579SOL     OW34369   2.978   0.041   3.526 -0.7588  0.5098 -0.4685
 7579SOL    HW134370   2.950   0.120   3.479 -1.7595 -0.1508 -0.9742
 7579SOL    HW234371   2.920   4.714   3.492  0.7711 -2.1840  2.2260
 7580SOL     OW34372   4.675   1.072   7.080 -0.4246  0.5219  0.4149
 7580SOL    HW134373   0.007   1.133   7.094  1.1613 -1.5476  1.2849
 7580SOL    HW234374   4.652   1.052   7.170 -1.5133  3.9929  0.9119
 7581SOL     OW34375   4.365   4.319   4.271 -0.0532  0.2384 -0.4649
 7581SOL    HW134376   4.361   4.223   4.271  0.9755  0.1996  1.2536
 7581SOL    HW234377   4.335   4.337   4.182 -2.0331 -1.2402 -0.0845
 7582SOL     OW34378   1.140   3.910   2.765 -0.8735  0.1561  0.4729
 7582SOL    HW134379   1.161   3.982   2.824 -0.5375 -0.3135  0.9270
 7582SOL    HW234380   1.068   3.942   2.711  0.9895  0.9750 -1.5350
 7583SOL     OW34381   3.121   1.707  13.008  0.2418  0.1996  0.0234
 7583SOL    HW134382   3.153   1.619  12.986  0.0103  0.3682 -0.9802
 7583SOL    HW234383   3.103   1.714  13.101 -0.0934 -0.7162  0.0205
 7584SOL     OW34384   1.269   1.297   2.626  0.2182 -0.5090  0.5601
 7584SOL    HW134385   1.288   1.360   2.696 -0.0009  0.8232 -0.5729
 7584SOL    HW234386   1.354   1.272   2.591  0.3629 -0.2847  0.7570
 7585SOL     OW34387   2.133   3.188   0.041 -0.0910  0.0716 -0.5768
 7585SOL    HW134388   2.137   3.151   0.129  0.9285  1.0869 -0.2022
 7585SOL    HW234389   2.068   3.257   0.053 -0.0459 -0.0910  0.5791
 7586SOL     OW34390   2.840   0.866   9.947 -0.6036 -0.0911 -0.3914
 7586SOL    HW134391   2.908   0.916   9.992 -1.8147  1.4691 -0.3134
 7586SOL    HW234392   2.871   0.775   9.953 -0.1107  0.2022  1.4479
 7587SOL     OW34393   0.271   1.587   4.815 -0.7408  0.0418 -0.1249
 7587SOL    HW134394   0.184   1.568   4.782 -0.4495 -0.5807 -0.5315
 7587SOL    HW234395   0.248   1.632   4.897  0.5402 -1.2509  0.9604
 7588SOL     OW34396   4.214   3.192   1.444 -0.4532 -0.1866 -0.5989
 7588SOL    HW134397   4.169   3.214   1.525 -2.0952  1.6689 -2.0123
 7588SOL    HW234398   4.302   3.172   1.475  0.6170  2.7866 -1.7521
 7589SOL     OW34399   4.482   0.313   7.862  0.5453 -0.1646  0.0347
 7589SOL    HW134400   4.570   0.314   7.826 -0.5078  2.0940 -2.4551
 7589SOL    HW234401   4.447   0.400   7.841  1.4062  0.7016  2.2310
 7590SOL     OW34402   0.248   3.847  17.079  0.1142 -0.1976  0.0143
 7590SOL    HW134403   0.237   3.920  17.018  0.2559 -0.0981  0.1084
 7590SOL    HW234404   0.286   3.890  17.155 -0.1697 -0.6836  0.4315
 7591SOL     OW34405   0.143   0.243  10.229 -0.7300  0.2721 -0.0870
 7591SOL    HW134406   0.094   0.164  10.207 -1.1116  0.9409 -1.6513
 7591SOL    HW234407   0.131   0.240  10.324 -0.9509 -0.8910 -0.1507
 7592SOL     OW34408   4.450   0.762  16.962 -0.5725 -0.1955 -0.8343
 7592SOL    HW134409   4.541   0.757  16.933 -0.9219 -2.3975 -1.6009
 7592SOL    HW234410   4.409   0.690  16.912  0.3029 -2.4307  1.6687
 7593SOL     OW34411   0.175   2.721   9.767  0.0907  0.4371 -0.5060
 7593SOL    HW134412   0.231   2.645   9.783  0.0464  0.3671 -0.6867
 7593SOL    HW234413   0.144   2.727   9.857 -1.6094 -1.3513 -0.9733
 7594SOL     OW34414   3.639   3.232   5.989  0.1497  0.5265  0.2085
 7594SOL    HW134415   3.676   3.320   5.990  0.1566  0.5049  1.5220
 7594SOL    HW234416   3.549   3.246   5.960 -0.2485  1.1599  1.7508
 7595SOL     OW34417   4.665   4.046   3.043 -0.1395 -0.2976  0.2127
 7595SOL    HW134418   4.619   4.121   3.082  1.1153  0.5874 -0.0292
 7595SOL    HW234419   0.015   4.076   3.043  0.3441 -1.7894  2.5713
 7596SOL     OW34420   4.403   2.784  15.743 -0.1310  0.0982  0.1417
 7596SOL    HW134421   4.465   2.737  15.688  0.1699  0.8332 -0.1483
 7596SOL    HW234422   4.334   2.806  15.680  0.8786  2.3595 -0.1995
 7597SOL     OW34423   1.947   2.173  10.093  0.2064 -0.5856 -0.0482
 7597SOL    HW134424   1.855   2.199  10.082  0.8310  1.4996 -0.2235
 7597SOL    HW234425   1.943   2.091  10.044  1.2885  0.5073 -1.9745
 7598SOL     OW34426   2.559   4.183   7.096  0.2005  0.1418 -0.2666
 7598SOL    HW134427   2.606   4.174   7.179  0.0991  0.9867 -0.1178
 7598SOL    HW234428   2.470   4.171   7.131 -0.2491 -1.6251 -1.9681
 7599SOL     OW34429   4.436   2.347   5.116 -0.6993  0.0278 -0.3082
 7599SOL    HW134430   4.431   2.435   5.080  1.8405 -0.4290 -1.7778
 7599SOL    HW234431   4.369   2.352   5.185 -0.5813  2.7511 -0.3889
 7600SOL     OW34432   3.643   1.234  12.939  0.8308 -0.6701  0.0752
 7600SOL    HW134433   3.698   1.231  12.861  1.4229  1.4016  0.4415
 7600SOL    HW234434   3.698   1.283  12.999  0.7488 -0.4550 -0.0250
 7601SOL     OW34435   2.868   3.536   5.514 -0.3967 -0.1257 -0.1106
 7601SOL    HW134436   2.869   3.609   5.452  1.6592 -0.8625 -0.9257
 7601SOL    HW234437   2.858   3.588   5.594 -3.1150 -1.9396  0.7324
 7602SOL     OW34438   1.396   3.017   1.923  0.2738 -0.2464 -0.2250
 7602SOL    HW134439   1.395   3.112   1.936  1.1576 -0.0893 -1.3299
 7602SOL    HW234440   1.302   2.998   1.926  0.5021 -1.4215 -0.7336
 7603SOL     OW34441   1.359   4.687   4.482  0.0173 -0.1051  0.0876
 7603SOL    HW134442   1.398   4.695   4.569  0.2161 -0.2739  0.0136
 7603SOL    HW234443   1.269   4.668   4.509 -0.0639  0.5375  0.2685
 7604SOL     OW34444   0.542   3.474   0.391  0.4114  0.2244 -0.0338
 7604SOL    HW134445   0.486   3.455   0.316  0.0935 -2.2382  0.8288
 7604SOL    HW234446   0.567   3.564   0.368  0.6507 -0.3609 -2.1001
 7605SOL     OW34447   2.163   0.033   4.376  0.4020  0.1121 -0.1955
 7605SOL    HW134448   2.172   0.096   4.304  1.3533  1.1437  0.8191
 7605SOL    HW234449   2.251   4.736   4.378  0.6453  0.6460 -0.6222
 7606SOL     OW34450   0.072   2.787   7.740  0.1531 -0.0223  0.4790
 7606SOL    HW134451   0.119   2.705   7.725 -3.1131 -1.4616 -1.9712
 7606SOL    HW234452   0.120   2.815   7.818  0.8308  0.7250 -0.2134
 7607SOL     OW34453   3.566   4.274   7.912  0.2289  0.5282 -0.5467
 7607SOL    HW134454   3.546   4.214   7.984 -0.5964  0.2558 -1.0124
 7607SOL    HW234455   3.483   4.318   7.895  1.2043  2.0496 -1.3712
 7608SOL     OW34456   2.538   0.418   5.443 -0.1174  0.4887  0.3046
 7608SOL    HW134457   2.584   0.490   5.486 -0.7388  0.3994  1.1216
 7608SOL    HW234458   2.447   0.446   5.438  0.0161  0.6018 -1.6655
 7609SOL     OW34459   3.146   1.106  17.495  0.3044 -0.3481  0.4596
 7609SOL    HW134460   3.073   1.167  17.508 -1.7045 -3.0595  1.8152
 7609SOL    HW234461   3.184   1.104  17.583  0.5213  1.6304  0.4159
 7610SOL     OW34462   1.911   2.578  16.095 -0.1705  0.5015 -0.3414
 7610SOL    HW134463   1.901   2.564  16.001  0.1441  0.6825 -0.4032
 7610SOL    HW234464   1.951   2.665  16.099  1.3303 -0.1024 -2.4499
 7611SOL     OW34465   2.063   4.267  15.645  0.4161  0.1634 -0.0001
 7611SOL    HW134466   1.983   4.286  15.595 -1.4858 -1.5323  2.4065
 7611SOL    HW234467   2.123   4.333  15.610  2.5701 -1.5925  0.3668
 7612SOL     OW34468   4.167   1.498   3.178  0.1559  0.0920 -0.4803
 7612SOL    HW134469   4.156   1.593   3.166 -3.2963 -0.1077  1.0284
 7612SOL    HW234470   4.088   1.460   3.140 -0.5914  0.5860  0.5562
 7613SOL     OW34471   3.144   4.081   3.740 -0.6947 -0.5703 -0.6149
 7613SOL    HW134472   3.115   4.014   3.677  1.5150 -2.0700 -0.0551
 7613SOL    HW234473   3.081   4.151   3.731 -1.4578 -1.0719  0.9214
 7614SOL     OW34474   3.058   0.744  10.884 -0.1627  0.2656  0.0371
 7614SOL    HW134475   2.999   0.688  10.834 -1.9693 -0.9263  3.4808
 7614SOL    HW234476   3.051   0.707  10.972 -0.7961 -1.0235 -0.5553
 7615SOL     OW34477   4.604   4.149  15.967  0.5773  0.2804  0.0728
 7615SOL    HW134478   4.613   4.243  15.980 -0.2403  0.5251 -1.1496
 7615SOL    HW234479   4.561   4.141  15.882 -2.2329  1.2221  1.4187
 7616SOL     OW34480   3.313   1.562   8.108 -0.3948 -0.2347 -0.4971
 7616SOL    HW134481   3.273   1.477   8.090 -0.8474 -0.7834  2.9315
 7616SOL    HW234482   3.321   1.595   8.019 -0.3099  2.8694  0.6772
 7617SOL     OW34483   3.067   2.241   8.348  0.9442  0.0696 -0.8522
 7617SOL    HW134484   3.052   2.216   8.439  1.8664  1.0358 -0.4415
 7617SOL    HW234485   3.032   2.171   8.293  2.8894 -0.4906 -1.3685
 7618SOL     OW34486   2.596   3.799  12.473  0.3203  0.0695 -0.7216
 7618SOL    HW134487   2.638   3.755  12.546 -0.5185  0.2501 -0.1336
 7618SOL    HW234488   2.670   3.857  12.454  0.1328  1.3863  2.6723
 7619SOL     OW34489   2.315   4.311  17.001  0.5529  0.4054  0.3445
 7619SOL    HW134490   2.352   4.395  17.030 -3.0158  1.8766  0.5570
 7619SOL    HW234491   2.231   4.339  16.966 -0.0994 -0.1035  1.5143
 7620SOL     OW34492   1.568   3.113   4.545 -0.1693  0.3979 -0.7754
 7620SOL    HW134493   1.606   3.060   4.475  1.5764  0.1481  0.3798
 7620SOL    HW234494   1.490   3.147   4.501 -0.9103  0.4593  0.6019
 7621SOL     OW34495   0.360   2.233   7.552  0.1427  0.8291 -0.3129
 7621SOL    HW134496   0.362   2.261   7.461  2.7776  0.6184 -0.3269
 7621SOL    HW234497   0.428   2.166   7.552 -0.3234  0.3569 -0.9587
 7622SOL     OW34498   3.134   0.136   3.983  0.0976 -0.5799  0.5750
 7622SOL    HW134499   3.125   0.223   3.946  0.5276 -0.1279  1.5244
 7622SOL    HW234500   3.220   0.098   3.966  0.3545 -0.2198  1.0656
 7623SOL     OW34501   4.300   0.138   0.650 -0.7189  0.3487 -0.3341
 7623SOL    HW134502   4.328   0.195   0.722  2.3778 -0.4892 -0.8706
 7623SOL    HW234503   4.313   0.199   0.577  1.6781  2.0868  1.5449
 7624SOL     OW34504   1.974   3.680   0.336 -0.6155 -0.4118  0.0511
 7624SOL    HW134505   1.881   3.661   0.342 -0.2746 -1.6870  1.1091
 7624SOL    HW234506   1.971   3.751   0.271 -0.1357 -0.4825 -0.0482
 7625SOL     OW34507   4.155   2.872   4.237  0.6098 -0.1985 -0.3748
 7625SOL    HW134508   4.069   2.856   4.274  1.3696 -0.3223  1.3249
 7625SOL    HW234509   4.149   2.968   4.230 -0.5160  0.0140  3.8291
 7626SOL     OW34510   3.478   2.746  15.273  0.0399 -0.2086  0.0864
 7626SOL    HW134511   3.462   2.732  15.180 -0.2787  1.5905 -0.1296
 7626SOL    HW234512   3.537   2.675  15.300  2.0363  1.3187 -0.2350
 7627SOL     OW34513   4.700   2.129   3.755 -0.0273 -0.2468 -0.0250
 7627SOL    HW134514   0.002   2.053   3.794 -0.0695  0.2684  1.0135
 7627SOL    HW234515   4.610   2.099   3.743 -0.4857  0.6235  1.2264
 7628SOL     OW34516   0.405   4.582   8.473  0.4037 -0.7478  0.6660
 7628SOL    HW134517   0.418   4.615   8.562  0.1478  1.1457 -0.0020
 7628SOL    HW234518   0.371   4.494   8.489  0.4232 -1.0953 -1.2042
 7629SOL     OW34519   3.911   4.516   8.548  0.9329  0.4800  0.7164
 7629SOL    HW134520   3.955   4.592   8.509  2.2481 -1.0519 -0.8044
 7629SOL    HW234521   3.848   4.557   8.607  0.1831 -1.6596  1.3775
 7630SOL     OW34522   4.593   1.620   7.998  0.0692  0.0967  0.4711
 7630SOL    HW134523   4.675   1.625   7.947  0.3879 -0.0976  0.9698
 7630SOL    HW234524   4.592   1.524   8.000 -0.0905  0.1192  1.1771
 7631SOL     OW34525   3.360   0.276   8.019  0.8128 -0.0082 -0.0492
 7631SOL    HW134526   3.435   0.216   8.025  1.2555  0.7733  2.4339
 7631SOL    HW234527   3.400   0.349   7.972  1.2290 -1.8365 -2.5010
 7632SOL     OW34528   1.993   2.900   0.574  0.1142  0.4769 -0.3398
 7632SOL    HW134529   2.032   2.824   0.530  0.0234  1.4923 -2.1495
 7632SOL    HW234530   2.043   2.970   0.532  0.2938 -0.0108 -0.9545
 7633SOL     OW34531   1.489   4.190   6.020  0.5471  0.6408  0.0484
 7633SOL    HW134532   1.548   4.131   6.067  0.5110  0.9959  0.5337
 7633SOL    HW234533   1.529   4.276   6.024  1.8250  0.0075  0.7905
 7634SOL     OW34534   2.382   0.353  13.279 -0.3244  0.3331 -0.2261
 7634SOL    HW134535   2.335   0.375  13.198  0.6035 -0.6255 -1.0210
 7634SOL    HW234536   2.382   0.441  13.316  1.0404  1.2927 -2.4865
 7635SOL     OW34537   3.760   3.135   2.016  0.5930 -0.0204  0.2404
 7635SOL    HW134538   3.759   3.149   2.110  1.1071  0.5280  0.1633
 7635SOL    HW234539   3.728   3.220   1.987  0.5736 -0.2509 -0.4195
 7636SOL     OW34540   2.646   3.145   9.218  0.7061 -0.2737 -0.0370
 7636SOL    HW134541   2.641   3.153   9.314 -0.8732  1.7308 -0.2718
 7636SOL    HW234542   2.552   3.127   9.206  1.1539 -1.7891 -1.1656
 7637SOL     OW34543   3.220   2.895   1.039  0.4801  0.2775  0.5507
 7637SOL    HW134544   3.247   2.808   1.009 -1.3385 -0.3790  0.8062
 7637SOL    HW234545   3.297   2.952   1.043  2.4748 -2.2386 -1.4890
 7638SOL     OW34546   0.322   1.570   1.264  0.2570  0.2353 -0.4899
 7638SOL    HW134547   0.265   1.646   1.250 -1.1406 -0.3185  2.2255
 7638SOL    HW234548   0.337   1.546   1.172 -1.5191  0.0952 -0.7515
 7639SOL     OW34549   3.717   3.061   6.911 -0.2692 -0.1677  0.6252
 7639SOL    HW134550   3.802   3.025   6.888  0.4514  1.0370  1.4086
 7639SOL    HW234551   3.734   3.107   6.993  1.6382 -0.3683  0.3492
 7640SOL     OW34552   0.555   0.598   3.455  0.4207 -0.1481  0.0386
 7640SOL    HW134553   0.592   0.530   3.398 -0.6178 -0.8018  0.1491
 7640SOL    HW234554   0.469   0.614   3.415 -0.3364  0.9373  2.1207
 7641SOL     OW34555   4.150   1.407   5.805 -0.4637 -0.1069  0.0497
 7641SOL    HW134556   4.220   1.420   5.741 -1.6366  1.0344 -0.9861
 7641SOL    HW234557   4.080   1.419   5.742 -0.7099 -1.0163  0.1464
 7642SOL     OW34558   2.861   4.668   5.688 -0.5328  0.3620  0.0907
 7642SOL    HW134559   2.862   0.023   5.684 -2.3772  0.4630  1.9410
 7642SOL    HW234560   2.866   4.646   5.595  0.9070 -2.9956  0.9517
 7643SOL     OW34561   2.876   4.388  15.699  0.1702  0.0878  0.1727
 7643SOL    HW134562   2.806   4.451  15.716  2.0898  1.4640  3.0134
 7643SOL    HW234563   2.828   4.306  15.703 -0.4692  0.5580  1.8374
 7644SOL     OW34564   3.789   4.047   9.655 -0.0105  0.4493  0.1476
 7644SOL    HW134565   3.834   4.109   9.713  1.2780 -1.1855  0.8668
 7644SOL    HW234566   3.830   3.969   9.691  1.5664  1.4956  0.6594
 7645SOL     OW34567   1.537   2.637   5.464  0.3110 -0.3001 -0.4695
 7645SOL    HW134568   1.449   2.601   5.450 -0.2978  1.5548 -1.5411
 7645SOL    HW234569   1.534   2.681   5.549 -2.8931  2.6264 -2.0530
 7646SOL     OW34570   2.626   3.975   3.217 -0.3731 -0.5520  0.4152
 7646SOL    HW134571   2.684   3.986   3.292  1.5759  0.1113 -1.1814
 7646SOL    HW234572   2.590   4.063   3.205  1.7453  0.0530 -1.4653
 7647SOL     OW34573   2.161   4.680   2.178  0.2345  0.0568 -0.3654
 7647SOL    HW134574   2.244   4.719   2.150 -0.5222  3.4921  2.2401
 7647SOL    HW234575   2.134   4.632   2.099 -1.1630  1.8931 -0.9914
 7648SOL     OW34576   4.014   2.817   7.051 -0.4544 -0.5039  0.1043
 7648SOL    HW134577   3.942   2.761   7.083 -0.4022 -1.6672 -1.7750
 7648SOL    HW234578   4.008   2.889   7.113  0.9363  1.3322 -1.9090
 7649SOL     OW34579   4.720   3.577   8.524 -0.1678  0.2362  0.5755
 7649SOL    HW134580   4.693   3.661   8.488 -0.7550 -0.8455 -1.5255
 7649SOL    HW234581   4.657   3.516   8.484 -0.3331  0.7145  0.1054
 7650SOL     OW34582   3.115   3.039  12.520  0.4285 -0.6976 -0.5866
 7650SOL    HW134583   3.023   3.065  12.512  0.9722  0.3653 -3.2703
 7650SOL    HW234584   3.155   3.118  12.554  0.1256 -0.9622  0.4007
 7651SOL     OW34585   4.561   4.664   0.798  0.0126  0.1744 -0.5279
 7651SOL    HW134586   4.611   4.697   0.873 -1.7583 -0.2449  0.8509
 7651SOL    HW234587   4.584   4.730   0.733  0.3322  0.7270  0.1390
 7652SOL     OW34588   2.655   0.008  16.449  0.3951 -0.5448 -0.1039
 7652SOL    HW134589   2.741   0.044  16.470  0.4749 -1.2888  0.8412
 7652SOL    HW234590   2.665   4.659  16.483 -0.2772 -0.3766  0.5293
 7653SOL     OW34591   0.415   4.452   5.344 -0.6058  0.1288  0.0462
 7653SOL    HW134592   0.344   4.486   5.400 -0.4338  0.8455 -0.1702
 7653SOL    HW234593   0.417   4.526   5.283 -1.1820  1.3590  1.5224
 7654SOL     OW34594   0.455   2.413   2.787  0.0829  0.2024 -0.0589
 7654SOL    HW134595   0.501   2.405   2.871  2.1828 -2.1260 -1.4327
 7654SOL    HW234596   0.363   2.412   2.811 -0.1168 -1.9454 -0.8594
 7655SOL     OW34597   2.378   1.612  15.848 -0.5040  0.6534 -0.1059
 7655SOL    HW134598   2.383   1.663  15.929  2.1444  1.4997 -0.7999
 7655SOL    HW234599   2.425   1.534  15.877 -1.8621 -0.2672 -0.3701
 7656SOL     OW34600   2.892   2.640   4.850  0.0879 -0.1696 -0.1712
 7656SOL    HW134601   2.835   2.569   4.881 -0.8117  0.1184 -1.1420
 7656SOL    HW234602   2.871   2.641   4.757  0.1755 -0.8995 -0.1986
 7657SOL     OW34603   0.968   3.553   1.429 -0.2594 -0.4178  0.4637
 7657SOL    HW134604   0.994   3.612   1.359 -0.1888  2.1167  2.6062
 7657SOL    HW234605   0.994   3.463   1.408 -0.1633  0.0447 -1.3955
 7658SOL     OW34606   0.752   0.049   6.386 -0.4220  0.0974 -0.8511
 7658SOL    HW134607   0.748   0.011   6.473 -0.9766  1.7216 -0.1756
 7658SOL    HW234608   0.671   0.018   6.345  0.3699 -0.7582 -1.7678
 7659SOL     OW34609   0.149   4.341   6.873 -0.0463  0.3130 -0.2156
 7659SOL    HW134610   0.205   4.362   6.799 -0.1812 -0.7847 -0.6359
 7659SOL    HW234611   0.194   4.269   6.918  0.2003 -0.1272 -1.1666
 7660SOL     OW34612   2.312   4.404   7.597 -0.4659 -0.1523 -0.1261
 7660SOL    HW134613   2.382   4.448   7.646 -0.8509 -1.5641  1.7034
 7660SOL    HW234614   2.350   4.395   7.509 -1.2636  0.8702 -0.5756
 7661SOL     OW34615   0.924   1.373   1.997  0.0977  0.1028 -0.5075
 7661SOL    HW134616   0.907   1.393   1.905 -1.5406  1.3584  0.0631
 7661SOL    HW234617   0.877   1.289   2.001  1.0366 -0.4668 -1.5030
 7662SOL     OW34618   4.480   4.689   5.109 -0.2716  0.1754 -0.3084
 7662SOL    HW134619   4.397   4.716   5.069  0.4031  0.2460 -1.6827
 7662SOL    HW234620   4.550   4.711   5.047 -1.5614  0.9805 -1.4641
 7663SOL     OW34621   1.111   1.657  14.841  0.4773  0.4080  0.1994
 7663SOL    HW134622   1.150   1.594  14.781 -0.1777  1.7160 -1.6017
 7663SOL    HW234623   1.066   1.713  14.777 -1.3156 -0.3516  0.8033
 7664SOL     OW34624   1.947   2.312   5.521 -0.0093  0.2744  0.2270
 7664SOL    HW134625   1.934   2.232   5.572 -0.6878 -0.7518 -1.5876
 7664SOL    HW234626   1.858   2.341   5.504  0.4631  2.1578  0.9398
 7665SOL     OW34627   0.786   4.551   8.094 -0.3202  0.0121 -0.0621
 7665SOL    HW134628   0.740   4.482   8.140  0.4096  0.7856  1.8062
 7665SOL    HW234629   0.878   4.526   8.103 -0.1370  0.1427 -1.4269
 7666SOL     OW34630   4.641   3.463  16.162  0.1726 -0.0838 -0.1426
 7666SOL    HW134631   4.571   3.528  16.165  1.1296  0.9301  0.3233
 7666SOL    HW234632   4.612   3.394  16.222  1.4387  1.3461  2.1134
 7667SOL     OW34633   0.440   1.226   6.851 -0.1029  0.2578 -0.5794
 7667SOL    HW134634   0.494   1.300   6.821  2.7034 -1.5428  0.1048
 7667SOL    HW234635   0.458   1.238   6.944 -1.8897 -2.5225  0.1162
 7668SOL     OW34636   1.902   2.868   3.902 -0.4700  0.1500  0.1042
 7668SOL    HW134637   1.815   2.852   3.866 -0.7234 -0.2435  0.8855
 7668SOL    HW234638   1.917   2.789   3.954  0.9102  1.0758  1.1127
 7669SOL     OW34639   0.148   4.427   1.359  0.4382 -0.3656  0.0641
 7669SOL    HW134640   0.062   4.469   1.365 -0.5300 -2.5683  1.2595
 7669SOL    HW234641   0.120   4.338   1.379 -0.5964 -0.3937 -1.4546
 7670SOL     OW34642   0.554   0.268  14.249  0.5307 -0.2574  0.3865
 7670SOL    HW134643   0.529   0.359  14.262  0.5127 -0.5457  2.3722
 7670SOL    HW234644   0.474   0.228  14.216  0.4739  1.8658 -2.0238
 7671SOL     OW34645   2.000   2.237  13.430 -0.1716 -0.2684 -0.2412
 7671SOL    HW134646   1.984   2.230  13.336  0.3368  1.0260 -0.4232
 7671SOL    HW234647   1.916   2.210  13.467 -1.2460  3.0543 -0.2590
 7672SOL     OW34648   4.146   0.302   3.289 -0.4605  0.3948  0.5985
 7672SOL    HW134649   4.072   0.251   3.324  0.0389 -1.4282 -1.0080
 7672SOL    HW234650   4.150   0.262   3.202  0.4859  0.7023  0.4983
 7673SOL     OW34651   4.426   4.123   4.905  0.1731  0.0787  0.0730
 7673SOL    HW134652   4.366   4.114   4.831 -0.0156 -0.6798  0.3134
 7673SOL    HW234653   4.380   4.185   4.962 -0.1737 -1.3433  1.3635
 7674SOL     OW34654   1.308   4.138   3.821  0.3455  0.4992 -0.0604
 7674SOL    HW134655   1.236   4.091   3.863  0.0756 -1.0664 -2.2655
 7674SOL    HW234656   1.278   4.227   3.804 -0.9745  0.1008  0.1449
 7675SOL     OW34657   2.852   1.955   1.819 -0.5400  0.1628 -0.0847
 7675SOL    HW134658   2.878   2.033   1.869  1.7266 -0.8441  0.2978
 7675SOL    HW234659   2.759   1.962   1.798 -0.7066  1.0974  0.9438
 7676SOL     OW34660   1.692   2.499   6.325  0.1968  0.0692 -0.5177
 7676SOL    HW134661   1.715   2.421   6.276  1.2071 -0.2009  0.3805
 7676SOL    HW234662   1.762   2.503   6.390 -0.5509  2.6412  0.1159
 7677SOL     OW34663   3.642   3.532   5.864  0.1220  0.1031 -0.2212
 7677SOL    HW134664   3.618   3.585   5.940  0.9113  0.5528 -0.2803
 7677SOL    HW234665   3.588   3.578   5.800 -1.6744 -1.3250  0.2734
 7678SOL     OW34666   0.222   1.869  10.937 -0.0575  0.6900 -0.4197
 7678SOL    HW134667   0.162   1.837  10.869  0.7787 -1.3894 -0.1782
 7678SOL    HW234668   0.271   1.789  10.952 -2.1364 -0.4379  0.2645
 7679SOL     OW34669   2.741   1.039   8.682  0.6017  0.1818  0.6559
 7679SOL    HW134670   2.747   1.013   8.774 -0.0209  1.6590  1.1278
 7679SOL    HW234671   2.670   1.104   8.685 -0.0018 -0.6363  4.3495
 7680SOL     OW34672   2.169   0.977   6.905  0.3341  0.5027 -0.0579
 7680SOL    HW134673   2.170   0.921   6.827 -0.4252  2.4974 -1.5323
 7680SOL    HW234674   2.172   0.915   6.977 -0.9236 -2.3679 -2.4380
 7681SOL     OW34675   1.250   2.322   8.919  0.2006 -0.1416 -0.2399
 7681SOL    HW134676   1.216   2.335   8.831 -1.3085  0.1214  0.3881
 7681SOL    HW234677   1.174   2.286   8.965  1.7140 -1.0627  1.5421
 7682SOL     OW34678   2.742   0.694   4.870  0.3592 -0.0182 -0.0233
 7682SOL    HW134679   2.673   0.726   4.928  0.2500  0.1825 -0.2665
 7682SOL    HW234680   2.729   0.600   4.886 -0.0731  0.3304  1.6086
 7683SOL     OW34681   1.856   0.818  15.825  0.2325 -0.3675 -0.3846
 7683SOL    HW134682   1.883   0.729  15.848  0.3653 -0.4723 -0.9493
 7683SOL    HW234683   1.760   0.821  15.826  0.2465  0.8942 -2.1837
 7684SOL     OW34684   3.538   0.544   8.191  0.1143  0.3942  0.0939
 7684SOL    HW134685   3.511   0.619   8.137 -0.9087 -0.6099 -0.8034
 7684SOL    HW234686   3.624   0.526   8.152  0.4414 -0.5279  1.2446
 7685SOL     OW34687   0.217   4.099   6.667 -0.4719  0.2282 -0.5730
 7685SOL    HW134688   0.281   4.133   6.605  0.1991 -0.3441 -0.2026
 7685SOL    HW234689   0.260   4.114   6.751  1.0692 -1.0901 -1.1312
 7686SOL     OW34690   1.716   3.260  13.854 -0.6482 -0.3016 -0.7367
 7686SOL    HW134691   1.694   3.348  13.825  0.6956 -0.5385 -2.5051
 7686SOL    HW234692   1.791   3.282  13.910  0.9040 -2.0362 -2.1233
 7687SOL     OW34693   0.975   2.344  14.032  0.1177 -0.0743 -0.3428
 7687SOL    HW134694   0.977   2.315  13.940  0.4979  2.4446 -1.1159
 7687SOL    HW234695   0.885   2.357  14.061  0.5970  3.5222 -0.4942
 7688SOL     OW34696   1.567   3.152   3.933 -0.1132 -0.1401  1.0561
 7688SOL    HW134697   1.540   3.222   3.992  2.3529 -0.1428  2.1809
 7688SOL    HW234698   1.603   3.084   3.990  2.8042  0.0383 -0.5855
 7689SOL     OW34699   0.497   1.341  11.492  0.0257  0.5315 -0.7101
 7689SOL    HW134700   0.542   1.424  11.477  1.1285 -0.0492 -0.6614
 7689SOL    HW234701   0.463   1.360  11.580  2.2634 -0.0509  0.3019
 7690SOL     OW34702   2.950   0.483   2.894 -0.6672 -0.2688  0.1709
 7690SOL    HW134703   2.982   0.465   2.806 -0.5994  0.6559  0.0046
 7690SOL    HW234704   2.932   0.396   2.930  2.1941 -1.1064 -0.4858
 7691SOL     OW34705   1.762   3.089  13.618 -0.3128 -0.0043  0.1496
 7691SOL    HW134706   1.790   3.151  13.685  0.8605 -2.4092  1.8971
 7691SOL    HW234707   1.671   3.074  13.645 -1.1164 -1.3643 -3.2426
 7692SOL     OW34708   3.539   0.430   5.923 -0.0624 -0.0481  0.4373
 7692SOL    HW134709   3.632   0.434   5.903 -0.4965 -0.8551 -1.7134
 7692SOL    HW234710   3.506   0.360   5.868  2.0059  1.6841 -2.9952
 7693SOL     OW34711   0.838   2.888   3.073  0.2232  0.0468 -0.0988
 7693SOL    HW134712   0.860   2.854   3.160  0.0249 -0.2137 -0.1488
 7693SOL    HW234713   0.800   2.975   3.082  1.4749  0.5362  0.5309
 7694SOL     OW34714   1.907   2.619  10.643 -0.8225  0.0901  0.2128
 7694SOL    HW134715   1.930   2.527  10.632 -3.2937 -0.4189 -0.7250
 7694SOL    HW234716   1.830   2.618  10.586 -0.4429 -1.9791 -0.2436
 7695SOL     OW34717   0.876   1.939   5.815 -0.5114  0.0512 -0.0281
 7695SOL    HW134718   0.961   1.946   5.771 -0.1846 -0.4195  0.5260
 7695SOL    HW234719   0.852   2.030   5.829  0.6358  0.7568 -2.7485
 7696SOL     OW34720   0.599   1.106   8.157  0.2524  0.3668 -0.2316
 7696SOL    HW134721   0.546   1.041   8.111 -0.1527 -0.9710  2.1460
 7696SOL    HW234722   0.596   1.181   8.097  0.1189  0.8104  0.3324
 7697SOL     OW34723   3.173   1.214   8.644 -0.4962  0.0324 -0.3480
 7697SOL    HW134724   3.239   1.189   8.580 -0.4948  0.1639 -0.3980
 7697SOL    HW234725   3.183   1.309   8.649  1.1170 -0.2914  2.5234
 7698SOL     OW34726   2.778   0.673   1.738 -0.2727 -0.1404  1.0775
 7698SOL    HW134727   2.707   0.731   1.766  2.6221  3.4711  1.0056
 7698SOL    HW234728   2.774   0.603   1.803 -0.5842 -1.6848 -0.6182
 7699SOL     OW34729   4.675   0.147   3.158  0.6158 -0.1335 -0.2218
 7699SOL    HW134730   4.587   0.145   3.121  1.2729  0.2360 -1.7942
 7699SOL    HW234731   4.678   0.234   3.197 -1.7082 -1.1266  2.1870
 7700SOL     OW34732   3.753   4.270   9.154 -0.0241  0.2939  0.0264
 7700SOL    HW134733   3.810   4.345   9.175  1.0253 -0.0468 -1.5800
 7700SOL    HW234734   3.678   4.289   9.210 -1.1666 -1.4325 -0.9326
 7701SOL     OW34735   2.029   4.317   4.820  0.1729  0.1531  0.6655
 7701SOL    HW134736   2.016   4.343   4.728 -1.5936 -2.2122  0.2208
 7701SOL    HW234737   2.108   4.264   4.816 -0.1353 -0.2318 -0.4019
 7702SOL     OW34738   3.493   4.331   5.125  0.3133 -0.1405 -0.6166
 7702SOL    HW134739   3.478   4.273   5.051  2.5394 -1.1804 -0.2747
 7702SOL    HW234740   3.528   4.408   5.080 -2.7053  0.1719 -2.4448
 7703SOL     OW34741   2.484   2.667   5.571  0.9607  0.0753 -0.0937
 7703SOL    HW134742   2.413   2.619   5.529  0.6572  0.3335  0.1307
 7703SOL    HW234743   2.432   2.700   5.645 -0.4505 -2.0271 -0.1700
 7704SOL     OW34744   3.151   3.856   7.035  0.2695 -0.0893 -0.4121
 7704SOL    HW134745   3.145   3.772   7.080 -0.1594 -0.3876 -1.0175
 7704SOL    HW234746   3.206   3.825   6.963  0.2475  0.8586 -0.8423
 7705SOL     OW34747   3.464   1.759  11.311  0.7297  0.1502  0.3215
 7705SOL    HW134748   3.468   1.798  11.399  3.0730  0.0029  0.2854
 7705SOL    HW234749   3.543   1.794  11.270  1.9102 -0.6412  1.9016
 7706SOL     OW34750   3.456   0.329  11.577 -0.4263 -0.0373 -0.0268
 7706SOL    HW134751   3.515   0.267  11.620  0.4328 -1.4841 -3.3122
 7706SOL    HW234752   3.371   0.283  11.580  0.1033 -1.0882 -1.0946
 7707SOL     OW34753   4.290   4.270   4.022  0.8626  0.5410 -0.0226
 7707SOL    HW134754   4.370   4.227   3.991  0.3071 -0.4437 -0.0838
 7707SOL    HW234755   4.255   4.300   3.938  1.8051  2.6481  0.3331
 7708SOL     OW34756   3.845   2.039   5.795 -0.2388  0.6774 -0.4889
 7708SOL    HW134757   3.794   2.097   5.739 -1.2688 -1.0414 -1.3332
 7708SOL    HW234758   3.803   1.959   5.764 -0.8687  1.0671 -0.6570
 7709SOL     OW34759   1.839   3.313  17.385 -0.2844  0.4606 -0.6674
 7709SOL    HW134760   1.891   3.281  17.312  0.6952 -2.4238  1.2719
 7709SOL    HW234761   1.909   3.339  17.444 -0.0554 -1.3479 -0.1196
 7710SOL     OW34762   2.021   3.793   4.971  0.1485 -0.2510  0.2080
 7710SOL    HW134763   1.966   3.786   5.049 -1.1839 -1.1492 -0.8181
 7710SOL    HW234764   1.974   3.731   4.915 -0.0120 -1.2935  1.4872
 7711SOL     OW34765   2.601   3.338   5.742  0.4330  0.0794  0.2954
 7711SOL    HW134766   2.541   3.402   5.705 -0.3472 -0.7385  0.1553
 7711SOL    HW234767   2.668   3.392   5.784  1.3769  1.1650 -2.5735
 7712SOL     OW34768   2.331   3.347  17.327  0.2629  0.0977 -0.4414
 7712SOL    HW134769   2.383   3.293  17.268 -0.2220 -1.6332  0.7439
 7712SOL    HW234770   2.381   3.330  17.406 -1.3112  1.1039  0.7816
 7713SOL     OW34771   4.395   3.123   6.120 -0.4049  0.1704  0.6907
 7713SOL    HW134772   4.324   3.182   6.094 -0.7711 -0.4326  0.3260
 7713SOL    HW234773   4.437   3.090   6.040 -0.3094  1.6958  0.1101
 7714SOL     OW34774   4.121   2.726   7.491  0.1875  0.7285  0.4308
 7714SOL    HW134775   4.050   2.785   7.520 -0.5240  0.1972 -0.2405
 7714SOL    HW234776   4.179   2.753   7.562 -1.3257 -0.0235  1.9610
 7715SOL     OW34777   1.726   3.426   2.582  0.4213 -0.1228  0.2851
 7715SOL    HW134778   1.721   3.515   2.618  1.1187  0.2982 -0.6406
 7715SOL    HW234779   1.719   3.373   2.661 -1.7276  1.5809  1.2470
 7716SOL     OW34780   1.807   1.735  11.753 -0.1595  0.2229  0.0994
 7716SOL    HW134781   1.723   1.773  11.726 -0.3800  1.0692  1.9770
 7716SOL    HW234782   1.857   1.743  11.672 -2.4203  1.5918 -1.1701
 7717SOL     OW34783   1.052   0.858   7.422 -0.4913 -0.0314  0.3543
 7717SOL    HW134784   1.139   0.859   7.461  0.0099  1.2943 -0.7714
 7717SOL    HW234785   1.038   0.948   7.392 -0.9168 -0.6125 -1.1968
 7718SOL     OW34786   1.458   2.971   2.887  0.1534 -0.2774 -0.2056
 7718SOL    HW134787   1.471   2.961   2.793  1.3421 -1.2340  0.0559
 7718SOL    HW234788   1.542   3.009   2.914  0.1206  0.7324 -1.5072
 7719SOL     OW34789   3.982   0.661   3.516  0.2651 -0.0213 -0.2492
 7719SOL    HW134790   4.022   0.748   3.512 -0.3286  0.3157  0.9008
 7719SOL    HW234791   4.056   0.607   3.543  1.9817  0.9259 -3.0947
 7720SOL     OW34792   2.078   2.723  14.173  0.2255  0.0648 -0.1300
 7720SOL    HW134793   2.096   2.814  14.198  0.2025 -0.7596  2.8616
 7720SOL    HW234794   2.123   2.676  14.243 -0.1469 -1.5937 -1.0123
 7721SOL     OW34795   2.544   1.907   7.670  0.2732  0.1758  0.9007
 7721SOL    HW134796   2.530   1.828   7.723  3.0496 -0.3507  0.8321
 7721SOL    HW234797   2.456   1.944   7.668  0.2326 -0.1260 -2.6015
 7722SOL     OW34798   3.480   2.147   7.714 -0.4719 -0.1111 -0.0921
 7722SOL    HW134799   3.412   2.137   7.648 -1.2970 -2.8592  1.1935
 7722SOL    HW234800   3.432   2.215   7.761 -1.4950  0.4615 -1.9996
 7723SOL     OW34801   4.449   0.580   7.802 -0.1412 -0.1381  0.2618
 7723SOL    HW134802   4.527   0.612   7.757 -1.0506  1.4062 -0.2270
 7723SOL    HW234803   4.391   0.604   7.730 -0.1528  0.5038  0.4906
 7724SOL     OW34804   4.689   2.048   0.282  0.5079 -0.2186 -0.8580
 7724SOL    HW134805   4.671   1.954   0.272 -2.8763  0.2995  0.4803
 7724SOL    HW234806   0.041   2.041   0.303  0.7393  0.1242 -1.7457
 7725SOL     OW34807   1.626   0.043   5.066 -0.1408 -0.3956  0.4749
 7725SOL    HW134808   1.620   0.034   4.971  0.2559  1.7979  0.2585
 7725SOL    HW234809   1.701   4.725   5.080  0.0280 -0.0986  0.8086
 7726SOL     OW34810   2.464   4.196  15.737  0.1974  0.5323  0.3462
 7726SOL    HW134811   2.515   4.130  15.689  1.4647  2.4173 -0.9128
 7726SOL    HW234812   2.441   4.153  15.819  1.5970 -1.4712 -0.3231
 7727SOL     OW34813   2.595   4.404  15.038 -0.0400 -0.0438 -0.0807
 7727SOL    HW134814   2.626   4.472  14.978 -1.5371 -0.8454 -1.7490
 7727SOL    HW234815   2.523   4.453  15.079 -0.8626  0.3746 -2.0427
 7728SOL     OW34816   0.110   0.609   8.084 -0.0969 -0.0142  0.5804
 7728SOL    HW134817   0.033   0.657   8.113  0.0911 -0.3104  1.5663
 7728SOL    HW234818   0.094   0.520   8.115  1.1000 -0.6824 -0.7384
 7729SOL     OW34819   2.733   2.337   7.165 -0.4453 -0.3722  0.2358
 7729SOL    HW134820   2.686   2.266   7.121  2.4777 -1.1590 -1.6722
 7729SOL    HW234821   2.655   2.393   7.162  1.7125  2.6820  0.6789
 7730SOL     OW34822   4.256   2.486   2.177 -0.1661 -0.1916  0.3491
 7730SOL    HW134823   4.348   2.460   2.182  0.0100  0.5950  1.1045
 7730SOL    HW234824   4.228   2.431   2.104 -1.2763  0.9773 -0.1081
 7731SOL     OW34825   2.313   0.786   7.613  0.2531  0.2414  0.9105
 7731SOL    HW134826   2.253   0.783   7.539 -0.2278  2.5580  1.1953
 7731SOL    HW234827   2.254   0.754   7.681  2.9947 -2.0937  2.2058
 7732SOL     OW34828   0.221   3.241  17.304 -0.4049 -0.2455 -0.0152
 7732SOL    HW134829   0.283   3.311  17.284  0.6098 -1.5653 -1.4453
 7732SOL    HW234830   0.140   3.289  17.322 -0.1834 -0.0954  0.5980
 7733SOL     OW34831   4.691   3.639   1.409 -0.1184  0.3676  0.4913
 7733SOL    HW134832   4.701   3.730   1.438 -0.3268  0.8610 -0.9834
 7733SOL    HW234833   4.641   3.637   1.328  1.4295  3.8546 -0.5638
 7734SOL     OW34834   2.424   3.522   6.051 -0.0252 -0.7110  0.0954
 7734SOL    HW134835   2.357   3.586   6.029 -2.9714 -3.6179  0.7043
 7734SOL    HW234836   2.451   3.539   6.141  1.7893 -1.6921 -0.2455
 7735SOL     OW34837   2.098   0.678   4.472  0.1339  0.2919 -0.1484
 7735SOL    HW134838   2.108   0.636   4.387  0.3999 -1.1219  0.5718
 7735SOL    HW234839   2.158   0.752   4.462  0.8700 -0.3203 -0.2503
 7736SOL     OW34840   4.414   1.647   2.109  1.1100 -0.4392 -0.5782
 7736SOL    HW134841   4.450   1.588   2.175 -0.0100 -0.0423  0.3814
 7736SOL    HW234842   4.348   1.696   2.158  0.9665 -0.9383 -0.2860
 7737SOL     OW34843   0.335   4.184   1.602  0.1267 -0.0331  0.1562
 7737SOL    HW134844   0.384   4.175   1.684 -0.3616  1.4566  0.6017
 7737SOL    HW234845   0.385   4.115   1.558 -1.1934 -0.5060 -0.6290
 7738SOL     OW34846   2.150   1.493   1.919 -0.2656  0.1745  0.0785
 7738SOL    HW134847   2.207   1.449   1.855 -0.8067  2.0642 -1.6717
 7738SOL    HW234848   2.074   1.435   1.919 -0.9090  1.0081  1.5018
 7739SOL     OW34849   1.040   3.389  15.950  0.2903  0.2686 -0.1366
 7739SOL    HW134850   1.074   3.443  16.021  0.4286  1.9636 -1.4803
 7739SOL    HW234851   0.957   3.358  15.987  1.1938 -0.7354  1.0096
 7740SOL     OW34852   1.161   0.238  11.729  0.3887 -0.3746  0.1456
 7740SOL    HW134853   1.101   0.313  11.736 -1.8223 -2.1993  0.8534
 7740SOL    HW234854   1.243   0.283  11.749  0.6025  0.6187 -2.9882
 7741SOL     OW34855   3.043   0.790   3.588 -0.1576  0.6345 -0.4869
 7741SOL    HW134856   2.957   0.799   3.547  0.5994  2.0396 -1.7575
 7741SOL    HW234857   3.072   0.881   3.579  3.5682 -0.5421 -0.0164
 7742SOL     OW34858   3.524   4.720   6.066  0.0121 -0.0020 -0.4237
 7742SOL    HW134859   3.453   4.737   6.129  2.0161  2.2942  1.1922
 7742SOL    HW234860   3.601   4.710   6.122  0.2788 -1.0179 -0.9677
 7743SOL     OW34861   2.319   1.741  16.516 -0.6050  0.0539 -0.3032
 7743SOL    HW134862   2.290   1.710  16.430  2.8857 -5.0770  0.4136
 7743SOL    HW234863   2.235   1.749  16.562  0.1646  0.1216  1.0822
 7744SOL     OW34864   2.387   2.879  14.832  0.0991 -0.0303  0.0229
 7744SOL    HW134865   2.456   2.906  14.894 -0.2523  0.9311 -0.0090
 7744SOL    HW234866   2.308   2.887  14.886 -0.1133  1.0582 -0.4481
 7745SOL     OW34867   2.054   4.499   7.515  0.3062 -0.3274  0.6107
 7745SOL    HW134868   2.146   4.483   7.539  0.6357  0.4131 -0.1610
 7745SOL    HW234869   2.003   4.470   7.590 -0.5421 -3.1454 -1.0592
 7746SOL     OW34870   3.862   2.436   9.022  0.8065 -0.6292 -0.1677
 7746SOL    HW134871   3.891   2.474   8.939  0.8452  1.4190  0.8069
 7746SOL    HW234872   3.948   2.404   9.050  0.7033  0.5990  1.5290
 7747SOL     OW34873   2.083   1.573   3.017 -0.6695  0.3320 -0.4210
 7747SOL    HW134874   2.027   1.584   2.940 -1.1541  0.3709 -0.0655
 7747SOL    HW234875   2.112   1.664   3.026 -2.8353  0.8160  1.7363
 7748SOL     OW34876   3.399   1.545   5.323 -0.2625  0.2987 -0.0130
 7748SOL    HW134877   3.482   1.548   5.275 -1.0856  0.9535 -1.4147
 7748SOL    HW234878   3.387   1.452   5.339 -3.2273  0.7943  0.6827
 7749SOL     OW34879   2.930   3.232   5.855 -0.0369  0.5162 -0.3657
 7749SOL    HW134880   2.857   3.286   5.824  1.0567  0.2626 -3.3560
 7749SOL    HW234881   2.897   3.192   5.936 -0.2289  1.9681  0.2831
 7750SOL     OW34882   4.562   1.304   0.639 -0.2776 -0.0220 -0.4236
 7750SOL    HW134883   4.481   1.326   0.592 -0.3037 -1.8092 -1.2383
 7750SOL    HW234884   4.563   1.212   0.610  1.3708  0.0113 -0.4603
 7751SOL     OW34885   2.935   2.984   5.388  0.2277  0.5343 -0.4939
 7751SOL    HW134886   2.948   3.017   5.299  2.3323  4.3701  1.2264
 7751SOL    HW234887   3.023   2.999   5.424  0.6519 -0.9186 -0.9080
 7752SOL     OW34888   2.275   4.130   8.441  0.3316 -0.5560  0.0566
 7752SOL    HW134889   2.221   4.159   8.368  0.4642 -0.0078  0.1801
 7752SOL    HW234890   2.237   4.057   8.492 -0.0687 -1.4214 -1.4851
 7753SOL     OW34891   1.207   4.698   7.257 -0.2661  0.1879  0.1386
 7753SOL    HW134892   1.180   4.669   7.171  3.0558 -1.1122 -0.4617
 7753SOL    HW234893   1.288   0.008   7.249  1.7047 -3.0776 -0.5088
 7754SOL     OW34894   0.116   1.627  16.783 -0.2179 -0.2246  0.5519
 7754SOL    HW134895   0.169   1.706  16.788  1.1118 -1.2095  2.1347
 7754SOL    HW234896   0.142   1.568  16.855 -4.1349 -2.5736  0.0101
 7755SOL     OW34897   3.160   3.044   7.687  0.0666 -0.3797  0.3972
 7755SOL    HW134898   3.200   2.958   7.691  0.2692 -0.3037 -0.0012
 7755SOL    HW234899   3.232   3.105   7.669  1.4096 -1.5908  1.6901
 7756SOL     OW34900   0.194   2.258  10.640  0.1380  0.4921  0.5226
 7756SOL    HW134901   0.285   2.288  10.645 -0.3631  2.0226  0.5918
 7756SOL    HW234902   0.141   2.336  10.659  0.5700  0.4652  1.8174
 7757SOL     OW34903   4.692   3.541   7.275 -0.2276  0.2312 -1.3373
 7757SOL    HW134904   0.040   3.507   7.290  0.3659  2.3884  0.0877
 7757SOL    HW234905   4.662   3.558   7.364 -0.2144 -2.9473 -0.7286
 7758SOL     OW34906   2.860   1.946   7.965  0.0982 -0.1866 -0.5731
 7758SOL    HW134907   2.775   1.941   8.008  0.5857  0.8368  0.5438
 7758SOL    HW234908   2.899   2.020   8.012  0.4634 -0.8599  0.1825
 7759SOL     OW34909   1.921   1.973   2.687 -0.2801 -0.4878 -0.5855
 7759SOL    HW134910   1.951   1.982   2.597  1.3925  2.7229  0.2708
 7759SOL    HW234911   1.933   1.879   2.698  1.0331 -0.1381  1.0833
 7760SOL     OW34912   3.465   1.260   1.710  0.4523  0.4699 -0.3797
 7760SOL    HW134913   3.412   1.184   1.734 -0.3414  0.9115 -0.7342
 7760SOL    HW234914   3.466   1.320   1.784 -2.3208  0.5922 -0.4355
 7761SOL     OW34915   1.061   1.305  15.001  0.1801  0.1841 -0.1023
 7761SOL    HW134916   1.092   1.367  14.934  2.7595 -3.8044 -2.5815
 7761SOL    HW234917   0.968   1.330  15.007  0.2527  0.9083 -1.8251
 7762SOL     OW34918   1.339   2.443   5.399  0.8952  0.0038  0.0468
 7762SOL    HW134919   1.344   2.348   5.388 -1.0389 -0.1170  0.2416
 7762SOL    HW234920   1.244   2.453   5.395  0.5807 -2.5787  0.5399
 7763SOL     OW34921   3.496   1.394   6.294 -0.3981 -0.8983  0.3833
 7763SOL    HW134922   3.497   1.464   6.359 -0.8385  0.2411 -0.8365
 7763SOL    HW234923   3.590   1.373   6.289 -0.3885 -0.6474 -0.6721
 7764SOL     OW34924   2.528   2.758   4.368 -0.3329 -0.6923 -0.1997
 7764SOL    HW134925   2.581   2.702   4.426  0.1990  0.6293  0.5926
 7764SOL    HW234926   2.447   2.765   4.419 -0.6865  0.0318 -0.8732
 7765SOL     OW34927   2.247   3.702   8.328 -0.3646 -0.2142 -0.0727
 7765SOL    HW134928   2.192   3.751   8.266 -1.9186 -2.0926 -0.1957
 7765SOL    HW234929   2.227   3.741   8.413  0.4096  0.1574 -0.0612
 7766SOL     OW34930   0.884   0.489   6.864 -0.1528 -0.2645  0.3605
 7766SOL    HW134931   0.970   0.497   6.824 -1.1631  2.7090 -1.1815
 7766SOL    HW234932   0.875   0.581   6.887  0.9075 -0.6236  2.2284
 7767SOL     OW34933   4.156   4.176   8.945 -0.5569 -0.1051 -0.0339
 7767SOL    HW134934   4.133   4.087   8.918  0.1526 -0.0332 -0.8546
 7767SOL    HW234935   4.106   4.222   8.877  1.0787  0.2497 -0.9718
 7768SOL     OW34936   2.546   2.988  15.366 -0.4708  0.7102 -0.1404
 7768SOL    HW134937   2.628   2.988  15.315 -0.5965  0.8622 -0.3399
 7768SOL    HW234938   2.564   2.919  15.430  1.3560  2.8243  1.6226
 7769SOL     OW34939   3.161   0.124   1.975 -0.2368 -0.6783  0.1940
 7769SOL    HW134940   3.243   0.148   1.932  0.5882 -0.3792  1.9225
 7769SOL    HW234941   3.179   0.043   2.023 -1.1971 -0.4834  0.8897
 7770SOL     OW34942   1.858   2.047   7.396 -0.0180  0.1388  0.0920
 7770SOL    HW134943   1.930   2.071   7.337  1.3051 -2.7137  0.5517
 7770SOL    HW234944   1.898   1.982   7.453 -1.1636  1.4313  2.3412
 7771SOL     OW34945   3.793   2.496   5.695  0.4512  0.0710  0.1694
 7771SOL    HW134946   3.849   2.539   5.631 -0.3344 -0.4773 -0.8824
 7771SOL    HW234947   3.837   2.529   5.773 -0.4390  2.0301 -0.1554
 7772SOL     OW34948   0.065   3.065   8.534 -0.2506  0.2058  0.8859
 7772SOL    HW134949   0.061   3.019   8.450  0.2932  1.3660  0.2334
 7772SOL    HW234950   0.081   3.152   8.498 -0.1083 -0.9283 -1.8036
 7773SOL     OW34951   1.728   4.719   9.898 -0.3671  0.2373  0.4977
 7773SOL    HW134952   1.814   4.683   9.875 -0.1919  0.1752  1.2435
 7773SOL    HW234953   1.749   0.072   9.892 -2.1558  0.6026  0.0255
 7774SOL     OW34954   4.663   0.694   0.221 -0.1825 -0.1619 -0.0023
 7774SOL    HW134955   4.666   0.598   0.223 -0.7979 -0.1806 -0.2299
 7774SOL    HW234956   4.720   0.706   0.145 -1.8119  0.1998 -1.1602
 7775SOL     OW34957   2.107   2.894   2.446 -0.2452 -0.0438 -0.2101
 7775SOL    HW134958   2.156   2.914   2.367 -1.2914  0.4148 -0.7439
 7775SOL    HW234959   2.180   2.905   2.507 -0.5979 -0.4741  0.2980
 7776SOL     OW34960   4.363   2.901  10.255  0.3683 -0.0275 -0.4932
 7776SOL    HW134961   4.426   2.865  10.317 -0.2943  0.9178  0.7289
 7776SOL    HW234962   4.378   2.849  10.176  0.9503 -2.0248  0.9373
 7777SOL     OW34963   2.834   0.795   2.330 -0.1619  0.0617  0.2353
 7777SOL    HW134964   2.777   0.826   2.400  0.3176 -0.0556  0.6729
 7777SOL    HW234965   2.776   0.819   2.258 -0.2588  1.5090  0.7945
 7778SOL     OW34966   2.574   0.176  12.456  0.1857  0.0617 -0.0034
 7778SOL    HW134967   2.640   0.110  12.476 -0.1312 -0.1906  0.2060
 7778SOL    HW234968   2.572   0.149  12.364  1.5440  0.8929 -0.2730
 7779SOL     OW34969   3.770   4.071   8.736 -0.7444 -0.1660 -0.0517
 7779SOL    HW134970   3.744   4.082   8.645 -1.3074 -0.5583  0.0600
 7779SOL    HW234971   3.806   3.983   8.732  2.3778  1.0920  0.8179
 7780SOL     OW34972   4.682   0.398   6.785  0.0614  0.2932  0.1422
 7780SOL    HW134973   0.024   0.403   6.736  0.2276 -0.3267  0.3506
 7780SOL    HW234974   4.712   0.417   6.873  1.1205  0.6128 -0.2867
 7781SOL     OW34975   2.568   1.377   2.016 -0.6618 -0.4917  0.5353
 7781SOL    HW134976   2.620   1.322   2.076 -1.8760  0.0975  2.1058
 7781SOL    HW234977   2.488   1.392   2.065 -0.1101  0.3157  1.1833
 7782SOL     OW34978   0.259   4.554  14.321  0.4974  0.4179  0.2047
 7782SOL    HW134979   0.185   4.520  14.271 -0.5759  1.8154  0.8624
 7782SOL    HW234980   0.205   4.570  14.398  0.0260 -1.8792  0.3596
 7783SOL     OW34981   0.368   1.002   3.414 -0.9665  0.4425  0.1381
 7783SOL    HW134982   0.431   1.070   3.436 -2.0664  1.5873 -0.2760
 7783SOL    HW234983   0.397   0.940   3.482 -0.9266 -0.8216 -1.0309
 7784SOL     OW34984   0.899   0.304   4.498 -0.6145  0.8389  0.3516
 7784SOL    HW134985   0.972   0.352   4.461  0.1977  0.5622  1.5867
 7784SOL    HW234986   0.841   0.294   4.422  0.2221  0.0407 -0.1803
 7785SOL     OW34987   0.473   1.385   4.453  0.7574 -0.0286  0.4521
 7785SOL    HW134988   0.449   1.336   4.532 -2.1588  0.9233  0.1472
 7785SOL    HW234989   0.468   1.476   4.484 -2.1492  0.0434 -0.2131
 7786SOL     OW34990   4.242   0.709   7.255 -0.0132  0.3513 -0.6211
 7786SOL    HW134991   4.336   0.694   7.254 -0.2273 -1.0958 -0.1965
 7786SOL    HW234992   4.206   0.630   7.214  0.1816  0.1799 -0.4572
 7787SOL     OW34993   4.208   0.371   8.180 -0.2459 -0.2321  0.0494
 7787SOL    HW134994   4.302   0.389   8.173 -0.3653  1.0601  1.8592
 7787SOL    HW234995   4.165   0.438   8.127 -1.9668 -0.6885  0.8626
 7788SOL     OW34996   1.090   0.584   8.151 -0.1586 -0.5904  0.3950
 7788SOL    HW134997   1.057   0.494   8.144  1.9028 -1.2704 -0.5279
 7788SOL    HW234998   1.086   0.598   8.246 -0.4721  0.0340  0.2848
 7789SOL     OW34999   3.858   3.377  11.238  0.1675  0.6171 -0.3930
 7789SOL    HW135000   3.915   3.385  11.161 -1.0034  0.9379 -1.2268
 7789SOL    HW235001   3.864   3.284  11.259 -1.8515  0.4533 -0.5455
 7790SOL     OW35002   4.626   1.199   5.304  0.3985  0.2216  0.4815
 7790SOL    HW135003   4.591   1.111   5.318  1.5441 -0.3005  0.0294
 7790SOL    HW235004   4.672   1.217   5.386  0.8929 -1.0905  0.4890
 7791SOL     OW35005   3.473   0.263   1.964 -0.1339  0.0747 -0.2376
 7791SOL    HW135006   3.558   0.228   1.936 -0.5523 -1.8615  0.9075
 7791SOL    HW235007   3.420   0.261   1.884 -0.4275  0.1649 -0.0430
 7792SOL     OW35008   3.730   2.235   5.640  0.5102  0.2406  0.1831
 7792SOL    HW135009   3.733   2.328   5.662  0.0585  0.3429 -0.2068
 7792SOL    HW235010   3.656   2.227   5.580  0.4434  2.5087 -0.0097
 7793SOL     OW35011   2.151   0.141   2.675  0.4067  0.2963 -0.1870
 7793SOL    HW135012   2.188   0.152   2.587  0.0998  0.8270 -0.2523
 7793SOL    HW235013   2.077   0.082   2.658  0.5571  0.6406 -2.0154
 7794SOL     OW35014   2.431   2.592   6.199 -0.0167 -0.0991 -0.0085
 7794SOL    HW135015   2.406   2.667   6.254  0.9049  1.6566 -1.9772
 7794SOL    HW235016   2.500   2.557   6.255 -1.7806  0.0565  2.2740
 7795SOL     OW35017   1.831   3.805  12.955  0.1864  0.1202 -0.0543
 7795SOL    HW135018   1.920   3.772  12.963 -0.0360 -0.3139  0.5654
 7795SOL    HW235019   1.823   3.862  13.032 -1.8396 -0.6214  0.2962
 7796SOL     OW35020   0.155   4.122   4.751  0.2714  0.0145 -0.4057
 7796SOL    HW135021   0.203   4.109   4.668  1.3060 -1.2638  0.3882
 7796SOL    HW235022   0.209   4.090   4.823  1.4772 -0.4959 -1.5201
 7797SOL     OW35023   4.516   1.393   7.253  0.4755 -0.1650 -0.3027
 7797SOL    HW135024   4.438   1.368   7.304  0.8516 -0.3295  0.1895
 7797SOL    HW235025   4.478   1.474   7.218  0.8393  0.2709  0.3116
 7798SOL     OW35026   3.205   1.190  13.976  0.4375  0.3035 -0.1188
 7798SOL    HW135027   3.164   1.181  14.062 -1.2002 -0.6450 -0.9838
 7798SOL    HW235028   3.298   1.211  13.986  1.0170 -1.6505 -1.3550
 7799SOL     OW35029   1.628   2.002  10.292  0.4958  0.0337  0.0973
 7799SOL    HW135030   1.694   2.011  10.360  1.8962  1.8734 -1.5086
 7799SOL    HW235031   1.646   1.912  10.265 -1.5565 -0.1487 -0.6926
 7800SOL     OW35032   3.128   2.684  16.118  0.7406  0.0608 -0.3466
 7800SOL    HW135033   3.059   2.626  16.149 -0.1838  1.0210 -0.5994
 7800SOL    HW235034   3.152   2.633  16.041 -2.5929 -0.7678 -0.8100
 7801SOL     OW35035   1.572   2.727   0.716 -0.1250 -0.4996  0.2624
 7801SOL    HW135036   1.543   2.648   0.761  0.4448 -0.4582  0.6962
 7801SOL    HW235037   1.630   2.679   0.657  1.3999  1.5818  0.1000
 7802SOL     OW35038   0.550   3.280  11.716  0.1946 -0.3921  0.5186
 7802SOL    HW135039   0.559   3.219  11.790 -1.4455  0.1697  1.1666
 7802SOL    HW235040   0.639   3.316  11.716 -0.5925  1.5276 -0.3096
 7803SOL     OW35041   1.332   2.779   3.156  0.2417  0.1607 -0.3413
 7803SOL    HW135042   1.426   2.781   3.175  0.2248 -1.2257 -0.1626
 7803SOL    HW235043   1.316   2.873   3.142  1.5148  0.0207 -2.9035
 7804SOL     OW35044   4.381   0.693   8.046 -0.6266 -0.2396  0.1588
 7804SOL    HW135045   4.292   0.665   8.026 -0.5431  1.4554 -2.7157
 7804SOL    HW235046   4.424   0.634   7.984 -0.9879  0.4013 -0.7032
 7805SOL     OW35047   1.056   2.670   2.521 -0.4223  0.2988 -0.6485
 7805SOL    HW135048   0.989   2.638   2.582 -1.0404  1.9936 -0.4451
 7805SOL    HW235049   1.131   2.695   2.574 -0.5752  1.5730 -1.0382
 7806SOL     OW35050   3.165   3.786   9.351  0.1597 -0.0458 -0.3881
 7806SOL    HW135051   3.179   3.730   9.427  0.3585  2.0771  1.1522
 7806SOL    HW235052   3.227   3.855   9.376  0.3240  0.3188 -1.7817
 7807SOL     OW35053   1.714   0.374   3.156  0.0068  0.7369  0.6582
 7807SOL    HW135054   1.768   0.453   3.160 -0.4294  1.1309 -1.0432
 7807SOL    HW235055   1.753   0.324   3.227  0.6670  0.2356 -0.0663
 7808SOL     OW35056   2.519   4.404  11.861 -0.4746  0.4075  0.4545
 7808SOL    HW135057   2.607   4.425  11.893 -0.6241 -1.5604  2.1654
 7808SOL    HW235058   2.534   4.324  11.812 -0.3939 -0.5103  1.9943
 7809SOL     OW35059   2.479   3.413   2.960 -0.4317 -0.2318 -0.7128
 7809SOL    HW135060   2.396   3.446   2.996 -0.2790  0.2017 -0.7544
 7809SOL    HW235061   2.543   3.439   3.026 -2.0956  2.2172 -0.0731
 7810SOL     OW35062   2.846   0.998   6.941  0.2374  0.4810 -0.4875
 7810SOL    HW135063   2.796   0.981   6.862 -1.7247  0.9780  0.6471
 7810SOL    HW235064   2.784   0.972   7.010 -0.0516  3.1576  0.2657
 7811SOL     OW35065   0.512   1.163   4.271  0.1103  0.5947  0.1616
 7811SOL    HW135066   0.495   1.237   4.330 -0.0685  1.4084 -0.9254
 7811SOL    HW235067   0.607   1.159   4.281  0.1013  0.6528  0.2754
 7812SOL     OW35068   3.196   2.264   4.974  0.0192  0.1337  0.1955
 7812SOL    HW135069   3.250   2.185   4.976  1.9342  1.4510  0.5307
 7812SOL    HW235070   3.193   2.290   5.066 -3.4534  0.3540  0.0282
 7813SOL     OW35071   2.782   2.140   2.040 -0.0972  0.1215 -0.0493
 7813SOL    HW135072   2.698   2.139   1.994  0.4385 -1.3629 -0.9930
 7813SOL    HW235073   2.747   2.148   2.129  0.4656 -1.9946  0.3580
 7814SOL     OW35074   4.030   0.654   5.236 -0.5895  0.4093  0.8517
 7814SOL    HW135075   4.085   0.602   5.178 -0.9823 -1.2160  1.9347
 7814SOL    HW235076   3.977   0.702   5.172  1.6558 -1.5432 -2.4559
 7815SOL     OW35077   2.587   2.426   9.507 -0.3769  0.0646  0.0446
 7815SOL    HW135078   2.593   2.493   9.440 -2.5663  1.3426  1.1341
 7815SOL    HW235079   2.647   2.455   9.576  0.7408 -1.4990 -0.2447
 7816SOL     OW35080   0.142   1.515   6.975 -0.0853 -0.3441  0.4621
 7816SOL    HW135081   0.099   1.437   6.940 -0.2468  0.2495 -0.6504
 7816SOL    HW235082   0.117   1.580   6.910  1.5197  0.7553  0.9525
 7817SOL     OW35083   4.238   3.069   0.025  0.2685  0.5551 -0.1246
 7817SOL    HW135084   4.239   3.037   0.115  0.0286 -0.1132 -0.3605
 7817SOL    HW235085   4.186   3.149   0.033 -0.1436  0.1169  1.5209
 7818SOL     OW35086   1.365   3.786   7.937 -0.0510 -0.0809  0.2525
 7818SOL    HW135087   1.442   3.772   7.993 -0.9780 -3.2876  0.7161
 7818SOL    HW235088   1.386   3.877   7.913 -2.6497  0.3928 -0.2610
 7819SOL     OW35089   4.221   1.073   3.060 -0.2757  0.2202 -0.0415
 7819SOL    HW135090   4.285   1.079   3.132 -1.5847  0.1261  1.1273
 7819SOL    HW235091   4.149   1.031   3.106 -1.1744 -0.5026 -2.1463
 7820SOL     OW35092   4.335   4.400   6.292 -0.1410  0.1147 -0.7448
 7820SOL    HW135093   4.309   4.492   6.301 -1.1981  0.0231 -3.0087
 7820SOL    HW235094   4.431   4.407   6.289 -0.1246 -0.2571 -1.0820
 7821SOL     OW35095   1.911   2.825   7.981  0.1398  0.0891 -0.1666
 7821SOL    HW135096   1.940   2.910   8.014 -2.3703  0.8560  0.0569
 7821SOL    HW235097   1.915   2.843   7.887 -1.6081 -0.8788 -0.4178
 7822SOL     OW35098   3.588   0.673   3.433  0.1112 -0.1807  0.6326
 7822SOL    HW135099   3.535   0.677   3.353  0.9635  3.0400  0.2445
 7822SOL    HW235100   3.565   0.758   3.470 -1.9024 -1.0523  1.3928
 7823SOL     OW35101   3.316   1.348   4.356 -0.1899  0.1966  0.2861
 7823SOL    HW135102   3.399   1.369   4.399  0.9897 -0.4345 -1.6911
 7823SOL    HW235103   3.338   1.366   4.265  1.2329 -0.1381  0.5747
 7824SOL     OW35104   1.717   1.046  10.914  0.0866  0.4100 -0.0793
 7824SOL    HW135105   1.717   1.128  10.963 -1.6807 -0.3061  1.0884
 7824SOL    HW235106   1.801   1.043  10.868  0.4152  0.4378  0.5293
 7825SOL     OW35107   3.533   3.793   9.580  0.2408  0.4333 -0.6332
 7825SOL    HW135108   3.490   3.778   9.665 -1.2678 -0.9410 -1.6361
 7825SOL    HW235109   3.626   3.779   9.596  0.0028  0.8220  1.1077
 7826SOL     OW35110   2.557   3.063   2.820 -0.3964 -0.0623  0.2075
 7826SOL    HW135111   2.588   3.021   2.740  0.2871 -0.7478  0.8267
 7826SOL    HW235112   2.602   3.147   2.822  1.2770 -0.9615  0.0409
 7827SOL     OW35113   2.218   2.610   8.209 -0.1872 -0.5874  0.5214
 7827SOL    HW135114   2.286   2.677   8.220 -0.1577 -0.1870 -2.1460
 7827SOL    HW235115   2.221   2.567   8.294  0.3639 -0.5836  0.5024
 7828SOL     OW35116   3.644   0.698   6.928 -0.5166  0.0769 -0.4444
 7828SOL    HW135117   3.597   0.780   6.943  0.2511 -0.0006  2.4237
 7828SOL    HW235118   3.680   0.685   7.016 -1.1906  0.2317 -0.1493
 7829SOL     OW35119   3.524   2.505   7.297  0.6591 -0.5084  0.0114
 7829SOL    HW135120   3.481   2.422   7.315 -1.6397  0.2739 -1.8708
 7829SOL    HW235121   3.566   2.530   7.379 -1.0734  0.8484  0.4760
 7830SOL     OW35122   4.321   1.772   5.342 -0.1278 -0.5987 -0.2258
 7830SOL    HW135123   4.339   1.709   5.271  0.4171  2.0079 -2.3860
 7830SOL    HW235124   4.363   1.851   5.310 -0.1447 -1.2244 -1.7934
 7831SOL     OW35125   2.058   3.790   2.051  0.3662 -0.1734  0.1120
 7831SOL    HW135126   2.021   3.742   2.125 -1.6386 -1.8448 -1.9993
 7831SOL    HW235127   2.121   3.843   2.100 -1.2566  1.3338  0.5764
 7832SOL     OW35128   2.117   1.810   6.662 -0.4862  0.1230 -0.3244
 7832SOL    HW135129   2.164   1.726   6.654 -0.0946  0.5528 -2.6437
 7832SOL    HW235130   2.081   1.813   6.573 -0.6725  0.7790 -0.2230
 7833SOL     OW35131   1.097   0.521   6.123  0.1562  0.1443 -0.1623
 7833SOL    HW135132   1.093   0.425   6.124  0.6944  0.1423  1.1757
 7833SOL    HW235133   1.148   0.542   6.045 -0.8923  0.0508 -0.8723
 7834SOL     OW35134   3.507   4.155  15.089 -0.0074 -0.6719 -0.5753
 7834SOL    HW135135   3.543   4.243  15.077 -2.2112  0.4541  1.0903
 7834SOL    HW235136   3.491   4.115  15.004  1.8687 -0.2256 -1.1473
 7835SOL     OW35137   4.549   0.508  11.139  0.0696  0.2030 -0.1520
 7835SOL    HW135138   4.478   0.503  11.074  0.5609  1.7224 -0.8123
 7835SOL    HW235139   4.595   0.590  11.123  0.8098  0.0719  1.2579
 7836SOL     OW35140   0.075   3.899   3.310 -0.1439  0.0161  0.0341
 7836SOL    HW135141   0.113   3.842   3.378 -0.6832  0.1943  0.4857
 7836SOL    HW235142   0.156   3.921   3.264  0.2761  1.6982  1.5538
 7837SOL     OW35143   0.524   4.313   3.557 -0.2540  0.2170 -0.3453
 7837SOL    HW135144   0.541   4.310   3.463 -0.4843  0.2298 -0.3874
 7837SOL    HW235145   0.579   4.242   3.591  1.0146  1.0064 -0.7291
 7838SOL     OW35146   0.073   2.020   3.128 -0.5329 -0.4511 -0.2306
 7838SOL    HW135147   0.116   1.936   3.113 -0.8616 -0.6975  0.2064
 7838SOL    HW235148   4.728   1.996   3.093 -0.7661 -1.9676  1.3801
 7839SOL     OW35149   0.782   3.375  11.749 -0.1123  0.0241  0.3820
 7839SOL    HW135150   0.866   3.404  11.714  0.4747 -0.2122  1.6037
 7839SOL    HW235151   0.753   3.449  11.803  2.0315  1.4178 -0.3672
 7840SOL     OW35152   3.829   4.499   8.140  0.7369  0.2483 -0.2529
 7840SOL    HW135153   3.805   4.455   8.058 -0.6365 -0.5768  0.5891
 7840SOL    HW235154   3.923   4.513   8.130  0.7538 -0.3994 -0.9641
 7841SOL     OW35155   0.532   0.386  10.202  0.4287 -0.1906 -0.3808
 7841SOL    HW135156   0.451   0.357  10.159  0.0706 -0.1388  0.2576
 7841SOL    HW235157   0.550   0.469  10.158 -2.0683  0.3890 -0.2819
 7842SOL     OW35158   0.272   3.242   7.691 -0.1383  0.2025 -0.6678
 7842SOL    HW135159   0.356   3.215   7.729 -1.1711 -0.4668  1.1115
 7842SOL    HW235160   0.227   3.269   7.770  0.6557 -1.0158  0.2025
 7843SOL     OW35161   3.341   4.293   4.153  0.1839  0.2188 -0.2156
 7843SOL    HW135162   3.256   4.334   4.142  0.3761  0.6289 -0.1587
 7843SOL    HW235163   3.404   4.356   4.119 -0.3274  1.7022  1.5573
 7844SOL     OW35164   4.471   2.547   4.343  0.4696  0.0794  0.6185
 7844SOL    HW135165   4.479   2.521   4.251 -1.8463 -0.8368  0.6592
 7844SOL    HW235166   4.419   2.477   4.385  0.3606  1.0326  2.0653
 7845SOL     OW35167   2.136   1.926  11.223 -0.3062 -0.1661 -0.2707
 7845SOL    HW135168   2.175   1.844  11.194  1.5405  1.0317 -1.1128
 7845SOL    HW235169   2.083   1.904  11.300 -1.7397  1.0362 -0.8930
 7846SOL     OW35170   1.815   1.522   4.700 -0.1029 -0.1721 -0.1105
 7846SOL    HW135171   1.751   1.568   4.755  2.4348  1.8398  1.2129
 7846SOL    HW235172   1.868   1.602   4.704  1.8936 -1.4212 -1.5506
 7847SOL     OW35173   3.013   1.759  12.539  0.1735 -0.3168 -0.0634
 7847SOL    HW135174   2.930   1.723  12.509  0.4830 -2.5084  1.7025
 7847SOL    HW235175   3.017   1.837  12.483  2.6934 -0.3489  0.0486
 7848SOL     OW35176   2.580   0.978   5.803  0.2205  0.2759  0.2244
 7848SOL    HW135177   2.645   0.999   5.736 -0.4353  1.3069 -0.0863
 7848SOL    HW235178   2.504   1.032   5.784 -0.3447 -0.7233 -0.3519
 7849SOL     OW35179   4.323   0.333  10.944  0.0834 -0.1197 -0.0648
 7849SOL    HW135180   4.263   0.273  10.900  0.8416  0.0651 -1.3354
 7849SOL    HW235181   4.303   0.417  10.903  0.2546 -1.1600 -2.2935
 7850SOL     OW35182   1.984   3.502   9.994 -0.2207 -0.0402  0.5034
 7850SOL    HW135183   2.071   3.469   9.971 -0.4025  0.2196 -0.5750
 7850SOL    HW235184   1.932   3.429   9.961  1.3935 -0.4794 -1.1036
 7851SOL     OW35185   2.627   2.599   9.319 -0.1531  0.3757  0.3105
 7851SOL    HW135186   2.571   2.659   9.271 -0.0098 -0.4863 -0.9213
 7851SOL    HW235187   2.713   2.622   9.284 -1.1405  1.5102 -1.3100
 7852SOL     OW35188   4.159   0.798   7.708  0.3475  0.2857 -0.2678
 7852SOL    HW135189   4.174   0.889   7.682  2.0886  0.7160  2.2471
 7852SOL    HW235190   4.213   0.753   7.644  0.6657 -1.1383  1.0070
 7853SOL     OW35191   1.559   2.536   0.335 -0.7574 -0.1482 -0.7187
 7853SOL    HW135192   1.608   2.615   0.314 -0.3070 -0.3282 -0.3339
 7853SOL    HW235193   1.535   2.489   0.255 -0.6457 -1.5985  0.0959
 7854SOL     OW35194   2.467   3.143   5.642 -0.1497  1.0746 -0.1071
 7854SOL    HW135195   2.510   3.218   5.682 -1.9077  0.8412  2.2433
 7854SOL    HW235196   2.536   3.115   5.581  0.4028 -1.6401  1.7965
 7855SOL     OW35197   3.032   2.626   9.336  0.0059 -0.3702 -0.7104
 7855SOL    HW135198   2.959   2.686   9.325 -1.2314 -1.7605 -0.0521
 7855SOL    HW235199   3.053   2.643   9.428  1.5480 -1.1309 -0.9188
 7856SOL     OW35200   3.514   1.289  11.454 -0.2472 -0.2292 -0.2602
 7856SOL    HW135201   3.420   1.274  11.444 -0.3575  0.8932 -0.8658
 7856SOL    HW235202   3.551   1.206  11.485 -0.2646 -0.8616 -1.9418
 7857SOL     OW35203   1.972   2.896   4.972  0.3310 -0.5138  0.0617
 7857SOL    HW135204   2.017   2.885   4.888 -1.6989  1.4785 -1.2981
 7857SOL    HW235205   1.982   2.990   4.987 -3.0920  0.0011 -0.8526
 7858SOL     OW35206   0.227   3.909   7.149  0.0481  0.2097  0.1690
 7858SOL    HW135207   0.223   3.834   7.089 -1.2289  0.6547 -0.2848
 7858SOL    HW235208   0.317   3.900   7.181 -0.3058  1.3567  1.4798
 7859SOL     OW35209   1.453   2.432  10.152  0.7297 -0.5168 -0.7714
 7859SOL    HW135210   1.418   2.364  10.209  2.3714  0.1768  1.0534
 7859SOL    HW235211   1.437   2.512  10.200  1.1767 -1.1086  0.3579
 7860SOL     OW35212   1.834   0.530   5.187  0.3520  0.1063  0.0789
 7860SOL    HW135213   1.801   0.446   5.219 -1.6624  1.1923  0.8700
 7860SOL    HW235214   1.924   0.536   5.219  0.3270 -0.1137  0.1933
 7861SOL     OW35215   0.633   2.092   8.930 -0.9826 -0.2379 -0.3043
 7861SOL    HW135216   0.620   2.007   8.888 -0.7764 -0.4252  0.0077
 7861SOL    HW235217   0.604   2.159   8.868 -2.2679 -0.6484 -0.1399
 7862SOL     OW35218   3.912   3.372   6.240  0.1468  0.0871  0.2591
 7862SOL    HW135219   3.955   3.428   6.303 -0.9063  1.1941 -0.0176
 7862SOL    HW235220   3.949   3.289   6.271 -0.8691 -0.2329  0.6143
 7863SOL     OW35221   4.098   2.306  14.169 -0.4558 -0.3467 -0.1321
 7863SOL    HW135222   4.076   2.264  14.086  2.9221 -0.0120 -1.1949
 7863SOL    HW235223   4.020   2.360  14.183  0.0767  0.5364 -0.5687
 7864SOL     OW35224   2.350   1.500   0.307 -0.7185  0.3170 -0.1583
 7864SOL    HW135225   2.344   1.419   0.358  0.5685  0.1863 -0.2045
 7864SOL    HW235226   2.280   1.557   0.340 -1.0347  0.7244 -1.5377
 7865SOL     OW35227   1.287   2.909  10.005 -0.3065  0.4025 -0.2586
 7865SOL    HW135228   1.304   3.002  10.021  0.2623 -0.1549  2.3532
 7865SOL    HW235229   1.300   2.889  10.097 -1.7677  0.1433 -0.1065
 7866SOL     OW35230   2.323   0.035   1.027  0.4229 -0.1725 -0.3102
 7866SOL    HW135231   2.297   0.089   0.952  1.0973  1.5756  0.7491
 7866SOL    HW235232   2.316   0.100   1.096 -0.5351 -1.4231  0.7620
 7867SOL     OW35233   1.611   4.302   1.831  0.0883  0.1285 -0.1169
 7867SOL    HW135234   1.538   4.268   1.883 -1.3939  1.6123 -1.2524
 7867SOL    HW235235   1.662   4.346   1.899  1.4615 -1.4024 -0.1636
 7868SOL     OW35236   0.637   0.980   7.788 -0.0704  0.5812  0.3957
 7868SOL    HW135237   0.617   0.935   7.705 -1.5769 -1.8274  2.0471
 7868SOL    HW235238   0.680   0.907   7.832  0.6709  2.3931  2.6611
 7869SOL     OW35239   3.235   0.492   8.171 -0.2095  0.2202  0.4483
 7869SOL    HW135240   3.242   0.403   8.205  1.2425 -0.1287 -0.7657
 7869SOL    HW235241   3.323   0.498   8.136 -0.7534  3.6605 -0.2885
 7870SOL     OW35242   1.526   0.261   2.071  0.3322  0.5476  0.1408
 7870SOL    HW135243   1.617   0.251   2.044  0.5749  3.0206  0.0170
 7870SOL    HW235244   1.529   0.320   2.147 -0.9690 -0.2360  0.8148
 7871SOL     OW35245   4.669   1.436   3.418 -0.4323  0.4197  0.5258
 7871SOL    HW135246   4.700   1.407   3.333  0.9583  2.4141  0.3579
 7871SOL    HW235247   4.577   1.450   3.396 -1.0110 -0.7919  2.1300
 7872SOL     OW35248   0.773   4.036  15.041 -0.3270  0.3420  0.0196
 7872SOL    HW135249   0.749   4.005  14.954  0.0878 -2.2185  0.8250
 7872SOL    HW235250   0.833   3.965  15.064  0.2953  1.0895  0.7432
 7873SOL     OW35251   2.450   2.944   7.066 -0.2360 -0.0145 -0.0863
 7873SOL    HW135252   2.419   3.034   7.062  0.0536  0.0036 -1.9251
 7873SOL    HW235253   2.372   2.894   7.090  1.0934 -1.3652  1.3990
 7874SOL     OW35254   4.152   3.262   7.854  0.0039  0.0242 -0.1905
 7874SOL    HW135255   4.089   3.332   7.838 -2.0537 -2.3689 -2.3480
 7874SOL    HW235256   4.145   3.212   7.773  0.7072 -1.3024  0.5643
 7875SOL     OW35257   3.676   0.057   8.927  0.7843 -0.0296 -0.2306
 7875SOL    HW135258   3.699   4.707   8.948  0.5097 -0.5171 -1.9806
 7875SOL    HW235259   3.735   0.114   8.977 -0.6826  0.6661  0.7184
 7876SOL     OW35260   1.727   1.893   6.985 -0.2842 -0.5434 -0.3676
 7876SOL    HW135261   1.777   1.957   6.934  1.7429 -0.9715  1.0434
 7876SOL    HW235262   1.661   1.952   7.021  1.1246  2.0904 -2.0071
 7877SOL     OW35263   2.324   2.667   7.905 -0.1447  0.0301 -0.5702
 7877SOL    HW135264   2.364   2.746   7.942  1.1974 -0.8176 -0.2147
 7877SOL    HW235265   2.263   2.706   7.843  2.7167 -0.0353 -3.4143
 7878SOL     OW35266   3.003   0.958   7.789  0.0288 -0.2020 -0.5863
 7878SOL    HW135267   3.094   0.977   7.767  0.6639 -0.2157  1.9720
 7878SOL    HW235268   2.989   0.918   7.703 -0.9938 -3.3872  1.0327
 7879SOL     OW35269   4.077   4.282  11.441 -0.4651  0.4336  0.0815
 7879SOL    HW135270   3.997   4.286  11.389  0.6014  0.5996 -1.5358
 7879SOL    HW235271   4.048   4.341  11.511 -1.3234  0.7760 -0.5546
 7880SOL     OW35272   2.362   3.343  16.227 -0.2543  0.0308  0.3286
 7880SOL    HW135273   2.407   3.270  16.186 -0.6090 -0.0687  0.1190
 7880SOL    HW235274   2.272   3.311  16.239 -0.4465  0.3155 -0.3587
 7881SOL     OW35275   3.878   1.570   9.078  0.8063 -0.4092 -0.1176
 7881SOL    HW135276   3.951   1.507   9.079  2.5344  1.5936  1.0191
 7881SOL    HW235277   3.800   1.515   9.086 -0.4412  0.8091 -3.9906
 7882SOL     OW35278   1.898   0.961   2.147  0.1173 -0.2047  0.2955
 7882SOL    HW135279   1.830   0.924   2.203  0.4074  1.1522  1.5518
 7882SOL    HW235280   1.901   1.057   2.157  0.2730  0.0016 -1.8103
 7883SOL     OW35281   1.160   2.512   9.552  0.5150  0.5554 -0.5744
 7883SOL    HW135282   1.128   2.491   9.465  0.0111  0.4054 -0.3555
 7883SOL    HW235283   1.183   2.603   9.534  0.9336  0.8564  1.4847
 7884SOL     OW35284   2.815   3.477  12.895  0.5231  0.5732  0.0781
 7884SOL    HW135285   2.776   3.562  12.917  2.0960  0.3787  3.5642
 7884SOL    HW235286   2.759   3.452  12.821 -0.3391  0.3657  0.8017
 7885SOL     OW35287   3.842   0.075   7.339  0.4628 -0.1832  0.2071
 7885SOL    HW135288   3.753   0.085   7.305  0.9024  0.3564 -0.7856
 7885SOL    HW235289   3.879   0.003   7.289  2.2724  0.3748  0.7119
 7886SOL     OW35290   3.577   0.961   1.773  0.1346  0.1308  0.4401
 7886SOL    HW135291   3.616   1.003   1.696  0.7136 -1.6592 -0.2346
 7886SOL    HW235292   3.653   0.922   1.814 -0.6179 -0.8652  0.8846
 7887SOL     OW35293   1.575   1.159   4.762 -0.1058  0.0694  0.1559
 7887SOL    HW135294   1.544   1.119   4.681  1.2730 -0.5031 -0.0932
 7887SOL    HW235295   1.592   1.243   4.720  2.1549  0.0843  1.1260
 7888SOL     OW35296   2.647   1.111   8.219  0.2786  0.0972  0.2615
 7888SOL    HW135297   2.666   1.017   8.226  0.8648  0.0329 -2.1920
 7888SOL    HW235298   2.689   1.141   8.300  2.2163 -0.2179 -0.6312
 7889SOL     OW35299   3.247   3.401   9.032 -0.0784  0.2344  1.1728
 7889SOL    HW135300   3.322   3.377   9.086  0.9122 -3.3294 -1.7821
 7889SOL    HW235301   3.194   3.446   9.097 -2.3992 -0.6962 -0.0742
 7890SOL     OW35302   3.955   0.049  12.090 -0.1266 -0.9508  0.5945
 7890SOL    HW135303   3.979   4.700  12.116  1.3215 -0.2207  1.7206
 7890SOL    HW235304   4.038   0.083  12.057 -0.8198  1.9376  1.8947
 7891SOL     OW35305   0.971   2.792   9.764  0.5069  0.4138  0.5958
 7891SOL    HW135306   0.943   2.822   9.851 -0.9546  1.1387 -0.1403
 7891SOL    HW235307   0.998   2.703   9.787  4.1752  1.4971  0.5369
 7892SOL     OW35308   0.661   3.317  10.127  0.2194  0.0831 -0.7263
 7892SOL    HW135309   0.601   3.266  10.180  1.1483 -0.4453 -0.1797
 7892SOL    HW235310   0.650   3.278  10.041  1.6019 -0.1042 -0.8169
 7893SOL     OW35311   3.445   0.202   6.508  0.3787 -0.0075  0.1029
 7893SOL    HW135312   3.447   0.250   6.425 -1.3164  0.7434  0.4880
 7893SOL    HW235313   3.427   0.278   6.563 -0.6575 -0.5879  0.5860
 7894SOL     OW35314   0.469   3.917   7.255  0.1387  0.1555 -0.1822
 7894SOL    HW135315   0.448   4.005   7.284 -3.9253 -1.1270  0.7740
 7894SOL    HW235316   0.496   3.875   7.336  0.9355  2.3359  0.6533
 7895SOL     OW35317   3.257   1.115  15.384 -0.2713  0.2286  0.0582
 7895SOL    HW135318   3.188   1.103  15.450  0.6653  2.4121  1.4531
 7895SOL    HW235319   3.300   1.197  15.408 -2.0725  0.8411  1.1897
 7896SOL     OW35320   4.735   2.782   4.053  0.3048 -0.8667  0.3493
 7896SOL    HW135321   0.059   2.717   4.082  3.4291  2.0445 -0.1024
 7896SOL    HW235322   4.712   2.827   4.135 -0.2655  1.3355 -1.0164
 7897SOL     OW35323   2.915   2.232  16.258  0.1896  0.0205  0.6595
 7897SOL    HW135324   2.905   2.327  16.258 -0.3996 -0.0532 -0.2720
 7897SOL    HW235325   2.891   2.199  16.345  1.4464  0.2764  1.1149
 7898SOL     OW35326   2.292   1.181   4.771 -0.3634 -0.1191 -0.1005
 7898SOL    HW135327   2.256   1.240   4.837  0.2113 -1.2171  1.1934
 7898SOL    HW235328   2.280   1.230   4.690  0.5575  2.0714  1.1178
 7899SOL     OW35329   4.280   2.778   7.726  0.0104  0.0673 -0.2473
 7899SOL    HW135330   4.307   2.694   7.764  3.0234 -0.3720 -3.2866
 7899SOL    HW235331   4.332   2.842   7.776  1.7340  1.2705 -3.5569
 7900SOL     OW35332   2.501   1.727   7.882 -0.0420 -0.4172  0.0865
 7900SOL    HW135333   2.534   1.638   7.890 -0.9442 -0.8032 -0.6059
 7900SOL    HW235334   2.545   1.766   7.958  1.5992 -1.5259 -0.2945
 7901SOL     OW35335   2.166   2.474   6.156  0.2258 -0.0611  0.2588
 7901SOL    HW135336   2.199   2.562   6.136  1.1338 -1.0652 -2.6332
 7901SOL    HW235337   2.249   2.429   6.140 -0.3640 -1.5832  1.4124
 7902SOL     OW35338   4.572   4.518   7.456  0.2435 -0.2046 -0.3140
 7902SOL    HW135339   4.497   4.506   7.515  0.4858  0.0555  0.0449
 7902SOL    HW235340   4.638   4.531   7.524  0.2414 -4.1391  0.4398
 7903SOL     OW35341   4.457   4.314  12.017  0.1989 -0.1900 -0.3243
 7903SOL    HW135342   4.418   4.351  12.096  1.0541  0.7200 -0.3142
 7903SOL    HW235343   4.474   4.222  12.035 -1.9776 -0.4582  0.2887
 7904SOL     OW35344   2.136   1.364   4.512  0.4168 -0.0815  0.2035
 7904SOL    HW135345   2.088   1.431   4.463  1.3119 -1.5898 -2.7072
 7904SOL    HW235346   2.074   1.292   4.526 -1.3482  1.7336  1.7466
 7905SOL     OW35347   0.326   4.368  13.146  0.3737  0.6409 -0.0446
 7905SOL    HW135348   0.408   4.398  13.106 -0.6768  2.3823 -0.9238
 7905SOL    HW235349   0.253   4.393  13.089  0.6223  2.8133  0.5741
 7906SOL     OW35350   3.739   2.666   1.571 -0.3238 -0.2869  0.0906
 7906SOL    HW135351   3.764   2.584   1.614 -1.2072 -0.2238  0.7465
 7906SOL    HW235352   3.644   2.661   1.559  0.1337 -1.2409 -2.8500
 7907SOL     OW35353   2.868   1.659   3.568  0.3257 -0.2552  0.0512
 7907SOL    HW135354   2.895   1.569   3.591 -0.0147 -0.2625  0.4083
 7907SOL    HW235355   2.785   1.662   3.615 -0.2762  1.0231 -1.1301
 7908SOL     OW35356   0.793   3.154   3.144  0.3317 -0.2084  0.4455
 7908SOL    HW135357   0.854   3.211   3.191  0.3159  2.9746 -3.3886
 7908SOL    HW235358   0.729   3.144   3.214 -0.0216 -1.7565 -0.1144
 7909SOL     OW35359   4.218   1.961  14.947  0.1981  0.7417  0.5450
 7909SOL    HW135360   4.280   1.975  15.019  2.3750 -0.1123 -1.1652
 7909SOL    HW235361   4.219   1.865  14.938  3.7648  0.8370 -0.3109
 7910SOL     OW35362   3.302   1.467  17.037  0.5785  0.3050 -0.5295
 7910SOL    HW135363   3.247   1.397  17.002  0.1539 -0.4236  1.6130
 7910SOL    HW235364   3.231   1.522  17.071  0.0875 -0.6345 -0.0437
 7911SOL     OW35365   0.178   3.563  10.228  0.5638  0.3002 -0.2832
 7911SOL    HW135366   0.168   3.478  10.185 -0.6868  0.1971  0.2036
 7911SOL    HW235367   0.272   3.554  10.246 -0.1013 -1.3162  2.4383
 7912SOL     OW35368   2.430   4.663  12.644  0.3792  0.0360 -0.4836
 7912SOL    HW135369   2.410   4.664  12.550  0.8877 -2.4882 -0.5986
 7912SOL    HW235370   2.357   4.614  12.682 -0.2427  2.9379  2.0391
 7913SOL     OW35371   3.704   3.324   4.424 -0.1207 -0.3901  0.1537
 7913SOL    HW135372   3.658   3.371   4.354 -0.9421  0.4327  1.2440
 7913SOL    HW235373   3.677   3.236   4.400  1.4353  0.2304 -3.9128
 7914SOL     OW35374   4.702   0.945   5.612 -0.0855 -0.2748  0.1934
 7914SOL    HW135375   4.721   0.851   5.606 -2.7004 -0.8411  0.5714
 7914SOL    HW235376   0.046   0.971   5.649 -1.4565  2.8900  1.0400
 7915SOL     OW35377   1.580   2.520   9.566 -0.5246 -0.2759  0.4971
 7915SOL    HW135378   1.540   2.589   9.512 -0.0607 -0.2310  0.2146
 7915SOL    HW235379   1.507   2.457   9.563  0.0488 -1.0009  1.6930
 7916SOL     OW35380   3.276   2.407   0.476  0.1310  0.4118 -0.5001
 7916SOL    HW135381   3.335   2.351   0.426 -0.7291 -0.4525 -0.5534
 7916SOL    HW235382   3.327   2.409   0.557 -0.8651  0.0562  0.1372
 7917SOL     OW35383   0.066   1.362  15.196 -0.1314 -0.4651 -0.5341
 7917SOL    HW135384   0.143   1.375  15.140  0.4268 -2.0606 -0.1232
 7917SOL    HW235385   0.022   1.446  15.185 -0.8150 -0.5054  1.8744
 7918SOL     OW35386   3.231   2.833   7.062  0.4224 -0.4493 -0.4427
 7918SOL    HW135387   3.247   2.743   7.032  0.0379 -0.9375  0.7948
 7918SOL    HW235388   3.255   2.818   7.154  1.6110  3.2335 -0.1587
 7919SOL     OW35389   4.267   1.322   6.660  0.3755 -0.4091 -0.2062
 7919SOL    HW135390   4.179   1.313   6.696  0.8257  1.6094  1.3826
 7919SOL    HW235391   4.249   1.355   6.572  1.9102  0.2998 -0.2493
 7920SOL     OW35392   1.081   2.752  16.874  0.0675 -0.0914 -0.2780
 7920SOL    HW135393   1.102   2.709  16.791 -0.8290 -1.1964  0.0594
 7920SOL    HW235394   1.143   2.701  16.926  0.0827 -0.0561 -0.2616
 7921SOL     OW35395   4.581   4.191   0.601  1.0983 -0.7736  0.2611
 7921SOL    HW135396   4.617   4.263   0.653 -0.0322 -0.2865  0.3572
 7921SOL    HW235397   4.565   4.231   0.516 -0.6719  0.5244  1.2108
 7922SOL     OW35398   4.158   1.098   1.575 -0.7494  0.2218 -0.3627
 7922SOL    HW135399   4.222   1.121   1.508  0.3263  0.5556  0.7815
 7922SOL    HW235400   4.186   1.156   1.645  1.0336 -3.7786  2.2821
 7923SOL     OW35401   1.589   4.368   6.305  0.0816  0.6711  0.0718
 7923SOL    HW135402   1.541   4.424   6.366  0.1436  0.9857 -0.1730
 7923SOL    HW235403   1.611   4.287   6.352  0.1590  1.2621  1.0708
 7924SOL     OW35404   1.303   4.262   4.261 -0.8755  0.2599  0.5616
 7924SOL    HW135405   1.365   4.335   4.268  0.3474 -0.8502  1.2499
 7924SOL    HW235406   1.252   4.293   4.335 -0.1813  3.0328 -0.0978
 7925SOL     OW35407   4.177   0.748  11.661  0.2572 -0.0038 -0.1309
 7925SOL    HW135408   4.252   0.694  11.687  0.5911  1.2364  1.4509
 7925SOL    HW235409   4.140   0.771  11.746  2.4573 -2.1055  1.3911
 7926SOL     OW35410   2.668   4.655   2.301 -0.3678 -0.6584 -0.0570
 7926SOL    HW135411   2.726   4.714   2.253  0.6659 -0.8515  0.9398
 7926SOL    HW235412   2.711   4.569   2.295  0.1168 -0.2868 -1.9251
 7927SOL     OW35413   0.912   0.873  16.808 -0.1141  0.6050 -0.1561
 7927SOL    HW135414   0.820   0.849  16.819  0.3756 -1.7601 -1.2525
 7927SOL    HW235415   0.953   0.793  16.775  0.0612  2.5491 -4.7363
 7928SOL     OW35416   0.813   0.703   2.910  0.2329  0.3899 -0.5076
 7928SOL    HW135417   0.843   0.689   2.820  2.0067  0.1900  0.1206
 7928SOL    HW235418   0.849   0.791   2.923  0.6612  0.1160  0.1595
 7929SOL     OW35419   4.717   0.323   9.158  0.2555  0.0475  0.0593
 7929SOL    HW135420   4.651   0.344   9.092  2.1214  1.6757 -1.3157
 7929SOL    HW235421   4.716   0.403   9.210  0.6032  1.9603 -2.8285
 7930SOL     OW35422   2.034   4.705   0.233 -0.2433  0.3743  0.0017
 7930SOL    HW135423   2.042   0.033   0.300  1.6724  0.2753 -0.1428
 7930SOL    HW235424   2.119   4.668   0.254 -1.4019 -0.4666  3.3007
 7931SOL     OW35425   0.556   3.215   7.230  0.0630  0.6249  0.4281
 7931SOL    HW135426   0.638   3.166   7.216  0.4517  2.2534 -2.9635
 7931SOL    HW235427   0.581   3.244   7.318 -3.4688  1.8512  0.9889
 7932SOL     OW35428   2.002   3.794   9.165 -0.7928  0.7136  0.4486
 7932SOL    HW135429   2.026   3.879   9.128 -0.1093 -0.3658 -1.5902
 7932SOL    HW235430   1.980   3.822   9.253 -4.3397  0.0239 -0.1940
 7933SOL     OW35431   3.692   0.147   1.904 -1.0477  0.5313  0.2303
 7933SOL    HW135432   3.684   0.055   1.929 -0.6956  0.3492 -0.3423
 7933SOL    HW235433   3.772   0.183   1.943 -0.7053  0.0360 -0.0243
 7934SOL     OW35434   4.603   0.261   8.119  0.0888 -0.8669  0.4004
 7934SOL    HW135435   4.571   0.250   8.029 -0.1784 -0.4162  0.4392
 7934SOL    HW235436   4.698   0.247   8.112  0.1063 -0.7180  0.3405
 7935SOL     OW35437   3.981   1.067  14.325  0.2959 -0.0790 -0.2080
 7935SOL    HW135438   3.919   0.998  14.347  0.6106  0.3829  2.0975
 7935SOL    HW235439   3.921   1.134  14.292 -0.8296 -0.2406  1.5041
 7936SOL     OW35440   1.624   2.356   3.868  0.2734  0.0225 -0.7618
 7936SOL    HW135441   1.719   2.351   3.870  0.1539 -1.2929  0.9607
 7936SOL    HW235442   1.600   2.337   3.958  3.2102  0.7909  0.1549
 7937SOL     OW35443   2.336   2.095  15.583  0.5563 -0.5815  0.4878
 7937SOL    HW135444   2.267   2.048  15.629 -0.1077  0.7864  0.8969
 7937SOL    HW235445   2.395   2.025  15.555 -0.8984 -0.6335 -2.3935
 7938SOL     OW35446   2.255   0.442   3.288  0.3857 -0.1877 -0.6028
 7938SOL    HW135447   2.269   0.533   3.261  1.4050 -0.6627 -1.6676
 7938SOL    HW235448   2.202   0.448   3.367 -0.2853 -2.2298 -0.8896
 7939SOL     OW35449   3.534   1.541  11.563  0.1925  0.7770  0.0346
 7939SOL    HW135450   3.477   1.528  11.638 -1.7483  0.4215 -1.5102
 7939SOL    HW235451   3.510   1.463  11.514  0.4445  0.5271  0.3108
 7940SOL     OW35452   3.762   0.123   5.089  0.1455 -0.1024  0.5252
 7940SOL    HW135453   3.849   0.100   5.122 -1.2081 -2.7282  2.1934
 7940SOL    HW235454   3.775   0.117   4.994  1.1134  0.8003  0.5992
 7941SOL     OW35455   1.573   4.426  10.125 -0.2210 -0.1236 -0.3632
 7941SOL    HW135456   1.548   4.388  10.040 -0.5905  1.2167 -0.8418
 7941SOL    HW235457   1.494   4.474  10.147 -0.5919 -0.0032 -1.9394
 7942SOL     OW35458   4.209   1.859  16.214  0.2780 -0.0486  0.3661
 7942SOL    HW135459   4.163   1.781  16.245  0.3853 -0.2015  0.1371
 7942SOL    HW235460   4.261   1.828  16.141  0.9842 -2.4242  1.8845
 7943SOL     OW35461   3.670   2.954   5.715 -0.1088  0.7185  0.2702
 7943SOL    HW135462   3.711   2.923   5.796  0.6217 -0.0256 -0.3853
 7943SOL    HW235463   3.605   3.017   5.747 -2.1396 -1.6601  0.8219
 7944SOL     OW35464   1.915   4.068   7.793 -0.4580  0.1124  0.3084
 7944SOL    HW135465   1.916   4.139   7.728 -1.6788 -1.7780 -1.7753
 7944SOL    HW235466   1.976   3.998   7.768 -0.9155 -1.3505  3.2725
 7945SOL     OW35467   2.783   0.765  10.343  0.4626 -0.5696  0.0020
 7945SOL    HW135468   2.840   0.784  10.418 -1.4718  0.2142  1.2650
 7945SOL    HW235469   2.841   0.716  10.284  1.7446  0.1296  0.6672
 7946SOL     OW35470   1.826   1.807   8.985 -0.2067 -0.4045 -1.1509
 7946SOL    HW135471   1.825   1.716   9.015  0.4767  0.4249  1.4204
 7946SOL    HW235472   1.846   1.852   9.068  2.2057 -1.3743 -1.2287
 7947SOL     OW35473   3.397   4.676   7.823  0.0946  0.1321 -0.0605
 7947SOL    HW135474   3.410   4.598   7.769 -1.5848  0.2725 -0.6725
 7947SOL    HW235475   3.446   4.639   7.896  0.5579  0.7537 -0.0592
 7948SOL     OW35476   4.130   0.041   4.096 -0.2686  0.2453 -0.1972
 7948SOL    HW135477   4.132   4.740   4.010 -0.0231 -0.0080 -0.0694
 7948SOL    HW235478   4.042   0.012   4.122  0.2250  1.3463  2.7996
 7949SOL     OW35479   3.453   1.694   0.397  0.0290 -0.1029 -0.5027
 7949SOL    HW135480   3.429   1.762   0.333  2.1061  0.4734 -0.6525
 7949SOL    HW235481   3.371   1.688   0.447 -0.8497  3.3771 -1.5107
 7950SOL     OW35482   2.262   2.763   4.467 -0.0040  0.2801 -0.3319
 7950SOL    HW135483   2.269   2.679   4.513 -0.8666 -0.2267 -1.1213
 7950SOL    HW235484   2.190   2.813   4.504 -0.7833 -1.4159  0.4598
 7951SOL     OW35485   1.935   0.096   7.928 -0.3570  0.3182  0.1142
 7951SOL    HW135486   1.859   0.072   7.875 -0.4216  0.1440  0.2856
 7951SOL    HW235487   1.916   0.190   7.929 -0.1424  0.3490  1.6622
 7952SOL     OW35488   2.609   3.515  10.895 -0.1595  0.4896  0.6721
 7952SOL    HW135489   2.644   3.450  10.834 -0.7511  0.3419  0.4873
 7952SOL    HW235490   2.525   3.540  10.858  0.5330  0.7201 -0.7455
 7953SOL     OW35491   2.630   0.433  15.581  0.2933 -0.3367  0.3885
 7953SOL    HW135492   2.689   0.472  15.644  0.0590 -0.1780  0.5099
 7953SOL    HW235493   2.690   0.460  15.512  0.5711  0.1940  0.8463
 7954SOL     OW35494   2.564   1.874   2.956 -0.7035 -0.7828  0.5332
 7954SOL    HW135495   2.551   1.804   3.020 -1.5474 -1.0175  0.1086
 7954SOL    HW235496   2.592   1.940   3.020  1.8830 -1.9446  0.5934
 7955SOL     OW35497   3.423   3.776   0.499  0.2110 -0.1460  0.6109
 7955SOL    HW135498   3.472   3.847   0.542  1.0597 -0.0186 -0.5716
 7955SOL    HW235499   3.371   3.737   0.570 -2.5131  2.7956  0.2376
 7956SOL     OW35500   1.874   0.460   8.339 -0.0399  0.4910 -0.2062
 7956SOL    HW135501   1.969   0.475   8.344  0.2766 -1.8430  0.8855
 7956SOL    HW235502   1.850   0.376   8.378 -0.1915  1.1011  0.9936
 7957SOL     OW35503   1.412   1.896  12.313  0.2105  0.1740  0.2363
 7957SOL    HW135504   1.373   1.972  12.271  0.3556 -0.9311 -1.9363
 7957SOL    HW235505   1.403   1.916  12.406 -0.1390  1.6329 -0.1177
 7958SOL     OW35506   1.666   1.004   4.185  0.2720  0.2629 -0.0817
 7958SOL    HW135507   1.705   1.070   4.243  0.1680 -1.2773  1.7507
 7958SOL    HW235508   1.666   0.928   4.244  0.8221 -0.3470 -0.8655
 7959SOL     OW35509   3.131   2.679   1.241  0.4863  0.0215 -0.1794
 7959SOL    HW135510   3.065   2.651   1.306  2.1679 -1.0363  1.0706
 7959SOL    HW235511   3.102   2.625   1.167 -1.0222  2.2289 -1.2055
 7960SOL     OW35512   0.086   3.593  12.827 -0.7223 -0.3259 -0.1719
 7960SOL    HW135513   4.735   3.622  12.834 -0.5255  0.4669 -0.9184
 7960SOL    HW235514   0.112   3.606  12.919 -0.8582  2.2342 -0.4852
 7961SOL     OW35515   0.902   2.658   0.025  0.1374  0.0424  0.0343
 7961SOL    HW135516   0.914   2.671   0.119  1.6435 -0.8906 -0.0201
 7961SOL    HW235517   0.812   2.627   0.016  1.3049 -3.2780 -0.3074
 7962SOL     OW35518   1.100   2.389   0.131 -0.0811 -0.0702  0.8492
 7962SOL    HW135519   1.175   2.422   0.180 -1.2126  0.8451  1.9437
 7962SOL    HW235520   1.089   2.304   0.175 -0.8004  0.4170  1.5994
 7963SOL     OW35521   3.485   3.953   1.101 -0.3696 -0.0064 -0.1677
 7963SOL    HW135522   3.576   3.950   1.071 -0.6273 -0.9427 -0.8987
 7963SOL    HW235523   3.488   4.020   1.168 -1.2519  1.2278 -1.3524
 7964SOL     OW35524   3.377   0.671   5.917 -0.2449 -0.1135  0.2394
 7964SOL    HW135525   3.454   0.688   5.863 -0.5443  0.9270  0.1234
 7964SOL    HW235526   3.373   0.576   5.911  1.9063 -0.3697  2.8501
 7965SOL     OW35527   3.048   0.137  11.016 -0.0741  0.1315  0.2044
 7965SOL    HW135528   3.105   0.211  11.034  0.8155 -0.3098 -0.7851
 7965SOL    HW235529   2.988   0.186  10.959  1.9543  0.6083 -1.5158
 7966SOL     OW35530   1.770   2.749   5.115 -0.0990 -0.1674  0.1582
 7966SOL    HW135531   1.797   2.687   5.047 -0.1274 -0.1589  0.1391
 7966SOL    HW235532   1.810   2.825   5.072  0.0044 -0.2257  0.1532
 7967SOL     OW35533   0.606   0.177  17.168  0.3473  0.2803  0.2913
 7967SOL    HW135534   0.555   0.242  17.216 -0.4877 -0.8925  0.9937
 7967SOL    HW235535   0.654   0.135  17.240 -0.0735 -1.7579 -0.5983
 7968SOL     OW35536   2.809   2.681   4.074 -0.0947  0.2172  0.8589
 7968SOL    HW135537   2.719   2.651   4.057  0.1403  0.1938 -0.3379
 7968SOL    HW235538   2.855   2.605   4.038  1.8077  1.6007  0.3562
 7969SOL     OW35539   0.444   1.044   4.891 -0.2880  0.0669  0.1680
 7969SOL    HW135540   0.457   0.950   4.891 -0.0776  0.0857 -2.1592
 7969SOL    HW235541   0.395   1.055   4.972 -0.0067 -0.0625  0.3546
 7970SOL     OW35542   2.461   2.237   3.255 -0.4742 -0.0749 -0.0550
 7970SOL    HW135543   2.481   2.329   3.235 -0.4687  0.2017  1.2177
 7970SOL    HW235544   2.420   2.220   3.171  1.0601 -1.2311 -0.5701
 7971SOL     OW35545   3.261   1.729   8.861 -0.1693 -0.7580 -0.0693
 7971SOL    HW135546   3.351   1.705   8.883 -0.5178 -2.1626 -0.1713
 7971SOL    HW235547   3.236   1.785   8.935  0.4875 -3.0854  1.9506
 7972SOL     OW35548   4.412   4.433   7.131 -0.3345 -0.0963  0.0254
 7972SOL    HW135549   4.451   4.355   7.170 -0.1879  1.3681  2.7751
 7972SOL    HW235550   4.359   4.482   7.194 -2.4263 -2.1933 -0.0879
 7973SOL     OW35551   1.859   0.471   7.240  0.3106 -0.2519 -0.4013
 7973SOL    HW135552   1.876   0.377   7.245 -1.8143 -0.7457 -2.9237
 7973SOL    HW235553   1.785   0.474   7.180 -0.0500  1.1332  0.0922
 7974SOL     OW35554   1.153   3.393  15.246  0.0729  0.3098 -0.4535
 7974SOL    HW135555   1.217   3.355  15.306 -0.5348 -3.6317 -2.3088
 7974SOL    HW235556   1.204   3.396  15.165  0.0092  0.1137 -0.5020
 7975SOL     OW35557   0.655   0.329   6.581 -0.0222  0.3968  0.3092
 7975SOL    HW135558   0.598   0.265   6.537  0.9760  0.1855 -0.7009
 7975SOL    HW235559   0.626   0.314   6.671  1.1824  0.0279  0.6350
 7976SOL     OW35560   0.271   1.829   4.592 -0.5170 -0.1722 -0.0206
 7976SOL    HW135561   0.193   1.884   4.601 -0.5649 -0.2215 -0.1411
 7976SOL    HW235562   0.314   1.862   4.671 -3.0196  0.1725  1.2152
 7977SOL     OW35563   1.461   4.005   8.858  0.7992  0.1151  0.6613
 7977SOL    HW135564   1.533   4.057   8.820  0.4278 -1.8877 -2.7264
 7977SOL    HW235565   1.393   4.072   8.855  1.4033  0.6812 -0.5685
 7978SOL     OW35566   1.211   4.337   5.107  0.2727  0.1618  0.2559
 7978SOL    HW135567   1.184   4.261   5.160 -0.0340 -0.5679 -0.9371
 7978SOL    HW235568   1.135   4.393   5.127  1.0496  1.5183 -0.6156
 7979SOL     OW35569   1.785   3.399  14.509 -0.7997  0.6024  0.2355
 7979SOL    HW135570   1.833   3.324  14.545  0.3082  0.5262 -1.4117
 7979SOL    HW235571   1.753   3.370  14.424  0.2902  1.4287 -0.4476
 7980SOL     OW35572   0.744   0.521  14.581 -0.0624 -0.5740  0.2838
 7980SOL    HW135573   0.669   0.578  14.599  1.2322  1.6116 -1.1611
 7980SOL    HW235574   0.735   0.496  14.489  0.3846 -0.8340  0.3070
 7981SOL     OW35575   0.214   1.841   9.560  0.2894 -0.7648 -0.2524
 7981SOL    HW135576   0.277   1.770   9.546  1.5623  0.0566  1.3720
 7981SOL    HW235577   0.136   1.821   9.507 -1.0595 -0.4246  1.6313
 7982SOL     OW35578   0.914   0.992   2.411  0.8080  0.1572  0.1947
 7982SOL    HW135579   0.934   1.068   2.357 -0.4011 -0.2495 -0.8487
 7982SOL    HW235580   0.944   1.023   2.496  0.2259  1.9012 -0.2389
 7983SOL     OW35581   0.472   3.495  12.205 -0.3906 -0.3783 -0.0688
 7983SOL    HW135582   0.396   3.498  12.146 -0.4800  1.9435  0.1665
 7983SOL    HW235583   0.511   3.580  12.188  3.1483 -1.8232  0.8123
 7984SOL     OW35584   4.467   0.646   8.910 -0.1885  0.1192  0.1705
 7984SOL    HW135585   4.459   0.600   8.994  0.3472  1.0952  0.7628
 7984SOL    HW235586   4.393   0.705   8.920 -1.4995 -1.8079  1.8018
 7985SOL     OW35587   2.227   4.512   8.521  0.5921 -0.2847  0.3623
 7985SOL    HW135588   2.289   4.444   8.546 -0.5745 -1.6799 -0.5021
 7985SOL    HW235589   2.228   4.499   8.426  1.2910  1.5323  0.1374
 7986SOL     OW35590   0.348   0.566   2.446 -0.1470 -0.4511  0.6160
 7986SOL    HW135591   0.373   0.647   2.402 -0.9962 -0.2911  0.4321
 7986SOL    HW235592   0.385   0.578   2.534  0.3929 -1.7325  0.5672
 7987SOL     OW35593   0.488   2.123   5.184  0.5208 -0.3066  0.3974
 7987SOL    HW135594   0.546   2.060   5.142 -0.2967  1.0558 -2.8219
 7987SOL    HW235595   0.558   2.171   5.227  1.3688 -3.1462  2.1319
 7988SOL     OW35596   2.652   3.184   4.873  0.2840 -0.4386 -0.3692
 7988SOL    HW135597   2.687   3.244   4.807 -2.9865  1.4317 -0.3987
 7988SOL    HW235598   2.613   3.247   4.933  2.1916 -1.8079  2.3348
 7989SOL     OW35599   3.361   3.233  11.085  0.1916 -0.3739 -0.3325
 7989SOL    HW135600   3.375   3.138  11.080 -0.4880 -0.3461 -2.8206
 7989SOL    HW235601   3.306   3.242  11.163 -0.0670  2.4422 -0.8613
 7990SOL     OW35602   4.151   4.144   0.539 -0.5944 -0.3627  0.0103
 7990SOL    HW135603   4.177   4.233   0.563  0.4657 -0.4409 -0.8472
 7990SOL    HW235604   4.176   4.089   0.612  0.4499 -2.9018 -2.2859
 7991SOL     OW35605   0.403   1.108   5.795  0.4239  0.2499  0.3725
 7991SOL    HW135606   0.449   1.192   5.788  2.6953 -0.9582  1.1291
 7991SOL    HW235607   0.478   1.050   5.804 -0.2365 -0.2672  2.5262
 7992SOL     OW35608   0.808   2.321   8.882  0.5780 -0.4522 -0.1647
 7992SOL    HW135609   0.801   2.392   8.946  0.3387 -0.3012 -0.3557
 7992SOL    HW235610   0.852   2.255   8.936  0.3626  0.3912  1.0590
 7993SOL     OW35611   2.787   4.365  14.540 -0.2387 -0.1336  0.2599
 7993SOL    HW135612   2.858   4.365  14.476 -1.2720 -1.0341 -0.8928
 7993SOL    HW235613   2.794   4.273  14.568  0.1651 -0.6836 -1.6480
 7994SOL     OW35614   3.219   3.312   7.152  0.1939 -0.2915 -0.1202
 7994SOL    HW135615   3.231   3.272   7.238 -0.9714 -0.8828 -0.2324
 7994SOL    HW235616   3.232   3.236   7.096 -0.6240 -2.7678  3.0632
 7995SOL     OW35617   0.849   2.571   8.131  0.4366 -0.1413 -0.4069
 7995SOL    HW135618   0.755   2.592   8.135  0.2106 -1.0948 -0.7400
 7995SOL    HW235619   0.868   2.572   8.225  1.8804  2.3128 -0.7481
 7996SOL     OW35620   2.411   3.786   5.312 -0.5869  0.0848 -0.0355
 7996SOL    HW135621   2.371   3.723   5.372 -0.8707  1.0887  0.8248
 7996SOL    HW235622   2.375   3.763   5.226 -0.6159 -0.5080  0.1339
 7997SOL     OW35623   4.595   2.672   7.888 -0.1712  0.1442 -0.6211
 7997SOL    HW135624   4.577   2.578   7.884  1.4326 -0.1329 -1.4593
 7997SOL    HW235625   4.676   2.674   7.837 -0.1512 -1.2674 -0.6403
 7998SOL     OW35626   2.427   0.032   2.171  0.2969  0.0008 -0.7144
 7998SOL    HW135627   2.427   0.099   2.239  1.7168  0.0524 -0.7645
 7998SOL    HW235628   2.497   4.719   2.209  2.4565  3.1645 -0.2484
 7999SOL     OW35629   3.898   0.166   7.604 -0.2353  0.2411 -0.0391
 7999SOL    HW135630   3.883   0.137   7.514 -2.1383  0.8276  0.0944
 7999SOL    HW235631   3.806   0.189   7.616 -0.6965 -1.9259  0.5641
 8000SOL     OW35632   4.092   3.532   5.154  0.2395  0.4465 -0.5250
 8000SOL    HW135633   4.110   3.616   5.111  1.5342  1.3992  1.9050
 8000SOL    HW235634   3.998   3.545   5.168  0.0681 -1.6135  0.2138
 8001SOL     OW35635   4.289   4.094  10.640  0.0181 -0.2702  0.0816
 8001SOL    HW135636   4.233   4.171  10.646  0.7079  0.2793 -0.6725
 8001SOL    HW235637   4.360   4.133  10.590 -0.4570 -1.4596 -1.5291
 8002SOL     OW35638   1.206   1.963   5.796 -0.3551 -0.1895  0.2950
 8002SOL    HW135639   1.180   1.991   5.884  0.1384  1.3373 -0.0468
 8002SOL    HW235640   1.301   1.974   5.790 -0.2765 -1.2574 -0.4107
 8003SOL     OW35641   0.332   2.629   8.023 -0.1111  0.5096  0.3615
 8003SOL    HW135642   0.251   2.624   8.074  0.3836 -1.5399  0.9362
 8003SOL    HW235643   0.356   2.539   8.001  1.4899  1.0830 -0.2566
 8004SOL     OW35644   1.139   0.846   8.127  0.0160  0.0825  0.6012
 8004SOL    HW135645   1.095   0.882   8.204 -0.1369  1.3059 -0.0651
 8004SOL    HW235646   1.118   0.753   8.136 -0.4585 -0.0005 -1.4919
 8005SOL     OW35647   0.141   3.896   9.309 -0.3517 -0.2447 -0.2266
 8005SOL    HW135648   0.124   3.808   9.276  1.9143 -0.8316  0.1477
 8005SOL    HW235649   0.049   3.921   9.312 -0.5465 -1.1489  1.0065
 8006SOL     OW35650   1.215   1.819   4.348 -0.0171  0.0615  0.6726
 8006SOL    HW135651   1.141   1.827   4.409  0.0085  0.0930  0.6996
 8006SOL    HW235652   1.244   1.735   4.382 -0.8873 -0.3499  0.3945
 8007SOL     OW35653   2.086   1.232   1.912 -0.3599  0.1915 -0.5008
 8007SOL    HW135654   2.174   1.199   1.930 -0.6600 -0.1102  0.4200
 8007SOL    HW235655   2.091   1.217   1.817  1.9226 -2.0530 -0.0296
 8008SOL     OW35656   3.571   3.794   6.355 -0.2530 -0.4178 -0.5956
 8008SOL    HW135657   3.481   3.822   6.339  0.4086  1.5817 -0.8123
 8008SOL    HW235658   3.564   3.757   6.443  3.0976 -2.0585 -1.0511
 8009SOL     OW35659   1.274   2.945  13.403 -0.2662 -0.0122  0.0893
 8009SOL    HW135660   1.319   2.998  13.469 -0.5806  0.0727  0.2366
 8009SOL    HW235661   1.232   3.013  13.349 -0.8251 -0.2930  0.1774
 8010SOL     OW35662   0.863   0.563  17.494  0.0791 -0.7228 -0.7533
 8010SOL    HW135663   0.770   0.540  17.487  0.0436 -0.8365  0.1370
 8010SOL    HW235664   0.856   0.657  17.475  0.2318 -0.8148 -1.2657
 8011SOL     OW35665   4.673   1.587   4.102  0.2022 -0.3230  0.1890
 8011SOL    HW135666   4.712   1.564   4.017 -0.7108 -1.0672 -0.0270
 8011SOL    HW235667   0.001   1.567   4.165  0.7730 -0.2021 -0.3933
 8012SOL     OW35668   0.325   4.606   8.212  0.2081 -0.1550 -0.3529
 8012SOL    HW135669   0.411   4.643   8.190 -0.2693  2.6262  2.4655
 8012SOL    HW235670   0.348   4.584   8.302 -1.9965 -0.5125  0.1141
 8013SOL     OW35671   0.037   3.709   5.761 -0.0841  0.9173  0.4714
 8013SOL    HW135672   0.100   3.644   5.793 -2.8768 -1.3249  1.4741
 8013SOL    HW235673   4.698   3.684   5.810  0.5613 -0.5286  0.7794
 8014SOL     OW35674   2.397   4.009   2.375  0.0804  0.5718 -0.1001
 8014SOL    HW135675   2.366   4.017   2.465  1.8262 -1.3109  0.6638
 8014SOL    HW235676   2.418   4.100   2.355 -0.4645  0.6850 -0.1566
 8015SOL     OW35677   2.565   3.980   9.223  0.2124 -0.6576  0.3359
 8015SOL    HW135678   2.603   4.012   9.141 -1.7590 -1.9190 -1.0686
 8015SOL    HW235679   2.644   3.968   9.275  1.0463  1.5643 -0.4036
 8016SOL     OW35680   1.690   0.074   7.783  0.0356  0.0069  1.1013
 8016SOL    HW135681   1.611   0.066   7.836 -0.3555  0.4557  0.5831
 8016SOL    HW235682   1.675   0.023   7.703 -0.1086  1.3254  0.2936
 8017SOL     OW35683   0.461   4.173   8.316  0.2158 -0.2008  0.2200
 8017SOL    HW135684   0.381   4.215   8.285  1.2187  1.2755 -0.3179
 8017SOL    HW235685   0.432   4.085   8.342  2.0740 -0.7499  0.3916
 8018SOL     OW35686   0.822   0.429   2.109  0.1719 -0.5109 -0.0644
 8018SOL    HW135687   0.914   0.421   2.083  0.2000  0.6721 -0.3610
 8018SOL    HW235688   0.781   0.344   2.094 -0.7604 -0.2198  0.8588
 8019SOL     OW35689   3.508   1.299   8.641 -0.0356  0.2471 -0.3136
 8019SOL    HW135690   3.497   1.212   8.601 -1.8252  0.4102 -0.1411
 8019SOL    HW235691   3.455   1.287   8.719  0.1138 -2.2802 -0.5772
 8020SOL     OW35692   1.306   0.614   5.364  0.1090 -0.2203 -0.0676
 8020SOL    HW135693   1.331   0.527   5.333 -1.8184 -0.3446 -1.3034
 8020SOL    HW235694   1.212   0.600   5.356  0.0216  0.3442 -0.0240
 8021SOL     OW35695   1.625   2.779   3.793  0.3803 -0.1052  1.0783
 8021SOL    HW135696   1.597   2.731   3.715  0.2074 -1.7993  2.1722
 8021SOL    HW235697   1.544   2.771   3.843 -0.2018 -1.3214 -0.0407
 8022SOL     OW35698   2.581   1.602  17.645 -0.3649  0.2580  0.0899
 8022SOL    HW135699   2.582   1.697  17.634 -0.2419  0.2588  0.1005
 8022SOL    HW235700   2.657   1.591  17.702  0.0677  1.1050 -0.3131
 8023SOL     OW35701   0.994   2.694   1.626  0.7170 -0.8190  0.3558
 8023SOL    HW135702   0.949   2.712   1.708  0.5406 -2.1485  0.5500
 8023SOL    HW235703   0.964   2.604   1.610 -2.0313  0.1049  0.3188
 8024SOL     OW35704   2.651   2.343   5.764 -0.1514 -0.5411 -0.0148
 8024SOL    HW135705   2.663   2.391   5.845  0.9662 -1.9895  0.6941
 8024SOL    HW235706   2.556   2.353   5.758 -0.3100 -2.0831 -0.1988
 8025SOL     OW35707   2.891   2.064   2.563  0.2569  0.4771 -0.2446
 8025SOL    HW135708   2.971   2.015   2.542  0.0934  1.2182 -2.5937
 8025SOL    HW235709   2.937   2.141   2.598 -2.0952  0.6618  2.4701
 8026SOL     OW35710   3.195   1.560   3.814  0.8134 -0.4832 -0.1587
 8026SOL    HW135711   3.190   1.480   3.866 -0.7138 -0.9186 -0.9885
 8026SOL    HW235712   3.171   1.620   3.885 -0.3205 -0.0382 -0.9270
 8027SOL     OW35713   0.184   0.469  15.007  0.0422  0.3773  0.1829
 8027SOL    HW135714   0.107   0.475  15.063 -0.2298 -2.2075  0.0891
 8027SOL    HW235715   0.195   0.374  14.998  1.2195  0.3933  1.4425
 8028SOL     OW35716   3.537   2.722  10.944 -0.2942  0.6305 -0.6070
 8028SOL    HW135717   3.476   2.754  11.010  0.2481 -1.5686  0.9348
 8028SOL    HW235718   3.611   2.781  10.957 -1.4364  1.9396  0.0418
 8029SOL     OW35719   1.932   1.502   9.574  0.5432 -0.1268  0.0996
 8029SOL    HW135720   1.928   1.407   9.587  0.9784 -0.2517 -0.6875
 8029SOL    HW235721   2.010   1.529   9.622  0.2367 -0.0541  0.5570
 8030SOL     OW35722   2.980   1.903   5.530 -0.1216 -0.1062 -0.1928
 8030SOL    HW135723   3.075   1.915   5.530 -0.0846 -0.4417 -2.8131
 8030SOL    HW235724   2.980   1.865   5.618 -3.4106  1.1364  0.3587
 8031SOL     OW35725   1.424   3.016   8.087 -0.3703  0.1780  0.4555
 8031SOL    HW135726   1.359   3.068   8.136  0.0176  0.9074  0.2021
 8031SOL    HW235727   1.486   3.007   8.159 -0.0355  1.2494  0.3091
 8032SOL     OW35728   4.490   3.419   6.272  0.1933  0.6421  0.0216
 8032SOL    HW135729   4.516   3.429   6.364 -0.8942  1.5457  0.2354
 8032SOL    HW235730   4.460   3.509   6.259 -3.1385 -0.7768 -2.1716
 8033SOL     OW35731   0.652   2.558  13.742 -0.3539 -0.0632 -0.0953
 8033SOL    HW135732   0.629   2.519  13.826 -0.1856 -2.9466 -1.3700
 8033SOL    HW235733   0.663   2.651  13.761 -0.3511 -0.2586  0.8481
 8034SOL     OW35734   4.166   2.484   4.092  0.1188 -0.2760 -0.0850
 8034SOL    HW135735   4.087   2.512   4.046 -0.4396 -1.8225 -0.0721
 8034SOL    HW235736   4.132   2.458   4.178  1.0791  0.1234  0.4080
 8035SOL     OW35737   4.075   1.208   9.800  0.2976 -0.2737  0.6637
 8035SOL    HW135738   4.108   1.289   9.840  0.4124  0.1117 -0.2012
 8035SOL    HW235739   4.080   1.143   9.870  1.3204 -0.2306  0.6366
 8036SOL     OW35740   3.518   3.077   2.207  0.1198  0.0868  0.2226
 8036SOL    HW135741   3.449   3.079   2.141 -0.9211 -1.2411  1.2919
 8036SOL    HW235742   3.571   3.004   2.175 -1.0571 -1.8347  2.6262
 8037SOL     OW35743   3.295   3.663   2.626 -0.0258 -0.3151 -0.0511
 8037SOL    HW135744   3.326   3.746   2.662 -0.2472 -0.4384  0.4276
 8037SOL    HW235745   3.355   3.610   2.679  3.1379  0.1697 -3.1627
 8038SOL     OW35746   0.719   0.713   9.555 -0.0916 -0.9078 -0.0890
 8038SOL    HW135747   0.658   0.697   9.484 -2.6883 -1.2592  2.2094
 8038SOL    HW235748   0.678   0.670   9.631  1.4983  0.8158  1.7573
 8039SOL     OW35749   2.272   2.264   4.553 -0.5903 -0.4081 -0.3279
 8039SOL    HW135750   2.257   2.204   4.626  0.9041  0.7432  0.9095
 8039SOL    HW235751   2.357   2.233   4.524 -0.6944  0.1031 -1.2143
 8040SOL     OW35752   4.400   1.711  10.254 -0.4795  0.4102 -0.0219
 8040SOL    HW135753   4.378   1.618  10.245  1.3069 -0.0112 -0.0952
 8040SOL    HW235754   4.411   1.719  10.349 -2.3570 -0.8277  0.2843
 8041SOL     OW35755   1.737   0.490   1.200  0.4371  0.2793 -0.5421
 8041SOL    HW135756   1.791   0.568   1.211 -0.1136  0.4684  0.8624
 8041SOL    HW235757   1.799   0.425   1.233  1.1195  1.1355 -0.1514
 8042SOL     OW35758   0.537   1.677  12.815  0.8386 -0.0834  0.4141
 8042SOL    HW135759   0.462   1.693  12.757  0.1337  0.9771  1.6102
 8042SOL    HW235760   0.611   1.679  12.755  0.0585  1.9512 -0.4639
 8043SOL     OW35761   3.098   0.587   4.725 -0.0071 -0.3918 -0.0275
 8043SOL    HW135762   3.089   0.511   4.783 -1.3336 -0.8673 -0.8463
 8043SOL    HW235763   3.070   0.559   4.637 -1.7151  2.0737 -0.2717
 8044SOL     OW35764   0.331   2.375   5.233 -0.2484  0.2258 -0.1628
 8044SOL    HW135765   0.407   2.426   5.204 -0.2782  0.2893 -0.1286
 8044SOL    HW235766   0.362   2.287   5.211 -1.3597 -0.2402  0.1248
 8045SOL     OW35767   4.544   2.499   7.009  0.2227 -0.1627  0.7918
 8045SOL    HW135768   4.580   2.438   6.945  2.0338 -1.1004  2.7156
 8045SOL    HW235769   4.468   2.453   7.046  1.6992 -3.3502 -0.1156
 8046SOL     OW35770   2.632   3.203   4.474  0.4796  0.5632  0.3315
 8046SOL    HW135771   2.557   3.230   4.422 -0.6389 -0.3815  1.4501
 8046SOL    HW235772   2.671   3.137   4.417 -0.7239 -1.2292  1.5814
 8047SOL     OW35773   4.061   1.826   4.320 -0.1008 -0.4781 -0.0421
 8047SOL    HW135774   3.989   1.840   4.382 -0.2447 -1.7526  0.0828
 8047SOL    HW235775   4.043   1.734   4.301  1.0828 -0.1627 -2.6182
 8048SOL     OW35776   3.371   2.980   6.553  0.1057 -0.3524  0.1118
 8048SOL    HW135777   3.460   2.956   6.576  0.2630  0.0235 -0.1088
 8048SOL    HW235778   3.331   2.897   6.529 -0.6929  0.6631 -2.0987
 8049SOL     OW35779   1.378   2.586   9.144 -0.5498 -0.1498  0.0003
 8049SOL    HW135780   1.415   2.622   9.064 -0.1401  1.6430  0.9919
 8049SOL    HW235781   1.455   2.537   9.171  0.5020  1.4993 -0.0262
 8050SOL     OW35782   2.888   3.188   3.764 -0.1813 -0.7366 -0.1238
 8050SOL    HW135783   2.860   3.223   3.679  0.6554  2.3738  0.9007
 8050SOL    HW235784   2.901   3.094   3.748  1.6331 -0.4505 -0.3654
 8051SOL     OW35785   2.975   1.501   9.386 -0.0784  0.6502  0.3392
 8051SOL    HW135786   2.968   1.533   9.476  0.5245  0.3431  0.4950
 8051SOL    HW235787   2.950   1.583   9.344 -1.1311  1.2358  2.0993
 8052SOL     OW35788   1.704   0.327   5.605 -0.1012  0.6444  0.4153
 8052SOL    HW135789   1.768   0.365   5.665  0.2591  0.3393  0.2233
 8052SOL    HW235790   1.752   0.246   5.589  1.9292  2.1365 -1.0090
 8053SOL     OW35791   1.532   4.512   8.662 -0.9407 -0.3683 -0.5577
 8053SOL    HW135792   1.544   4.591   8.715  0.7519  0.3009 -1.9340
 8053SOL    HW235793   1.553   4.549   8.576  3.3842  1.9987  1.5117
 8054SOL     OW35794   2.527   3.125   1.116  0.7575  0.1337  0.2470
 8054SOL    HW135795   2.598   3.172   1.159  0.8575  0.3011 -0.1019
 8054SOL    HW235796   2.570   3.060   1.060 -0.7927  0.8273 -1.7428
 8055SOL     OW35797   2.855   0.356   1.581 -0.2317 -0.0677 -0.1085
 8055SOL    HW135798   2.856   0.280   1.639  0.5420  0.3702  0.4473
 8055SOL    HW235799   2.766   0.379   1.607 -0.3300  0.2466 -0.6998
 8056SOL     OW35800   4.386   4.039  12.010 -0.4656 -0.4414  0.1164
 8056SOL    HW135801   4.353   4.004  12.093 -1.5040  1.3318  0.4534
 8056SOL    HW235802   4.302   4.038  11.964 -0.3093  1.3461 -0.1881
 8057SOL     OW35803   2.644   1.771   5.636 -0.6076  0.2924 -0.4206
 8057SOL    HW135804   2.666   1.837   5.701  2.2936  1.0497 -2.1644
 8057SOL    HW235805   2.606   1.817   5.561  0.0335 -0.3121 -1.1117
 8058SOL     OW35806   2.908   3.462   9.580 -0.4595  0.0282 -0.5642
 8058SOL    HW135807   2.940   3.375   9.606 -1.7814 -0.2261  0.2476
 8058SOL    HW235808   2.817   3.437   9.567 -0.6789  0.8225 -0.5248
 8059SOL     OW35809   0.798   3.096   7.146 -0.2815 -0.0751 -0.1559
 8059SOL    HW135810   0.812   3.180   7.103  1.2596 -2.0929 -3.5477
 8059SOL    HW235811   0.833   3.036   7.080  1.2594  0.1868  0.4205
 8060SOL     OW35812   0.296   2.529   0.414 -0.0855 -0.5482 -0.3202
 8060SOL    HW135813   0.227   2.560   0.474  0.3620  0.8317 -0.5238
 8060SOL    HW235814   0.271   2.437   0.411 -0.6405 -0.3882 -0.7695
 8061SOL     OW35815   2.085   4.380  11.164  0.5031  0.3718  0.5464
 8061SOL    HW135816   2.105   4.405  11.254  0.2965 -2.7815  1.4683
 8061SOL    HW235817   2.155   4.420  11.113  1.9015 -0.6184  1.6776
 8062SOL     OW35818   1.065   3.942  16.280  0.3642 -0.0761  0.2088
 8062SOL    HW135819   1.109   3.989  16.351  0.8551 -0.1968 -0.0145
 8062SOL    HW235820   1.114   3.981  16.206  1.5326 -0.5074  0.7556
 8063SOL     OW35821   3.448   0.490   7.152  0.1296 -0.1907 -0.0174
 8063SOL    HW135822   3.471   0.574   7.192  0.9927  0.1131 -1.1631
 8063SOL    HW235823   3.357   0.467   7.170  0.5624 -0.3748  1.9306
 8064SOL     OW35824   0.342   3.406   7.473  0.3016 -0.1040  0.4410
 8064SOL    HW135825   0.302   3.356   7.402 -1.7560  0.8631  0.9385
 8064SOL    HW235826   0.315   3.367   7.556  1.4179 -0.8347  0.4665
 8065SOL     OW35827   1.874   4.283   7.327  0.0736 -0.2727 -1.0806
 8065SOL    HW135828   1.837   4.354   7.380 -0.2274 -1.2794  0.0600
 8065SOL    HW235829   1.946   4.328   7.284  1.2376 -0.9409  0.1636
 8066SOL     OW35830   2.317   3.066   5.383 -0.1830  0.2152 -0.1080
 8066SOL    HW135831   2.330   3.133   5.451 -0.9748 -0.7073  0.9479
 8066SOL    HW235832   2.224   3.045   5.386 -0.2429  0.2717 -1.5284
 8067SOL     OW35833   2.007   1.829   2.927 -0.1942  0.2649  0.0628
 8067SOL    HW135834   1.978   1.912   2.891  0.7484  0.3969 -0.3906
 8067SOL    HW235835   1.958   1.813   3.008 -1.0663  0.1319 -0.4912
 8068SOL     OW35836   2.691   1.055   2.425  0.1141  0.1683 -0.0384
 8068SOL    HW135837   2.774   1.096   2.402  1.2325 -2.9869 -1.6915
 8068SOL    HW235838   2.697   1.067   2.520  1.4964 -4.0028  0.4206
 8069SOL     OW35839   2.499   2.788  10.032  0.1785  0.3517  0.1015
 8069SOL    HW135840   2.574   2.786  10.091  0.9955  1.4427 -0.9067
 8069SOL    HW235841   2.431   2.792  10.100  0.4960 -1.4043  0.5062
 8070SOL     OW35842   4.209   2.988  13.381  0.2219  0.7124  0.4366
 8070SOL    HW135843   4.280   3.015  13.439  1.4343 -0.7135 -0.3765
 8070SOL    HW235844   4.128   3.008  13.429  0.7759 -1.4393  2.2622
 8071SOL     OW35845   4.327   0.644   0.517 -0.1442  0.0687 -0.0115
 8071SOL    HW135846   4.395   0.578   0.528 -1.6481 -1.3852  0.6451
 8071SOL    HW235847   4.338   0.655   0.423 -2.1129 -0.3741 -0.2922
 8072SOL     OW35848   0.660   3.705  14.516  0.1940  0.0335  0.5487
 8072SOL    HW135849   0.636   3.626  14.565 -0.7346  0.1628  0.3204
 8072SOL    HW235850   0.659   3.763  14.592 -0.3746 -1.1735  1.4751
 8073SOL     OW35851   2.151   2.443   3.183 -0.2328  0.3492 -0.8152
 8073SOL    HW135852   2.074   2.387   3.180 -0.2235  0.3461 -1.0450
 8073SOL    HW235853   2.119   2.509   3.244 -0.4585  0.2231 -0.7961
 8074SOL     OW35854   3.777   4.308   5.604 -0.5659  0.2339  0.2599
 8074SOL    HW135855   3.747   4.395   5.630 -2.0020 -0.1953  0.0148
 8074SOL    HW235856   3.811   4.329   5.518  0.4974  0.5129  0.7482
 8075SOL     OW35857   2.882   3.337   8.057  0.3150 -0.1818 -0.1817
 8075SOL    HW135858   2.915   3.257   8.017  0.0337 -0.5762  0.3749
 8075SOL    HW235859   2.789   3.313   8.064 -0.1749  1.1218 -2.1472
 8076SOL     OW35860   1.282   4.722   6.615  0.2251 -0.7294  0.0787
 8076SOL    HW135861   1.308   0.022   6.533  4.1381 -4.0054 -0.2590
 8076SOL    HW235862   1.364   4.726   6.665  0.4362 -0.0772 -0.3211
 8077SOL     OW35863   0.016   3.768   6.857 -0.1158  0.0187  0.1700
 8077SOL    HW135864   0.009   3.863   6.849 -0.2687  0.2024  2.7623
 8077SOL    HW235865   4.678   3.749   6.909  0.8589 -0.4548  1.4584
 8078SOL     OW35866   1.282   4.566   0.232 -0.6450 -0.1789  0.2065
 8078SOL    HW135867   1.252   4.570   0.141  0.5970 -0.8041 -0.2290
 8078SOL    HW235868   1.362   4.619   0.235 -0.8063  0.0164  1.1772
 8079SOL     OW35869   1.062   3.248   8.430 -0.1253 -0.6249 -0.5047
 8079SOL    HW135870   0.996   3.317   8.422  0.9232  0.4507  0.1772
 8079SOL    HW235871   1.031   3.183   8.493 -0.9869  0.7265  0.4647
 8080SOL     OW35872   1.423   0.179  13.674 -0.1074 -0.5775 -0.2596
 8080SOL    HW135873   1.436   0.259  13.726 -1.2905  0.0475 -0.9158
 8080SOL    HW235874   1.342   0.153  13.718 -0.6996  1.7284  0.0650
 8081SOL     OW35875   2.065   3.516   9.102  0.3654  0.6472 -0.9192
 8081SOL    HW135876   2.039   3.607   9.120  1.9141  0.3735  2.5238
 8081SOL    HW235877   2.082   3.529   9.008 -3.1864  2.0211 -1.4002
 8082SOL     OW35878   1.842   0.611   5.839  0.3763 -0.2022 -0.4508
 8082SOL    HW135879   1.923   0.646   5.876  1.7949  0.9623 -4.6336
 8082SOL    HW235880   1.869   0.528   5.801  0.9937 -0.5080  0.6560
 8083SOL     OW35881   1.142   1.138   9.037  0.2233  0.6168 -0.0029
 8083SOL    HW135882   1.114   1.143   8.946  1.4684  1.8643 -0.3297
 8083SOL    HW235883   1.233   1.107   9.044  0.8282  2.2704 -0.5380
 8084SOL     OW35884   0.569   3.559   7.931 -0.2177 -0.2369  0.1543
 8084SOL    HW135885   0.570   3.535   8.024 -1.6337 -0.0740  0.2102
 8084SOL    HW235886   0.622   3.490   7.891 -0.9885 -0.3947 -0.5872
 8085SOL     OW35887   4.397   4.228   6.852  0.1354 -0.1349 -0.2035
 8085SOL    HW135888   4.470   4.248   6.910 -0.2911 -3.1161  1.4044
 8085SOL    HW235889   4.431   4.148   6.811 -0.6093 -1.6012  1.9820
 8086SOL     OW35890   3.753   0.598   2.650 -0.8649 -0.1132 -0.7294
 8086SOL    HW135891   3.765   0.504   2.644  0.1401  0.2539 -4.3736
 8086SOL    HW235892   3.836   0.633   2.683 -2.2782  1.0172  1.6669
 8087SOL     OW35893   4.235   1.601   1.494  0.2151  0.0619  0.0621
 8087SOL    HW135894   4.281   1.684   1.512  0.5557  0.0240 -0.6154
 8087SOL    HW235895   4.296   1.545   1.543 -0.9123 -0.5922  0.7086
 8088SOL     OW35896   1.484   1.715  12.733 -0.6198  0.3846  0.1520
 8088SOL    HW135897   1.442   1.645  12.682  1.2364 -1.0840  0.6254
 8088SOL    HW235898   1.411   1.754  12.781  0.5992 -0.8361  2.9603
 8089SOL     OW35899   2.931   1.435   0.955 -0.2190 -0.0042  0.1072
 8089SOL    HW135900   2.969   1.502   0.898 -0.4128 -1.3660 -1.6137
 8089SOL    HW235901   2.889   1.490   1.021  0.3233 -0.1396  0.5606
 8090SOL     OW35902   3.729   1.849   9.495 -0.2050  0.3176  0.6001
 8090SOL    HW135903   3.748   1.757   9.514  1.0596  0.6878  1.0951
 8090SOL    HW235904   3.809   1.898   9.513 -0.0280  0.2481  0.0092
 8091SOL     OW35905   3.639   4.372   2.876 -0.1832 -0.5871  0.5230
 8091SOL    HW135906   3.695   4.301   2.846  2.3495  2.5477 -2.0998
 8091SOL    HW235907   3.625   4.340   2.965  1.1367 -2.1015  0.1916
 8092SOL     OW35908   3.945   3.066   3.582 -0.2419 -0.2119 -0.2867
 8092SOL    HW135909   3.953   2.987   3.635  2.4611  1.8195  2.2991
 8092SOL    HW235910   3.910   3.026   3.502 -0.9149  1.1542 -0.6808
 8093SOL     OW35911   1.736   0.692   8.269  0.2135 -0.5443  0.3613
 8093SOL    HW135912   1.734   0.754   8.342  1.5586  0.2219 -0.2322
 8093SOL    HW235913   1.766   0.608   8.304 -0.3689 -0.6080  0.7089
 8094SOL     OW35914   1.552   4.435   2.535 -0.3545 -0.0104  0.0682
 8094SOL    HW135915   1.515   4.520   2.554 -1.2286 -1.1419  3.4649
 8094SOL    HW235916   1.482   4.378   2.503  0.1332 -0.4541 -0.2170
 8095SOL     OW35917   3.127   0.056  16.387  0.7384  0.6564 -0.0307
 8095SOL    HW135918   3.183   0.082  16.314  3.8328 -0.2366  2.0107
 8095SOL    HW235919   3.180   0.093  16.457 -0.2528  0.8764  0.5966
 8096SOL     OW35920   4.430   0.739  12.579  0.3795  0.7947 -0.2205
 8096SOL    HW135921   4.494   0.677  12.545 -0.4197 -0.6739  0.9435
 8096SOL    HW235922   4.429   0.716  12.672  1.2713  2.8225  0.2889
 8097SOL     OW35923   0.061   4.391   5.078  0.5350  0.1050  0.2877
 8097SOL    HW135924   0.134   4.452   5.066 -0.5054  1.1396 -0.8976
 8097SOL    HW235925   0.079   4.304   5.044  0.6367  0.2046  0.0870
 8098SOL     OW35926   1.567   3.422   4.044  0.3637 -0.2830 -0.0959
 8098SOL    HW135927   1.662   3.436   4.045  0.6396 -2.2286  0.0388
 8098SOL    HW235928   1.530   3.498   4.089  2.1254 -0.0433  0.9540
 8099SOL     OW35929   1.529   0.768   4.649 -0.0173  0.7747  0.3295
 8099SOL    HW135930   1.448   0.793   4.694 -1.3323 -1.1626 -0.9590
 8099SOL    HW235931   1.590   0.776   4.723 -2.2436  0.8751  2.1637
 8100SOL     OW35932   2.600   0.984   3.822  0.0793 -0.2613 -0.4788
 8100SOL    HW135933   2.598   0.962   3.729  0.6124  0.2018 -0.5999
 8100SOL    HW235934   2.566   1.073   3.819  1.5612  0.4437  3.6910
 8101SOL     OW35935   1.238   1.436  14.736  0.1788  0.4981  0.0745
 8101SOL    HW135936   1.293   1.471  14.666 -0.6105  0.6812 -0.4479
 8101SOL    HW235937   1.174   1.384  14.687 -1.1141  0.6266  1.6193
 8102SOL     OW35938   0.641   2.199   8.692 -0.1834  0.9046  0.5316
 8102SOL    HW135939   0.668   2.224   8.604  0.1469  1.2349  0.7284
 8102SOL    HW235940   0.703   2.252   8.743  0.5375  0.5616  0.0015
 8103SOL     OW35941   0.390   2.109   6.486  0.3210 -0.1046  0.0941
 8103SOL    HW135942   0.400   2.202   6.463  0.3882  0.0150  0.5882
 8103SOL    HW235943   0.447   2.058   6.429  1.0764 -0.3755  1.0773
 8104SOL     OW35944   2.616   1.494   5.197 -0.8213  0.3410  0.0432
 8104SOL    HW135945   2.651   1.503   5.285  0.1694  2.2098 -0.5279
 8104SOL    HW235946   2.574   1.579   5.180 -0.6328  0.5542  0.6253
 8105SOL     OW35947   0.190   0.428   7.300  0.3991 -0.0902 -0.5963
 8105SOL    HW135948   0.255   0.498   7.308 -2.2154  1.9890  2.3110
 8105SOL    HW235949   0.145   0.438   7.384 -1.1084  2.7320 -1.7490
 8106SOL     OW35950   0.902   2.885   6.187  0.1658  0.5211  0.1450
 8106SOL    HW135951   0.820   2.922   6.219 -0.2766  0.6294 -1.1298
 8106SOL    HW235952   0.931   2.859   6.275 -2.6954 -0.8608  0.6858
 8107SOL     OW35953   0.740   1.514   5.807  0.2318 -0.1363 -0.0221
 8107SOL    HW135954   0.716   1.442   5.749  0.2097  1.7918 -2.4337
 8107SOL    HW235955   0.736   1.591   5.749  0.2213  0.6641  1.0304
 8108SOL     OW35956   2.427   2.726   8.742  0.2536  0.0971 -0.2301
 8108SOL    HW135957   2.354   2.713   8.803 -0.0865  3.9161  0.1437
 8108SOL    HW235958   2.493   2.674   8.790  0.9520  0.7856 -0.4584
 8109SOL     OW35959   0.196   1.148   6.786 -0.3514  0.5205 -0.0799
 8109SOL    HW135960   0.284   1.181   6.805 -0.5554  0.9740  0.0751
 8109SOL    HW235961   0.138   1.223   6.799 -2.1054 -0.9165  0.3898
 8110SOL     OW35962   2.046   1.772  15.883 -0.2020  0.2127  0.2754
 8110SOL    HW135963   1.973   1.791  15.825  0.1645  2.9764  0.7171
 8110SOL    HW235964   2.117   1.750  15.822  0.1206 -0.2677  0.8208
 8111SOL     OW35965   1.544   2.944   5.486  0.6564  0.5878 -0.1955
 8111SOL    HW135966   1.550   2.982   5.398 -1.1665  2.3854  0.4503
 8111SOL    HW235967   1.610   2.875   5.488  0.7690  0.6911 -0.3299
 8112SOL     OW35968   0.860   4.061   1.879  0.4037 -0.3770  0.6889
 8112SOL    HW135969   0.896   3.974   1.863 -0.5640 -0.3236 -1.7836
 8112SOL    HW235970   0.779   4.030   1.919  1.5667 -2.6260  1.2978
 8113SOL     OW35971   3.712   0.935   4.008 -0.2330  0.5074  0.0821
 8113SOL    HW135972   3.685   0.965   4.095  0.2442 -1.1619  0.8075
 8113SOL    HW235973   3.676   0.846   4.010  2.3730 -0.4939  1.8060
 8114SOL     OW35974   3.072   3.422   9.309  0.1168 -0.9267 -0.4710
 8114SOL    HW135975   3.053   3.336   9.346 -1.8163 -0.1363  0.4091
 8114SOL    HW235976   3.082   3.470   9.391  1.2120 -0.0968 -1.0985
 8115SOL     OW35977   2.983   4.303   4.998  0.1432 -0.1403 -0.0007
 8115SOL    HW135978   2.900   4.307   4.951  1.5665  0.9250 -2.4138
 8115SOL    HW235979   2.994   4.210   5.014  1.1167 -0.2895 -1.5192
 8116SOL     OW35980   3.181   2.306   6.525  0.1473 -0.0845  0.3964
 8116SOL    HW135981   3.208   2.376   6.584 -3.4508  0.4909  1.3262
 8116SOL    HW235982   3.205   2.231   6.581  0.1888 -2.2324 -2.5063
 8117SOL     OW35983   1.634   1.702   3.902  0.2733 -0.3812 -0.3230
 8117SOL    HW135984   1.596   1.763   3.965 -2.5458 -1.0460 -1.4098
 8117SOL    HW235985   1.630   1.619   3.948  0.5008 -0.7527 -0.9735
 8118SOL     OW35986   3.776   1.904   7.658  0.1043  0.0398 -0.0868
 8118SOL    HW135987   3.731   1.914   7.742  0.3707 -0.3771  0.1038
 8118SOL    HW235988   3.819   1.990   7.657 -0.3827  0.2900  0.8900
 8119SOL     OW35989   0.189   0.438   6.677  0.3403  0.0740  0.0095
 8119SOL    HW135990   0.252   0.372   6.706  0.8808  0.2408 -0.8081
 8119SOL    HW235991   0.243   0.513   6.655 -0.6573  0.9130  0.4029
 8120SOL     OW35992   3.523   3.276   6.691  0.1645 -0.0137 -0.7812
 8120SOL    HW135993   3.500   3.196   6.738 -0.9305  1.8244  1.7871
 8120SOL    HW235994   3.581   3.318   6.754  2.7527 -1.4491 -2.1947
 8121SOL     OW35995   3.968   0.493   6.037 -0.5075 -0.8160  0.1224
 8121SOL    HW135996   3.915   0.451   6.105 -1.6668 -0.0736 -0.3178
 8121SOL    HW235997   3.929   0.458   5.957 -0.7576 -2.4624  0.9714
 8122SOL     OW35998   0.890   1.506   6.184  0.0210 -0.0768 -0.0092
 8122SOL    HW135999   0.916   1.558   6.260  1.7137  0.4210 -0.9319
 8122SOL    HW236000   0.849   1.440   6.240 -0.9585  1.0370  0.5939
 8123SOL     OW36001   3.812   3.164   2.276  0.1713 -0.0540 -0.2479
 8123SOL    HW136002   3.904   3.170   2.303  0.6116  0.6513 -1.9375
 8123SOL    HW236003   3.778   3.244   2.315 -1.9733 -3.0303  4.0542
 8124SOL     OW36004   0.573   3.230  12.251 -0.4481  0.0252 -0.2751
 8124SOL    HW136005   0.632   3.233  12.327 -0.4241 -2.5445 -0.1867
 8124SOL    HW236006   0.538   3.319  12.240  1.8275  1.0149  0.4521
 8125SOL     OW36007   2.640   0.469   2.134 -0.1660  0.3490  0.5254
 8125SOL    HW136008   2.559   0.501   2.173  0.4483  3.0140 -0.4106
 8125SOL    HW236009   2.703   0.469   2.206  1.9720 -0.5779 -1.3335
 8126SOL     OW36010   0.345   0.561  10.977  0.4707 -0.4631 -0.2354
 8126SOL    HW136011   0.277   0.602  10.924 -2.7415 -2.6681  2.2043
 8126SOL    HW236012   0.409   0.629  11.000 -2.0132  0.4044  4.2354
 8127SOL     OW36013   4.341   0.684   2.199  0.4021  0.0446 -0.4824
 8127SOL    HW136014   4.314   0.657   2.287 -1.2687 -0.1325 -1.0577
 8127SOL    HW236015   4.271   0.740   2.167 -2.1116 -3.5905 -1.3241
 8128SOL     OW36016   4.113   3.705   7.758 -0.3871  0.1414 -0.4131
 8128SOL    HW136017   4.157   3.722   7.675  1.1305  0.4607  0.4601
 8128SOL    HW236018   4.099   3.795   7.788 -1.8279 -0.3206  0.3127
 8129SOL     OW36019   1.119   4.124  14.054  0.2721 -0.1161 -0.2372
 8129SOL    HW136020   1.025   4.108  14.054  0.5479 -1.6079 -2.3500
 8129SOL    HW236021   1.120   4.185  13.981  0.5297 -0.5915 -0.6328
 8130SOL     OW36022   2.362   1.892  15.086  0.3350 -0.0571 -0.7384
 8130SOL    HW136023   2.391   1.850  15.167 -1.3259  0.5869  0.1901
 8130SOL    HW236024   2.321   1.971  15.121  1.4631  0.6882 -1.0987
 8131SOL     OW36025   0.552   0.769   4.857  0.6065 -0.6047  0.1094
 8131SOL    HW136026   0.485   0.711   4.894 -0.4597  1.8181  1.9785
 8131SOL    HW236027   0.602   0.704   4.808  1.4090 -0.1542  0.3250
 8132SOL     OW36028   3.445   4.636   4.686 -0.2158  0.0673 -0.7452
 8132SOL    HW136029   3.354   4.667   4.683 -0.0080  0.7710  0.0806
 8132SOL    HW236030   3.437   4.540   4.683  0.6240  0.0102 -1.0196
 8133SOL     OW36031   1.009   2.260   3.060  0.3289 -0.2636  0.0595
 8133SOL    HW136032   1.043   2.349   3.048 -0.8667  0.2671  0.5144
 8133SOL    HW236033   0.978   2.244   2.971  1.4595 -0.3742 -0.3092
 8134SOL     OW36034   1.235   1.882  12.813  0.6606  0.2992  0.2661
 8134SOL    HW136035   1.204   1.968  12.841  1.9544  0.1610  2.1659
 8134SOL    HW236036   1.182   1.823  12.866  2.2665  2.0768  3.9083
 8135SOL     OW36037   2.063   3.692   6.346 -0.3429 -0.0121 -0.2148
 8135SOL    HW136038   2.111   3.762   6.390  0.0547  0.5648 -1.5749
 8135SOL    HW236039   2.130   3.626   6.364 -0.6980 -1.1099 -2.9680
 8136SOL     OW36040   2.232   1.746  16.082 -0.0498 -0.1437 -0.1126
 8136SOL    HW136041   2.171   1.748  16.009 -1.7641 -1.4684  1.2911
 8136SOL    HW236042   2.172   1.762  16.155 -0.9407  1.6054 -1.2479
 8137SOL     OW36043   4.053   4.399   6.225 -0.4696 -0.4537  0.4212
 8137SOL    HW136044   4.013   4.372   6.308 -0.5158 -2.6963 -0.3070
 8137SOL    HW236045   4.110   4.467   6.260 -0.1397 -0.8199  0.5990
 8138SOL     OW36046   0.145   2.457   2.522  0.1014 -0.1449 -0.1781
 8138SOL    HW136047   0.094   2.387   2.481 -1.0013  1.1467 -1.0522
 8138SOL    HW236048   0.203   2.475   2.448  0.7839 -1.5750  0.0161
 8139SOL     OW36049   3.977   1.720   0.552  0.6358  0.2671  0.0694
 8139SOL    HW136050   4.043   1.725   0.484 -0.9122  0.0853 -1.4575
 8139SOL    HW236051   4.033   1.751   0.623 -1.5892  0.8590  1.5962
 8140SOL     OW36052   2.959   1.013   3.168 -0.1672  0.0197 -0.2851
 8140SOL    HW136053   2.927   1.101   3.149 -0.0079  0.1384 -0.0084
 8140SOL    HW236054   3.016   1.004   3.092 -2.4985  0.0179 -2.0056
 8141SOL     OW36055   4.410   2.234   1.550 -0.3603  0.3964 -0.1414
 8141SOL    HW136056   4.451   2.197   1.629  0.7666  2.5155  0.2695
 8141SOL    HW236057   4.361   2.301   1.598 -0.4425  1.1747 -1.3353
 8142SOL     OW36058   4.502   2.728   8.301 -0.2421 -0.0471 -0.0999
 8142SOL    HW136059   4.445   2.785   8.249 -1.4584  1.1926  2.6263
 8142SOL    HW236060   4.559   2.792   8.342 -0.7254  0.6209 -0.4613
 8143SOL     OW36061   0.023   0.301   7.802 -0.4558 -0.0080  0.5969
 8143SOL    HW136062   0.073   0.379   7.823 -0.1373  0.2472 -1.1503
 8143SOL    HW236063   0.057   0.278   7.715 -3.1125 -2.1418  0.1351
 8144SOL     OW36064   2.916   1.216   5.658  0.1617  0.3747  0.2203
 8144SOL    HW136065   2.984   1.149   5.653  1.0869  1.2477  1.2945
 8144SOL    HW236066   2.885   1.217   5.567  0.4381 -2.0555  0.0844
 8145SOL     OW36067   1.206   1.257   3.901 -0.3118  0.1655 -0.2512
 8145SOL    HW136068   1.217   1.183   3.841 -2.3377  0.8169 -1.4356
 8145SOL    HW236069   1.224   1.215   3.985 -2.3508 -2.1311 -0.9624
 8146SOL     OW36070   1.797   0.138  17.593  0.2381 -0.3209  0.2842
 8146SOL    HW136071   1.866   0.201  17.614  1.8732 -1.9167 -0.2872
 8146SOL    HW236072   1.727   0.190  17.555 -2.3797 -2.3739  2.3078
 8147SOL     OW36073   1.198   0.139   7.803 -0.3248  0.2484  0.0933
 8147SOL    HW136074   1.214   0.189   7.723 -0.8775 -0.3041 -0.3597
 8147SOL    HW236075   1.256   0.175   7.870 -1.0456 -0.6905  1.2335
 8148SOL     OW36076   1.625   0.831   4.388  0.0273 -0.1652 -0.1338
 8148SOL    HW136077   1.710   0.804   4.425 -0.3354 -1.4066 -0.2111
 8148SOL    HW236078   1.564   0.799   4.454  1.6537 -1.4978  0.7442
 8149SOL     OW36079   1.087   2.529  13.631 -0.0683 -0.3498  0.3729
 8149SOL    HW136080   1.004   2.576  13.614  1.6745  2.8721  0.8079
 8149SOL    HW236081   1.144   2.602  13.654  1.5690 -2.1978  2.1321
 8150SOL     OW36082   0.081   0.336   3.346 -0.2579  0.2905 -0.3458
 8150SOL    HW136083   0.107   0.378   3.428  1.8015 -1.7656  0.0470
 8150SOL    HW236084   0.003   0.286   3.372 -0.8498  1.5614  0.3702
 8151SOL     OW36085   0.976   3.155  15.157  0.6840  0.2665  0.6147
 8151SOL    HW136086   0.932   3.239  15.142 -1.2375 -0.8994 -0.2167
 8151SOL    HW236087   1.033   3.151  15.080  0.9992  0.9416  0.8101
 8152SOL     OW36088   0.408   2.895  14.066 -0.3853  0.5739  0.0650
 8152SOL    HW136089   0.370   2.955  14.131  1.3672  1.5951  0.1434
 8152SOL    HW236090   0.501   2.918  14.063 -0.4468  0.4474 -3.0208
 8153SOL     OW36091   2.947   4.359   7.675 -0.0886  0.1180 -0.2592
 8153SOL    HW136092   2.944   4.301   7.599  0.8545  1.1066 -1.0608
 8153SOL    HW236093   2.897   4.309   7.740 -1.0708  1.3808 -0.0381
 8154SOL     OW36094   2.239   1.702   9.045 -0.0939 -0.2113  0.9302
 8154SOL    HW136095   2.234   1.779   8.989 -0.2872 -0.2538  0.8869
 8154SOL    HW236096   2.198   1.733   9.126  0.6289  0.3973  1.0652
 8155SOL     OW36097   4.228   4.106   4.708 -0.4182  0.0916  0.2713
 8155SOL    HW136098   4.173   4.107   4.630  1.3528  0.7017 -0.9570
 8155SOL    HW236099   4.188   4.031   4.752  0.3854 -0.3784  0.2073
 8156SOL     OW36100   0.539   1.768   8.878  0.0610 -0.3037 -0.0487
 8156SOL    HW136101   0.616   1.796   8.828 -1.0551 -0.0818 -1.6291
 8156SOL    HW236102   0.486   1.717   8.817  3.0849 -0.7295 -2.3054
 8157SOL     OW36103   4.568   2.687   8.879  0.1938 -0.2392 -0.0033
 8157SOL    HW136104   4.646   2.674   8.826 -0.0572  2.7498 -1.0754
 8157SOL    HW236105   4.529   2.605   8.847  0.5641 -0.9797  1.4136
 8158SOL     OW36106   1.615   1.751   2.666 -0.4064  0.0285  0.2948
 8158SOL    HW136107   1.590   1.841   2.687 -1.0850  0.3301 -1.8938
 8158SOL    HW236108   1.564   1.737   2.587  1.0596  0.5592 -0.7478
 8159SOL     OW36109   1.295   2.396   4.101  0.5137 -0.1981  0.9668
 8159SOL    HW136110   1.264   2.373   4.013  0.3802  1.6105  0.5420
 8159SOL    HW236111   1.355   2.469   4.092  1.5231 -1.1229  0.1956
 8160SOL     OW36112   0.815   0.956   4.566  0.1214 -0.2119 -0.7086
 8160SOL    HW136113   0.810   0.922   4.476  0.3365  0.6877 -1.0650
 8160SOL    HW236114   0.724   0.967   4.595  0.6762  0.6396  0.6834
 8161SOL     OW36115   0.739   2.871   1.430  0.7647  0.0082  0.0331
 8161SOL    HW136116   0.711   2.960   1.452  3.9152  0.3712  2.7011
 8161SOL    HW236117   0.834   2.882   1.434  0.4775  1.3748  3.0242
 8162SOL     OW36118   1.182   2.881   4.436  0.4613 -0.3093  0.4558
 8162SOL    HW136119   1.174   2.933   4.516  0.5305  0.2099  0.1221
 8162SOL    HW236120   1.236   2.806   4.461  1.2789 -0.2791 -1.2136
 8163SOL     OW36121   3.978   2.993   6.800  0.6406  0.2183 -0.0894
 8163SOL    HW136122   4.050   3.045   6.836 -0.0128  1.2678 -0.2949
 8163SOL    HW236123   4.011   2.907   6.827 -0.6498 -0.1470  0.3665
 8164SOL     OW36124   4.437   2.116   4.582 -0.1973 -0.3657 -0.1378
 8164SOL    HW136125   4.391   2.040   4.617 -0.2747  0.7147  2.1090
 8164SOL    HW236126   4.513   2.080   4.538  0.1257 -0.3240  0.3907
 8165SOL     OW36127   0.548   1.826   6.439  0.0530 -0.2309  0.6319
 8165SOL    HW136128   0.463   1.800   6.475  0.8300 -2.7685  0.6561
 8165SOL    HW236129   0.605   1.822   6.515 -1.1009 -1.9359  1.4097
 8166SOL     OW36130   2.391   2.213   2.370  0.2693  0.0320  0.0375
 8166SOL    HW136131   2.426   2.161   2.298 -0.2947  2.9455 -2.3145
 8166SOL    HW236132   2.455   2.283   2.387 -0.6098  0.6812  0.6612
 8167SOL     OW36133   3.785   1.882   0.949  0.4702  0.1500 -0.1292
 8167SOL    HW136134   3.778   1.813   0.883 -0.6675 -1.2285  1.4229
 8167SOL    HW236135   3.861   1.850   0.996 -0.1315 -1.5757 -0.3254
 8168SOL     OW36136   2.355   3.385   8.638  0.0726  0.2021 -0.0689
 8168SOL    HW136137   2.295   3.432   8.580  1.7024  0.7916 -1.2574
 8168SOL    HW236138   2.434   3.391   8.585  0.1965 -0.1132  0.0810
 8169SOL     OW36139   1.251   1.921   4.756  0.0580  0.8912 -0.4385
 8169SOL    HW136140   1.257   2.007   4.797 -0.8110  0.3746  0.7855
 8169SOL    HW236141   1.213   1.943   4.671 -0.0469 -1.1128 -0.9179
 8170SOL     OW36142   2.424   4.485   3.796  0.2072 -0.1817 -0.1042
 8170SOL    HW136143   2.336   4.482   3.760  0.6199 -0.1656 -1.1290
 8170SOL    HW236144   2.440   4.579   3.787  0.5299 -0.3508 -1.2395
 8171SOL     OW36145   1.070   4.039   6.870 -0.3152  0.1886  0.3507
 8171SOL    HW136146   1.076   4.108   6.803  1.2304 -1.8586 -1.5801
 8171SOL    HW236147   1.124   3.974   6.826 -0.4589  0.4856 -0.2779
 8172SOL     OW36148   2.343   1.965  15.881  0.3249 -0.3295 -0.2585
 8172SOL    HW136149   2.372   2.049  15.916 -2.1836 -0.7342  2.7438
 8172SOL    HW236150   2.398   1.913  15.941  3.2985  3.0716 -0.0529
 8173SOL     OW36151   0.309   4.166   3.820 -0.9995 -0.4714 -0.0703
 8173SOL    HW136152   0.246   4.098   3.843 -0.7820 -0.5252  0.3522
 8173SOL    HW236153   0.257   4.246   3.825 -0.2869 -0.0694  0.9745
 8174SOL     OW36154   2.687   0.444   4.923 -0.1575 -0.0181 -0.4279
 8174SOL    HW136155   2.757   0.410   4.867 -0.3766  1.3788 -1.5369
 8174SOL    HW236156   2.621   0.387   4.883  0.8734 -0.6139 -1.2761
 8175SOL     OW36157   3.863   1.126   5.026  0.3305 -0.2896  0.0399
 8175SOL    HW136158   3.813   1.156   5.102  0.7202  0.9909 -0.2143
 8175SOL    HW236159   3.915   1.205   5.011  2.9117 -1.7501  1.4927
 8176SOL     OW36160   1.403   2.647  14.595  0.3863 -0.0970  0.1955
 8176SOL    HW136161   1.311   2.673  14.598  0.2249 -0.8952  2.4561
 8176SOL    HW236162   1.413   2.619  14.504 -1.1823 -1.0202  0.3060
 8177SOL     OW36163   1.744   3.332   3.100 -0.0983  0.2133 -0.2786
 8177SOL    HW136164   1.806   3.306   3.168  1.2766 -0.3732 -1.7506
 8177SOL    HW236165   1.662   3.335   3.149 -1.3618 -2.5462 -2.2232
 8178SOL     OW36166   1.515   4.661   9.763 -0.0134 -0.3023  0.5470
 8178SOL    HW136167   1.590   4.686   9.816  0.8877  2.8107 -2.1777
 8178SOL    HW236168   1.532   4.571   9.735  3.8462  0.6828 -0.2491
 8179SOL     OW36169   1.666   0.510  16.119  0.1874  0.0898  0.0268
 8179SOL    HW136170   1.669   0.555  16.034  3.1842 -0.6763 -0.2805
 8179SOL    HW236171   1.571   0.503  16.120  0.2272 -0.9938 -2.4138
 8180SOL     OW36172   1.131   3.654  14.710 -0.2693 -0.4035  0.0910
 8180SOL    HW136173   1.212   3.669  14.662  0.3324  1.4183  1.7076
 8180SOL    HW236174   1.141   3.561  14.730 -2.2000 -0.6678 -0.1599
 8181SOL     OW36175   0.137   2.492   9.183 -0.3384 -0.7921 -0.2069
 8181SOL    HW136176   0.208   2.489   9.119  1.1716  1.5243  1.3415
 8181SOL    HW236177   0.183   2.456   9.260  1.0374  1.1816 -0.1081
 8182SOL     OW36178   0.919   0.218   6.895  0.0821  0.1077 -0.1705
 8182SOL    HW136179   0.928   0.311   6.871  0.7343  0.6844  2.3609
 8182SOL    HW236180   0.983   0.177   6.838  0.9107  2.3264 -0.8445
 8183SOL     OW36181   0.320   0.973  12.449 -0.3117 -0.2003  0.3315
 8183SOL    HW136182   0.225   0.966  12.452 -0.5551  2.9537 -0.1988
 8183SOL    HW236183   0.339   0.975  12.543 -0.8879 -0.1626  0.4433
 8184SOL     OW36184   3.209   0.865  12.331 -0.2514  0.4551 -0.0626
 8184SOL    HW136185   3.141   0.817  12.284  0.9997 -0.3897 -1.0060
 8184SOL    HW236186   3.187   0.953  12.302 -1.8578  0.7139  1.9128
 8185SOL     OW36187   3.034   2.274   2.663 -0.1618 -0.2318  0.2030
 8185SOL    HW136188   2.981   2.351   2.641  0.7584  0.3357 -0.0097
 8185SOL    HW236189   3.013   2.274   2.756  0.8335 -0.3723  0.4232
 8186SOL     OW36190   2.702   4.071   1.328 -0.1809 -0.1248 -0.2677
 8186SOL    HW136191   2.731   4.132   1.395 -0.7228  1.0299 -1.0969
 8186SOL    HW236192   2.718   4.120   1.247  1.9880 -3.0583 -1.6506
 8187SOL     OW36193   1.541   3.265   9.063  0.2994 -0.0377 -0.0515
 8187SOL    HW136194   1.547   3.296   8.972 -0.6513  0.4007  0.0350
 8187SOL    HW236195   1.448   3.243   9.071  0.7113 -0.7421  2.7098
 8188SOL     OW36196   0.170   1.604  15.432  0.3747  1.0430  0.0906
 8188SOL    HW136197   0.199   1.531  15.487  0.7951  1.8561  0.9467
 8188SOL    HW236198   0.247   1.656  15.409 -0.5129  2.2839 -0.1112
 8189SOL     OW36199   2.207   3.162  15.009  0.0377  0.7236  0.1515
 8189SOL    HW136200   2.193   3.219  15.085 -1.2648 -0.5560  0.8626
 8189SOL    HW236201   2.302   3.155  15.020  0.3034  1.6003 -1.6968
 8190SOL     OW36202   1.189   3.584  17.335  0.4355 -0.0371 -0.4548
 8190SOL    HW136203   1.225   3.516  17.392  0.6352  0.4837  0.0397
 8190SOL    HW236204   1.272   3.616  17.302 -1.5563  2.9887 -2.4786
 8191SOL     OW36205   2.256   2.789   6.683  0.3965  0.3252  0.0049
 8191SOL    HW136206   2.167   2.810   6.710  0.4599  1.1818 -0.4442
 8191SOL    HW236207   2.259   2.693   6.687  2.2823  0.4595  1.9794
 8192SOL     OW36208   2.638   1.027   6.049 -0.5201 -0.0624  0.1260
 8192SOL    HW136209   2.718   1.072   6.023 -0.9859  1.4613  1.3174
 8192SOL    HW236210   2.615   0.985   5.966 -1.8841 -3.3790  2.1780
 8193SOL     OW36211   3.063   2.026   9.917 -0.1631  0.0261  0.0188
 8193SOL    HW136212   3.103   1.939   9.917 -0.4204 -0.0936  0.1413
 8193SOL    HW236213   3.050   2.032   9.822 -3.3224 -0.6633  0.3870
 8194SOL     OW36214   4.215   0.379   6.207  0.5479 -0.3945 -0.3511
 8194SOL    HW136215   4.191   0.330   6.129  2.2739 -0.4723 -0.8501
 8194SOL    HW236216   4.309   0.359   6.212  0.4007 -1.4933 -2.2772
 8195SOL     OW36217   0.736   0.936   3.684  0.2575  0.5958 -0.3894
 8195SOL    HW136218   0.724   1.012   3.627  1.4915  0.3630 -0.9562
 8195SOL    HW236219   0.657   0.883   3.673 -0.2497  1.4787 -1.0872
 8196SOL     OW36220   4.507   2.176   0.132 -0.4252  0.6493  0.3246
 8196SOL    HW136221   4.506   2.123   0.053 -2.9714  1.9438 -0.5096
 8196SOL    HW236222   4.586   2.138   0.172  1.0594  5.4213  1.8881
 8197SOL     OW36223   3.723   0.504   1.317 -0.4672 -0.2251 -0.3393
 8197SOL    HW136224   3.723   0.597   1.295  0.6761 -0.3284 -0.7741
 8197SOL    HW236225   3.719   0.467   1.228 -0.5304 -1.0761  0.0169
 8198SOL     OW36226   4.196   3.104   2.404  0.1867 -0.2544  0.0394
 8198SOL    HW136227   4.231   3.189   2.432 -1.1904  1.1117 -2.4215
 8198SOL    HW236228   4.115   3.109   2.455  1.6345 -0.2229  2.3659
 8199SOL     OW36229   0.936   4.302   9.520  0.3203 -0.3722  0.1194
 8199SOL    HW136230   0.887   4.221   9.510 -1.9382  0.8581  1.1777
 8199SOL    HW236231   0.994   4.279   9.593 -0.4356  1.4123  1.2846
 8200SOL     OW36232   1.070   3.496   9.627  0.0421 -0.1195  0.4428
 8200SOL    HW136233   1.088   3.408   9.593  1.1178 -0.5814  2.2644
 8200SOL    HW236234   1.016   3.477   9.703  2.4962 -0.0856  2.1686
 8201SOL     OW36235   0.877   2.024   3.431  0.0849  0.0467 -0.3169
 8201SOL    HW136236   0.834   2.089   3.376 -1.1229  0.3766  1.0015
 8201SOL    HW236237   0.803   1.965   3.447  1.6690 -1.7196  0.5612
 8202SOL     OW36238   0.572   0.201   7.123  0.2995 -0.5462  0.1959
 8202SOL    HW136239   0.555   0.189   7.216  0.2531 -0.2323  0.2275
 8202SOL    HW236240   0.610   0.288   7.112  0.1297 -0.1423  2.9631
 8203SOL     OW36241   4.037   2.845  11.645  0.4167 -0.4671 -0.1511
 8203SOL    HW136242   4.129   2.845  11.672  0.5911 -0.3039 -0.7504
 8203SOL    HW236243   4.017   2.938  11.639 -0.1479 -0.5994 -0.2902
 8204SOL     OW36244   2.239   4.023   4.203 -0.0796 -0.3007  0.3665
 8204SOL    HW136245   2.215   3.969   4.278 -0.9823 -0.9176 -0.3722
 8204SOL    HW236246   2.333   4.005   4.197  0.0700  1.0697 -1.5242
 8205SOL     OW36247   3.032   2.526  10.281  0.3326 -0.1546  0.1563
 8205SOL    HW136248   3.027   2.484  10.195 -3.0767 -0.4988  0.4986
 8205SOL    HW236249   2.981   2.455  10.320 -0.4557  0.0147 -0.5621
 8206SOL     OW36250   0.573   3.651  15.055  0.8075  0.2517  0.5614
 8206SOL    HW136251   0.579   3.725  15.116 -0.4465 -1.3004  2.5684
 8206SOL    HW236252   0.513   3.601  15.110 -0.8084  0.5817 -0.8981
 8207SOL     OW36253   0.125   0.858  15.402  0.3556 -0.3691  0.1390
 8207SOL    HW136254   0.063   0.809  15.349  0.3691 -0.1987 -0.0342
 8207SOL    HW236255   0.067   0.906  15.460 -0.2365  1.4899 -2.0072
 8208SOL     OW36256   0.425   2.305  13.513  0.1355  0.1239 -0.6941
 8208SOL    HW136257   0.401   2.276  13.425 -0.7930  2.0774 -1.0819
 8208SOL    HW236258   0.438   2.400  13.516  0.8867  0.0647 -1.8979
 8209SOL     OW36259   4.644   3.161   4.933 -0.3489  0.1829 -0.5403
 8209SOL    HW136260   4.553   3.152   4.961  0.2595 -0.6060  1.1855
 8209SOL    HW236261   4.636   3.152   4.838  1.2738 -1.5099 -0.5329
 8210SOL     OW36262   3.067   3.628   2.256  0.2265 -0.7505 -0.1067
 8210SOL    HW136263   3.039   3.682   2.330  0.0710  0.0418 -0.7415
 8210SOL    HW236264   2.996   3.646   2.194  0.4137  0.5872  0.0531
 8211SOL     OW36265   0.358   4.327   8.703  0.1976  0.3364 -0.1430
 8211SOL    HW136266   0.353   4.261   8.772 -2.3315 -1.4877 -2.0676
 8211SOL    HW236267   0.341   4.406   8.754 -0.5269  0.9207 -1.3035
 8212SOL     OW36268   1.022   4.578   7.039  0.3502 -0.6853  0.9930
 8212SOL    HW136269   0.944   4.631   7.054  1.9976  2.2203 -0.7619
 8212SOL    HW236270   0.973   4.497   7.026  1.4919 -0.9979 -1.3291
 8213SOL     OW36271   0.572   0.725   6.072  0.6902  0.7193  0.4922
 8213SOL    HW136272   0.522   0.794   6.029 -1.8070 -1.2366  0.2781
 8213SOL    HW236273   0.544   0.744   6.162 -2.2716 -0.2166 -0.2407
 8214SOL     OW36274   3.859   4.715  10.491  0.1859  0.6662 -0.3908
 8214SOL    HW136275   3.913   0.039  10.537 -1.8315  0.4400  2.2638
 8214SOL    HW236276   3.866   0.010  10.402 -0.9318 -0.5805 -0.9789
 8215SOL     OW36277   1.104   3.675  16.732 -0.0099 -0.2064  0.0226
 8215SOL    HW136278   1.157   3.732  16.676 -2.2073  0.6644 -1.1775
 8215SOL    HW236279   1.124   3.589  16.694  0.2910 -0.3613  0.5319
 8216SOL     OW36280   1.149   1.704  13.005 -0.2004  0.2023 -0.3085
 8216SOL    HW136281   1.180   1.729  13.092 -1.3410  0.6853 -0.0454
 8216SOL    HW236282   1.082   1.641  13.030  0.2971  0.2636  1.1721
 8217SOL     OW36283   0.985   1.597   6.455  0.1807 -0.8420  0.2790
 8217SOL    HW136284   0.914   1.642   6.500  1.8337  1.7171  0.3486
 8217SOL    HW236285   1.034   1.678   6.437 -0.1541 -0.9748 -1.2833
 8218SOL     OW36286   4.613   2.878  15.948 -0.2526  0.0454  0.6746
 8218SOL    HW136287   4.628   2.816  15.876  0.2573 -0.3218  1.0988
 8218SOL    HW236288   4.675   2.945  15.921  0.9551 -1.6746 -0.8633
 8219SOL     OW36289   3.955   1.302   4.003 -0.1803 -0.4134  0.4431
 8219SOL    HW136290   4.013   1.309   3.927 -1.2696 -1.0567 -0.4478
 8219SOL    HW236291   3.961   1.214   4.040  0.9793 -0.6638 -0.3688
 8220SOL     OW36292   3.007   3.998   2.815  0.5763  0.0986  0.1448
 8220SOL    HW136293   3.025   4.034   2.902 -0.4015 -1.7937  1.1278
 8220SOL    HW236294   2.917   4.026   2.795  0.2926 -1.2197 -0.3960
 8221SOL     OW36295   1.005   1.123   6.202 -0.6586  0.6911 -0.2422
 8221SOL    HW136296   1.011   1.068   6.280  0.0781  0.8588 -0.1774
 8221SOL    HW236297   0.926   1.175   6.217 -2.7754 -2.6862  0.3511
 8222SOL     OW36298   1.031   4.439   6.414 -0.3192 -0.2777  0.2752
 8222SOL    HW136299   1.126   4.456   6.415 -0.1792 -0.9386 -1.5151
 8222SOL    HW236300   1.024   4.372   6.346  3.6060 -0.0266 -0.3974
 8223SOL     OW36301   1.709   1.953   8.149 -0.2269 -0.1864 -0.0923
 8223SOL    HW136302   1.761   2.033   8.150  0.2504 -0.4887 -1.0355
 8223SOL    HW236303   1.623   1.995   8.148 -0.5930 -0.9119  0.5909
 8224SOL     OW36304   3.519   1.871   2.763 -0.4516  0.0499  0.2344
 8224SOL    HW136305   3.540   1.826   2.845 -0.8476  0.3876  0.5186
 8224SOL    HW236306   3.601   1.921   2.759 -0.5059  0.0343 -1.2534
 8225SOL     OW36307   2.341   0.112   6.679  0.4899  0.1569 -0.1016
 8225SOL    HW136308   2.433   0.094   6.661  0.6374 -0.1448  0.8992
 8225SOL    HW236309   2.337   0.088   6.772 -3.3075 -0.3416 -0.3903
 8226SOL     OW36310   0.018   2.462  12.203  0.4378 -0.3000 -0.1668
 8226SOL    HW136311   0.038   2.547  12.243 -0.4921 -0.8417  1.4785
 8226SOL    HW236312   0.020   2.402  12.278 -0.8112 -0.5827 -0.3603
 8227SOL     OW36313   3.668   2.382   4.784  0.1134  0.3249 -0.1412
 8227SOL    HW136314   3.641   2.363   4.874 -1.3775 -0.7124 -0.8136
 8227SOL    HW236315   3.711   2.467   4.794  0.7943  0.1460 -1.5412
 8228SOL     OW36316   1.173   2.791   9.508 -0.1780  0.4043  0.1914
 8228SOL    HW136317   1.156   2.789   9.602  1.4004 -0.9949  0.4352
 8228SOL    HW236318   1.088   2.804   9.466 -0.8255  3.1990  2.3529
 8229SOL     OW36319   0.747   2.528   6.032 -0.0993  0.3193 -0.0242
 8229SOL    HW136320   0.726   2.456   5.973  0.0107  0.0177  0.3027
 8229SOL    HW236321   0.731   2.596   5.966 -0.7517  1.2737  1.1245
 8230SOL     OW36322   3.425   1.304   2.774 -0.0447  0.0694  0.1162
 8230SOL    HW136323   3.370   1.357   2.717 -1.1581  0.6128  1.6974
 8230SOL    HW236324   3.369   1.226   2.776 -0.1478  0.1232 -0.9798
 8231SOL     OW36325   0.678   0.558   7.713  0.1224 -0.2652 -0.0941
 8231SOL    HW136326   0.702   0.620   7.781  1.4117  0.2130 -0.9681
 8231SOL    HW236327   0.655   0.622   7.646  1.4777 -1.5764 -1.8093
 8232SOL     OW36328   0.822   2.704  16.961 -0.4085  0.0145 -0.6631
 8232SOL    HW136329   0.783   2.777  17.009 -0.5768 -0.2347 -0.4211
 8232SOL    HW236330   0.914   2.729  16.956  0.4978 -3.3020 -0.5041
 8233SOL     OW36331   4.350   2.660   8.037 -0.2734 -0.0064 -0.2783
 8233SOL    HW136332   4.326   2.742   8.079 -0.9219  0.6523 -1.9587
 8233SOL    HW236333   4.431   2.681   7.991 -0.2068  0.7536  0.1964
 8234SOL     OW36334   2.973   4.291   7.223  0.1147  0.0917 -0.0318
 8234SOL    HW136335   3.019   4.369   7.193  1.1192  0.0972  1.5415
 8234SOL    HW236336   3.045   4.229   7.230  0.4016  0.5487  1.0254
 8235SOL     OW36337   3.354   3.748   9.779  0.0042  0.5847  0.9660
 8235SOL    HW136338   3.339   3.840   9.801 -1.9552  0.0603  1.8466
 8235SOL    HW236339   3.326   3.708   9.861  0.4822 -1.4076  0.1573
 8236SOL     OW36340   0.481   0.410   7.845  0.4663  0.1095  0.5192
 8236SOL    HW136341   0.446   0.385   7.759 -0.4089  1.7758  0.3867
 8236SOL    HW236342   0.560   0.461   7.831  0.9940 -0.6724  0.6412
 8237SOL     OW36343   0.939   3.592   6.878 -0.4531  0.1723  0.0298
 8237SOL    HW136344   0.883   3.667   6.898 -0.0654  0.7506 -1.0750
 8237SOL    HW236345   0.897   3.561   6.797  1.0742  0.4465 -0.8634
 8238SOL     OW36346   1.363   3.751   7.354  0.5513 -0.1265 -0.5613
 8238SOL    HW136347   1.420   3.720   7.283 -0.7275  1.2064 -2.1828
 8238SOL    HW236348   1.289   3.691   7.345 -0.4101  0.6079  2.4954
 8239SOL     OW36349   4.354   3.916   8.130 -0.4612  0.2578  0.4406
 8239SOL    HW136350   4.364   3.951   8.041  0.6400 -0.2188  0.3658
 8239SOL    HW236351   4.261   3.894   8.128  0.1644 -2.1628 -2.0313
 8240SOL     OW36352   1.537   2.654   3.561  0.7487  0.0359  0.2995
 8240SOL    HW136353   1.514   2.561   3.562  0.1329  0.1722 -1.2888
 8240SOL    HW236354   1.458   2.684   3.515  0.4280 -0.5420  0.4781
 8241SOL     OW36355   3.295   3.877  17.241  0.3486  0.3412 -0.4054
 8241SOL    HW136356   3.277   3.838  17.155  3.7472  0.0396 -0.9478
 8241SOL    HW236357   3.278   3.968  17.216 -1.3452  0.2121  0.2273
 8242SOL     OW36358   1.355   4.000   6.533 -0.5649  0.3019 -0.2094
 8242SOL    HW136359   1.289   3.992   6.464 -0.4048  0.6130 -0.3979
 8242SOL    HW236360   1.359   4.095   6.537  2.1135  0.1699  0.2018
 8243SOL     OW36361   4.405   3.800   2.560 -0.0187  0.2890  0.1330
 8243SOL    HW136362   4.488   3.798   2.608 -0.1469  0.3530  0.3555
 8243SOL    HW236363   4.346   3.794   2.635 -0.3739 -0.0716 -0.1766
 8244SOL     OW36364   3.009   3.809   6.256 -0.1238 -0.0020 -0.6609
 8244SOL    HW136365   3.059   3.869   6.312  1.0640 -0.8445 -0.8069
 8244SOL    HW236366   2.933   3.865   6.240 -0.0936  0.5606  1.0875
 8245SOL     OW36367   4.665   0.698   0.749  0.5820 -0.5161  0.5452
 8245SOL    HW136368   4.715   0.621   0.775  2.0920 -0.0042 -0.8385
 8245SOL    HW236369   4.707   0.713   0.664 -3.1414  1.5294 -0.9498
 8246SOL     OW36370   4.723   1.390   3.658 -0.4978  0.0515 -0.1562
 8246SOL    HW136371   0.066   1.345   3.647 -0.4313  0.2876 -0.6357
 8246SOL    HW236372   4.696   1.407   3.568  0.4440 -1.8444 -0.8007
 8247SOL     OW36373   3.432   3.825   8.848 -0.3378 -0.0476  0.1464
 8247SOL    HW136374   3.370   3.791   8.912  1.3961 -1.7874  0.9079
 8247SOL    HW236375   3.509   3.802   8.901 -0.1264  1.0341  0.3128
 8248SOL     OW36376   2.815   1.708   9.317 -0.1460  0.5747  0.9533
 8248SOL    HW136377   2.829   1.772   9.387  2.8688 -0.7452  1.5597
 8248SOL    HW236378   2.724   1.735   9.301  0.5141  2.1316 -0.1737
 8249SOL     OW36379   1.940   1.662  11.479  0.0568  0.3676 -0.1383
 8249SOL    HW136380   1.854   1.619  11.481 -0.5237  1.4786 -1.6552
 8249SOL    HW236381   1.905   1.745  11.447 -0.9844  0.3151  0.8429
 8250SOL     OW36382   0.087   0.634  10.857 -0.0337 -0.4611  0.4976
 8250SOL    HW136383   0.063   0.699  10.792  1.7585  0.6568  0.9634
 8250SOL    HW236384   0.022   0.569  10.830  0.4636 -0.3001 -1.0794
 8251SOL     OW36385   3.428   3.406   3.973 -0.0645  0.1027  0.3992
 8251SOL    HW136386   3.425   3.501   3.984 -0.3882  0.4020 -2.2395
 8251SOL    HW236387   3.385   3.405   3.888 -0.3490 -1.9391  0.5676
 8252SOL     OW36388   4.689   4.697   9.257 -0.2080 -0.1757 -0.9835
 8252SOL    HW136389   4.620   4.637   9.285  0.1007 -0.4026 -0.7067
 8252SOL    HW236390   4.680   0.023   9.326 -1.5439  0.3242 -1.6398
 8253SOL     OW36391   1.605   2.461   9.176 -0.2938 -0.0335 -0.0129
 8253SOL    HW136392   1.689   2.500   9.199 -1.0662  1.3006  0.5617
 8253SOL    HW236393   1.628   2.414   9.096 -1.7697 -1.2566  0.2905
 8254SOL     OW36394   2.507   0.773   3.997 -0.4156 -0.6745  0.7312
 8254SOL    HW136395   2.428   0.770   3.943 -0.5653 -3.1352  1.0864
 8254SOL    HW236396   2.572   0.824   3.948 -1.4473 -0.9742 -0.9383
 8255SOL     OW36397   1.176   1.526   5.262 -0.1768  0.6407  0.6273
 8255SOL    HW136398   1.092   1.484   5.278  0.0454  0.3162  0.9574
 8255SOL    HW236399   1.240   1.454   5.265  0.2654  0.9041 -2.4116
 8256SOL     OW36400   4.162   3.948   6.770 -0.0242  0.0802  0.0276
 8256SOL    HW136401   4.179   3.875   6.710  0.5889  0.0719  0.2130
 8256SOL    HW236402   4.191   4.023   6.718  0.3461 -1.2986 -1.7487
 8257SOL     OW36403   3.194   4.098   5.291 -0.4184  0.0139 -0.1233
 8257SOL    HW136404   3.262   4.039   5.260 -0.7884 -1.5063  1.9676
 8257SOL    HW236405   3.141   4.111   5.212 -0.7028  1.0837  0.2466
 8258SOL     OW36406   3.689   1.486   1.367 -0.2384  0.4419  0.3396
 8258SOL    HW136407   3.619   1.427   1.392 -0.9284  1.1518  0.0772
 8258SOL    HW236408   3.677   1.484   1.272 -0.9508  0.3314  0.4338
 8259SOL     OW36409   1.545   0.390   6.146  0.1187 -0.7254  0.1074
 8259SOL    HW136410   1.542   0.318   6.083  1.9910 -1.0770  0.4043
 8259SOL    HW236411   1.565   0.466   6.091  2.2248 -0.9520  0.5447
 8260SOL     OW36412   0.938   2.941   9.101  0.1705 -0.2123 -0.0653
 8260SOL    HW136413   1.027   2.915   9.125  0.4383 -0.6495 -1.5424
 8260SOL    HW236414   0.885   2.956   9.180  2.7865  1.4478  1.3878
 8261SOL     OW36415   3.028   4.333   5.862 -0.3445  0.2488 -0.1925
 8261SOL    HW136416   3.102   4.320   5.921  1.0473  0.3633 -1.9020
 8261SOL    HW236417   3.069   4.301   5.781  0.1147 -0.8408  0.4725
 8262SOL     OW36418   3.621   3.763   4.348  0.3326 -0.1729  0.3270
 8262SOL    HW136419   3.681   3.823   4.394 -1.0968  1.7975 -0.3626
 8262SOL    HW236420   3.592   3.825   4.281  2.5128 -0.6021 -1.0292
 8263SOL     OW36421   4.343   0.090  17.324  0.7018  0.2461  0.2603
 8263SOL    HW136422   4.344   0.112  17.417  0.0108  2.6840 -0.3175
 8263SOL    HW236423   4.438   0.093  17.312  0.4186  1.3723 -1.5782
 8264SOL     OW36424   4.242   2.373  10.459  0.1294 -0.0464  0.1076
 8264SOL    HW136425   4.194   2.398  10.380 -0.2590 -1.3315 -0.0687
 8264SOL    HW236426   4.184   2.408  10.527  1.0528  1.0538  0.3289
 8265SOL     OW36427   3.881   2.858   6.541  0.5994 -0.2895 -1.0028
 8265SOL    HW136428   3.875   2.804   6.462  2.3537  2.0073 -2.7128
 8265SOL    HW236429   3.975   2.873   6.544  0.3720  0.2407  2.6370
 8266SOL     OW36430   1.083   4.320  13.882  0.4741 -0.7564  0.0637
 8266SOL    HW136431   1.072   4.325  13.787  0.4385 -1.5685  0.0266
 8266SOL    HW236432   0.994   4.347  13.907 -0.3645 -1.8407 -1.7766
 8267SOL     OW36433   3.252   1.029   7.688  0.1817  0.3625  0.0269
 8267SOL    HW136434   3.308   1.097   7.726 -1.4585  0.8070  1.6496
 8267SOL    HW236435   3.254   1.050   7.595  0.8080 -0.0827 -0.0551
 8268SOL     OW36436   4.187   0.666   4.348  0.3560 -0.2039 -0.8876
 8268SOL    HW136437   4.099   0.632   4.332 -0.9073  2.5434  0.2144
 8268SOL    HW236438   4.188   0.748   4.299 -2.7632 -1.8223 -3.6560
 8269SOL     OW36439   4.515   1.231   4.130 -1.0109  0.1389 -0.0544
 8269SOL    HW136440   4.594   1.186   4.099 -1.1705  0.1969 -0.5494
 8269SOL    HW236441   4.446   1.171   4.103  0.5612 -1.6863 -0.0417
 8270SOL     OW36442   1.997   1.402   0.288  1.1331  0.0450 -0.4925
 8270SOL    HW136443   1.988   1.410   0.383 -2.7486  2.7300 -1.0832
 8270SOL    HW236444   1.950   1.483   0.268 -1.5417 -1.3753 -0.0125
 8271SOL     OW36445   1.243   2.459   1.902  0.0376  0.8601  0.8597
 8271SOL    HW136446   1.187   2.460   1.980 -1.3338  0.9518 -0.1340
 8271SOL    HW236447   1.270   2.550   1.890  0.3843  0.5516 -0.6968
 8272SOL     OW36448   0.734   3.131  13.273  0.0362  0.4861  0.0140
 8272SOL    HW136449   0.726   3.226  13.264 -2.9180  0.2093 -0.1408
 8272SOL    HW236450   0.656   3.102  13.320  1.2034  0.6097  2.0305
 8273SOL     OW36451   4.475   4.576  11.618  0.2909  0.2228  0.2890
 8273SOL    HW136452   4.436   4.508  11.673 -0.2390  2.5946  2.7970
 8273SOL    HW236453   4.506   4.648  11.673 -0.0296  1.6710 -1.4165
 8274SOL     OW36454   3.164   2.293   3.800 -0.3987  0.5166 -0.2931
 8274SOL    HW136455   3.191   2.375   3.843 -0.4083  1.4158 -2.0062
 8274SOL    HW236456   3.158   2.236   3.876  1.5353  0.6368 -0.0488
 8275SOL     OW36457   0.200   0.324   6.393  0.0972 -0.2210 -0.5604
 8275SOL    HW136458   0.247   0.405   6.375 -0.6696  0.2151 -0.5858
 8275SOL    HW236459   0.186   0.342   6.486  0.2212 -1.8451 -0.2137
 8276SOL     OW36460   0.490   1.017  15.083  0.1356 -0.2932  0.1791
 8276SOL    HW136461   0.429   0.972  15.142  1.3270 -1.3958  0.5849
 8276SOL    HW236462   0.563   0.957  15.069 -0.3603 -1.0587  0.7881
 8277SOL     OW36463   4.267   3.418   8.604  0.0253 -0.0525  0.3390
 8277SOL    HW136464   4.268   3.349   8.538 -0.9318  0.0069  0.2602
 8277SOL    HW236465   4.195   3.387   8.659  1.0044  0.5647  1.9817
 8278SOL     OW36466   3.774   0.753   0.728 -0.5113  0.0861 -0.7029
 8278SOL    HW136467   3.771   0.748   0.632  0.9451 -1.6884 -0.6543
 8278SOL    HW236468   3.835   0.823   0.750  0.9050 -1.1733 -0.6613
 8279SOL     OW36469   2.959   2.203   5.461  0.2675 -0.6500  0.7134
 8279SOL    HW136470   2.927   2.113   5.468  0.6735 -0.7208  1.6984
 8279SOL    HW236471   2.888   2.233   5.404 -0.0612  0.7706  1.8709
 8280SOL     OW36472   1.290   0.945  15.874 -0.2446  0.7021  0.5394
 8280SOL    HW136473   1.284   1.024  15.821  3.0695 -0.5717 -1.8229
 8280SOL    HW236474   1.204   0.906  15.862  0.5634 -0.3938 -1.7286
 8281SOL     OW36475   3.587   1.272   4.218  0.3535  0.1986  0.0193
 8281SOL    HW136476   3.634   1.189   4.229 -0.1179 -0.1161 -0.4187
 8281SOL    HW236477   3.661   1.328   4.193 -0.0735  0.7357 -0.0394
 8282SOL     OW36478   4.384   1.882   0.506  0.4614  0.0388 -0.1422
 8282SOL    HW136479   4.382   1.939   0.583  1.3809 -0.7448  0.4625
 8282SOL    HW236480   4.414   1.941   0.437 -1.3763  1.5436  0.3454
 8283SOL     OW36481   0.457   1.994   8.267 -0.1626  0.1128  0.1414
 8283SOL    HW136482   0.379   1.967   8.218 -0.1259  0.2955 -0.0158
 8283SOL    HW236483   0.430   2.076   8.308  1.2509  0.9755 -0.6852
 8284SOL     OW36484   0.594   3.041   6.766  0.2541  0.0619  0.1333
 8284SOL    HW136485   0.547   3.118   6.799  0.8260  0.8926 -0.9852
 8284SOL    HW236486   0.549   3.028   6.682  1.2230  0.7626 -0.5016
 8285SOL     OW36487   1.565   3.101  16.314 -0.3798  0.4197  0.4362
 8285SOL    HW136488   1.476   3.132  16.300 -0.8941 -0.8041  1.0439
 8285SOL    HW236489   1.594   3.166  16.378  0.6204 -0.5126  0.9394
 8286SOL     OW36490   0.834   0.913   0.967 -0.3420  0.4438  0.1799
 8286SOL    HW136491   0.841   0.983   0.903 -2.2738  0.0281 -0.4789
 8286SOL    HW236492   0.812   0.847   0.901  1.4073  1.5942 -1.5248
 8287SOL     OW36493   4.063   0.152   1.664 -0.1510 -0.0802  0.1585
 8287SOL    HW136494   3.998   0.223   1.661  1.5417  1.5062  0.7957
 8287SOL    HW236495   4.142   0.191   1.626 -0.0444 -0.2497  0.2071
 8288SOL     OW36496   1.005   3.983   0.448  0.4351 -1.2980  0.1301
 8288SOL    HW136497   0.958   4.035   0.513  0.3247 -2.0562  0.6694
 8288SOL    HW236498   1.048   3.912   0.497  0.6137  0.5338  2.6191
 8289SOL     OW36499   1.531   2.980  13.292 -0.5244 -0.1939  0.1617
 8289SOL    HW136500   1.474   2.950  13.362 -1.7688 -3.0822 -2.1211
 8289SOL    HW236501   1.471   2.981  13.218  1.3434  0.4321 -1.3344
 8290SOL     OW36502   2.285   3.294   5.968 -0.2548  0.1283  0.3010
 8290SOL    HW136503   2.219   3.295   6.037  0.6102  1.6618  1.1220
 8290SOL    HW236504   2.337   3.374   5.978 -1.2260  0.6077  1.4735
 8291SOL     OW36505   1.613   3.374   7.408 -0.3190  0.0996 -0.1116
 8291SOL    HW136506   1.573   3.290   7.429 -1.8473  1.3617  2.0889
 8291SOL    HW236507   1.557   3.405   7.337 -1.2071 -0.2594  0.4310
 8292SOL     OW36508   4.502   2.071  11.657  0.1603  0.0456  0.6321
 8292SOL    HW136509   4.506   2.078  11.562  0.2979  1.3098  0.7229
 8292SOL    HW236510   4.570   2.006  11.673  0.6245  0.1960 -0.7378
 8293SOL     OW36511   2.837   2.427   4.004 -0.6701  0.7042  0.2043
 8293SOL    HW136512   2.829   2.353   4.063  0.1206 -0.8281 -1.6011
 8293SOL    HW236513   2.807   2.383   3.924 -0.0346 -0.6783  0.7359
 8294SOL     OW36514   2.332   0.596   1.389  0.0314 -0.2388  0.0643
 8294SOL    HW136515   2.420   0.565   1.410 -0.4077 -1.5524  0.0198
 8294SOL    HW236516   2.312   0.527   1.326  0.5008  0.4485 -0.8273
 8295SOL     OW36517   3.804   0.023  15.528 -0.2068  0.7023 -1.0370
 8295SOL    HW136518   3.829   0.056  15.614 -1.7925 -0.9975  0.0979
 8295SOL    HW236519   3.712   0.052  15.532 -0.2413  0.4991 -0.4378
 8296SOL     OW36520   2.818   4.459  11.766  0.2496 -0.1919  0.1793
 8296SOL    HW136521   2.765   4.446  11.687 -0.4153 -2.7375  1.0468
 8296SOL    HW236522   2.810   4.554  11.775  0.1243 -0.2990  1.1644
 8297SOL     OW36523   1.904   0.004   4.496 -0.2102  0.3832  0.1253
 8297SOL    HW136524   1.914   0.043   4.583 -2.2189 -0.8145  0.9133
 8297SOL    HW236525   1.988   4.735   4.452 -0.8500  0.9392 -1.2110
 8298SOL     OW36526   0.653   1.891  14.918  0.0175 -0.5067  0.3828
 8298SOL    HW136527   0.724   1.828  14.912 -0.3137 -0.6868 -1.7647
 8298SOL    HW236528   0.666   1.908  15.011 -1.3967 -1.0282  0.6720
 8299SOL     OW36529   0.985   3.657   0.357  0.0752 -0.6580  0.1041
 8299SOL    HW136530   1.005   3.721   0.425 -0.4696 -0.5251  0.1440
 8299SOL    HW236531   0.917   3.703   0.307 -0.9605 -2.4233 -0.1197
 8300SOL     OW36532   3.611   2.064   1.030  0.2659  0.1876  0.5072
 8300SOL    HW136533   3.606   2.017   1.114  0.3676 -1.3972 -0.3737
 8300SOL    HW236534   3.665   2.003   0.980  1.2068  0.6944  0.9068
 8301SOL     OW36535   1.377   1.197   4.961  0.1231  0.2706 -0.1762
 8301SOL    HW136536   1.408   1.138   4.892 -1.7356 -2.6433  1.4651
 8301SOL    HW236537   1.398   1.278   4.915  2.1700 -0.4074 -0.4371
 8302SOL     OW36538   3.994   0.358  14.936 -0.7586 -0.2058  0.0601
 8302SOL    HW136539   3.983   0.278  14.886  1.3533  0.3235 -1.2560
 8302SOL    HW236540   3.974   0.422  14.868  3.1655 -1.1568 -1.9907
 8303SOL     OW36541   2.476   0.507  12.105 -0.4477 -0.2163  0.9079
 8303SOL    HW136542   2.524   0.475  12.182 -2.4554 -1.0265  1.8213
 8303SOL    HW236543   2.556   0.543  12.068 -0.3486  0.1269  1.4558
 8304SOL     OW36544   4.169   1.690   2.272  0.2630  0.2485 -0.8193
 8304SOL    HW136545   4.143   1.679   2.363  2.5183  2.1593  0.0484
 8304SOL    HW236546   4.125   1.618   2.225 -0.7439 -0.5724  1.3884
 8305SOL     OW36547   4.315   4.614  14.573  0.7432 -0.8665 -0.4223
 8305SOL    HW136548   4.288   4.698  14.611 -0.0050 -1.4976  0.4358
 8305SOL    HW236549   4.345   4.564  14.648  0.8752 -2.4174 -1.4924
 8306SOL     OW36550   3.589   1.541   7.224 -0.3788 -0.0350 -0.0250
 8306SOL    HW136551   3.628   1.585   7.149  0.4306 -1.3610 -0.3731
 8306SOL    HW236552   3.646   1.466   7.235 -0.0102  0.1485 -0.7032
 8307SOL     OW36553   1.479   4.038   4.390 -0.0499  0.0500 -0.0630
 8307SOL    HW136554   1.407   4.100   4.380 -0.0206  0.2434  0.9303
 8307SOL    HW236555   1.516   4.047   4.302 -0.0779 -1.2869 -0.2118
 8308SOL     OW36556   2.879   1.052   9.018  0.1086 -0.2702 -0.3143
 8308SOL    HW136557   2.883   1.128   9.077 -0.0309  1.6609 -2.8103
 8308SOL    HW236558   2.956   1.066   8.963  1.6808 -0.3813  1.8327
 8309SOL     OW36559   2.613   2.578   8.533 -0.4210  0.4300  0.0287
 8309SOL    HW136560   2.685   2.602   8.591 -1.3282  3.9923 -0.3081
 8309SOL    HW236561   2.634   2.488   8.508  1.0623  0.0801  2.5530
 8310SOL     OW36562   1.189   3.829   6.714  0.2837 -0.1870 -0.4454
 8310SOL    HW136563   1.278   3.854   6.738  0.2581 -0.1210 -0.4174
 8310SOL    HW236564   1.175   3.877   6.632 -0.3113 -3.0160 -2.0104
 8311SOL     OW36565   0.511   1.567   0.682 -0.2099  0.0594 -0.3014
 8311SOL    HW136566   0.522   1.480   0.722 -1.1313  0.0644 -0.0318
 8311SOL    HW236567   0.573   1.623   0.729  0.4280 -1.0325  0.1635
 8312SOL     OW36568   1.560   3.492   6.227 -0.1788 -0.5196  0.3740
 8312SOL    HW136569   1.640   3.533   6.259 -0.7302  0.2998  0.6958
 8312SOL    HW236570   1.583   3.465   6.137  0.2166  1.0899 -0.0141
 8313SOL     OW36571   0.520   2.912   7.719  0.0937  0.1547  0.4085
 8313SOL    HW136572   0.445   2.895   7.663  0.9760 -1.5516 -0.2415
 8313SOL    HW236573   0.567   2.977   7.667 -0.1432 -0.2530 -0.3057
 8314SOL     OW36574   3.309   0.194  15.348 -0.1038 -0.0972  0.0487
 8314SOL    HW136575   3.338   0.210  15.258  2.0440  0.3694  0.8283
 8314SOL    HW236576   3.214   0.206  15.337 -0.3118 -1.7895 -0.0679
 8315SOL     OW36577   3.638   0.212   7.942 -0.3882 -0.5052  0.0152
 8315SOL    HW136578   3.653   0.119   7.956 -0.2139  0.1425  4.2386
 8315SOL    HW236579   3.623   0.210   7.848  0.9079 -1.1136 -0.1812
 8316SOL     OW36580   1.201   0.994   5.988  0.4325  0.2427  0.0389
 8316SOL    HW136581   1.145   1.028   6.058  1.2009 -0.1751  0.8566
 8316SOL    HW236582   1.292   0.999   6.015  0.3200 -1.3704  0.7504
 8317SOL     OW36583   3.798   2.394  15.680  0.3770  0.6025 -0.1956
 8317SOL    HW136584   3.759   2.474  15.644  0.8171  0.1832 -1.5909
 8317SOL    HW236585   3.871   2.431  15.729  0.6761  0.4677 -0.5446
 8318SOL     OW36586   2.635   3.218   3.199 -0.1005 -0.7005 -0.0966
 8318SOL    HW136587   2.661   3.310   3.201 -0.0466 -0.7155 -0.1147
 8318SOL    HW236588   2.551   3.228   3.244 -0.2028  0.9864 -0.6936
 8319SOL     OW36589   0.435   1.739   5.881 -0.2163 -0.0128 -0.2333
 8319SOL    HW136590   0.510   1.794   5.906 -0.4215 -0.6565  1.7593
 8319SOL    HW236591   0.359   1.781   5.923 -0.2529  0.1364 -0.4475
 8320SOL     OW36592   3.501   1.279  11.912 -0.2422 -0.1154  0.3168
 8320SOL    HW136593   3.477   1.370  11.896 -1.1244 -0.0376  2.0563
 8320SOL    HW236594   3.513   1.284  12.007 -0.3185 -1.4984  0.3970
 8321SOL     OW36595   0.810   3.025   4.248 -0.3817  0.1351 -0.5447
 8321SOL    HW136596   0.723   2.989   4.231 -1.2119  1.6212  0.6142
 8321SOL    HW236597   0.848   2.954   4.299  0.9404  1.8348  0.8303
 8322SOL     OW36598   2.046   4.493   1.655 -0.0053  0.0083  0.9849
 8322SOL    HW136599   2.078   4.533   1.735 -0.1368 -2.1264  2.1238
 8322SOL    HW236600   2.109   4.421   1.643  0.6824  1.0452 -1.6156
 8323SOL     OW36601   3.013   1.835  13.257 -0.5155 -0.2452 -0.2916
 8323SOL    HW136602   2.942   1.826  13.192 -1.0935  1.6823  0.0858
 8323SOL    HW236603   2.990   1.919  13.296  0.1763 -0.5391  0.7241
 8324SOL     OW36604   3.132   1.303   7.384  0.2405  0.2952 -0.2172
 8324SOL    HW136605   3.177   1.219   7.398  1.1515  0.5258 -1.7394
 8324SOL    HW236606   3.050   1.287   7.430 -0.2054  1.0940 -0.7488
 8325SOL     OW36607   3.884   4.241   3.058  0.4632 -0.0983  0.5027
 8325SOL    HW136608   3.893   4.147   3.073  3.1858  0.1938  0.6089
 8325SOL    HW236609   3.914   4.286   3.137  0.9531 -1.8186  1.2791
 8326SOL     OW36610   1.993   0.334  17.728 -0.3334  0.4887 -0.1112
 8326SOL    HW136611   2.020   0.395   0.038 -1.8020  0.3893  0.5547
 8326SOL    HW236612   2.056   0.262  17.735 -0.6415  0.2403  0.1242
 8327SOL     OW36613   0.181   3.825   2.135  0.5013 -0.4091 -0.0881
 8327SOL    HW136614   0.158   3.827   2.042  3.2300  0.9400 -0.7244
 8327SOL    HW236615   0.175   3.919   2.149  1.0431 -0.5375  0.9890
 8328SOL     OW36616   4.692   0.961   8.347  0.5189  0.4928  0.8732
 8328SOL    HW136617   0.029   1.016   8.345 -0.1478  1.3801 -0.2970
 8328SOL    HW236618   4.735   0.882   8.380  0.1659 -1.0561 -2.3555
 8329SOL     OW36619   2.617   2.511   6.592  0.4817  0.2288 -0.0884
 8329SOL    HW136620   2.626   2.603   6.616  2.7343  0.5643 -2.1059
 8329SOL    HW236621   2.643   2.474   6.676 -3.1419  0.8906  1.3055
 8330SOL     OW36622   4.661   4.148   1.959 -0.0118  0.3125  0.1457
 8330SOL    HW136623   4.703   4.171   1.876  0.8454  0.3175  0.5828
 8330SOL    HW236624   4.734   4.126   2.017 -0.5591 -1.9040 -0.0201
 8331SOL     OW36625   0.250   0.446   0.159  0.0958  0.0977 -0.5425
 8331SOL    HW136626   0.343   0.457   0.137  0.3660 -0.6764  0.2015
 8331SOL    HW236627   0.215   0.413   0.077 -1.6238  1.4835 -0.3570
 8332SOL     OW36628   0.729   4.088   3.910  0.2094 -0.3321 -0.1079
 8332SOL    HW136629   0.824   4.087   3.922  0.2470 -2.6521 -0.6526
 8332SOL    HW236630   0.697   4.058   3.995 -0.5958  1.2384  0.1474
 8333SOL     OW36631   4.211   4.591   0.818 -0.3753 -0.0817  0.7098
 8333SOL    HW136632   4.164   4.651   0.875 -3.7929  0.8754 -3.1678
 8333SOL    HW236633   4.255   4.650   0.756  1.3731 -1.4900  0.5917
 8334SOL     OW36634   0.481   2.949   4.994  0.1270 -0.5322 -0.3247
 8334SOL    HW136635   0.550   2.905   5.044 -0.2950  0.4183  1.0891
 8334SOL    HW236636   0.415   2.881   5.010 -1.3060  0.1098 -3.3725
 8335SOL     OW36637   0.730   3.049   3.409  0.4045  0.8269 -0.5378
 8335SOL    HW136638   0.798   3.059   3.475  0.8555 -1.8344 -0.6010
 8335SOL    HW236639   0.658   3.040   3.472  2.6761 -2.2652  1.5825
 8336SOL     OW36640   2.439   2.922   6.191  0.6580  0.6981 -0.4387
 8336SOL    HW136641   2.374   2.992   6.192  0.1066  0.1733  0.3532
 8336SOL    HW236642   2.475   2.946   6.277 -2.3338  2.0522  0.4286
 8337SOL     OW36643   3.583   2.662   0.997  0.4332 -0.2014 -0.0795
 8337SOL    HW136644   3.491   2.680   0.978  0.7869  2.9452  1.0840
 8337SOL    HW236645   3.578   2.611   1.077  0.2302 -0.1511 -0.0607
 8338SOL     OW36646   1.139   0.173  15.155 -1.0313 -0.7596 -0.5817
 8338SOL    HW136647   1.211   0.234  15.141 -0.2335 -1.8144 -1.0132
 8338SOL    HW236648   1.098   0.162  15.069 -0.7457 -1.5600 -0.6187
 8339SOL     OW36649   0.355   1.243  15.289 -0.1176  0.6343 -0.2001
 8339SOL    HW136650   0.272   1.254  15.334  1.1470  0.9065  2.0676
 8339SOL    HW236651   0.321   1.243  15.199 -1.5565  2.7988  0.3484
 8340SOL     OW36652   2.005   2.175  10.374 -0.1109 -0.0683 -0.1773
 8340SOL    HW136653   1.978   2.167  10.283  0.6788 -0.6243 -0.3680
 8340SOL    HW236654   2.008   2.081  10.393 -0.7701  0.0470  0.4641
 8341SOL     OW36655   1.117   3.613   4.558  0.2959  0.1120 -0.4719
 8341SOL    HW136656   1.067   3.568   4.490  0.6014  0.6854 -1.0827
 8341SOL    HW236657   1.050   3.666   4.603  0.2939  0.4824 -0.9112
 8342SOL     OW36658   4.686   2.861  15.639  0.3028 -0.3239 -0.5758
 8342SOL    HW136659   0.022   2.880  15.585  2.2863 -2.1647  1.5637
 8342SOL    HW236660   4.642   2.944  15.654  0.1560 -0.8953  2.1610
 8343SOL     OW36661   1.240   1.634   3.941  0.3204 -0.1718 -0.1980
 8343SOL    HW136662   1.231   1.583   4.022 -1.0133  1.2997  0.5636
 8343SOL    HW236663   1.150   1.665   3.939 -0.5146 -2.5352  0.3487
 8344SOL     OW36664   2.666   2.897   4.168  0.0859  0.6332 -0.0908
 8344SOL    HW136665   2.728   2.830   4.137 -0.0867 -0.1330  1.2292
 8344SOL    HW236666   2.607   2.843   4.220 -1.4040  0.6255 -1.8104
 8345SOL     OW36667   1.368   4.432   5.429 -0.1626  0.1015  0.6725
 8345SOL    HW136668   1.328   4.349   5.453 -2.3850  1.8057  2.9216
 8345SOL    HW236669   1.286   4.469   5.395  0.2400  0.6332  0.2800
 8346SOL     OW36670   1.514   3.131   7.474 -0.7960 -0.0346 -0.1084
 8346SOL    HW136671   1.535   3.063   7.411  1.2483  0.0435  0.4996
 8346SOL    HW236672   1.426   3.108   7.504  0.0816 -0.1409  2.4735
 8347SOL     OW36673   4.221   2.746   1.404  0.7772 -0.2317 -0.1508
 8347SOL    HW136674   4.228   2.821   1.345  1.0215 -1.6453 -1.9251
 8347SOL    HW236675   4.281   2.684   1.362 -1.5494 -1.7604 -1.2158
 8348SOL     OW36676   3.203   3.509   5.506 -0.0914 -0.8953  0.5741
 8348SOL    HW136677   3.197   3.498   5.411  1.5157  2.2958  0.1328
 8348SOL    HW236678   3.144   3.444   5.545 -0.1354 -1.2861 -0.1291
 8349SOL     OW36679   0.266   0.301  10.933 -0.5199  0.1754 -0.1569
 8349SOL    HW136680   0.205   0.331  11.001 -0.7758 -0.3248 -0.1650
 8349SOL    HW236681   0.307   0.387  10.923 -2.0285  0.7690 -1.1858
 8350SOL     OW36682   3.247   3.624  14.724 -0.3868 -0.5159  0.0770
 8350SOL    HW136683   3.257   3.670  14.641  1.5520 -1.7564 -0.3729
 8350SOL    HW236684   3.284   3.539  14.704  1.2889  0.3336 -0.4433
 8351SOL     OW36685   1.503   4.344   0.175 -0.2615  0.6040 -0.3469
 8351SOL    HW136686   1.592   4.358   0.143  0.8915 -0.5757  2.4080
 8351SOL    HW236687   1.468   4.291   0.104  0.7784  2.9417 -2.6234
 8352SOL     OW36688   1.755   0.671   6.580 -0.3954  0.2115 -0.5898
 8352SOL    HW136689   1.754   0.767   6.575  0.2531  0.2269 -0.4972
 8352SOL    HW236690   1.681   0.642   6.527 -2.0904 -1.4258  2.6376
 8353SOL     OW36691   2.885   1.300   1.660  0.9023  0.3148  0.1226
 8353SOL    HW136692   2.900   1.388   1.626  0.6822  0.5670  0.6868
 8353SOL    HW236693   2.851   1.326   1.746  0.3078 -2.3041  0.6847
 8354SOL     OW36694   0.906   4.656   2.417  0.3854  0.0528  0.2696
 8354SOL    HW136695   0.938   4.621   2.500 -0.1863 -0.9107  0.0837
 8354SOL    HW236696   0.982   4.708   2.394  1.1313 -1.3876 -0.5368
 8355SOL     OW36697   3.387   4.200   3.046 -0.0478 -0.1984  0.2354
 8355SOL    HW136698   3.324   4.183   3.117 -0.0140  0.3720  0.4030
 8355SOL    HW236699   3.469   4.157   3.069 -0.1665 -0.5051  0.0792
 8356SOL     OW36700   4.090   3.910   8.050  0.2506 -0.3588  0.1580
 8356SOL    HW136701   4.070   3.985   7.994  0.7308  0.0205  0.5013
 8356SOL    HW236702   4.030   3.926   8.123 -2.2215  0.5614 -2.0756
 8357SOL     OW36703   0.488   0.344   4.299  0.2796  0.0373 -0.4647
 8357SOL    HW136704   0.396   0.367   4.312  1.0106  2.8555 -0.3492
 8357SOL    HW236705   0.499   0.348   4.204 -3.0219  0.5181 -0.8429
 8358SOL     OW36706   0.537   4.572  15.022  0.0502 -0.0585  0.2147
 8358SOL    HW136707   0.502   4.488  15.052  1.1725  0.3631  2.6507
 8358SOL    HW236708   0.601   4.552  14.953  2.2206 -0.5573  2.3930
 8359SOL     OW36709   0.966   4.106   3.024 -0.1153 -0.0204  0.1142
 8359SOL    HW136710   0.897   4.114   3.089  0.3590  1.4843  0.4320
 8359SOL    HW236711   1.040   4.106   3.085 -1.3067 -0.4976  1.5591
 8360SOL     OW36712   1.099   4.146   8.499 -0.1883  1.0369 -0.1169
 8360SOL    HW136713   1.032   4.083   8.527  0.4860  0.9825  1.3657
 8360SOL    HW236714   1.181   4.108   8.531 -1.1070 -0.0947  0.8906
 8361SOL     OW36715   2.230   3.015   8.505  0.2534 -0.6441 -0.2652
 8361SOL    HW136716   2.307   3.009   8.563  0.9446 -0.1909 -1.1373
 8361SOL    HW236717   2.184   2.935   8.530  1.3780 -1.5131 -0.9771
 8362SOL     OW36718   4.437   3.468   2.022 -0.1263  0.5972  0.3312
 8362SOL    HW136719   4.428   3.388   1.971 -0.3473 -0.3962  1.9106
 8362SOL    HW236720   4.503   3.451   2.089  0.2555 -1.3006 -0.5360
 8363SOL     OW36721   2.137   2.447   4.133 -0.2164  0.0885 -0.3096
 8363SOL    HW136722   2.218   2.497   4.145 -0.5604  1.0019 -1.7656
 8363SOL    HW236723   2.113   2.434   4.225 -0.8756  1.4896 -0.2832
 8364SOL     OW36724   4.714   2.238   4.678  0.0396  0.1029 -0.1840
 8364SOL    HW136725   4.689   2.313   4.624 -1.9883 -1.3193 -1.2030
 8364SOL    HW236726   4.679   2.265   4.763  0.7663 -3.4398  1.2715
 8365SOL     OW36727   4.527   1.558  16.454 -0.5549 -0.1819  0.1530
 8365SOL    HW136728   4.509   1.557  16.548  2.7156  0.8371  0.7931
 8365SOL    HW236729   4.580   1.483  16.428 -0.7140 -0.1919 -0.1473
 8366SOL     OW36730   1.507   0.609   3.355  0.3728  0.1104  0.0416
 8366SOL    HW136731   1.505   0.609   3.259  0.3381  0.9534  0.0418
 8366SOL    HW236732   1.544   0.697   3.361  2.2192 -0.6896  0.4091
 8367SOL     OW36733   0.319   1.133  10.453  0.3265  1.0295  0.0644
 8367SOL    HW136734   0.280   1.147  10.367 -0.2541  1.1529  0.3459
 8367SOL    HW236735   0.399   1.184  10.450  0.0515  1.4805  0.3867
 8368SOL     OW36736   0.617   4.692   1.193  1.2366 -0.0179 -0.3982
 8368SOL    HW136737   0.578   4.711   1.107  0.3857  0.2271  0.0443
 8368SOL    HW236738   0.561   4.623   1.226  2.6291 -2.6938 -3.5988
 8369SOL     OW36739   2.424   0.043   3.167  0.4999  0.0708 -0.5436
 8369SOL    HW136740   2.508   0.063   3.208 -0.9088 -1.1535  2.9269
 8369SOL    HW236741   2.459   4.740   3.089  2.3228  0.0004  0.3083
 8370SOL     OW36742   3.511   1.857   6.984  0.2293 -0.1240  0.1418
 8370SOL    HW136743   3.531   1.907   7.063  0.5711 -2.8902  1.8117
 8370SOL    HW236744   3.600   1.851   6.950  0.6475  2.4150  0.8018
 8371SOL     OW36745   0.856   4.454  11.408 -0.4362  0.5077  0.3208
 8371SOL    HW136746   0.886   4.367  11.436 -0.8988  0.0533 -0.5767
 8371SOL    HW236747   0.764   4.444  11.433 -0.4206  2.2060  1.0078
 8372SOL     OW36748   0.141   2.020   6.299  0.0826 -0.0139  0.3204
 8372SOL    HW136749   0.134   2.068   6.217  0.2440 -1.4730 -0.5560
 8372SOL    HW236750   0.225   2.054   6.330 -0.4342  1.4761  0.0910
 8373SOL     OW36751   0.621   0.910  14.511 -0.6539 -0.3345 -0.3448
 8373SOL    HW136752   0.673   0.881  14.436  1.6609 -1.0638  1.5305
 8373SOL    HW236753   0.695   0.935  14.566  0.8876 -0.5769 -2.3341
 8374SOL     OW36754   2.911   3.354   7.369 -0.1029 -0.0803  0.0203
 8374SOL    HW136755   3.005   3.370   7.384 -0.1249 -1.5396  1.5677
 8374SOL    HW236756   2.904   3.397   7.283 -0.2224  0.7929  0.4679
 8375SOL     OW36757   3.587   1.561   0.598  0.1833 -0.2482  0.7352
 8375SOL    HW136758   3.531   1.483   0.590 -0.5278  0.5208 -1.7668
 8375SOL    HW236759   3.541   1.601   0.524  0.4970 -1.7320 -0.2658
 8376SOL     OW36760   2.273   3.920   2.149  0.1931 -0.0856  0.3089
 8376SOL    HW136761   2.280   3.979   2.224 -0.0153  1.6398 -1.0280
 8376SOL    HW236762   2.301   3.983   2.082  2.2376  0.8033  2.0323
 8377SOL     OW36763   0.727   2.811   4.886  0.6022 -0.7310  0.3773
 8377SOL    HW136764   0.759   2.721   4.887  1.2738 -0.4878  1.1400
 8377SOL    HW236765   0.729   2.831   4.980 -0.8755 -0.4922  0.3616
 8378SOL     OW36766   2.209   2.610  17.259  0.0213 -0.0352  0.6793
 8378SOL    HW136767   2.278   2.639  17.199 -0.5575  0.5241  0.2763
 8378SOL    HW236768   2.246   2.625  17.346  0.2433  0.4214  0.5030
 8379SOL     OW36769   4.610   1.453   6.186 -0.4177 -0.3832 -0.2316
 8379SOL    HW136770   4.541   1.460   6.119 -0.7599  0.3395  0.1891
 8379SOL    HW236771   4.578   1.529   6.235  0.0956 -0.4840  0.2613
 8380SOL     OW36772   1.268   4.244  14.904 -0.6480 -0.0063 -0.4482
 8380SOL    HW136773   1.340   4.223  14.963 -0.3760  1.5332 -0.2442
 8380SOL    HW236774   1.194   4.213  14.956 -1.3608 -1.4636 -2.3283
 8381SOL     OW36775   4.655   1.722   6.709  0.5317  0.7352 -0.4298
 8381SOL    HW136776   4.613   1.709   6.794 -0.3937 -2.2798 -1.3455
 8381SOL    HW236777   4.644   1.638   6.665  0.0889  1.7324 -2.1994
 8382SOL     OW36778   2.552   4.302   4.617  0.3905 -0.1062 -0.4401
 8382SOL    HW136779   2.566   4.372   4.681  0.0807 -1.9210  1.6274
 8382SOL    HW236780   2.575   4.229   4.674  0.0331  1.3699  1.5938
 8383SOL     OW36781   3.049   1.834   8.435 -0.5921 -0.5394 -0.0972
 8383SOL    HW136782   2.961   1.816   8.466 -0.8773  0.6245 -0.2009
 8383SOL    HW236783   3.106   1.793   8.499 -0.3343 -1.6928 -1.0745
 8384SOL     OW36784   2.577   3.336   7.341 -0.4309 -0.4000  0.0337
 8384SOL    HW136785   2.604   3.410   7.286 -0.1113 -0.1913  0.4753
 8384SOL    HW236786   2.660   3.306   7.377  0.0630  2.9282  1.6523
 8385SOL     OW36787   3.882   0.582   8.474  0.3226 -0.1120  0.1987
 8385SOL    HW136788   3.902   0.566   8.566 -1.7083  0.8725  0.8141
 8385SOL    HW236789   3.787   0.575   8.478  0.2881  0.4532  0.4196
 8386SOL     OW36790   2.171   3.455  16.990 -0.6600 -0.3500 -0.3114
 8386SOL    HW136791   2.204   3.506  17.065  0.3370 -0.6356 -0.5488
 8386SOL    HW236792   2.090   3.413  17.018 -0.7813 -0.1903 -0.4212
 8387SOL     OW36793   1.421   2.603  15.632 -0.7534  0.2606 -0.0363
 8387SOL    HW136794   1.469   2.521  15.623 -0.0483  0.6122  0.5535
 8387SOL    HW236795   1.457   2.642  15.552 -0.0755 -1.3896 -0.5494
 8388SOL     OW36796   4.153   3.478   4.753 -0.7593  0.1331 -0.4391
 8388SOL    HW136797   4.209   3.466   4.676  0.4583  2.1479  0.1311
 8388SOL    HW236798   4.187   3.415   4.816 -0.0324 -0.6908 -1.6354
 8389SOL     OW36799   0.463   4.676  13.792 -0.3573 -0.4052 -0.2768
 8389SOL    HW136800   0.509   0.018  13.808  0.7174 -1.2024  0.7644
 8389SOL    HW236801   0.436   4.655  13.882  0.8164  1.5940  0.5439
 8390SOL     OW36802   0.969   1.516   7.530 -0.5015  0.0376  0.1346
 8390SOL    HW136803   1.045   1.557   7.571  1.0927  0.0561 -2.8056
 8390SOL    HW236804   0.976   1.532   7.436 -1.0170  0.4216  0.1682
 8391SOL     OW36805   0.367   4.422   2.274  0.7321 -0.1013 -0.4616
 8391SOL    HW136806   0.305   4.472   2.328  0.5563 -0.7332 -0.0863
 8391SOL    HW236807   0.401   4.356   2.335 -0.9376 -0.6703 -0.1410
 8392SOL     OW36808   3.500   4.018  14.257 -0.4182  0.1385 -0.0153
 8392SOL    HW136809   3.432   3.971  14.208  2.7427 -2.5359 -1.7631
 8392SOL    HW236810   3.546   3.948  14.303  1.3437 -0.1840 -2.2994
 8393SOL     OW36811   4.149   4.643   6.272 -0.0821  0.3258  0.1109
 8393SOL    HW136812   4.174   4.700   6.199  1.3739  1.2331  1.3098
 8393SOL    HW236813   4.103   4.702   6.332 -2.4715 -0.1096 -1.2651
 8394SOL     OW36814   4.331   0.376  13.543 -0.5826  0.2643 -0.3754
 8394SOL    HW136815   4.299   0.293  13.578  0.2609  0.2058  0.2538
 8394SOL    HW236816   4.320   0.431  13.620  0.5518  1.6927 -1.2269
 8395SOL     OW36817   4.708   0.727  16.866 -0.8416 -0.0546  0.6316
 8395SOL    HW136818   4.727   0.812  16.827 -0.0799 -1.2812 -1.7019
 8395SOL    HW236819   0.045   0.680  16.835 -1.9096 -1.6092  0.3163
 8396SOL     OW36820   3.759   1.702   3.176 -0.0743  0.3929 -0.0150
 8396SOL    HW136821   3.792   1.686   3.265 -0.5252  1.4718  0.3453
 8396SOL    HW236822   3.772   1.797   3.177 -1.3317  0.5659  0.7679
 8397SOL     OW36823   3.193   2.458   5.822 -0.6439  0.4032 -0.0190
 8397SOL    HW136824   3.228   2.545   5.841  0.6101 -0.2713  0.8181
 8397SOL    HW236825   3.162   2.473   5.733 -0.3773 -0.1388 -0.2053
 8398SOL     OW36826   2.630   1.054  13.668 -0.5216  0.2555  0.8590
 8398SOL    HW136827   2.548   1.092  13.701 -2.1404 -0.6434 -2.1189
 8398SOL    HW236828   2.644   1.106  13.589 -1.7919  0.1593  0.5667
 8399SOL     OW36829   0.047   1.418  12.478  0.3140 -0.4148 -0.2712
 8399SOL    HW136830   0.122   1.461  12.436  1.2844 -3.2448 -1.4279
 8399SOL    HW236831   4.717   1.475  12.447  1.4114  0.3032 -1.4313
 8400SOL     OW36832   1.154   2.561   7.319 -0.3563 -0.1635 -0.0680
 8400SOL    HW136833   1.099   2.482   7.322 -2.7805  1.6577  2.7702
 8400SOL    HW236834   1.181   2.573   7.410  0.5845  0.0389 -0.3696
 8401SOL     OW36835   0.956   0.104   0.767  0.1027 -0.0407 -0.2748
 8401SOL    HW136836   0.890   0.043   0.800  0.2380  0.1864  0.4144
 8401SOL    HW236837   1.037   0.071   0.806 -0.8494 -0.2950  1.4815
 8402SOL     OW36838   2.840   0.252  10.886  0.5033  0.1378 -0.3001
 8402SOL    HW136839   2.796   0.302  10.818  2.2641 -0.3028 -1.7603
 8402SOL    HW236840   2.773   0.194  10.922  0.9373 -0.8045 -0.9997
 8403SOL     OW36841   1.840   2.100   4.915 -0.0819 -0.2235  1.0606
 8403SOL    HW136842   1.904   2.161   4.952  1.6450 -0.1296 -2.0539
 8403SOL    HW236843   1.836   2.040   4.989 -1.2734  0.0125  1.1827
 8404SOL     OW36844   1.242   4.523   2.421 -0.0333 -0.3236 -0.0314
 8404SOL    HW136845   1.236   4.517   2.326  0.3669 -0.4477 -0.0476
 8404SOL    HW236846   1.167   4.470   2.449  0.0410 -2.6703 -4.2993
 8405SOL     OW36847   0.968   2.447   5.193  0.3167  0.1845 -0.0634
 8405SOL    HW136848   1.013   2.512   5.138  0.6936  0.6424  0.7942
 8405SOL    HW236849   0.876   2.466   5.175 -0.2068 -0.8871  1.4734
 8406SOL     OW36850   1.748   3.796  15.761 -0.3807 -0.4832  0.1560
 8406SOL    HW136851   1.763   3.779  15.668  1.5426  0.1327  0.3619
 8406SOL    HW236852   1.696   3.877  15.757 -1.1265 -0.9911 -0.3650
 8407SOL     OW36853   2.945   0.729   6.404 -0.0861 -0.2667 -0.5585
 8407SOL    HW136854   2.895   0.749   6.324  0.6451 -0.4932 -1.0703
 8407SOL    HW236855   2.982   0.647   6.372  0.4457 -0.3763  0.3320
 8408SOL     OW36856   2.174   1.638   3.588 -0.5026 -0.2922 -0.3771
 8408SOL    HW136857   2.109   1.630   3.657 -0.4792  0.3270 -0.2786
 8408SOL    HW236858   2.161   1.731   3.568 -1.4439 -0.5251 -0.8498
 8409SOL     OW36859   3.479   1.203   6.067 -0.1181 -0.3232  0.1048
 8409SOL    HW136860   3.490   1.259   6.144 -0.2045 -0.5198  0.2565
 8409SOL    HW236861   3.385   1.203   6.049 -0.4695 -1.7603  1.9828
 8410SOL     OW36862   1.619   4.335  15.448 -0.0187 -0.5373  0.0463
 8410SOL    HW136863   1.613   4.285  15.366  0.3195 -0.3751 -0.0759
 8410SOL    HW236864   1.658   4.414  15.410 -3.1733  0.6008 -0.8104
 8411SOL     OW36865   1.752   0.731   3.003  0.0617 -0.1194  0.4461
 8411SOL    HW136866   1.706   0.795   2.949  1.4591  0.7271  0.2510
 8411SOL    HW236867   1.806   0.697   2.931  0.3438 -1.1885  1.1646
 8412SOL     OW36868   4.098   2.112   0.460 -0.0092 -0.0847 -0.2791
 8412SOL    HW136869   4.066   2.201   0.474 -1.0156 -0.7382  1.5286
 8412SOL    HW236870   4.185   2.121   0.420 -0.1983  0.4259 -0.5615
 8413SOL     OW36871   1.225   2.352   2.561  0.6134 -0.0946  0.6696
 8413SOL    HW136872   1.130   2.351   2.553  0.4450  1.7555  2.5702
 8413SOL    HW236873   1.241   2.259   2.580 -1.7901 -0.2495  1.9767
 8414SOL     OW36874   2.408   2.638   0.344 -0.0742 -0.0349  0.3249
 8414SOL    HW136875   2.400   2.729   0.316 -1.0743 -0.0055  0.7064
 8414SOL    HW236876   2.491   2.637   0.391  0.2202 -1.9498 -0.2323
 8415SOL     OW36877   1.818   1.875   7.817 -0.8055  0.3537 -0.6100
 8415SOL    HW136878   1.834   1.812   7.747  0.1849  0.0021 -0.0773
 8415SOL    HW236879   1.907   1.900   7.843 -0.6674 -0.9360  0.1881
 8416SOL     OW36880   4.206   3.082  16.259  0.3712 -0.2972 -0.0186
 8416SOL    HW136881   4.190   2.998  16.301  0.0037 -1.6232 -2.8271
 8416SOL    HW236882   4.192   3.145  16.329  0.7394 -1.4404  1.0722
 8417SOL     OW36883   1.409   4.585   6.165 -0.1640  0.4315 -0.3919
 8417SOL    HW136884   1.418   4.527   6.089  1.8079  0.8362 -0.4736
 8417SOL    HW236885   1.502   4.596   6.186 -0.0322 -0.9623 -0.2171
 8418SOL     OW36886   1.703   3.405  15.347  0.4998  0.5528 -0.0277
 8418SOL    HW136887   1.789   3.362  15.348  0.4001  0.2670 -3.3628
 8418SOL    HW236888   1.642   3.337  15.319  1.2116 -0.8038  1.6959
 8419SOL     OW36889   4.332   3.293  13.974  0.3593 -0.2674 -0.2553
 8419SOL    HW136890   4.424   3.268  13.964  0.8223  0.6993  1.7189
 8419SOL    HW236891   4.289   3.224  13.923 -1.3268  0.5666  0.0420
 8420SOL     OW36892   1.118   1.437  16.024 -0.1040  0.7314  0.2904
 8420SOL    HW136893   1.185   1.370  16.010  0.9692  2.0914 -1.2575
 8420SOL    HW236894   1.171   1.505  16.066  0.4621  0.8894 -0.6556
 8421SOL     OW36895   4.356   2.422  11.629  0.1701  0.5034 -0.0712
 8421SOL    HW136896   4.435   2.403  11.579  2.4568  1.3739  3.2518
 8421SOL    HW236897   4.341   2.343  11.682 -2.9307 -1.1928 -3.5274
 8422SOL     OW36898   3.294   3.117   6.985 -0.1546  0.0602  0.0951
 8422SOL    HW136899   3.282   3.108   6.890  1.4148 -1.7407  0.0634
 8422SOL    HW236900   3.313   3.027   7.011 -1.2152  0.6223  2.7417
 8423SOL     OW36901   1.411   2.654  10.264 -0.7447 -0.2738 -0.8483
 8423SOL    HW136902   1.361   2.736  10.264 -1.8678 -0.9759  1.3342
 8423SOL    HW236903   1.423   2.635  10.357  0.0744 -1.2512 -1.1458
 8424SOL     OW36904   1.222   3.500  15.749 -0.1427  0.1548  0.0556
 8424SOL    HW136905   1.306   3.477  15.788  0.1040  1.0645  0.0620
 8424SOL    HW236906   1.167   3.493  15.827  0.5413  0.1994  0.5446
 8425SOL     OW36907   0.358   4.512   7.027 -0.0835  0.2496  0.2847
 8425SOL    HW136908   0.322   4.445   7.086  2.5531 -1.4195  0.0111
 8425SOL    HW236909   0.446   4.534   7.056  0.5371 -1.0646 -0.5895
 8426SOL     OW36910   4.012   2.652   9.323 -0.5244  0.3621 -0.3928
 8426SOL    HW136911   4.053   2.566   9.314 -0.0940  0.4453  0.7924
 8426SOL    HW236912   3.944   2.638   9.388  0.8085 -1.4878  0.6047
 8427SOL     OW36913   2.357   1.614  11.782 -0.3933 -0.1443 -0.2059
 8427SOL    HW136914   2.324   1.602  11.693 -0.0910  0.0235 -0.3422
 8427SOL    HW236915   2.406   1.696  11.782 -0.4817 -0.1052  3.9150
 8428SOL     OW36916   2.940   3.291   6.956  0.4838 -0.8361 -0.0964
 8428SOL    HW136917   3.028   3.265   6.929  0.3504 -0.8951 -0.4805
 8428SOL    HW236918   2.906   3.221   7.012  0.4148 -1.6149 -1.1239
 8429SOL     OW36919   3.778   0.007   6.233 -0.4313  0.3156  0.2694
 8429SOL    HW136920   3.797   0.083   6.289  0.2889  1.0144 -0.9233
 8429SOL    HW236921   3.811   0.037   6.148 -0.6757 -4.0787 -1.3292
 8430SOL     OW36922   0.624   1.938   5.906 -0.2326 -0.4602  0.3794
 8430SOL    HW136923   0.709   1.947   5.864  0.0261 -0.6690  0.8621
 8430SOL    HW236924   0.657   1.912   5.992  0.4098 -0.1400  0.2315
 8431SOL     OW36925   0.260   4.112   6.956  0.1565  0.1008 -0.4472
 8431SOL    HW136926   0.354   4.118   6.973 -0.0203  0.7789  0.2640
 8431SOL    HW236927   0.223   4.045   7.015  0.2945  2.8355  2.7692
 8432SOL     OW36928   4.431   1.215   5.750  0.1426 -0.3755  0.7833
 8432SOL    HW136929   4.406   1.125   5.727  0.0081  0.4977 -2.4542
 8432SOL    HW236930   4.364   1.243   5.813  0.8165  0.2526  1.2265
 8433SOL     OW36931   3.881   4.069   3.705 -0.3677  0.2463 -0.2953
 8433SOL    HW136932   3.922   4.012   3.769 -0.2883 -0.6733 -1.1679
 8433SOL    HW236933   3.908   4.158   3.728  0.5831 -0.1359  0.0283
 8434SOL     OW36934   2.385   4.503   6.763 -0.4692  0.1070  0.5785
 8434SOL    HW136935   2.388   4.537   6.674 -0.2293  0.2792  0.6546
 8434SOL    HW236936   2.425   4.577   6.808  0.7453 -0.4718  0.4602
 8435SOL     OW36937   3.764   0.490   1.910  0.2642  0.0065 -0.4119
 8435SOL    HW136938   3.782   0.521   1.821  1.2743 -1.0047 -0.5693
 8435SOL    HW236939   3.669   0.496   1.909  0.3555  1.4210 -0.4513
 8436SOL     OW36940   1.875   2.421   5.875 -0.7576  0.2683  0.0241
 8436SOL    HW136941   1.922   2.494   5.917 -0.5582  1.8832 -3.0203
 8436SOL    HW236942   1.822   2.466   5.810  0.8613  0.0063 -1.4631
 8437SOL     OW36943   3.282   1.515   7.465  0.4438  0.3602  0.6925
 8437SOL    HW136944   3.360   1.463   7.447 -0.7667 -1.3048  0.2911
 8437SOL    HW236945   3.213   1.452   7.445  0.2614  0.4430  1.0569
 8438SOL     OW36946   3.832   1.254   0.375  0.1092 -0.4485 -0.2174
 8438SOL    HW136947   3.842   1.260   0.280 -0.1667 -0.6179 -0.2597
 8438SOL    HW236948   3.838   1.346   0.399 -2.8183 -0.0033 -1.1776
 8439SOL     OW36949   2.330   2.531   6.560 -0.0270  0.0211  0.2129
 8439SOL    HW136950   2.425   2.520   6.559 -0.3174 -2.4762 -0.5933
 8439SOL    HW236951   2.289   2.473   6.623 -1.9584  1.0431 -0.1217
 8440SOL     OW36952   1.537   1.898   3.375  0.0399  0.0998  0.2867
 8440SOL    HW136953   1.512   1.852   3.455  0.5187  1.6040  1.2986
 8440SOL    HW236954   1.480   1.972   3.393 -1.3506 -0.9099  0.1001
 8441SOL     OW36955   3.836   4.291  17.709 -0.3508  0.0435  0.1404
 8441SOL    HW136956   3.922   4.253  17.689  0.2318  1.0863  0.6605
 8441SOL    HW236957   3.789   4.270  17.628  0.5946 -1.1786 -0.0840
 8442SOL     OW36958   2.307   3.921   7.750 -0.1392 -0.0601  0.4254
 8442SOL    HW136959   2.324   4.015   7.752  0.0980 -0.1317  1.7404
 8442SOL    HW236960   2.219   3.920   7.713  0.3101  1.0321 -0.6960
 8443SOL     OW36961   3.915   1.182   6.171 -0.9892  0.2659 -0.0424
 8443SOL    HW136962   3.917   1.087   6.164 -1.6843  0.2150  0.5160
 8443SOL    HW236963   4.002   1.195   6.209 -2.7466  1.3040  3.5985
 8444SOL     OW36964   1.426   4.411   9.318  0.5364 -0.6804  0.5408
 8444SOL    HW136965   1.390   4.381   9.401  1.5200 -1.7284  0.5874
 8444SOL    HW236966   1.462   4.494   9.349  0.3531  0.7303 -3.0187
 8445SOL     OW36967   0.689   3.785   7.789  0.3584  0.0945  0.3983
 8445SOL    HW136968   0.663   3.706   7.836 -0.8362 -0.6981 -1.6095
 8445SOL    HW236969   0.721   3.840   7.860 -0.2823 -0.9846  1.5177
 8446SOL     OW36970   4.645   2.387   1.122 -0.2015 -0.1772 -0.0666
 8446SOL    HW136971   4.632   2.367   1.214  3.2263 -2.2212 -0.0495
 8446SOL    HW236972   4.589   2.463   1.107 -0.7014 -0.9606 -2.2471
 8447SOL     OW36973   2.021   0.368  11.804 -0.1317  0.6430 -0.5444
 8447SOL    HW136974   1.958   0.324  11.860  0.7983 -0.1908 -0.1640
 8447SOL    HW236975   2.045   0.450  11.848 -0.8550 -0.5425  2.0264
 8448SOL     OW36976   4.616   0.018   3.497  0.1522 -0.0105  0.4159
 8448SOL    HW136977   4.643   4.722   3.582  0.6358 -0.3863  0.1053
 8448SOL    HW236978   4.608   0.107   3.530 -0.9640  0.5033 -1.2714
 8449SOL     OW36979   4.677   4.326   7.262 -0.4297  0.3101  0.0338
 8449SOL    HW136980   4.616   4.267   7.305  0.4562 -1.2267 -0.8126
 8449SOL    HW236981   4.644   4.400   7.312  0.7687 -0.5542  2.0844
 8450SOL     OW36982   0.635   1.329  17.225  0.1915  0.3649 -0.5844
 8450SOL    HW136983   0.692   1.255  17.206  0.1070 -0.1179  1.0169
 8450SOL    HW236984   0.556   1.275  17.220  1.7260 -1.9000 -0.4000
 8451SOL     OW36985   3.795   1.485   8.125 -0.5473 -0.3170 -0.5770
 8451SOL    HW136986   3.795   1.424   8.198  0.0659  1.3469  0.8242
 8451SOL    HW236987   3.703   1.512   8.120 -0.8988 -1.4063  0.1283
 8452SOL     OW36988   1.652   4.246   4.797  0.1173  0.2960  0.3810
 8452SOL    HW136989   1.608   4.243   4.882 -1.4811  0.5353 -0.4512
 8452SOL    HW236990   1.666   4.152   4.787 -1.3446 -0.2043  2.9814
 8453SOL     OW36991   0.838   3.619   4.072  0.2697 -0.2894  0.6980
 8453SOL    HW136992   0.762   3.564   4.091 -1.1859  1.6207  0.3747
 8453SOL    HW236993   0.911   3.557   4.060  0.0411  0.3090 -3.7641
 8454SOL     OW36994   3.862   2.050   3.877  0.0961 -0.2085  0.0351
 8454SOL    HW136995   3.822   2.059   3.791  2.1936 -0.3924 -0.9515
 8454SOL    HW236996   3.946   2.020   3.842  0.8205  1.1325  0.6292
 8455SOL     OW36997   3.554   3.057  14.185  0.7786  0.3863  0.1865
 8455SOL    HW136998   3.574   3.103  14.103 -0.0551  0.1123 -0.1744
 8455SOL    HW236999   3.498   3.119  14.232 -1.5387 -0.1399 -1.8445
 8456SOL     OW37000   4.445   4.059   2.106  0.0430  0.3149 -0.2323
 8456SOL    HW137001   4.486   4.002   2.171 -0.4054 -1.1996 -1.2753
 8456SOL    HW237002   4.514   4.089   2.047  1.1965 -0.7001  0.5852
 8457SOL     OW37003   4.497   3.411   3.965  0.7285  0.0569  0.7010
 8457SOL    HW137004   4.519   3.320   3.989 -0.5346 -0.0150  1.5533
 8457SOL    HW237005   4.546   3.457   4.033  0.6819  2.4040 -0.8409
 8458SOL     OW37006   3.841   0.071   2.650 -0.0256 -0.5226 -0.2608
 8458SOL    HW137007   3.767   0.017   2.676 -0.0435 -0.7304 -0.7491
 8458SOL    HW237008   3.892   0.005   2.603 -1.7643 -1.1645 -1.2438
 8459SOL     OW37009   3.293   4.051   8.097 -0.0603  0.2553  0.0207
 8459SOL    HW137010   3.218   4.050   8.157 -0.2825 -0.1935 -0.2660
 8459SOL    HW237011   3.267   3.981   8.037  2.3471  0.5078 -1.3047
 8460SOL     OW37012   4.185   3.312   6.754  0.2306  0.1878  0.1943
 8460SOL    HW137013   4.126   3.314   6.830 -0.3893  0.3599 -0.2892
 8460SOL    HW237014   4.198   3.219   6.737 -0.1909  0.4651 -1.6404
 8461SOL     OW37015   4.375   0.206   1.908  0.0176 -0.2475 -0.5487
 8461SOL    HW137016   4.453   0.221   1.856  1.0315 -0.7768  0.8281
 8461SOL    HW237017   4.371   0.114   1.881 -1.4180 -0.8960  1.8552
 8462SOL     OW37018   1.086   2.020  12.282  0.1538 -0.2857 -0.4597
 8462SOL    HW137019   1.174   2.055  12.270  0.8201 -1.7872  0.0284
 8462SOL    HW237020   1.102   1.946  12.222 -1.3951 -0.0259 -1.1994
 8463SOL     OW37021   3.824   0.892  14.442  0.0667 -0.0460 -0.2706
 8463SOL    HW137022   3.740   0.876  14.486 -0.3258 -1.5335 -1.5252
 8463SOL    HW237023   3.830   0.820  14.379 -2.3812 -0.5316  0.0331
 8464SOL     OW37024   0.444   0.564  15.763 -0.2747  0.3093 -0.3964
 8464SOL    HW137025   0.473   0.477  15.735 -0.5419 -0.1777  0.8802
 8464SOL    HW237026   0.465   0.614  15.684  1.5691 -1.0497 -0.7693
 8465SOL     OW37027   2.427   0.522   2.300 -0.7845 -0.1761 -0.1950
 8465SOL    HW137028   2.359   0.508   2.366 -0.1491  1.0318  0.7086
 8465SOL    HW237029   2.461   0.608   2.325  1.1219 -1.0148  0.0495
 8466SOL     OW37030   3.648   2.273  12.928  0.4511  0.6040 -0.6420
 8466SOL    HW137031   3.695   2.305  12.851 -2.4991  1.1615 -2.2077
 8466SOL    HW237032   3.558   2.271  12.895  0.3695  1.0711 -0.4468
 8467SOL     OW37033   2.851   3.983   3.848 -0.6622  0.1959  0.4374
 8467SOL    HW137034   2.784   4.048   3.872 -0.2102  0.0204  2.1512
 8467SOL    HW237035   2.928   4.008   3.899 -0.5902  0.4205  0.2177
 8468SOL     OW37036   2.526   3.492   9.413 -0.0543  0.0190 -0.0042
 8468SOL    HW137037   2.612   3.526   9.389 -1.7202  1.9371 -3.1764
 8468SOL    HW237038   2.463   3.551   9.372 -1.2346 -1.8195 -0.8068
 8469SOL     OW37039   2.034   4.189   4.171 -0.6582  0.0531 -0.1511
 8469SOL    HW137040   2.083   4.251   4.224 -1.1205 -0.5509  0.9960
 8469SOL    HW237041   2.089   4.111   4.169  0.0644  0.5372  1.3665
 8470SOL     OW37042   2.137   2.732   0.397 -0.0328 -0.2185  1.0579
 8470SOL    HW137043   2.097   2.645   0.390 -0.3131  0.0768 -1.0690
 8470SOL    HW237044   2.230   2.713   0.397 -0.6943 -3.3727  3.4704
 8471SOL     OW37045   1.096   0.490  16.370  0.5373  0.2447  0.1288
 8471SOL    HW137046   1.179   0.536  16.380 -0.0639  1.2492  0.4374
 8471SOL    HW237047   1.126   0.403  16.398 -1.9356  0.5324  3.5988
 8472SOL     OW37048   1.200   4.220   7.915  0.4991  0.1798  0.0505
 8472SOL    HW137049   1.125   4.267   7.951 -1.1742 -1.9516 -0.6314
 8472SOL    HW237050   1.156   4.174   7.843 -0.7540 -0.8535  1.4709
 8473SOL     OW37051   1.728   1.377   7.447  1.1058 -0.0601  0.1623
 8473SOL    HW137052   1.807   1.408   7.402  0.4203 -0.2668 -1.1789
 8473SOL    HW237053   1.690   1.331   7.372 -0.8072 -0.4484  1.3570
 8474SOL     OW37054   2.338   1.992   4.135 -0.3345  0.0782  0.0873
 8474SOL    HW137055   2.258   1.952   4.168  1.2369 -1.6762  1.7840
 8474SOL    HW237056   2.315   2.084   4.120 -0.3621  0.0146 -0.2579
 8475SOL     OW37057   2.051   1.718   2.540  0.2893  0.3245  0.2534
 8475SOL    HW137058   2.029   1.649   2.477  0.8199 -1.0324  1.5609
 8475SOL    HW237059   2.125   1.678   2.584  0.0024  0.4530  0.8504
 8476SOL     OW37060   0.047   0.423  11.765 -0.1604 -0.0720 -0.2478
 8476SOL    HW137061   0.033   0.484  11.692 -0.0641  0.2603  0.0134
 8476SOL    HW237062   4.722   0.453  11.828  1.8864  0.5560  1.5347
 8477SOL     OW37063   0.823   1.064   5.088  0.8629  0.0988 -0.1075
 8477SOL    HW137064   0.811   1.007   5.012  1.7354 -3.4500  2.4219
 8477SOL    HW237065   0.801   1.009   5.162  0.4755  0.9476  0.4088
 8478SOL     OW37066   2.469   2.770   8.263  0.4702  0.6309 -0.0006
 8478SOL    HW137067   2.562   2.754   8.280  0.6870  0.0060 -1.8379
 8478SOL    HW237068   2.432   2.737   8.345  0.5492  1.5392  0.4076
 8479SOL     OW37069   0.270   2.225   3.104 -0.3784  0.7792 -0.5659
 8479SOL    HW137070   0.200   2.164   3.130 -0.3868  0.5194 -1.2075
 8479SOL    HW237071   0.271   2.212   3.009 -1.0151 -1.0615 -0.3341
 8480SOL     OW37072   0.000   3.301   7.602 -0.3318 -0.0850  0.1669
 8480SOL    HW137073   0.091   3.281   7.625  0.3901  2.6619 -0.2072
 8480SOL    HW237074   4.727   3.224   7.547  1.9337  0.9501 -1.8459
 8481SOL     OW37075   2.701   3.445  10.060 -0.1433 -0.5310  0.1222
 8481SOL    HW137076   2.754   3.468   9.984  0.3415  1.3204  1.0211
 8481SOL    HW237077   2.683   3.351  10.059 -2.1345 -0.1132 -2.2020
 8482SOL     OW37078   4.348   2.701   4.119  0.4275  0.2789  0.4133
 8482SOL    HW137079   4.282   2.632   4.115 -0.8283  1.4847  0.1581
 8482SOL    HW237080   4.298   2.782   4.136  0.4298  0.2361  0.6222
 8483SOL     OW37081   0.732   0.192   5.417 -0.5355  0.0162 -0.3063
 8483SOL    HW137082   0.749   0.198   5.511  0.9767  0.3375 -0.5964
 8483SOL    HW237083   0.646   0.151   5.404 -0.6247  0.1379 -0.1113
 8484SOL     OW37084   4.643   1.251   1.754 -0.1141  0.0323  0.1580
 8484SOL    HW137085   4.718   1.205   1.792  0.5697  0.2245 -0.9290
 8484SOL    HW237086   4.618   1.186   1.688  0.4740 -1.5109  1.4635
 8485SOL     OW37087   1.265   0.055   6.349 -0.4475 -0.4168 -0.2314
 8485SOL    HW137088   1.273   0.088   6.259 -1.8261 -3.0181 -1.2977
 8485SOL    HW237089   1.170   0.050   6.361 -0.2681 -0.8108  0.9588
 8486SOL     OW37090   3.082   3.339   2.692  0.3770 -0.4210 -0.3543
 8486SOL    HW137091   3.109   3.428   2.671 -1.9105 -0.1207 -2.0327
 8486SOL    HW237092   3.147   3.283   2.648  0.8161 -2.2742  2.6771
 8487SOL     OW37093   3.241   1.732   9.640  0.8056  0.0681  0.2839
 8487SOL    HW137094   3.302   1.717   9.567  0.1563 -0.4406 -0.1560
 8487SOL    HW237095   3.163   1.705   9.591  1.3807 -1.8846  0.4544
 8488SOL     OW37096   3.113   3.290   4.387  0.2412  0.6388  0.1338
 8488SOL    HW137097   3.066   3.228   4.332 -0.6358 -0.0480  1.6574
 8488SOL    HW237098   3.204   3.264   4.371 -0.1839 -0.7270 -0.0049
 8489SOL     OW37099   3.224   3.069   2.969  0.4228  0.3116 -0.1475
 8489SOL    HW137100   3.260   2.999   3.023  0.6773  1.8290  1.6433
 8489SOL    HW237101   3.200   3.007   2.900  0.5553  0.0221  0.0652
 8490SOL     OW37102   0.957   1.703   7.913  0.3755  0.3084 -0.8331
 8490SOL    HW137103   0.976   1.648   7.989 -1.3315  0.1379 -0.5258
 8490SOL    HW237104   0.913   1.634   7.862 -1.0426  0.5768  0.0286
 8491SOL     OW37105   0.903   2.525   9.072  0.3062  0.6263  0.3663
 8491SOL    HW137106   0.979   2.503   9.125  1.0798  0.9853 -0.6014
 8491SOL    HW237107   0.833   2.507   9.135  1.1665  1.2917  1.4886
 8492SOL     OW37108   0.896   2.669  10.254  0.1880  0.2732  0.2748
 8492SOL    HW137109   0.857   2.701  10.173 -0.6709 -0.7790  0.2668
 8492SOL    HW237110   0.966   2.615  10.217 -0.1824  0.2297 -0.3643
 8493SOL     OW37111   0.028   2.249   7.431 -0.5159  0.4373 -0.1499
 8493SOL    HW137112   4.719   2.263   7.513 -1.5219 -2.3417 -0.2927
 8493SOL    HW237113   0.113   2.289   7.448  0.2437 -1.4665  0.5215
 8494SOL     OW37114   2.895   0.729   7.899  0.4096 -0.1092 -0.0579
 8494SOL    HW137115   2.869   0.729   7.991  0.2821 -0.0761 -0.0933
 8494SOL    HW237116   2.913   0.822   7.886  1.1284 -0.1633  0.5599
 8495SOL     OW37117   2.179   0.549   7.127  0.1825 -0.0364  0.3471
 8495SOL    HW137118   2.168   0.467   7.175 -0.4489 -1.3497 -2.0394
 8495SOL    HW237119   2.220   0.514   7.048  0.3558  0.3788  0.2566
 8496SOL     OW37120   0.409   0.180   2.956  0.3325  0.0976  0.7675
 8496SOL    HW137121   0.466   0.227   3.017  1.3152 -0.6731  0.4480
 8496SOL    HW237122   0.328   0.230   2.961  0.0447 -0.3453  0.5266
 8497SOL     OW37123   0.456   0.322  14.983 -0.1751  0.0740  0.2156
 8497SOL    HW137124   0.452   0.246  14.925  1.5543  1.1192 -1.2772
 8497SOL    HW237125   0.366   0.338  15.011 -0.6451 -0.8701 -0.7663
 8498SOL     OW37126   2.923   3.672  13.963  0.6420  0.1669  0.3367
 8498SOL    HW137127   2.837   3.629  13.963  2.1187 -2.8238 -0.3904
 8498SOL    HW237128   2.966   3.628  13.890 -2.8240  1.3585 -2.4507
 8499SOL     OW37129   4.060   2.383   6.929  0.0835  0.0593  0.1018
 8499SOL    HW137130   4.001   2.358   7.000  0.5516 -2.1521 -0.2991
 8499SOL    HW237131   4.142   2.377   6.977 -0.7998 -2.0807  1.3360
 8500SOL     OW37132   1.342   2.945   7.031 -0.5660  0.7297 -0.1993
 8500SOL    HW137133   1.272   3.010   7.038  0.1143  1.2520  1.7997
 8500SOL    HW237134   1.299   2.874   7.079  2.2137 -1.0179 -0.3417
 8501SOL     OW37135   3.781   2.643   4.757  0.4644  0.0089  0.1035
 8501SOL    HW137136   3.698   2.676   4.793  1.1794  3.5102 -1.4306
 8501SOL    HW237137   3.758   2.671   4.669  0.6784 -0.2064 -0.0186
 8502SOL     OW37138   1.695   1.134   1.807 -0.0044  0.0819  0.1766
 8502SOL    HW137139   1.768   1.090   1.763 -0.3131 -1.6742  1.4057
 8502SOL    HW237140   1.734   1.177   1.884  3.7892  0.5589 -1.9944
 8503SOL     OW37141   1.572   0.270   6.970 -0.0520 -0.2031  0.4322
 8503SOL    HW137142   1.485   0.229   6.969 -0.4539  0.7258 -2.1784
 8503SOL    HW237143   1.578   0.292   6.877 -2.3504  0.1920  0.3666
 8504SOL     OW37144   2.742   3.482   3.661 -0.4394  0.2610  0.2569
 8504SOL    HW137145   2.649   3.463   3.649 -0.7036  2.4290 -1.1653
 8504SOL    HW237146   2.781   3.416   3.603 -0.8506  0.4352 -0.2171
 8505SOL     OW37147   0.280   0.091  17.326 -0.3304  0.0024 -0.0520
 8505SOL    HW137148   0.243   0.108  17.239 -0.5686  3.4080  0.7092
 8505SOL    HW237149   0.208   0.097  17.389 -1.8293 -0.7472 -1.6968
 8506SOL     OW37150   3.872   4.413   7.520  0.4729  0.4934  0.0872
 8506SOL    HW137151   3.871   4.491   7.575  0.7032  0.5591 -0.0020
 8506SOL    HW237152   3.802   4.428   7.456  0.0703 -0.1395  0.3781
 8507SOL     OW37153   3.965   3.222   0.039 -0.3308 -0.6176 -0.2976
 8507SOL    HW137154   3.902   3.291   0.055 -0.7639 -0.7243 -1.5787
 8507SOL    HW237155   3.912   3.143   0.027  0.0811 -0.7062 -1.5129
 8508SOL     OW37156   1.090   3.645   5.649  0.0520 -0.4529 -0.2201
 8508SOL    HW137157   1.115   3.553   5.658 -0.6436 -0.6331 -0.0941
 8508SOL    HW237158   0.999   3.643   5.678  0.0765  2.0783  0.0362
 8509SOL     OW37159   1.836   2.888   7.007  0.0348 -0.2582 -0.2730
 8509SOL    HW137160   1.922   2.866   6.972 -0.7024 -3.4409 -0.1271
 8509SOL    HW237161   1.858   2.904   7.099 -0.6965 -0.1304 -0.1208
 8510SOL     OW37162   4.638   0.013   4.870 -0.0353 -0.1745  0.5735
 8510SOL    HW137163   4.605   0.095   4.835 -2.5003 -1.4422 -0.1443
 8510SOL    HW237164   4.697   4.732   4.798 -0.4353 -0.4225  0.3176
 8511SOL     OW37165   0.232   2.169  13.662  0.4257  0.4053 -0.0781
 8511SOL    HW137166   0.315   2.201  13.627  0.5650 -2.3092 -2.2435
 8511SOL    HW237167   0.174   2.170  13.585 -1.0176 -2.1048  0.9763
 8512SOL     OW37168   1.063   0.726   4.358 -0.3937  0.0439  0.1926
 8512SOL    HW137169   1.038   0.753   4.269 -0.6804 -2.1640 -0.4114
 8512SOL    HW237170   1.156   0.711   4.341 -0.2442  0.2957  0.8273
 8513SOL     OW37171   4.080   1.930   7.174  0.0837 -0.5334  0.0148
 8513SOL    HW137172   4.012   1.957   7.237  1.1480 -1.1530  1.4429
 8513SOL    HW237173   4.154   1.940   7.235 -1.1146  0.3677  1.3285
 8514SOL     OW37174   4.406   2.610   1.293 -0.3302  0.0217  0.3582
 8514SOL    HW137175   4.451   2.532   1.327 -1.5838 -0.9805 -0.2884
 8514SOL    HW237176   4.415   2.599   1.199 -0.7879  0.0151  0.3150
 8515SOL     OW37177   3.664   2.186   4.299  0.6158  0.4685 -0.3749
 8515SOL    HW137178   3.706   2.266   4.267  1.8906 -0.2184 -0.4280
 8515SOL    HW237179   3.666   2.205   4.393 -0.6433  1.3635 -0.5187
 8516SOL     OW37180   3.223   4.275  13.104  0.2432  0.2365  0.4148
 8516SOL    HW137181   3.191   4.189  13.078 -1.2066  1.2689 -1.1927
 8516SOL    HW237182   3.228   4.307  13.014  0.8049 -1.1380 -0.0336
 8517SOL     OW37183   4.540   1.150   2.854  0.0546 -0.7193  0.1770
 8517SOL    HW137184   4.585   1.079   2.808 -0.1177 -1.1006  0.5946
 8517SOL    HW237185   4.464   1.152   2.795 -0.9101  3.1756  1.5870
 8518SOL     OW37186   4.347   1.594   0.775 -0.2618 -0.3752  0.1929
 8518SOL    HW137187   4.302   1.666   0.731 -0.9868 -0.6522  0.4835
 8518SOL    HW237188   4.305   1.518   0.733  1.0036 -0.0204 -1.7111
 8519SOL     OW37189   1.642   2.800   2.646 -0.4904 -0.9318 -0.6091
 8519SOL    HW137190   1.727   2.786   2.604 -0.2212 -0.2506 -0.2893
 8519SOL    HW237191   1.622   2.893   2.630  1.1052 -0.3853  0.5842
 8520SOL     OW37192   2.562   3.550   4.766  0.4273 -0.3572  0.2825
 8520SOL    HW137193   2.501   3.539   4.839  1.3367  0.2789  1.1304
 8520SOL    HW237194   2.502   3.583   4.699  0.3524  2.3946  1.7275
 8521SOL     OW37195   3.874   1.408   2.655 -0.3748 -0.7275 -0.5664
 8521SOL    HW137196   3.957   1.388   2.699  0.2890  2.1290 -0.5330
 8521SOL    HW237197   3.898   1.389   2.564 -1.1805  0.3144 -0.9896
 8522SOL     OW37198   1.829   2.460  13.284 -0.6777 -0.3828  0.8393
 8522SOL    HW137199   1.795   2.494  13.367 -1.6666 -0.8266  0.6139
 8522SOL    HW237200   1.779   2.378  13.280 -0.7351 -0.3353  0.5860
 8523SOL     OW37201   3.806   1.525  12.722  0.4515  0.1771 -0.1700
 8523SOL    HW137202   3.809   1.430  12.733  2.0791  0.0783 -1.3684
 8523SOL    HW237203   3.847   1.525  12.635 -1.0320 -3.1628 -0.8619
 8524SOL     OW37204   1.269   2.182   5.263 -0.1369 -0.4388  0.2667
 8524SOL    HW137205   1.197   2.119   5.254 -2.1762  1.7167  1.5977
 8524SOL    HW237206   1.335   2.121   5.297  1.7798  0.4413 -1.9164
 8525SOL     OW37207   4.656   1.155   6.191 -0.2198  0.6995 -0.4409
 8525SOL    HW137208   4.560   1.154   6.188 -0.2416 -0.0762  0.5050
 8525SOL    HW237209   4.686   1.148   6.100 -0.8904  0.2652 -0.6304
 8526SOL     OW37210   2.511   4.144   6.382  0.1439  0.1746 -0.4219
 8526SOL    HW137211   2.594   4.190   6.397 -0.4433  1.5778 -1.3948
 8526SOL    HW237212   2.489   4.183   6.297  0.6005 -1.1824 -1.1676
 8527SOL     OW37213   0.272   2.115   2.840 -0.3667  0.3803  0.1308
 8527SOL    HW137214   0.329   2.134   2.766 -1.4489 -0.0163 -0.8045
 8527SOL    HW237215   0.305   2.026   2.855 -2.8109 -0.4667  0.4172
 8528SOL     OW37216   3.527   3.935   3.537  0.0004 -0.3959 -0.8697
 8528SOL    HW137217   3.622   3.934   3.527  0.0726  3.1219 -0.3343
 8528SOL    HW237218   3.523   3.993   3.613  0.5848  0.3242 -1.4018
 8529SOL     OW37219   3.553   2.128   8.181  0.0568 -0.4223 -0.6516
 8529SOL    HW137220   3.580   2.049   8.229  1.4956 -0.4597 -1.5192
 8529SOL    HW237221   3.458   2.120   8.187  0.0216  2.1111  2.3202
 8530SOL     OW37222   1.288   1.279   8.640  0.6098 -0.0738  0.1899
 8530SOL    HW137223   1.353   1.343   8.669  0.6890  0.2213 -0.6333
 8530SOL    HW237224   1.286   1.290   8.545  2.8901  0.6736  0.2249
 8531SOL     OW37225   3.794   2.621  16.094  0.0589 -0.3431 -0.3393
 8531SOL    HW137226   3.811   2.619  16.188  0.0058 -2.1504 -0.3677
 8531SOL    HW237227   3.699   2.607  16.095  0.2497 -1.5553  0.0761
 8532SOL     OW37228   2.974   1.160   7.970  0.8551  0.5267 -0.5507
 8532SOL    HW137229   2.946   1.100   7.901 -0.1725 -1.5867  1.7082
 8532SOL    HW237230   2.888   1.192   7.999  1.5904  1.5268  0.5311
 8533SOL     OW37231   2.524   2.023   5.860  0.5585 -0.2251  0.2219
 8533SOL    HW137232   2.515   1.935   5.896  0.1523 -0.5425 -0.6659
 8533SOL    HW237233   2.619   2.030   5.851  0.5595 -1.6759 -0.9175
 8534SOL     OW37234   2.635   1.021   2.718 -0.4719  0.0189  0.2515
 8534SOL    HW137235   2.574   0.968   2.769 -0.8908 -0.9856 -1.2874
 8534SOL    HW237236   2.662   1.089   2.779  0.1757 -0.6468  0.7046
 8535SOL     OW37237   3.480   3.095  12.603 -0.0194 -0.5774  0.6561
 8535SOL    HW137238   3.481   3.138  12.688 -0.0936 -0.0682  0.3991
 8535SOL    HW237239   3.439   3.015  12.635 -0.6298  0.3968  2.2902
 8536SOL     OW37240   2.752   3.907   9.788  0.6243  0.3604  0.1366
 8536SOL    HW137241   2.846   3.895   9.775  0.2922  0.1549 -2.1395
 8536SOL    HW237242   2.727   3.826   9.744 -0.8343  0.4159  0.8825
 8537SOL     OW37243   1.046   2.434  10.710  0.5008 -0.1806 -0.4491
 8537SOL    HW137244   1.078   2.457  10.623  0.1835 -0.1877 -0.5697
 8537SOL    HW237245   1.121   2.469  10.758 -0.4184 -0.5894  1.2853
 8538SOL     OW37246   2.737   1.751   2.254 -0.0723  0.5388 -0.3644
 8538SOL    HW137247   2.781   1.833   2.275  2.6101 -1.0695  0.4470
 8538SOL    HW237248   2.700   1.724   2.339 -1.3114  0.7798 -0.8283
 8539SOL     OW37249   4.464   2.062  11.369 -0.3061 -0.1738 -0.2077
 8539SOL    HW137250   4.436   1.971  11.363  0.5033 -0.3702 -1.1620
 8539SOL    HW237251   4.412   2.104  11.300  0.0544 -0.4461 -0.6462
 8540SOL     OW37252   2.764   3.623   9.339  0.1868  0.3004 -0.5699
 8540SOL    HW137253   2.770   3.714   9.310 -0.3507  1.1118  1.8387
 8540SOL    HW237254   2.796   3.569   9.267  0.8435  0.6040 -0.5030
 8541SOL     OW37255   1.003   0.183   2.095 -0.5790 -0.6650  0.0215
 8541SOL    HW137256   0.939   0.121   2.130 -0.3044 -1.4772 -0.9310
 8541SOL    HW237257   1.077   0.179   2.156  0.3831  0.9344 -1.0617
 8542SOL     OW37258   1.842   4.660  14.327 -0.3302  0.9510  0.5949
 8542SOL    HW137259   1.932   4.675  14.297 -0.7744  1.4867 -0.4775
 8542SOL    HW237260   1.854   4.675  14.420 -0.0015  2.5576  0.3054
 8543SOL     OW37261   0.295   0.385  10.062 -0.6834  0.3966  0.0575
 8543SOL    HW137262   0.248   0.375   9.979  0.7266  3.4193 -1.1075
 8543SOL    HW237263   0.241   0.336  10.124 -1.4604  0.7110 -0.3630
 8544SOL     OW37264   1.406   0.239   6.537 -0.0417 -0.1467 -0.0130
 8544SOL    HW137265   1.452   0.178   6.479 -1.3010 -1.4115  0.3136
 8544SOL    HW237266   1.336   0.282   6.489  0.3136 -0.4013 -0.7501
 8545SOL     OW37267   3.326   2.720   6.740  0.1202 -0.4399  0.4891
 8545SOL    HW137268   3.333   2.676   6.824  0.3644  0.4207  0.9126
 8545SOL    HW237269   3.405   2.771   6.753 -1.0780  0.4661  3.9806
 8546SOL     OW37270   2.474   1.325  13.070 -0.3163 -0.2787  0.4797
 8546SOL    HW137271   2.459   1.230  13.075  0.4187 -0.4803 -1.2926
 8546SOL    HW237272   2.449   1.348  13.160  1.2123 -0.4138  0.9494
 8547SOL     OW37273   2.517   2.711   6.788  0.0054  0.0191  0.8725
 8547SOL    HW137274   2.553   2.799   6.794  1.5237 -0.5873  0.7334
 8547SOL    HW237275   2.426   2.723   6.761  0.2469  0.4761  0.2602
 8548SOL     OW37276   2.576   0.928   7.197 -0.2195  0.3235  0.7521
 8548SOL    HW137277   2.621   1.012   7.205 -0.5157  0.4258  1.3240
 8548SOL    HW237278   2.630   0.869   7.250 -1.7073 -0.7212  1.0867
 8549SOL     OW37279   2.897   4.028   5.307  0.0689 -0.2274  0.2102
 8549SOL    HW137280   2.877   4.121   5.320 -1.4213 -0.7463  1.6372
 8549SOL    HW237281   2.990   4.033   5.327  0.0452  1.2801 -0.0343
 8550SOL     OW37282   4.671   1.366   7.959 -0.3530  0.3582 -0.9184
 8550SOL    HW137283   4.702   1.308   8.029 -1.1122  0.9151 -0.1221
 8550SOL    HW237284   4.644   1.294   7.901 -1.7387  0.0477  0.1057
 8551SOL     OW37285   3.055   4.540   1.769 -0.2406 -0.4832  0.1945
 8551SOL    HW137286   3.141   4.572   1.795 -0.6228  0.4635  0.3057
 8551SOL    HW237287   3.019   4.620   1.730 -1.3077 -0.7327  0.6600
 8552SOL     OW37288   4.250   1.177   2.161  0.2152 -0.2751 -0.0680
 8552SOL    HW137289   4.254   1.192   2.255  0.5337  2.6155 -0.5248
 8552SOL    HW237290   4.344   1.179   2.139  0.5583 -2.3549  1.2055
 8553SOL     OW37291   3.705   1.733  15.351 -0.0069 -0.1698  0.4723
 8553SOL    HW137292   3.619   1.752  15.389  0.4259  0.7959  0.9592
 8553SOL    HW237293   3.713   1.791  15.276  1.1538 -0.3730  0.4315
 8554SOL     OW37294   2.651   2.707   5.097 -0.4310  0.5935  0.1070
 8554SOL    HW137295   2.569   2.738   5.135  0.0567  1.6029  0.3273
 8554SOL    HW237296   2.660   2.623   5.142  0.1646 -0.6943 -2.3755
 8555SOL     OW37297   3.310   2.778   7.709  0.2632  0.6078 -0.6158
 8555SOL    HW137298   3.306   2.718   7.635  1.7648  0.5401 -0.6575
 8555SOL    HW237299   3.405   2.782   7.722  0.0997 -0.7448  0.9272
 8556SOL     OW37300   4.115   1.001   5.199  0.7863 -0.0627 -0.1554
 8556SOL    HW137301   4.055   0.945   5.149  4.3212 -2.4753 -1.7517
 8556SOL    HW237302   4.055   1.069   5.228  1.2682  0.6846 -0.9134
 8557SOL     OW37303   4.001   3.025   7.219 -0.2325  0.3991  0.0189
 8557SOL    HW137304   4.036   3.053   7.303  1.6536  0.3548 -0.7561
 8557SOL    HW237305   3.929   3.081   7.190 -0.3791  1.5519  2.6486
 8558SOL     OW37306   2.067   4.654  12.300  1.0456 -0.2616  0.0726
 8558SOL    HW137307   2.093   4.666  12.209 -0.6479  1.0107 -0.2306
 8558SOL    HW237308   1.992   4.596  12.284  1.9644 -1.2535 -0.7091
 8559SOL     OW37309   0.689   1.393   4.055  0.4044  0.3923  0.5563
 8559SOL    HW137310   0.755   1.381   4.123  2.0602  1.6182 -0.8224
 8559SOL    HW237311   0.738   1.383   3.973 -0.9192  2.6275 -0.5150
 8560SOL     OW37312   2.055   2.912   3.695 -0.9173  0.0808 -0.0678
 8560SOL    HW137313   2.081   2.989   3.747 -2.4813  1.0258 -0.6917
 8560SOL    HW237314   2.015   2.865   3.768  1.5765  0.6552  1.6685
 8561SOL     OW37315   1.674   0.735   1.921  0.0669 -0.1447  0.3382
 8561SOL    HW137316   1.640   0.822   1.946 -0.6979 -0.1194 -0.7768
 8561SOL    HW237317   1.671   0.736   1.825 -1.2598 -0.6346  0.3785
 8562SOL     OW37318   3.402   2.381   9.296  0.3281  0.1020 -0.2852
 8562SOL    HW137319   3.452   2.433   9.359 -0.0688  0.8781 -0.6223
 8562SOL    HW237320   3.455   2.303   9.278 -1.6213 -1.7809  2.1332
 8563SOL     OW37321   1.505   1.882   2.431  0.0613 -0.0708 -0.3937
 8563SOL    HW137322   1.448   1.953   2.463 -2.2196 -1.7631 -0.7087
 8563SOL    HW237323   1.546   1.934   2.362 -2.4494  0.4226 -1.5447
 8564SOL     OW37324   0.027   0.592  11.530  0.0184 -0.3343 -0.9352
 8564SOL    HW137325   4.675   0.608  11.512 -0.3123 -1.7403 -0.5308
 8564SOL    HW237326   0.049   0.684  11.540  0.3910 -0.7063  1.4849
 8565SOL     OW37327   0.147   0.804   8.476 -0.3429 -0.5902 -0.2539
 8565SOL    HW137328   0.158   0.831   8.567 -0.3844  0.1290 -0.4581
 8565SOL    HW237329   0.151   0.709   8.476 -0.3303 -0.5909  0.9748
 8566SOL     OW37330   2.510   4.622   2.984 -0.1721  0.2195  0.4570
 8566SOL    HW137331   2.485   4.570   2.908 -1.4008  2.0536 -0.3982
 8566SOL    HW237332   2.520   4.563   3.059  0.7926  0.6803  0.6842
 8567SOL     OW37333   2.251   1.905   6.405 -0.3009 -0.1114  0.4199
 8567SOL    HW137334   2.267   1.842   6.475  1.7969  0.3251  0.3528
 8567SOL    HW237335   2.222   1.838   6.344 -0.6223  0.9724 -0.6148
 8568SOL     OW37336   0.256   2.263   4.839  0.2532  0.1615  0.0890
 8568SOL    HW137337   0.176   2.213   4.820  0.7362 -0.4950 -0.2066
 8568SOL    HW237338   0.234   2.350   4.805 -0.7792  0.2936  1.0948
 8569SOL     OW37339   2.184   3.698   7.457 -0.2739  0.3182  0.1217
 8569SOL    HW137340   2.123   3.638   7.413 -0.7767 -0.8070  2.3552
 8569SOL    HW237341   2.268   3.653   7.461 -0.4034  0.0041 -0.5537
 8570SOL     OW37342   1.581   1.124   5.254 -0.1520 -0.2021 -0.0476
 8570SOL    HW137343   1.635   1.085   5.185 -0.1220 -0.9814  0.4140
 8570SOL    HW237344   1.619   1.211   5.244  0.4450 -0.0612  3.4515
 8571SOL     OW37345   1.098   0.581   7.857 -0.1461 -0.0652 -0.4375
 8571SOL    HW137346   1.193   0.573   7.866 -0.2144  1.7925  1.9817
 8571SOL    HW237347   1.073   0.586   7.949  3.2561  1.4187  0.3788
 8572SOL     OW37348   3.500   0.758   3.795 -0.1656 -0.6083 -0.2868
 8572SOL    HW137349   3.547   0.675   3.790  1.8213  0.5781 -1.5570
 8572SOL    HW237350   3.545   0.809   3.727 -2.4538  1.8017 -0.0120
 8573SOL     OW37351   3.630   1.886   9.218  0.1547  0.6845  0.3275
 8573SOL    HW137352   3.541   1.921   9.220 -0.3215 -0.5410  0.2083
 8573SOL    HW237353   3.663   1.890   9.307 -1.1645 -0.2542  0.8551
 8574SOL     OW37354   4.189   1.474  10.854  0.3135  0.0435 -0.6412
 8574SOL    HW137355   4.229   1.499  10.937 -0.8799  2.0826 -0.6758
 8574SOL    HW237356   4.170   1.383  10.874 -1.6458  0.5776 -0.0711
 8575SOL     OW37357   1.983   0.287  14.805 -0.0027 -0.3393  0.4187
 8575SOL    HW137358   2.059   0.296  14.861 -1.0111 -0.7592  1.8470
 8575SOL    HW237359   1.961   0.193  14.804 -2.0305  0.1418 -0.5465
 8576SOL     OW37360   0.979   3.606   9.350  0.3837  0.1819 -0.2588
 8576SOL    HW137361   0.984   3.580   9.442  0.1092 -0.6645 -0.4804
 8576SOL    HW237362   0.985   3.702   9.349 -1.7341  0.3437  1.3300
 8577SOL     OW37363   3.136   0.251   5.299  0.1264 -0.3751 -0.1758
 8577SOL    HW137364   3.139   0.346   5.300 -2.1791 -0.3081  0.4854
 8577SOL    HW237365   3.157   0.227   5.209  2.0553  1.1340 -0.1169
 8578SOL     OW37366   1.723   1.312  12.134  0.2763  0.6728 -0.2126
 8578SOL    HW137367   1.652   1.349  12.081  0.7387 -1.3991 -2.2900
 8578SOL    HW237368   1.781   1.380  12.169 -1.9257  2.4606  0.0121
 8579SOL     OW37369   1.752   2.878   6.438 -0.3281 -0.5186 -0.0142
 8579SOL    HW137370   1.721   2.951   6.383  0.4594 -1.1755 -1.3253
 8579SOL    HW237371   1.800   2.833   6.369  0.9808 -0.6497  0.9831
 8580SOL     OW37372   2.054   3.710  12.198 -0.2914 -0.1200 -0.4752
 8580SOL    HW137373   2.131   3.687  12.146  0.7091  0.2857  0.8314
 8580SOL    HW237374   1.992   3.638  12.187  0.2623 -0.7555  0.4966
 8581SOL     OW37375   1.111   0.473   5.049 -0.1456  0.1039  0.2675
 8581SOL    HW137376   1.026   0.430   5.047  0.7800 -1.6846 -0.6546
 8581SOL    HW237377   1.130   0.481   4.955  1.8099  1.9911  0.8021
 8582SOL     OW37378   3.849   2.558   0.983 -0.1321 -0.2481  0.2702
 8582SOL    HW137379   3.891   2.609   1.053 -0.9535 -2.3678  2.2985
 8582SOL    HW237380   3.759   2.589   0.989  0.2390  1.1189 -1.1275
 8583SOL     OW37381   1.841   3.865   4.331 -0.1973 -0.3150  0.3719
 8583SOL    HW137382   1.883   3.816   4.402  0.8701 -1.4553 -1.0580
 8583SOL    HW237383   1.834   3.948   4.377  1.3808 -0.1591  0.3245
 8584SOL     OW37384   0.245   3.996   2.405 -0.0022 -0.6551 -0.2948
 8584SOL    HW137385   0.310   4.000   2.475 -0.5120  0.1086  0.1249
 8584SOL    HW237386   0.161   3.978   2.447 -2.2476  1.9930 -3.6952
 8585SOL     OW37387   3.872   0.556   6.321  0.5289  0.0686  0.2796
 8585SOL    HW137388   3.918   0.497   6.382  0.2328  0.1783  0.6088
 8585SOL    HW237389   3.938   0.623   6.304  1.0209 -0.6065 -0.5085
 8586SOL     OW37390   2.255   0.519   2.095 -0.0054 -0.1093  0.0632
 8586SOL    HW137391   2.312   0.516   2.171  0.7609  1.0696 -0.4667
 8586SOL    HW237392   2.258   0.611   2.069 -1.3442 -0.6375 -1.9795
 8587SOL     OW37393   1.342   2.647  13.791 -0.1455  0.0400  0.4355
 8587SOL    HW137394   1.412   2.706  13.817  0.8088 -0.1065 -1.8067
 8587SOL    HW237395   1.273   2.673  13.852 -1.1249 -1.3703 -0.0738
 8588SOL     OW37396   2.583   1.918   4.205  0.3387 -0.3465  0.6465
 8588SOL    HW137397   2.633   1.976   4.148  3.1034  0.0837  3.4969
 8588SOL    HW237398   2.497   1.931   4.166  0.8926 -0.1672 -0.5250
 8589SOL     OW37399   0.764   0.321  11.607 -0.2775 -0.2501 -0.7277
 8589SOL    HW137400   0.675   0.352  11.624  0.2893  0.8156  0.3394
 8589SOL    HW237401   0.761   0.287  11.518  1.5666  1.0397 -1.2741
 8590SOL     OW37402   1.418   2.207   4.278  0.6635 -0.2890  0.0651
 8590SOL    HW137403   1.438   2.179   4.189  0.8479  0.7713 -0.2211
 8590SOL    HW237404   1.368   2.283   4.248 -2.3520 -1.3031  2.4961
 8591SOL     OW37405   1.668   1.398   1.543  0.0384 -0.0815  0.0002
 8591SOL    HW137406   1.736   1.335   1.519 -0.7103 -0.4322 -1.2615
 8591SOL    HW237407   1.719   1.476   1.565 -2.1372  1.6696 -1.1825
 8592SOL     OW37408   4.645   4.227   5.271  0.3358  0.5963 -0.2503
 8592SOL    HW137409   4.687   4.283   5.206  1.3573 -0.1030 -0.2011
 8592SOL    HW237410   4.579   4.292   5.296 -1.4576 -1.1416 -0.5323
 8593SOL     OW37411   1.189   2.741   7.143 -0.6251 -1.1955  0.0699
 8593SOL    HW137412   1.148   2.683   7.079 -0.1129 -0.0757 -1.2464
 8593SOL    HW237413   1.191   2.685   7.221  0.2370 -1.7105 -0.3143
 8594SOL     OW37414   1.104   3.289   7.451 -0.1495 -0.0993 -0.0195
 8594SOL    HW137415   1.198   3.276   7.440 -0.1023  0.4653 -0.2868
 8594SOL    HW237416   1.087   3.375   7.413 -0.7356  0.1193  0.7304
 8595SOL     OW37417   0.269   0.008   7.889  0.6350  0.2706  0.1998
 8595SOL    HW137418   0.315   0.086   7.920  0.6587  0.0611  0.7012
 8595SOL    HW237419   0.211   4.728   7.963 -0.8997 -0.6625 -1.2631
 8596SOL     OW37420   1.198   3.809  10.140 -0.0847 -0.8883 -0.0816
 8596SOL    HW137421   1.119   3.766  10.173 -0.9792  2.0092  1.5200
 8596SOL    HW237422   1.239   3.828  10.224  0.4623 -2.2425 -0.0390
 8597SOL     OW37423   1.757   1.560   2.261  0.4697  0.0984  0.0468
 8597SOL    HW137424   1.777   1.602   2.345 -0.3380  0.4073  0.0809
 8597SOL    HW237425   1.714   1.475   2.271 -2.6997  1.6445 -0.6189
 8598SOL     OW37426   4.020   3.902   3.307 -0.7268  0.5456  0.0677
 8598SOL    HW137427   4.074   3.967   3.351  0.1878 -0.4728  0.4544
 8598SOL    HW237428   4.068   3.819   3.302  0.5218  1.3984 -2.1874
 8599SOL     OW37429   1.650   0.537  12.759 -0.1528 -0.1807  0.0619
 8599SOL    HW137430   1.573   0.482  12.776  1.0010 -1.2998  1.6731
 8599SOL    HW237431   1.621   0.598  12.691 -2.8941  1.6831  2.9492
 8600SOL     OW37432   0.381   1.576   1.009 -0.2965  0.2059  0.4801
 8600SOL    HW137433   0.359   1.668   0.996  2.0184  0.7381  0.3618
 8600SOL    HW237434   0.325   1.532   0.945  1.4382 -1.8514  0.3874
 8601SOL     OW37435   1.257   3.000   3.964  0.1088  0.2942  0.1375
 8601SOL    HW137436   1.284   3.069   4.024 -2.7448 -0.3591  2.1682
 8601SOL    HW237437   1.302   3.030   3.885 -0.9040  1.7828  0.1166
 8602SOL     OW37438   4.738   3.170   5.620  0.3048  0.1389  0.8209
 8602SOL    HW137439   4.700   3.090   5.656 -0.1314  0.4920  1.1454
 8602SOL    HW237440   4.685   3.233   5.669  1.4718  0.6490  1.4410
 8603SOL     OW37441   2.908   3.006  16.920  0.7070  0.1718  0.4162
 8603SOL    HW137442   2.948   3.032  16.837  1.8318  1.2218  1.3150
 8603SOL    HW237443   2.906   3.087  16.970  1.9768  1.4999 -1.7161
 8604SOL     OW37444   2.182   3.308   5.720 -0.2850  0.2845 -0.3696
 8604SOL    HW137445   2.196   3.304   5.814  0.3532  0.5223 -0.4513
 8604SOL    HW237446   2.224   3.226   5.692 -0.9175  0.4588 -1.8640
 8605SOL     OW37447   4.186   2.561  15.719  0.3064 -0.2254 -0.2513
 8605SOL    HW137448   4.211   2.631  15.778 -1.1560  0.9461 -1.0231
 8605SOL    HW237449   4.097   2.543  15.748  0.5733  1.0492  1.3438
 8606SOL     OW37450   3.946   2.223   7.160 -0.1245  0.5861  0.4150
 8606SOL    HW137451   3.949   2.138   7.204  0.5944  0.0715 -0.6407
 8606SOL    HW237452   3.939   2.279   7.238 -2.7815  0.3916  0.3078
 8607SOL     OW37453   0.717   0.787   2.384  0.1403  0.1283  0.1779
 8607SOL    HW137454   0.777   0.858   2.360 -1.5511  0.8062 -2.0505
 8607SOL    HW237455   0.633   0.831   2.398  1.2125  1.1568  3.4288
 8608SOL     OW37456   2.735   4.555   4.997  0.0582 -0.0455  0.4076
 8608SOL    HW137457   2.679   4.573   4.922 -0.5990 -0.7353  0.7315
 8608SOL    HW237458   2.679   4.580   5.070  1.8715 -2.2958  2.5845
 8609SOL     OW37459   3.770   4.657   3.104  0.0906  0.0440  0.3414
 8609SOL    HW137460   3.734   4.682   3.189 -0.2836  0.9355 -0.0780
 8609SOL    HW237461   3.810   4.578   3.139 -2.9846 -1.9874 -0.6556
 8610SOL     OW37462   0.660   0.426   2.792 -0.6098 -0.0593 -0.4643
 8610SOL    HW137463   0.746   0.448   2.829 -0.9307  1.7468 -0.7880
 8610SOL    HW237464   0.605   0.388   2.860  0.4070 -0.7953 -0.0429
 8611SOL     OW37465   3.192   4.029   4.177  0.3494 -0.1132  0.9758
 8611SOL    HW137466   3.218   4.007   4.267  0.9874  1.9237  1.2764
 8611SOL    HW237467   3.183   4.124   4.179  0.4020 -0.0483 -1.9578
 8612SOL     OW37468   1.593   1.328   3.703  0.2771  0.6482 -0.0333
 8612SOL    HW137469   1.638   1.260   3.752 -0.5771  1.2391  1.5752
 8612SOL    HW237470   1.551   1.381   3.771 -2.2440 -0.0996 -1.0321
 8613SOL     OW37471   0.606   0.159  12.945 -0.3049 -0.4709 -0.2805
 8613SOL    HW137472   0.674   0.148  13.011 -1.3605 -2.1493  0.5183
 8613SOL    HW237473   0.579   0.068  12.938 -2.1977  0.1187 -0.6734
 8614SOL     OW37474   1.285   3.877  12.930 -0.1005 -0.1139 -0.7560
 8614SOL    HW137475   1.311   3.869  13.022  0.6954 -0.3200 -1.0071
 8614SOL    HW237476   1.289   3.789  12.894 -0.7128  0.0006 -1.1085
 8615SOL     OW37477   1.933   1.804   6.387 -0.1285 -0.2074  0.3057
 8615SOL    HW137478   1.923   1.846   6.301 -0.1402  1.8038  1.2928
 8615SOL    HW237479   1.843   1.824   6.413 -0.4577  0.2638 -1.1730
 8616SOL     OW37480   4.392   2.112   7.695  0.5438 -0.2110  0.1346
 8616SOL    HW137481   4.460   2.170   7.661  0.9043 -1.7621 -1.7979
 8616SOL    HW237482   4.386   2.151   7.782  0.6504  0.9014 -0.3667
 8617SOL     OW37483   2.608   4.458   5.326  0.1584  0.1384  0.7266
 8617SOL    HW137484   2.590   4.379   5.276 -2.1797  0.9512  0.3030
 8617SOL    HW237485   2.683   4.432   5.380  0.3611  0.8936  0.8134
 8618SOL     OW37486   4.603   1.504   6.564  0.9563 -0.2925  0.0877
 8618SOL    HW137487   4.687   1.510   6.518  1.6026  1.4272  1.4986
 8618SOL    HW237488   4.581   1.415   6.537  1.0163 -0.7606  1.6195
 8619SOL     OW37489   0.635   1.279   5.660 -0.5692 -0.6196  0.5520
 8619SOL    HW137490   0.546   1.312   5.651 -0.3495 -0.8740 -2.4342
 8619SOL    HW237491   0.671   1.262   5.573  1.9691  1.3666  1.2112
 8620SOL     OW37492   1.651   4.019  15.599 -0.3773 -0.3905 -0.4343
 8620SOL    HW137493   1.572   4.034  15.549 -0.0173  0.6194 -0.6916
 8620SOL    HW237494   1.671   4.101  15.645  1.2273 -0.2193 -1.4367
 8621SOL     OW37495   0.328   1.857   2.586 -0.0315  0.0833 -0.0711
 8621SOL    HW137496   0.298   1.789   2.647 -0.6483 -0.8204 -1.4020
 8621SOL    HW237497   0.395   1.897   2.641  1.0642  0.5553 -1.7618
 8622SOL     OW37498   0.528   1.777   1.205  0.0430 -0.2045 -0.2898
 8622SOL    HW137499   0.540   1.760   1.299  0.7807  0.3480 -0.2805
 8622SOL    HW237500   0.437   1.751   1.191 -0.2703 -0.2287  1.7596
 8623SOL     OW37501   1.876   4.085   4.854 -0.7267 -0.1273  0.3022
 8623SOL    HW137502   1.928   4.165   4.863  1.7069 -1.5915 -0.7135
 8623SOL    HW237503   1.854   4.078   4.947  0.5742 -0.4816  0.5865
 8624SOL     OW37504   0.070   2.627   6.586 -0.5937  0.4870  0.5572
 8624SOL    HW137505   0.044   2.548   6.539  0.1035  0.2417  0.5891
 8624SOL    HW237506   0.028   2.700   6.540  1.7486  0.4030 -1.7251
 8625SOL     OW37507   2.949   0.968   7.328  0.0590  0.5314  0.0242
 8625SOL    HW137508   3.002   1.037   7.368 -2.2905  1.2791  1.9022
 8625SOL    HW237509   2.865   1.014   7.319 -0.6804  0.0296  4.3297
 8626SOL     OW37510   3.853   0.351   5.829 -0.3128  0.1760 -0.3976
 8626SOL    HW137511   3.794   0.301   5.773 -0.5630  0.1713 -0.1257
 8626SOL    HW237512   3.921   0.364   5.762 -2.5369 -0.6355 -2.8420
 8627SOL     OW37513   3.308   4.085  12.854  0.1128 -0.1418  0.5918
 8627SOL    HW137514   3.275   4.051  12.771 -0.1960  0.6574  0.3843
 8627SOL    HW237515   3.269   4.172  12.858  0.1429  0.1053 -4.3382
 8628SOL     OW37516   4.134   1.739  12.617  0.0406 -0.1123 -0.4706
 8628SOL    HW137517   4.188   1.725  12.694  2.0182 -0.1765 -1.8537
 8628SOL    HW237518   4.062   1.772  12.671  1.6002  0.1011  1.4574
 8629SOL     OW37519   0.499   4.465   6.017 -0.5582  0.4687 -0.2095
 8629SOL    HW137520   0.547   4.444   6.097 -0.2187 -0.8180 -0.7598
 8629SOL    HW237521   0.526   4.394   5.959  0.6189  0.5576  0.2162
 8630SOL     OW37522   0.751   0.343   7.556 -0.4807  0.5081  0.1304
 8630SOL    HW137523   0.797   0.380   7.481  0.6742 -0.8532  0.1673
 8630SOL    HW237524   0.803   0.383   7.626  3.4216 -0.7421 -2.0979
 8631SOL     OW37525   1.497   0.486   5.739 -0.0188 -0.2388 -0.0078
 8631SOL    HW137526   1.533   0.412   5.691 -0.0900 -0.0438 -0.3589
 8631SOL    HW237527   1.505   0.552   5.670  1.3699  0.2826  0.6612
 8632SOL     OW37528   4.441   3.252   1.581  0.0050  0.0802 -0.2848
 8632SOL    HW137529   4.490   3.334   1.585 -0.0811  0.2397 -2.4193
 8632SOL    HW237530   4.471   3.212   1.663  0.4100  0.0330 -0.4574
 8633SOL     OW37531   2.298   1.510   7.711  0.1004  0.4454  0.3266
 8633SOL    HW137532   2.303   1.425   7.668  1.8824 -0.0710  1.5107
 8633SOL    HW237533   2.388   1.518   7.745  0.3260  1.7408 -0.5917
 8634SOL     OW37534   1.901   2.149   5.898 -0.4832  0.4888 -0.4396
 8634SOL    HW137535   1.967   2.151   5.967 -0.6619  1.2396 -0.2897
 8634SOL    HW237536   1.893   2.244   5.885 -2.9829  0.6380  2.0271
 8635SOL     OW37537   3.497   3.554   0.079 -0.1116 -0.0114  0.3521
 8635SOL    HW137538   3.445   3.503   0.141  1.6545 -1.9560  0.2237
 8635SOL    HW237539   3.528   3.617   0.144 -0.4562 -0.3917  0.8865
 8636SOL     OW37540   4.474   0.097  10.981 -0.4733  0.2139  0.8693
 8636SOL    HW137541   4.515   0.074  11.064  0.6302 -1.1949 -0.0742
 8636SOL    HW237542   4.418   0.167  11.016 -1.5791 -0.0884 -0.2906
 8637SOL     OW37543   1.233   4.408   5.757 -0.5578 -0.5509  0.1492
 8637SOL    HW137544   1.308   4.455   5.793 -1.0040 -0.9099  1.5433
 8637SOL    HW237545   1.178   4.472   5.713  0.7698  0.7288  0.3577
 8638SOL     OW37546   2.045   4.609   5.562 -0.4959 -0.8422 -0.2957
 8638SOL    HW137547   2.068   4.527   5.605 -0.7021 -1.4949 -1.4177
 8638SOL    HW237548   2.020   4.575   5.476  1.6712 -1.5523 -0.6476
 8639SOL     OW37549   2.270   4.203   7.769  0.0507  0.3117 -0.5585
 8639SOL    HW137550   2.277   4.266   7.697  2.0942 -1.2157 -1.6784
 8639SOL    HW237551   2.212   4.252   7.828 -1.9691 -1.7320 -0.8673
 8640SOL     OW37552   1.668   0.782   4.876 -0.4420 -0.3389 -0.3764
 8640SOL    HW137553   1.738   0.734   4.921 -1.9697 -2.8473 -0.6629
 8640SOL    HW237554   1.601   0.760   4.941  1.1706 -0.7353  1.1768
 8641SOL     OW37555   1.593   4.428   0.666 -0.1746  0.0131 -0.0004
 8641SOL    HW137556   1.580   4.376   0.587 -2.0110 -0.7646  0.8169
 8641SOL    HW237557   1.512   4.478   0.666 -0.9590 -1.2742  0.8832
 8642SOL     OW37558   1.789   0.780   4.038 -0.7662  0.0795  0.0569
 8642SOL    HW137559   1.750   0.861   4.071 -1.2068 -0.2850  0.4214
 8642SOL    HW237560   1.818   0.753   4.125 -1.7750  0.7186  0.5912
 8643SOL     OW37561   3.932   1.186   8.486 -0.4970 -0.6494 -0.1259
 8643SOL    HW137562   4.024   1.204   8.504 -0.1002 -2.1616 -0.6672
 8643SOL    HW237563   3.894   1.196   8.573  1.7009 -0.1112  0.7769
 8644SOL     OW37564   0.934   2.825   4.376  0.5139  0.3377 -0.2539
 8644SOL    HW137565   0.937   2.730   4.361  0.4436 -0.0662  2.4292
 8644SOL    HW237566   1.028   2.842   4.379  0.7221 -0.5718 -1.2201
 8645SOL     OW37567   2.329   4.646   0.101 -0.3987 -0.4367  0.4731
 8645SOL    HW137568   2.404   4.616   0.154  1.1448 -0.0776 -1.5268
 8645SOL    HW237569   2.285   4.564   0.080 -0.2613 -0.0619 -1.2404
 8646SOL     OW37570   0.792   4.383   6.553  0.1289  0.3129  0.4161
 8646SOL    HW137571   0.780   4.346   6.465  0.1900  0.5088  0.3258
 8646SOL    HW237572   0.847   4.458   6.529 -0.7710  0.9573  0.3920
 8647SOL     OW37573   4.664   2.937   6.895  0.1955  0.0302  0.0007
 8647SOL    HW137574   4.678   3.032   6.906 -0.0340  0.0461  0.1381
 8647SOL    HW237575   4.729   2.912   6.829  0.3609 -0.9495  0.5387
 8648SOL     OW37576   4.478   0.157   3.795  0.4460  0.3924  0.5272
 8648SOL    HW137577   4.550   0.213   3.825  0.0524  0.5669  1.1276
 8648SOL    HW237578   4.398   0.194   3.831 -0.5751 -2.5328  1.2581
 8649SOL     OW37579   2.118   3.708  16.437 -0.3073 -0.0322 -0.7573
 8649SOL    HW137580   2.140   3.738  16.525  0.1725 -3.7313  0.3929
 8649SOL    HW237581   2.033   3.665  16.450 -1.8444  2.9314 -1.1821
 8650SOL     OW37582   3.568   3.727   0.281  0.3484 -0.1614 -0.2706
 8650SOL    HW137583   3.563   3.809   0.231  1.5008 -0.1774 -0.3946
 8650SOL    HW237584   3.519   3.738   0.363 -0.5412  0.2905 -0.8601
 8651SOL     OW37585   4.044   0.267   8.857 -0.2120 -0.2532  0.0780
 8651SOL    HW137586   4.115   0.319   8.895  0.3532  0.1987 -1.5815
 8651SOL    HW237587   4.023   0.322   8.781  2.3545  0.9682  0.2652
 8652SOL     OW37588   3.460   2.748   2.143 -0.1394 -0.1073  0.1574
 8652SOL    HW137589   3.448   2.710   2.056  0.4838 -1.4604  0.6710
 8652SOL    HW237590   3.386   2.809   2.140 -0.1233 -0.0558  0.6946
 8653SOL     OW37591   3.889   0.515   0.292  0.1977  0.1476 -0.1813
 8653SOL    HW137592   3.956   0.582   0.278  1.6896 -2.0755 -3.5117
 8653SOL    HW237593   3.938   0.434   0.303 -1.1391 -0.7899 -1.1421
 8654SOL     OW37594   1.858   2.224  11.595 -0.5637 -0.1823  0.5883
 8654SOL    HW137595   1.935   2.176  11.626 -1.9092 -3.1366 -0.6079
 8654SOL    HW237596   1.794   2.162  11.629  0.5075 -0.0169  2.9369
 8655SOL     OW37597   4.132   0.127   9.193 -0.0800  0.3280 -0.2716
 8655SOL    HW137598   4.151   0.095   9.281  0.5062 -0.1154 -0.5572
 8655SOL    HW237599   4.198   0.196   9.190  1.2888 -0.9385  0.7622
 8656SOL     OW37600   3.636   3.441   3.722 -0.2692 -0.4962  0.5131
 8656SOL    HW137601   3.588   3.524   3.721 -1.4053 -1.1413  1.8189
 8656SOL    HW237602   3.567   3.376   3.711  0.0528 -0.4308 -1.9227
 8657SOL     OW37603   4.423   2.150   7.201 -0.1198  0.0861  0.1771
 8657SOL    HW137604   4.374   2.156   7.283  0.5069 -2.9804  0.7979
 8657SOL    HW237605   4.409   2.060   7.170 -0.0800  0.6576 -1.4715
 8658SOL     OW37606   1.846   4.147   2.173 -0.2648 -0.1970  0.5661
 8658SOL    HW137607   1.894   4.099   2.104  1.5407  0.9202  1.0336
 8658SOL    HW237608   1.916   4.162   2.236 -0.7495  0.8721  0.8406
 8659SOL     OW37609   3.971   3.739   6.893 -0.1883 -0.3611  0.3438
 8659SOL    HW137610   4.029   3.805   6.855 -0.2376 -0.2180  0.5148
 8659SOL    HW237611   3.938   3.792   6.966 -3.7378  0.4748 -1.8702
 8660SOL     OW37612   3.404   4.323  16.435 -0.2353  0.0214  0.0644
 8660SOL    HW137613   3.391   4.266  16.359 -0.0522  1.6888 -1.2040
 8660SOL    HW237614   3.374   4.273  16.511 -2.5186 -2.5193 -2.5398
 8661SOL     OW37615   4.062   3.651   8.477  0.0653 -0.3400 -0.5183
 8661SOL    HW137616   4.093   3.587   8.542 -1.0252 -0.8772 -0.5312
 8661SOL    HW237617   4.137   3.667   8.421 -0.1779  0.8938 -0.4969
 8662SOL     OW37618   1.633   2.418   5.729  0.7013  0.5043  0.7009
 8662SOL    HW137619   1.609   2.381   5.644 -3.7873 -0.8207  2.5376
 8662SOL    HW237620   1.637   2.336   5.779 -1.6812  0.7519  1.2667
 8663SOL     OW37621   4.284   4.113  14.803  0.8040 -0.5352  0.0337
 8663SOL    HW137622   4.200   4.150  14.777  0.0127 -1.5322  1.1618
 8663SOL    HW237623   4.240   4.031  14.826  0.5296 -0.1188  1.0116
 8664SOL     OW37624   0.706   2.696   6.789  0.2010  0.2733 -0.5536
 8664SOL    HW137625   0.686   2.746   6.868 -1.2512 -1.6603  0.2820
 8664SOL    HW237626   0.770   2.757   6.752 -0.1932  0.7872 -0.4003
 8665SOL     OW37627   3.992   0.610   9.008  0.3468  0.2515  0.4825
 8665SOL    HW137628   3.948   0.689   9.039 -0.8280  0.7386 -2.4037
 8665SOL    HW237629   4.079   0.648   9.003 -0.1236  1.2979  0.4173
 8666SOL     OW37630   1.042   2.782   2.255 -0.0157 -0.5799 -0.5493
 8666SOL    HW137631   1.038   2.754   2.347 -1.7695 -2.1053 -1.1027
 8666SOL    HW237632   1.107   2.852   2.256 -0.2760 -0.2945 -3.3446
 8667SOL     OW37633   1.525   0.940   2.855 -0.5624 -0.0560  0.8734
 8667SOL    HW137634   1.550   0.886   2.781  0.8562 -1.6841  2.5328
 8667SOL    HW237635   1.597   1.002   2.843 -2.1986  1.2855 -2.0732
 8668SOL     OW37636   3.566   0.037   9.937 -0.1602 -0.2993  0.7121
 8668SOL    HW137637   3.500   0.097   9.972  2.1190  3.1419 -0.9087
 8668SOL    HW237638   3.613   0.103   9.886 -1.3815 -0.1212 -0.1965
 8669SOL     OW37639   0.174   0.003   0.504  0.5987  0.2885  0.0176
 8669SOL    HW137640   0.133   0.009   0.417  0.0369 -1.2557  0.1889
 8669SOL    HW237641   0.226   4.663   0.496  0.8175  0.1505  2.8006
 8670SOL     OW37642   3.900   2.620   7.214  0.0823 -0.4796 -0.0851
 8670SOL    HW137643   3.878   2.531   7.241 -0.6634 -0.4161 -0.4993
 8670SOL    HW237644   3.871   2.662   7.296  0.5173 -1.0793  0.3748
 8671SOL     OW37645   1.791   2.166   0.685 -0.2039  0.1886  0.3917
 8671SOL    HW137646   1.875   2.196   0.720  0.0492  0.6290 -0.5878
 8671SOL    HW237647   1.785   2.213   0.601  1.5347  0.4815  0.4376
 8672SOL     OW37648   4.394   2.712   2.960 -0.1887 -0.0514  0.2595
 8672SOL    HW137649   4.470   2.735   3.012 -0.3236  0.4867  0.2209
 8672SOL    HW237650   4.423   2.729   2.871 -0.7424  0.3907  0.1617
 8673SOL     OW37651   3.512   1.870   4.370 -0.1249  0.1986  0.2287
 8673SOL    HW137652   3.591   1.852   4.319  0.3048  0.9295  0.6369
 8673SOL    HW237653   3.552   1.931   4.433  0.0866  0.4867 -0.1882
 8674SOL     OW37654   3.296   4.196   3.532  0.0026 -0.3862 -0.0239
 8674SOL    HW137655   3.227   4.157   3.585  0.2202 -0.1582  0.4231
 8674SOL    HW237656   3.287   4.289   3.552  0.3116 -0.4346  0.3311
 8675SOL     OW37657   1.270   0.147   8.220 -0.4182 -0.6750 -0.4976
 8675SOL    HW137658   1.221   0.187   8.293  3.2185 -1.6680  2.4875
 8675SOL    HW237659   1.214   0.073   8.196  1.0530 -1.7009 -0.7756
 8676SOL     OW37660   2.108   0.578  12.659  0.0444  0.2906  0.5181
 8676SOL    HW137661   2.132   0.502  12.607 -1.2546  1.3218 -1.5828
 8676SOL    HW237662   2.068   0.537  12.736 -0.0519 -1.4659 -0.4715
 8677SOL     OW37663   2.793   1.063   1.895  0.2549 -0.1601 -0.4563
 8677SOL    HW137664   2.830   1.006   1.828  1.1186 -0.4525  0.2703
 8677SOL    HW237665   2.856   1.135   1.902 -0.4286  0.4925 -0.9358
 8678SOL     OW37666   0.704   0.104  14.444 -0.0414  0.1393  0.7901
 8678SOL    HW137667   0.784   0.149  14.417 -1.2102  1.6936 -0.0812
 8678SOL    HW237668   0.639   0.144  14.386 -0.8355 -2.7638 -0.2877
 8679SOL     OW37669   4.506   3.007   9.276 -0.2475 -0.0030 -0.3645
 8679SOL    HW137670   4.514   2.937   9.210  0.5476 -1.3553  1.1583
 8679SOL    HW237671   4.494   2.951   9.353 -1.2147  0.0858 -0.4534
 8680SOL     OW37672   3.771   2.078   1.820 -0.0957 -0.1694  0.4621
 8680SOL    HW137673   3.807   2.079   1.909  1.1831 -2.6714 -0.0514
 8680SOL    HW237674   3.697   2.139   1.824  1.2706  1.5296  0.1100
 8681SOL     OW37675   1.912   3.125   2.491  0.3657 -0.4113 -0.7054
 8681SOL    HW137676   1.977   3.057   2.475  0.4171 -0.1655 -1.5530
 8681SOL    HW237677   1.935   3.163   2.576 -2.4132 -1.9201  0.7453
 8682SOL     OW37678   0.188   1.153   8.317 -0.3674  0.6295 -0.3265
 8682SOL    HW137679   0.273   1.144   8.273  0.8472  1.4986  1.8499
 8682SOL    HW237680   0.227   1.142   8.404  2.3222 -2.6488 -1.9846
 8683SOL     OW37681   4.008   0.686   1.770 -0.3606 -0.4205 -0.1801
 8683SOL    HW137682   3.992   0.753   1.704 -0.3553 -1.3470 -1.1269
 8683SOL    HW237683   3.944   0.703   1.839 -2.9046 -2.9400 -1.8925
 8684SOL     OW37684   2.412   4.090  17.130 -0.1381 -0.0040 -0.2803
 8684SOL    HW137685   2.404   4.141  17.049 -2.6951 -0.8602 -0.5648
 8684SOL    HW237686   2.374   4.150  17.195 -3.0297 -2.0842 -0.0573
 8685SOL     OW37687   3.986   2.758   2.500 -0.4993 -0.0961  0.1846
 8685SOL    HW137688   4.063   2.773   2.446 -0.4143 -0.8721  0.0842
 8685SOL    HW237689   3.929   2.757   2.423  1.6503 -0.2900 -1.3805
 8686SOL     OW37690   0.416   0.281   8.360 -0.3598  0.0384  0.2814
 8686SOL    HW137691   0.433   0.329   8.441 -1.7535  0.7057  0.1693
 8686SOL    HW237692   0.338   0.231   8.385 -0.0772 -1.1219 -1.1355
 8687SOL     OW37693   2.766   0.174   1.054 -0.5963 -0.4180 -0.0468
 8687SOL    HW137694   2.759   0.135   0.967 -0.3397 -1.8256  0.5728
 8687SOL    HW237695   2.856   0.201   1.036 -0.2030 -0.0200  2.6449
 8688SOL     OW37696   2.200   1.920   8.732  0.2538 -0.0513 -0.0418
 8688SOL    HW137697   2.180   1.827   8.729 -1.0435  0.1862  0.7130
 8688SOL    HW237698   2.191   1.926   8.828 -1.1002 -1.5512 -0.0721
 8689SOL     OW37699   0.122   3.425   1.934 -0.2452 -0.3910  0.0994
 8689SOL    HW137700   0.215   3.420   1.956 -0.3320 -0.6970  0.4059
 8689SOL    HW237701   0.104   3.515   1.907  1.0181 -0.3261 -0.5092
 8690SOL     OW37702   3.051   4.630   2.563  0.1456 -0.4313  0.0443
 8690SOL    HW137703   2.993   4.620   2.487 -0.6954 -1.3048  0.8142
 8690SOL    HW237704   3.075   4.540   2.582  1.5865 -0.2296 -0.8453
 8691SOL     OW37705   2.914   0.692   5.999 -0.2694 -0.2246 -0.2574
 8691SOL    HW137706   2.963   0.638   5.937  0.6398  0.8496 -0.4589
 8691SOL    HW237707   2.929   0.776   5.957 -0.0094 -0.6728 -1.0650
 8692SOL     OW37708   3.215   2.011   5.647 -0.0912  0.0689  0.0798
 8692SOL    HW137709   3.265   1.959   5.710 -0.5343 -0.6571 -0.1603
 8692SOL    HW237710   3.206   2.092   5.697 -0.4090 -0.0322  0.1824
 8693SOL     OW37711   0.018   1.105   4.016  0.2383 -0.0900 -0.0154
 8693SOL    HW137712   0.092   1.154   4.051  0.0739 -1.1292  1.8300
 8693SOL    HW237713   0.060   1.019   4.018  1.8123  0.7071  1.2955
 8694SOL     OW37714   3.593   3.078   3.711 -0.5501 -0.3078  0.2510
 8694SOL    HW137715   3.542   2.996   3.706  0.4257 -0.9771  1.3153
 8694SOL    HW237716   3.530   3.150   3.714 -1.8046 -1.3535 -1.0125
 8695SOL     OW37717   2.274   0.884   4.429 -0.2140 -0.0317 -0.3961
 8695SOL    HW137718   2.360   0.875   4.470 -0.5623 -1.0411  0.1206
 8695SOL    HW237719   2.269   0.973   4.395  1.4449 -1.1395 -3.5304
 8696SOL     OW37720   4.397   1.015  12.520  0.0893 -0.1091 -0.2896
 8696SOL    HW137721   4.434   0.992  12.434 -0.5332 -0.0989 -0.5563
 8696SOL    HW237722   4.383   0.923  12.544  2.4769 -0.0389  1.3734
 8697SOL     OW37723   0.486   1.895  16.768  0.2619  0.1163  0.0740
 8697SOL    HW137724   0.499   1.989  16.770  1.3695 -0.0176 -0.7275
 8697SOL    HW237725   0.460   1.870  16.857  0.4282  2.7140  0.8326
 8698SOL     OW37726   2.189   1.615   4.629  0.5910  0.6879 -0.3205
 8698SOL    HW137727   2.281   1.636   4.615  1.1130 -0.0208  2.1372
 8698SOL    HW237728   2.180   1.520   4.624  2.8612  0.4019  1.5070
 8699SOL     OW37729   0.125   0.266   8.153  0.2474  0.3553 -0.1503
 8699SOL    HW137730   0.130   0.226   8.240 -0.4987 -1.8364 -1.1164
 8699SOL    HW237731   0.213   0.247   8.121  0.3753  0.9179 -0.1377
 8700SOL     OW37732   3.319   3.915   1.481 -0.5449  0.1585 -0.2128
 8700SOL    HW137733   3.397   3.962   1.511 -0.4905 -0.8525  1.2403
 8700SOL    HW237734   3.352   3.829   1.508 -1.4590  0.1584  0.9228
 8701SOL     OW37735   0.045   0.092   3.946 -0.1680 -0.2130  0.2878
 8701SOL    HW137736   0.103   0.087   3.870 -0.0457  1.0261  0.3024
 8701SOL    HW237737   0.008   0.004   3.937 -0.0998 -0.2898  0.7790
 8702SOL     OW37738   3.280   4.236   6.662 -0.2247  0.1807  0.3892
 8702SOL    HW137739   3.290   4.216   6.569 -2.5531  2.6760 -0.4268
 8702SOL    HW237740   3.196   4.192   6.677 -0.3061 -0.0510 -0.6848
 8703SOL     OW37741   1.773   2.766   5.392 -0.1324  0.8624 -0.3034
 8703SOL    HW137742   1.786   2.757   5.297  3.2145  1.2271  0.1297
 8703SOL    HW237743   1.729   2.683   5.409 -1.1496  1.2827 -0.8953
 8704SOL     OW37744   3.874   4.113   2.518 -0.1707 -0.1496  0.2321
 8704SOL    HW137745   3.822   4.172   2.572  1.3394  2.8066 -1.4971
 8704SOL    HW237746   3.937   4.174   2.478  1.6945 -1.7593  0.7164
 8705SOL     OW37747   2.476   4.000  15.159 -0.1650 -0.8066  0.8216
 8705SOL    HW137748   2.526   4.076  15.188 -2.0768  0.6172  0.3511
 8705SOL    HW237749   2.543   3.947  15.115 -1.8343 -2.0055 -0.3183
 8706SOL     OW37750   3.000   4.074  12.839  0.1699  0.1698  0.0138
 8706SOL    HW137751   3.003   4.023  12.758  4.2025  1.8370 -0.8361
 8706SOL    HW237752   3.051   4.152  12.818 -0.0502  0.0906 -0.8157
 8707SOL     OW37753   4.038   0.386   5.596  0.0885  0.2428  0.4311
 8707SOL    HW137754   4.075   0.474   5.584 -1.5517  0.9347  0.4750
 8707SOL    HW237755   4.108   0.327   5.569  0.3511  0.3248  0.9185
 8708SOL     OW37756   4.147   1.461   5.455 -0.1601  0.1859 -1.0301
 8708SOL    HW137757   4.157   1.556   5.445  0.4222 -0.2240 -4.1568
 8708SOL    HW237758   4.055   1.450   5.480 -0.7735  0.3449 -3.2296
 8709SOL     OW37759   1.194   4.484   2.163 -0.5508 -0.1952 -0.4869
 8709SOL    HW137760   1.169   4.572   2.135 -0.0268 -0.8243 -2.9603
 8709SOL    HW237761   1.279   4.487   2.120 -0.2720 -1.9923 -0.0668
 8710SOL     OW37762   1.400   0.029  11.817 -0.0139  0.5089  0.3818
 8710SOL    HW137763   1.397   0.062  11.907 -0.3046  0.4858  0.3804
 8710SOL    HW237764   1.323   4.713  11.819  0.7269 -0.5252 -0.9158
 8711SOL     OW37765   1.348   1.974   3.013  0.0656 -0.5448 -0.0112
 8711SOL    HW137766   1.288   1.912   2.970  0.0429 -0.0110 -0.7433
 8711SOL    HW237767   1.288   1.997   3.084 -0.0644  0.0036 -0.3022
 8712SOL     OW37768   3.040   4.274   4.634  0.6592 -0.0155  0.0296
 8712SOL    HW137769   2.966   4.299   4.689  0.3635 -0.6995 -0.0506
 8712SOL    HW237770   3.040   4.179   4.650  0.1200 -0.1953 -1.1136
 8713SOL     OW37771   3.010   3.410  11.323  0.0722 -0.0882  0.0389
 8713SOL    HW137772   2.985   3.479  11.385 -0.2672 -3.0372  3.1635
 8713SOL    HW237773   2.923   3.384  11.293  0.2146  0.8033 -1.1649
 8714SOL     OW37774   3.238   3.377   6.507 -0.2406 -0.0985  0.3381
 8714SOL    HW137775   3.310   3.317   6.486 -0.8089 -0.5146 -0.4044
 8714SOL    HW237776   3.217   3.398   6.416  2.5390  0.8380 -0.1099
 8715SOL     OW37777   0.052   1.755   2.116 -0.7930 -0.4473 -0.3114
 8715SOL    HW137778   0.006   1.731   2.196 -0.1983 -3.3138 -0.8258
 8715SOL    HW237779   4.739   1.833   2.100  0.4340  0.3463 -0.5442
 8716SOL     OW37780   2.052   2.090   6.353 -0.2421  0.5808 -0.3135
 8716SOL    HW137781   2.059   2.185   6.363 -0.5098  0.5323  0.3808
 8716SOL    HW237782   2.142   2.059   6.369 -0.6891 -1.9017 -2.5532
 8717SOL     OW37783   4.326   1.409   3.570 -0.1499 -0.2059  0.3628
 8717SOL    HW137784   4.414   1.406   3.608  0.8997 -3.6493 -2.3196
 8717SOL    HW237785   4.319   1.318   3.539  0.2759 -0.6262  1.5201
 8718SOL     OW37786   1.302   1.916   7.284 -0.3356 -0.5146 -0.1962
 8718SOL    HW137787   1.341   1.830   7.273  0.5084 -0.3484  1.5736
 8718SOL    HW237788   1.377   1.975   7.277  1.1606 -2.2756  1.3240
 8719SOL     OW37789   1.805   1.485   7.923 -0.1070 -0.1630  0.1533
 8719SOL    HW137790   1.843   1.568   7.949 -2.4861  1.4386 -1.4688
 8719SOL    HW237791   1.828   1.490   7.830  1.0501  2.2309  0.5903
 8720SOL     OW37792   1.134   2.883   8.894 -0.2631  0.0519 -0.1602
 8720SOL    HW137793   1.038   2.881   8.891 -0.2521 -1.1756  0.5140
 8720SOL    HW237794   1.164   2.793   8.885  1.7822  0.6107  1.0834
 8721SOL     OW37795   0.030   3.296   8.337  0.2754  0.2893 -0.0610
 8721SOL    HW137796   4.738   3.318   8.249  1.0741  0.1020 -0.4027
 8721SOL    HW237797   4.688   3.285   8.384 -1.1987  1.8510 -2.2444
 8722SOL     OW37798   0.730   2.201   7.030 -0.3767  0.0010 -0.5481
 8722SOL    HW137799   0.686   2.218   6.947  2.4996 -0.2906 -2.1463
 8722SOL    HW237800   0.716   2.106   7.023 -0.0967 -0.0487 -0.4363
 8723SOL     OW37801   3.954   3.820  12.405  0.5867  0.1474 -0.2411
 8723SOL    HW137802   3.993   3.733  12.409 -1.8730 -1.0584 -2.6175
 8723SOL    HW237803   3.992   3.856  12.324 -1.0537 -0.4413 -1.2644
 8724SOL     OW37804   2.377   4.738   5.891 -0.0339  0.4625 -0.5541
 8724SOL    HW137805   2.447   4.674   5.880  0.5189  0.8551  0.6512
 8724SOL    HW237806   2.333   4.730   5.807 -2.4643 -1.3358  0.8910
 8725SOL     OW37807   2.044   1.281   9.924  0.0126 -0.1029 -0.0477
 8725SOL    HW137808   1.990   1.210   9.959 -0.6805  0.8653  0.8408
 8725SOL    HW237809   2.055   1.340   9.998  1.1385 -0.1473 -0.1826
 8726SOL     OW37810   2.695   2.066  13.342 -0.3668  0.4560 -0.3524
 8726SOL    HW137811   2.654   2.124  13.406  1.0202  1.5988 -0.4950
 8726SOL    HW237812   2.702   2.123  13.265  1.0670 -0.2362 -0.7394
 8727SOL     OW37813   3.289   2.454   2.191 -0.4307 -0.2610 -0.4344
 8727SOL    HW137814   3.274   2.540   2.153  0.7264 -0.1468 -0.6328
 8727SOL    HW237815   3.332   2.399   2.125  3.3890  1.1071  0.9266
 8728SOL     OW37816   2.167   0.635   9.193 -0.5251 -0.1435 -0.4363
 8728SOL    HW137817   2.209   0.592   9.268  0.9647  0.4992 -0.9007
 8728SOL    HW237818   2.214   0.600   9.117 -0.8647 -0.0626 -0.6853
 8729SOL     OW37819   3.307   2.809   6.240 -0.0373 -0.4663  0.2501
 8729SOL    HW137820   3.298   2.802   6.335  0.2125 -1.9696  0.1703
 8729SOL    HW237821   3.243   2.749   6.201  0.1945 -0.2806 -0.4171
 8730SOL     OW37822   3.403   0.126   3.876 -0.4127 -0.5980 -0.0476
 8730SOL    HW137823   3.344   0.102   3.805 -0.4605 -0.1599 -0.1550
 8730SOL    HW237824   3.419   0.218   3.855  0.8873 -1.0105 -0.8641
 8731SOL     OW37825   2.101   2.814   1.416 -0.5723  0.1322 -0.2247
 8731SOL    HW137826   2.150   2.884   1.460 -0.6909  0.6119 -0.8537
 8731SOL    HW237827   2.015   2.853   1.430 -1.5844 -1.7770 -1.1054
 8732SOL     OW37828   4.664   0.038   7.856 -0.1767  0.4008 -0.0373
 8732SOL    HW137829   4.702   0.120   7.886  0.8273 -0.9722  2.4042
 8732SOL    HW237830   4.702   4.712   7.913 -0.1502  1.3077  0.9832
 8733SOL     OW37831   1.513   0.515   8.954  0.3423  0.2789  0.7947
 8733SOL    HW137832   1.573   0.473   9.015  1.1325  0.0750 -0.1196
 8733SOL    HW237833   1.442   0.540   9.013 -0.4099  1.6326 -0.6640
 8734SOL     OW37834   2.550   2.359   4.126 -0.5073  0.0935  0.3622
 8734SOL    HW137835   2.619   2.330   4.186 -0.3514  1.0946  0.6590
 8734SOL    HW237836   2.571   2.451   4.112  0.2846 -0.2175 -0.4872
 8735SOL     OW37837   3.520   0.679   0.288 -0.5692 -0.3165  0.1515
 8735SOL    HW137838   3.595   0.697   0.345  0.6997 -2.7168 -0.7617
 8735SOL    HW237839   3.543   0.587   0.271  1.4534  0.4340 -1.2335
 8736SOL     OW37840   3.228   0.002   3.702 -0.5811  0.1735  0.3760
 8736SOL    HW137841   3.188   4.660   3.727 -1.4776  1.0983  2.0042
 8736SOL    HW237842   3.160   0.029   3.641 -0.3534  1.3341  0.6345
 8737SOL     OW37843   1.435   3.949  10.659 -0.3505 -0.3042 -0.3276
 8737SOL    HW137844   1.370   3.986  10.600  1.5115 -0.9204 -2.7468
 8737SOL    HW237845   1.465   3.873  10.608 -1.1824  1.0300 -2.7927
 8738SOL     OW37846   4.490   4.425   1.951 -0.2556  0.0918  0.1376
 8738SOL    HW137847   4.558   4.493   1.957  0.8167 -1.0783  1.1710
 8738SOL    HW237848   4.542   4.347   1.969  0.0058  0.7139  2.0742
 8739SOL     OW37849   1.055   3.859   3.716  0.8815  0.2665 -0.2481
 8739SOL    HW137850   0.996   3.790   3.748  2.3707 -0.1742  1.5351
 8739SOL    HW237851   1.043   3.925   3.784 -0.0508  0.5546 -0.6874
 8740SOL     OW37852   1.782   1.342   9.362  0.2430 -0.4801  0.3339
 8740SOL    HW137853   1.804   1.249   9.354 -1.9943 -0.8418 -1.6032
 8740SOL    HW237854   1.841   1.369   9.433 -0.6753  1.2902  0.4345
 8741SOL     OW37855   4.324   2.641  14.015  0.2561 -0.2051 -1.0102
 8741SOL    HW137856   4.410   2.619  13.979 -0.3629 -2.7994 -0.9425
 8741SOL    HW237857   4.316   2.602  14.102  1.7128  0.7077 -0.4670
 8742SOL     OW37858   0.475   0.713   8.251  0.4656 -0.6445  0.0473
 8742SOL    HW137859   0.470   0.766   8.330  0.4534  0.7915 -0.9078
 8742SOL    HW237860   0.446   0.775   8.184  1.4718  0.0977  0.3025
 8743SOL     OW37861   4.007   3.427  11.016  0.2245  0.0778  0.4654
 8743SOL    HW137862   3.939   3.492  10.995  2.2440  1.8249 -0.7880
 8743SOL    HW237863   4.080   3.488  11.004  0.0001  0.0527 -1.0262
 8744SOL     OW37864   0.622   2.137  16.078  0.2639  0.0501  0.4212
 8744SOL    HW137865   0.661   2.161  16.162 -1.6815 -1.6819  1.8212
 8744SOL    HW237866   0.549   2.198  16.065 -1.8582 -2.5462  0.2690
 8745SOL     OW37867   2.848   0.967   4.564 -0.2059  0.3207  0.2507
 8745SOL    HW137868   2.928   0.930   4.528 -1.2785  0.1988 -2.0259
 8745SOL    HW237869   2.868   1.054   4.600  1.3354  0.1881 -0.3332
 8746SOL     OW37870   3.110   1.802   6.484  0.6371 -0.3503  0.0330
 8746SOL    HW137871   3.109   1.819   6.578  0.6825  3.7552 -0.6911
 8746SOL    HW237872   3.074   1.714   6.472  0.1326  0.1312 -1.9742
 8747SOL     OW37873   3.692   1.525   2.263  0.0414 -0.2473  0.3686
 8747SOL    HW137874   3.705   1.438   2.225  1.2820  0.3640 -0.6192
 8747SOL    HW237875   3.639   1.501   2.339 -2.2576  0.2706 -1.0725
 8748SOL     OW37876   4.562   3.597  10.965  0.3817  0.1006 -0.1055
 8748SOL    HW137877   4.615   3.581  11.043 -1.9895 -2.2098  0.9938
 8748SOL    HW237878   4.618   3.559  10.897  0.4677 -0.5403  0.3254
 8749SOL     OW37879   2.002   3.933  17.459 -0.0768 -0.2571  0.7823
 8749SOL    HW137880   2.087   3.905  17.495  0.5078 -2.5376 -2.3507
 8749SOL    HW237881   2.038   3.952  17.372  0.0282  3.9068  1.7488
 8750SOL     OW37882   3.391   2.026   9.313  0.1083  0.9759 -0.1792
 8750SOL    HW137883   3.385   2.061   9.224  0.1301 -2.4065 -1.5134
 8750SOL    HW237884   3.303   2.049   9.343  0.8456  0.6583  2.2297
 8751SOL     OW37885   4.585   3.802   8.391  0.0433  0.2843  0.2390
 8751SOL    HW137886   4.522   3.873   8.401 -0.7294 -0.4686  0.6989
 8751SOL    HW237887   4.659   3.862   8.393 -0.2960  0.7225 -0.3833
 8752SOL     OW37888   2.391   3.793   6.958 -0.4531  0.1247  0.3118
 8752SOL    HW137889   2.329   3.787   7.031 -0.4540 -4.4552 -0.0442
 8752SOL    HW237890   2.466   3.833   7.003  0.4509 -1.4151  0.1772
 8753SOL     OW37891   2.285   4.176   6.857  0.1879  0.0085  0.0593
 8753SOL    HW137892   2.307   4.267   6.835 -1.3329  0.4549  0.3792
 8753SOL    HW237893   2.363   4.150   6.904  0.0944 -0.6692 -0.1523
 8754SOL     OW37894   2.064   0.881   2.517  0.0512  0.0352 -0.7996
 8754SOL    HW137895   2.058   0.964   2.565  2.1612 -0.7529  0.8577
 8754SOL    HW237896   2.011   0.900   2.440  0.5973 -0.0383 -1.1952
 8755SOL     OW37897   4.295   2.355   7.428  0.4534  0.1587  0.0031
 8755SOL    HW137898   4.364   2.392   7.483 -0.2838  0.0510  1.0221
 8755SOL    HW237899   4.253   2.423   7.375 -0.8073 -0.5257  0.1066
 8756SOL     OW37900   2.062   4.190   8.232  0.0770 -0.5566  0.1858
 8756SOL    HW137901   2.012   4.227   8.304  0.5083 -0.8497  0.6400
 8756SOL    HW237902   2.000   4.134   8.186  0.8117 -1.4119  0.2208
 8757SOL     OW37903   1.770   2.234   6.278 -0.6715  0.3095  0.2618
 8757SOL    HW137904   1.831   2.217   6.205  1.0235  2.1748  1.2551
 8757SOL    HW237905   1.720   2.152   6.283  0.4433 -0.2735  1.5967
 8758SOL     OW37906   2.346   2.263   6.671 -0.5614  0.4767 -0.1246
 8758SOL    HW137907   2.387   2.192   6.622 -1.7532 -0.1365 -0.2465
 8758SOL    HW237908   2.403   2.272   6.747  2.3472  0.1474 -2.2789
 8759SOL     OW37909   0.819   2.942   6.894 -0.5101  0.5044  0.2043
 8759SOL    HW137910   0.865   2.961   6.812 -2.7917  0.4098 -1.0849
 8759SOL    HW237911   0.743   2.998   6.882 -1.2389 -0.7722 -1.1201
 8760SOL     OW37912   2.535   1.748   5.274  0.5114  0.2989  0.0680
 8760SOL    HW137913   2.506   1.806   5.344  2.1196 -0.5805  1.4659
 8760SOL    HW237914   2.451   1.720   5.239  1.0434 -0.6761 -0.4265
 8761SOL     OW37915   1.799   1.626   1.584 -0.1544  0.2579 -0.3732
 8761SOL    HW137916   1.812   1.642   1.491 -2.0753 -1.9137 -1.0283
 8761SOL    HW237917   1.841   1.698   1.631  1.1831 -1.2314  0.6975
 8762SOL     OW37918   2.795   1.839   6.821 -0.1401 -0.8174  0.6830
 8762SOL    HW137919   2.795   1.918   6.767  2.6032 -0.5051  1.1285
 8762SOL    HW237920   2.871   1.790   6.790 -0.5210 -0.7239 -0.3815
 8763SOL     OW37921   1.255   1.583  15.080 -0.1904 -0.0850  0.2853
 8763SOL    HW137922   1.229   1.624  14.998 -0.1736  0.4647  0.5565
 8763SOL    HW237923   1.350   1.590  15.082 -0.3383  1.9510 -0.0766
 8764SOL     OW37924   2.664   0.846  17.452 -0.1118 -0.0012  0.5110
 8764SOL    HW137925   2.688   0.753  17.444  0.7022  0.5567 -3.3166
 8764SOL    HW237926   2.711   0.860  17.534  1.7944  1.4666 -0.8422
 8765SOL     OW37927   3.362   1.684   7.877 -0.2142 -0.0547 -0.4725
 8765SOL    HW137928   3.383   1.775   7.901  0.2473 -0.5857  1.1148
 8765SOL    HW237929   3.444   1.642   7.852 -0.7135 -1.5747  0.4911
 8766SOL     OW37930   0.092   3.594   3.319  0.4416 -0.2885 -0.2006
 8766SOL    HW137931   4.737   3.604   3.324  0.2884 -2.0389  0.5229
 8766SOL    HW237932   0.085   3.502   3.293  0.7636  0.2550 -2.1497
 8767SOL     OW37933   4.147   2.700  13.826  0.6956 -0.6522 -0.4226
 8767SOL    HW137934   4.077   2.637  13.846 -0.0533  0.7559  1.3802
 8767SOL    HW237935   4.214   2.677  13.891 -0.3515  2.3644  1.7324
 8768SOL     OW37936   3.797   2.180   4.686  0.0896 -0.1828  0.8125
 8768SOL    HW137937   3.752   2.261   4.710  1.7004  1.4852 -1.7342
 8768SOL    HW237938   3.883   2.197   4.724  0.3805  0.1357  0.0082
 8769SOL     OW37939   2.930   3.471  11.930 -0.7580  0.4780  0.4631
 8769SOL    HW137940   2.994   3.417  11.884  0.0273  2.4588 -0.7873
 8769SOL    HW237941   2.869   3.501  11.862 -0.4029  3.5354  1.4985
 8770SOL     OW37942   1.833   1.130   3.487  0.4051 -0.2728 -0.0990
 8770SOL    HW137943   1.842   1.106   3.579 -0.8534  1.9105  0.6012
 8770SOL    HW237944   1.916   1.167   3.458  0.7155  0.0944  1.2543
 8771SOL     OW37945   1.352   4.532   3.266  0.1700  0.4088  0.0373
 8771SOL    HW137946   1.437   4.536   3.221  0.3721  2.0142  0.5639
 8771SOL    HW237947   1.304   4.476   3.204 -0.7977 -0.7908  1.8568
 8772SOL     OW37948   0.130   0.105   1.850  0.6984  0.4730  0.3245
 8772SOL    HW137949   0.088   0.151   1.923 -1.0848 -0.6584  0.0268
 8772SOL    HW237950   0.221   0.127   1.869  0.8922  1.2698 -1.6211
 8773SOL     OW37951   1.815   2.088   2.970 -0.0750 -0.0939 -0.1818
 8773SOL    HW137952   1.775   2.060   3.052  0.1767  0.4743  0.1388
 8773SOL    HW237953   1.755   2.059   2.902  0.0829  1.5653 -1.0308
 8774SOL     OW37954   0.540   3.267   4.246  0.1194 -0.1208  0.2268
 8774SOL    HW137955   0.560   3.182   4.285 -0.2699 -1.1816 -1.8966
 8774SOL    HW237956   0.474   3.247   4.180  0.6030 -0.0188 -0.2910
 8775SOL     OW37957   2.003   1.016   4.242  0.6926  0.2878  0.5465
 8775SOL    HW137958   1.942   1.076   4.285 -1.4714 -0.8561 -0.9546
 8775SOL    HW237959   2.066   1.005   4.313  0.5734  1.5062  0.8392
 8776SOL     OW37960   1.468   1.874   4.087  0.2608  0.5207  0.5841
 8776SOL    HW137961   1.393   1.822   4.060  2.4011 -1.3882 -1.8073
 8776SOL    HW237962   1.491   1.837   4.172 -1.3267 -2.1004 -0.1273
 8777SOL     OW37963   4.062   3.056   5.476 -0.1473 -0.4532 -0.1068
 8777SOL    HW137964   3.984   3.105   5.450 -1.8164 -2.9664  0.1521
 8777SOL    HW237965   4.080   3.105   5.556 -2.4227  0.4027 -0.1190
 8778SOL     OW37966   1.021   1.478  13.073 -0.1600 -0.5085  0.3516
 8778SOL    HW137967   1.088   1.411  13.082  0.7259  0.3971  0.4193
 8778SOL    HW237968   0.946   1.418  13.066  0.5578 -0.9911 -3.0067
 8779SOL     OW37969   2.625   1.157  16.510 -0.2635 -0.4086  0.1455
 8779SOL    HW137970   2.541   1.173  16.467 -0.8526 -3.4650  0.1432
 8779SOL    HW237971   2.684   1.209  16.456  1.6307 -0.4065  2.2333
 8780SOL     OW37972   3.553   0.762   1.162 -0.2101 -0.3971  0.4037
 8780SOL    HW137973   3.644   0.773   1.133 -0.6959  0.8765 -0.6613
 8780SOL    HW237974   3.517   0.704   1.096  1.3152  0.9658 -1.6302
 8781SOL     OW37975   2.293   2.529   2.979  0.1101  0.6404 -0.4314
 8781SOL    HW137976   2.379   2.510   3.016 -0.8090  0.8415  1.8675
 8781SOL    HW237977   2.241   2.503   3.055 -0.9547  1.0575 -1.0160
 8782SOL     OW37978   0.906   0.992   5.885 -0.1495  0.2537 -0.7184
 8782SOL    HW137979   0.916   1.062   5.949 -2.5367 -0.4755  0.4903
 8782SOL    HW237980   0.914   0.914   5.941 -0.3584  1.1342  0.5425
 8783SOL     OW37981   0.256   0.009   6.916 -0.3213  0.6442 -0.2827
 8783SOL    HW137982   0.307   4.677   6.953  0.0524  0.8704 -0.3563
 8783SOL    HW237983   0.180   4.701   6.884  0.5351 -0.2108 -1.0362
 8784SOL     OW37984   0.353   1.173  12.193  0.0673  0.0319 -0.1294
 8784SOL    HW137985   0.381   1.089  12.228  1.8268 -0.2568 -2.2665
 8784SOL    HW237986   0.429   1.229  12.207 -0.2922  0.3486  0.5437
 8785SOL     OW37987   4.491   1.822   8.187 -0.4362 -1.0452  0.7698
 8785SOL    HW137988   4.477   1.739   8.233  2.7828 -0.9657  1.8500
 8785SOL    HW237989   4.530   1.788   8.106 -0.5940 -0.7727  0.5799
 8786SOL     OW37990   2.875   2.740   7.063 -0.2527 -0.1478  0.0217
 8786SOL    HW137991   2.825   2.811   7.104 -2.3389 -1.7860  0.3209
 8786SOL    HW237992   2.914   2.768   6.980  0.5525  1.4746  0.9487
 8787SOL     OW37993   2.978   0.486   8.472  0.1663 -0.0594  0.0644
 8787SOL    HW137994   3.043   0.423   8.443  1.5608  0.7306  1.5063
 8787SOL    HW237995   3.007   0.540   8.546 -1.3470  1.1402 -0.2124
 8788SOL     OW37996   4.654   4.275   1.357  0.1179  0.4615  0.0065
 8788SOL    HW137997   4.683   4.185   1.343 -0.5865  0.1348  0.6441
 8788SOL    HW237998   4.659   4.306   1.266 -2.8405 -0.8691 -0.6213
 8789SOL     OW37999   2.236   4.201   6.238  0.3915  0.0522 -0.2225
 8789SOL    HW138000   2.294   4.242   6.174 -0.5158  0.8987 -0.5114
 8789SOL    HW238001   2.167   4.268   6.248  0.1915 -0.1397 -0.3171
 8790SOL     OW38002   3.611   3.975   7.181 -0.8787 -0.3072  0.2099
 8790SOL    HW138003   3.548   4.047   7.179  1.2951  1.5711 -0.2156
 8790SOL    HW238004   3.553   3.910   7.141 -1.6798  0.2772  0.4422
 8791SOL     OW38005   2.280   2.083   5.295  0.3498  0.0114 -0.4310
 8791SOL    HW138006   2.205   2.034   5.262  0.0333  0.3227 -0.1873
 8791SOL    HW238007   2.239   2.161   5.333 -0.0322  1.0871 -3.0824
 8792SOL     OW38008   0.067   4.688   5.094  0.2370 -0.0713 -0.6324
 8792SOL    HW138009   0.038   4.733   5.015  0.2574  0.0874 -0.5497
 8792SOL    HW238010   0.006   4.615   5.103 -0.3111  0.4489 -0.1474
 8793SOL     OW38011   3.864   1.796   4.872 -0.6061 -0.6970 -0.1114
 8793SOL    HW138012   3.871   1.799   4.968 -0.6051 -0.6840 -0.1118
 8793SOL    HW238013   3.910   1.878   4.857 -1.3889  0.1407  2.0229
 8794SOL     OW38014   4.679   2.313   2.858 -0.0511 -0.4399  0.6724
 8794SOL    HW138015   4.631   2.263   2.924 -1.7759 -0.0022 -0.2576
 8794SOL    HW238016   4.633   2.396   2.875  3.1362  1.9236 -2.1420
 8795SOL     OW38017   4.474   2.350   1.903 -0.1847  0.4104 -0.3202
 8795SOL    HW138018   4.551   2.408   1.899 -0.3387  0.7284  1.5104
 8795SOL    HW238019   4.457   2.352   1.997  1.2952 -1.7814 -0.0106
 8796SOL     OW38020   0.291   3.120   5.313  0.2608 -0.0674 -0.0602
 8796SOL    HW138021   0.197   3.135   5.330  0.3107  0.4593 -0.2458
 8796SOL    HW238022   0.310   3.143   5.222  2.4907 -0.5851  0.2808
 8797SOL     OW38023   4.059   4.313   1.848 -0.7643 -0.0348 -0.4255
 8797SOL    HW138024   4.141   4.267   1.865  0.5747  2.5726  0.1961
 8797SOL    HW238025   4.054   4.307   1.752  1.3529 -0.6662 -0.4945
 8798SOL     OW38026   3.327   3.963  12.592  0.9180  0.9451 -0.4710
 8798SOL    HW138027   3.241   3.972  12.551 -0.1318 -0.1045  1.5280
 8798SOL    HW238028   3.391   3.971  12.521  2.3238 -0.0756  0.7115
 8799SOL     OW38029   3.817   3.843   6.300 -0.3342 -0.2507  0.2208
 8799SOL    HW138030   3.782   3.929   6.324 -0.4334  0.5741 -2.8477
 8799SOL    HW238031   3.737   3.792   6.315 -1.0938  1.4464  2.0551
 8800SOL     OW38032   4.203   3.135   8.087 -0.1035 -0.5806  0.1544
 8800SOL    HW138033   4.120   3.089   8.074 -1.9880  2.5639  0.9793
 8800SOL    HW238034   4.198   3.187   8.007 -0.7713 -2.4615 -1.0128
 8801SOL     OW38035   3.795   2.707   6.327 -0.3113 -0.0643  0.1768
 8801SOL    HW138036   3.842   2.703   6.244 -0.4198  1.1859  0.0437
 8801SOL    HW238037   3.749   2.623   6.330  0.5894 -0.5923 -1.0426
 8802SOL     OW38038   1.450   1.657   9.462 -0.1176  0.5069  0.2056
 8802SOL    HW138039   1.443   1.749   9.436  1.0054  0.6343  0.3432
 8802SOL    HW238040   1.537   1.644   9.424 -1.0292 -2.2973 -0.9262
 8803SOL     OW38041   0.638   4.558   7.105  0.7404 -0.3525  0.4309
 8803SOL    HW138042   0.674   4.646   7.104 -0.0019 -0.0048  3.4454
 8803SOL    HW238043   0.707   4.515   7.155  0.5077  0.2931  1.3066
 8804SOL     OW38044   2.321   4.360  15.535  0.6289  0.5356 -0.5158
 8804SOL    HW138045   2.411   4.376  15.507  1.3085 -0.3142  1.2223
 8804SOL    HW238046   2.341   4.336  15.625  2.1507 -0.7959 -1.2146
 8805SOL     OW38047   0.030   0.049  17.488  0.2651 -0.2157 -0.9580
 8805SOL    HW138048   4.702   4.728  17.462  0.3318 -0.3770 -0.7447
 8805SOL    HW238049   4.723   0.126  17.456  0.4326  0.4684  0.4616
 8806SOL     OW38050   0.505   4.499   4.458  0.3055 -0.3843 -0.2257
 8806SOL    HW138051   0.467   4.429   4.511 -0.2643  1.5577  1.9609
 8806SOL    HW238052   0.600   4.486   4.463  0.5182  1.2872  0.0906
 8807SOL     OW38053   0.893   3.126   8.880  0.3462 -0.3204  0.6564
 8807SOL    HW138054   0.867   3.211   8.915  0.3997  0.5192 -1.3529
 8807SOL    HW238055   0.908   3.072   8.957  0.3520 -0.3913  0.6055
 8808SOL     OW38056   2.396   3.968   3.846  0.0443  0.1035 -0.1917
 8808SOL    HW138057   2.393   3.874   3.863 -0.3304 -0.0005 -0.8462
 8808SOL    HW238058   2.315   3.989   3.893  0.7234  2.8595 -0.2484
 8809SOL     OW38059   1.103   2.254   9.554 -0.0243  0.1158 -0.5881
 8809SOL    HW138060   1.151   2.332   9.583 -0.0364 -0.0174 -0.2061
 8809SOL    HW238061   1.134   2.242   9.464 -0.3708 -0.8343 -0.5814
 8810SOL     OW38062   2.216   3.844   6.502 -0.3450 -0.3523  0.1984
 8810SOL    HW138063   2.240   3.933   6.529 -2.1229 -0.2359  1.3786
 8810SOL    HW238064   2.261   3.799   6.574  0.4659 -1.1554 -0.8028
 8811SOL     OW38065   0.871   1.015   9.044 -0.3244 -0.5013 -0.1798
 8811SOL    HW138066   0.963   1.031   9.065 -0.5692 -0.0662  0.5371
 8811SOL    HW238067   0.849   0.949   9.110  2.5109 -1.3534 -0.1047
 8812SOL     OW38068   3.144   4.478   8.782 -0.3693  0.1665 -0.3359
 8812SOL    HW138069   3.048   4.478   8.783 -0.3830 -2.7266 -0.5001
 8812SOL    HW238070   3.155   4.388   8.753 -2.0155 -0.0729 -0.2399
 8813SOL     OW38071   4.276   2.870   8.182  0.2854  0.1508 -0.2457
 8813SOL    HW138072   4.184   2.849   8.167 -0.4174  2.1805  1.1482
 8813SOL    HW238073   4.265   2.964   8.199  2.1792  0.5444 -1.1871
 8814SOL     OW38074   3.439   3.447   9.652  0.1797  0.0712 -0.9386
 8814SOL    HW138075   3.452   3.508   9.725 -0.8290 -1.1240  0.2376
 8814SOL    HW238076   3.525   3.424   9.619  0.1698 -1.4774  0.1443
 8815SOL     OW38077   0.671   1.732   2.758 -0.9579  0.3531 -0.1977
 8815SOL    HW138078   0.751   1.688   2.784 -1.7522 -0.8467  0.1994
 8815SOL    HW238079   0.698   1.805   2.702 -0.9862  0.4164 -0.1292
 8816SOL     OW38080   4.708   2.151   7.166  0.5957 -0.5416  0.2993
 8816SOL    HW138081   4.736   2.180   7.252  0.8093  1.8613 -0.5984
 8816SOL    HW238082   4.615   2.149   7.189  0.5652  0.2997  0.2169
 8817SOL     OW38083   0.763   0.577   1.414 -0.2824 -0.0973  0.1250
 8817SOL    HW138084   0.785   0.623   1.496  1.0702 -0.1843 -0.1874
 8817SOL    HW238085   0.684   0.626   1.390 -1.6359 -1.7279  1.3184
 8818SOL     OW38086   2.480   4.107  11.318 -0.0447  0.1949  0.4691
 8818SOL    HW138087   2.427   4.102  11.238  0.3754 -0.9996  0.2764
 8818SOL    HW238088   2.426   4.170  11.367 -0.6096 -0.8224  1.1423
 8819SOL     OW38089   3.200   1.263  11.683 -0.4542  0.2921  0.5065
 8819SOL    HW138090   3.166   1.333  11.627  0.0643  1.0365  1.1086
 8819SOL    HW238091   3.189   1.302  11.770  1.4285 -1.6279  1.5968
 8820SOL     OW38092   2.156   1.668   8.744  0.4425  0.0370 -0.0859
 8820SOL    HW138093   2.062   1.650   8.736  0.3776  0.2885  0.1272
 8820SOL    HW238094   2.195   1.586   8.775 -1.3247 -0.5114  0.7154
 8821SOL     OW38095   0.922   1.703   0.306  0.0948 -0.0628 -0.2282
 8821SOL    HW138096   0.876   1.787   0.305  3.1500  1.6258  1.2195
 8821SOL    HW238097   0.919   1.687   0.400 -0.8548  1.6531  0.0380
 8822SOL     OW38098   1.012   1.538   8.341  0.8772  0.2920  0.5009
 8822SOL    HW138099   1.062   1.616   8.320  0.9679  0.2563  0.5841
 8822SOL    HW238100   1.020   1.481   8.265 -0.2013  0.8786 -0.0589
 8823SOL     OW38101   1.015   2.911  10.009  0.2183  0.3172  0.0835
 8823SOL    HW138102   0.979   2.918  10.098  2.1797 -0.2384  0.9285
 8823SOL    HW238103   1.110   2.904  10.024  0.5764  2.3218 -1.2135
 8824SOL     OW38104   3.289   4.317   9.171  0.0512 -0.1375 -0.2569
 8824SOL    HW138105   3.254   4.230   9.153 -0.7771 -0.0515  0.9399
 8824SOL    HW238106   3.350   4.300   9.244  0.9830  1.3572 -0.6865
 8825SOL     OW38107   1.979   2.147   9.765  0.3399  0.5440  0.1824
 8825SOL    HW138108   1.993   2.178   9.676 -0.0765  0.6833  0.1634
 8825SOL    HW238109   1.907   2.202   9.794 -2.2844 -2.6739 -0.1699
 8826SOL     OW38110   0.623   3.899   3.530 -0.3149 -0.0841  0.0443
 8826SOL    HW138111   0.622   3.815   3.576  3.8372  0.2518  0.7284
 8826SOL    HW238112   0.589   3.958   3.598  0.7408 -0.5699  0.9959
 8827SOL     OW38113   0.502   4.366   2.503  0.6134  0.2570  0.3655
 8827SOL    HW138114   0.527   4.308   2.575 -0.7584 -2.6029 -1.4197
 8827SOL    HW238115   0.487   4.444   2.556  1.9054  0.3622  0.5538
 8828SOL     OW38116   1.915   0.168   7.586  0.0490 -0.2363  0.1411
 8828SOL    HW138117   1.965   0.240   7.624  1.3991  0.1399 -2.3077
 8828SOL    HW238118   1.849   0.142   7.650  1.5031 -0.9892  1.3419
 8829SOL     OW38119   2.721   1.474   4.543 -0.0022 -0.2673 -0.1867
 8829SOL    HW138120   2.776   1.546   4.514  1.1687  0.3157  3.5245
 8829SOL    HW238121   2.735   1.405   4.478 -2.1628  1.3916 -2.4475
 8830SOL     OW38122   4.729   3.207   6.928  0.8509  0.8319 -1.0197
 8830SOL    HW138123   0.021   3.297   6.934 -0.4491  1.2009  0.3112
 8830SOL    HW238124   4.636   3.214   6.949  0.9317 -2.7620  0.3463
 8831SOL     OW38125   1.771   4.013   8.730 -0.5152  0.4370 -0.2588
 8831SOL    HW138126   1.779   3.973   8.816  0.1262  0.3075 -0.3786
 8831SOL    HW238127   1.785   4.107   8.743  1.4613  0.1776 -0.5600
 8832SOL     OW38128   4.171   0.357   8.446  0.0482 -0.3480 -1.2451
 8832SOL    HW138129   4.075   0.347   8.448 -0.1098  1.3497  0.3824
 8832SOL    HW238130   4.185   0.349   8.352 -2.3001  3.0248 -1.8932
 8833SOL     OW38131   1.491   2.460  13.270  0.5400 -0.8221 -0.0072
 8833SOL    HW138132   1.571   2.421  13.305  0.7845 -0.3765 -0.0707
 8833SOL    HW238133   1.428   2.452  13.342  0.7743 -0.0215  0.2871
 8834SOL     OW38134   3.329   2.632  13.535 -0.9054 -0.4240 -0.1772
 8834SOL    HW138135   3.286   2.710  13.571 -1.5345 -0.3795 -1.0068
 8834SOL    HW238136   3.290   2.621  13.448 -1.4947  1.2557 -0.1362
 8835SOL     OW38137   2.012   1.966  17.431  0.6648  0.1246  0.3105
 8835SOL    HW138138   2.097   1.925  17.446  0.3198 -0.0089  1.9300
 8835SOL    HW238139   1.987   1.929  17.347 -0.2824  1.7148 -0.1258
 8836SOL     OW38140   2.589   3.510   2.513  0.1877  0.1015 -0.1042
 8836SOL    HW138141   2.511   3.489   2.564 -1.1184  3.4856 -0.7365
 8836SOL    HW238142   2.561   3.594   2.477  0.7887 -0.2710 -1.4260
 8837SOL     OW38143   1.673   2.997  15.862 -0.6553 -0.7137  0.5192
 8837SOL    HW138144   1.647   2.971  15.951 -3.9462 -0.4089 -0.3768
 8837SOL    HW238145   1.644   3.087  15.879  0.7564 -0.2014  0.1954
 8838SOL     OW38146   3.406   2.516   6.438  0.7435  0.0234 -0.1554
 8838SOL    HW138147   3.349   2.586   6.471 -0.9695 -1.9105  0.9168
 8838SOL    HW238148   3.383   2.521   6.345  4.4507 -0.0888 -1.0857
 8839SOL     OW38149   1.734   4.421   6.079  0.0829 -0.1708  0.5680
 8839SOL    HW138150   1.798   4.353   6.057 -0.7650 -0.6415 -0.4348
 8839SOL    HW238151   1.691   4.391   6.159 -2.6780  0.1190 -0.7998
 8840SOL     OW38152   0.596   4.409   6.276  0.4089 -0.1541  0.5806
 8840SOL    HW138153   0.651   4.332   6.288  0.1404 -0.5650 -0.8351
 8840SOL    HW238154   0.558   4.419   6.363  0.2525 -0.5754  0.5619
 8841SOL     OW38155   0.538   3.431   3.332 -0.3515 -0.2068 -0.1698
 8841SOL    HW138156   0.489   3.361   3.376  0.9363 -1.3711 -0.5780
 8841SOL    HW238157   0.480   3.507   3.330  0.2037  0.2109 -0.2408
 8842SOL     OW38158   4.361   4.357   4.561 -0.1876 -0.3987 -0.4903
 8842SOL    HW138159   4.308   4.279   4.579 -1.7270  0.1927 -2.4176
 8842SOL    HW238160   4.369   4.340   4.467 -2.4643 -0.9612 -0.5936
 8843SOL     OW38161   1.588   0.588   5.973 -0.1464  0.4204  0.7952
 8843SOL    HW138162   1.543   0.570   5.890  1.0889  2.5090 -0.3365
 8843SOL    HW238163   1.673   0.615   5.938 -0.1975 -1.5572 -0.8421
 8844SOL     OW38164   1.749   1.968  10.662  0.1382  0.5690 -0.3277
 8844SOL    HW138165   1.772   2.007  10.578  0.9669  1.5460  0.3579
 8844SOL    HW238166   1.812   2.002  10.726  0.8715 -1.5988  0.0726
 8845SOL     OW38167   4.111   4.713  15.522  0.7621 -0.4834  0.2119
 8845SOL    HW138168   4.118   0.055  15.571 -0.3078 -0.9284  1.1039
 8845SOL    HW238169   4.191   4.670  15.553  0.7610 -1.1382 -0.7061
 8846SOL     OW38170   2.354   0.263   4.869  0.6284 -0.5307 -0.1191
 8846SOL    HW138171   2.342   0.302   4.956 -0.5531 -0.9017 -0.1221
 8846SOL    HW238172   2.321   0.338   4.820 -1.8797 -0.9779  0.8622
 8847SOL     OW38173   0.349   1.229  16.855  0.2646 -0.6172  0.3846
 8847SOL    HW138174   0.259   1.259  16.839  0.4396  0.1110  0.7675
 8847SOL    HW238175   0.406   1.294  16.813  0.1633  0.1773  1.4804
 8848SOL     OW38176   1.745   4.365   2.064  0.3475  0.1738  0.8923
 8848SOL    HW138177   1.766   4.285   2.111  1.3014 -0.3502 -0.4117
 8848SOL    HW238178   1.709   4.412   2.139  0.7158  1.3636  0.3328
 8849SOL     OW38179   1.431   4.066   0.108  0.3189  0.8890  0.2095
 8849SOL    HW138180   1.387   4.009   0.171  0.5054  1.1826  0.6043
 8849SOL    HW238181   1.475   4.004   0.050 -0.3516 -1.0153  1.7571
 8850SOL     OW38182   0.590   2.581  15.293 -0.3098 -0.3200 -0.1119
 8850SOL    HW138183   0.519   2.556  15.233  0.0315 -0.0964 -0.6152
 8850SOL    HW238184   0.660   2.608  15.232 -1.5942  1.9286 -0.6044
 8851SOL     OW38185   2.764   3.638   3.919  0.5631  0.0349 -0.1719
 8851SOL    HW138186   2.677   3.661   3.952  0.1026 -0.5044 -0.9907
 8851SOL    HW238187   2.743   3.576   3.849  0.0443  0.4344 -0.3675
 8852SOL     OW38188   3.783   3.524   1.559  0.0378  0.4699  0.2919
 8852SOL    HW138189   3.734   3.503   1.480  2.0137 -0.4950 -0.6816
 8852SOL    HW238190   3.753   3.466   1.629  0.3471 -0.6532 -0.4962
 8853SOL     OW38191   1.794   3.545   9.417 -0.0789  0.1342  0.4983
 8853SOL    HW138192   1.801   3.511   9.327  3.0127 -0.0043  0.8014
 8853SOL    HW238193   1.699   3.537   9.425 -0.2071  0.8264 -0.2621
 8854SOL     OW38194   0.029   1.158   7.624 -0.2136  0.0527 -0.1902
 8854SOL    HW138195   4.722   1.173   7.706 -2.2512  0.0019 -1.3549
 8854SOL    HW238196   0.119   1.143   7.654 -0.0721  1.7958  0.3061
 8855SOL     OW38197   1.749   1.312  16.787  0.4187  0.0775  0.3205
 8855SOL    HW138198   1.656   1.320  16.767 -0.1972 -0.6271  2.9781
 8855SOL    HW238199   1.752   1.354  16.873  0.4992 -0.3119  0.5110
 8856SOL     OW38200   2.376   2.812   7.533 -0.2439  0.5465  0.2757
 8856SOL    HW138201   2.414   2.855   7.610  1.5457  1.5447 -1.1545
 8856SOL    HW238202   2.359   2.898   7.494  1.8709  1.5476  1.5277
 8857SOL     OW38203   3.901   1.875   4.536  0.2845 -0.4884  0.0560
 8857SOL    HW138204   3.831   1.938   4.519  1.6124  0.1463 -3.1748
 8857SOL    HW238205   3.915   1.902   4.627 -0.4900 -0.6068  0.2095
 8858SOL     OW38206   2.707   0.185  10.371 -0.2313 -0.0062 -0.4617
 8858SOL    HW138207   2.619   0.198  10.337 -0.6704 -0.1723  0.6033
 8858SOL    HW238208   2.703   0.093  10.397  0.6467  0.3106  0.7983
 8859SOL     OW38209   0.043   1.655   7.262  0.2955  0.1715 -0.0800
 8859SOL    HW138210   0.055   1.741   7.222 -2.3166  0.6957  0.2334
 8859SOL    HW238211   0.045   1.669   7.356  1.6152 -0.0834 -0.0726
 8860SOL     OW38212   0.530   4.687   6.245  0.0531 -0.0529  0.1879
 8860SOL    HW138213   0.543   4.594   6.227 -0.9258 -0.6664  2.6806
 8860SOL    HW238214   0.436   4.687   6.264 -0.0336 -3.0550 -0.2628
 8861SOL     OW38215   2.039   4.237  10.856  0.0344  0.2935 -0.1380
 8861SOL    HW138216   1.946   4.217  10.853  0.3060 -0.5716 -2.6481
 8861SOL    HW238217   2.071   4.148  10.869  0.6892  0.6460  0.6948
 8862SOL     OW38218   2.939   3.146   2.493  0.1243  0.5292 -0.2124
 8862SOL    HW138219   2.931   3.161   2.587 -1.9272  0.4192 -0.3595
 8862SOL    HW238220   2.882   3.213   2.456 -1.3797 -0.1393  0.8766
 8863SOL     OW38221   1.259   4.357   6.744 -0.2099 -0.5793  0.1966
 8863SOL    HW138222   1.302   4.279   6.780  3.9063  1.8066  0.3410
 8863SOL    HW238223   1.329   4.372   6.681 -1.5028  1.7656 -0.6784
 8864SOL     OW38224   0.499   0.079   5.380 -0.3026  0.5486  0.1047
 8864SOL    HW138225   0.427   0.085   5.443 -1.7379 -1.1037 -1.3981
 8864SOL    HW238226   0.459   0.032   5.307  1.0847 -0.7755  0.1736
 8865SOL     OW38227   2.367   1.729   0.965  0.5227 -0.0707  0.2881
 8865SOL    HW138228   2.304   1.801   0.960  3.3086  2.4609  1.5666
 8865SOL    HW238229   2.408   1.740   0.880 -0.5565  0.2534 -0.1910
 8866SOL     OW38230   0.224   1.148  11.442  0.1090  0.0880  0.2571
 8866SOL    HW138231   0.297   1.086  11.447  0.1586  0.1494  0.3003
 8866SOL    HW238232   0.276   1.228  11.451 -1.5928  1.3056 -0.8035
 8867SOL     OW38233   4.736   2.715   9.207 -0.6854 -0.1486 -0.7752
 8867SOL    HW138234   4.688   2.678   9.281 -2.4741  0.0597 -1.8340
 8867SOL    HW238235   0.042   2.636   9.180  0.2073  0.1879 -0.2555
 8868SOL     OW38236   0.667   1.714   7.232 -0.0677 -0.4599 -0.0959
 8868SOL    HW138237   0.612   1.664   7.172 -0.7453 -1.7494  1.5753
 8868SOL    HW238238   0.731   1.653   7.271  1.5798  1.0199 -0.4937
 8869SOL     OW38239   1.516   2.571   2.650  0.4547 -0.3239  0.6679
 8869SOL    HW138240   1.425   2.570   2.619  1.5256 -0.5354 -2.4894
 8869SOL    HW238241   1.555   2.653   2.620 -0.5329  0.2168  0.8502
 8870SOL     OW38242   2.367   1.563  16.271  0.4462  0.1774 -0.0077
 8870SOL    HW138243   2.339   1.483  16.315 -0.0978  0.2376 -0.2361
 8870SOL    HW238244   2.292   1.578  16.213  0.1170  0.2120  0.4199
 8871SOL     OW38245   3.222   4.470   3.351  0.3089 -0.1798  0.0190
 8871SOL    HW138246   3.155   4.525   3.311  0.6249  1.4202  1.6706
 8871SOL    HW238247   3.290   4.483   3.284 -2.5056 -1.7324 -3.1114
 8872SOL     OW38248   1.054   0.699   7.158 -0.2877 -0.1211 -0.9158
 8872SOL    HW138249   1.143   0.684   7.191 -2.1962 -1.1577  3.7999
 8872SOL    HW238250   1.023   0.772   7.211  1.4585 -0.6020  0.7576
 8873SOL     OW38251   4.028   0.004   0.964  0.4634 -0.0671  0.0049
 8873SOL    HW138252   3.950   0.059   0.976 -0.2694 -1.3512  1.0800
 8873SOL    HW238253   3.985   4.660   0.949  1.5236 -0.5442 -0.3268
 8874SOL     OW38254   4.427   0.564   4.432  0.1139  0.4049  0.0498
 8874SOL    HW138255   4.334   0.585   4.421 -0.4102 -1.8692  0.0704
 8874SOL    HW238256   4.437   0.628   4.503 -0.8303 -0.0317  0.5817
 8875SOL     OW38257   4.249   1.010   5.436 -0.5725  0.4111 -0.0835
 8875SOL    HW138258   4.286   1.095   5.460  0.0366  0.6679 -1.9082
 8875SOL    HW238259   4.186   1.041   5.370 -0.4044 -0.4978 -0.6641
 8876SOL     OW38260   4.475   4.179   0.932  0.6430  0.5594 -0.1590
 8876SOL    HW138261   4.476   4.268   0.966 -1.3663 -0.1015  1.6079
 8876SOL    HW238262   4.565   4.173   0.900 -0.2786 -0.1671 -2.6239
 8877SOL     OW38263   3.175   3.597   5.178 -0.0041  0.0350  1.0615
 8877SOL    HW138264   3.086   3.610   5.146  1.0298 -1.6584 -2.5039
 8877SOL    HW238265   3.195   3.510   5.143  1.2313 -0.0756  2.0665
 8878SOL     OW38266   3.029   2.915  13.994 -0.0589  0.4183  0.1078
 8878SOL    HW138267   3.047   2.941  14.084 -1.3729  2.0427 -0.1005
 8878SOL    HW238268   2.940   2.890  14.016  0.7146 -1.6619  0.8941
 8879SOL     OW38269   4.536   1.054  16.554  0.5485  0.4013 -0.0604
 8879SOL    HW138270   4.533   1.143  16.587 -2.3818  0.0692  0.5371
 8879SOL    HW238271   4.561   1.058  16.462  1.9809  0.9614  0.3563
 8880SOL     OW38272   0.307   1.691   7.127  0.8235 -0.0024 -0.0261
 8880SOL    HW138273   0.233   1.637   7.097  2.6240 -2.0997 -0.6624
 8880SOL    HW238274   0.304   1.762   7.063  0.6980  0.0624  0.0501
 8881SOL     OW38275   4.693   2.590   5.106  0.3266 -0.7862 -0.2771
 8881SOL    HW138276   4.649   2.668   5.142  1.4383  0.1770 -0.9948
 8881SOL    HW238277   0.003   2.624   5.032 -0.8075  0.7547 -0.3519
 8882SOL     OW38278   4.569   4.265  11.119  0.1602 -0.4042 -0.3354
 8882SOL    HW138279   4.538   4.302  11.036  1.4812  0.0486 -0.6287
 8882SOL    HW238280   4.662   4.278  11.102  0.1109  0.5857  0.1668
 8883SOL     OW38281   1.586   0.999   7.207 -0.2760  0.1796  0.3646
 8883SOL    HW138282   1.605   0.907   7.224  1.6326  0.5264  0.0280
 8883SOL    HW238283   1.539   0.993   7.123  0.1425 -0.4359  0.1733
 8884SOL     OW38284   4.575   4.482   6.686  0.0700  0.2473 -0.1919
 8884SOL    HW138285   4.532   4.494   6.771  2.7160 -1.1603  1.3504
 8884SOL    HW238286   4.496   4.463   6.635  0.4384 -1.9915  0.0825
 8885SOL     OW38287   3.248   1.499   8.694 -0.0218 -0.0696  0.3631
 8885SOL    HW138288   3.337   1.510   8.659 -1.0897  1.3328 -1.9304
 8885SOL    HW238289   3.243   1.567   8.760  1.2194 -0.2960  0.6915
 8886SOL     OW38290   3.040   4.018   8.290 -0.4602 -0.5603  0.1815
 8886SOL    HW138291   2.981   3.955   8.248  0.1584  0.5121 -2.3297
 8886SOL    HW238292   3.033   3.985   8.380 -1.9277 -0.7317  0.0197
 8887SOL     OW38293   3.832   4.688   3.758 -0.4469  0.0378  0.0982
 8887SOL    HW138294   3.769   4.629   3.800  2.2603 -2.4541  0.6976
 8887SOL    HW238295   3.827   0.021   3.819 -0.3869 -1.8194  2.3709
 8888SOL     OW38296   1.113   4.059   7.658 -0.1055  0.2552 -0.1821
 8888SOL    HW138297   1.057   3.985   7.633 -1.2323  0.5418  1.4587
 8888SOL    HW238298   1.053   4.127   7.626 -0.1182  0.5812  0.5337
 8889SOL     OW38299   1.445   1.466   4.931 -0.0217 -0.2383  0.5951
 8889SOL    HW138300   1.506   1.492   4.862 -0.9660  1.1495  0.2918
 8889SOL    HW238301   1.418   1.554   4.955  2.1499 -0.1131  2.7021
 8890SOL     OW38302   3.576   0.853  12.755  0.0779 -0.4196 -0.2665
 8890SOL    HW138303   3.618   0.776  12.792 -1.3891 -0.1905  1.8750
 8890SOL    HW238304   3.583   0.827  12.663 -1.6202  0.9622 -0.7899
 8891SOL     OW38305   1.233   3.721   4.039  0.1158 -0.1502 -0.3213
 8891SOL    HW138306   1.274   3.679   4.114 -1.2307  0.0583  0.5303
 8891SOL    HW238307   1.305   3.778   4.011 -0.7437  1.3150  0.4700
 8892SOL     OW38308   3.603   1.810   4.805 -0.3125 -0.2566  0.4689
 8892SOL    HW138309   3.599   1.820   4.900  0.6485  0.2625  0.4517
 8892SOL    HW238310   3.696   1.801   4.785  0.4284  1.1073  3.2733
 8893SOL     OW38311   4.245   0.067   4.962  0.2356 -0.6463  0.5277
 8893SOL    HW138312   4.194   0.096   5.038  1.3598 -0.1227  1.0955
 8893SOL    HW238313   4.196   0.107   4.891  1.8734  0.0283 -0.2183
 8894SOL     OW38314   1.910   4.520  10.895  0.0493 -0.3664 -0.1253
 8894SOL    HW138315   1.960   4.456  10.946 -0.8809 -0.1221  1.0942
 8894SOL    HW238316   1.866   4.574  10.961  1.6519  1.7770 -0.8225
 8895SOL     OW38317   0.129   1.180   5.953  0.1175 -0.1083  0.1504
 8895SOL    HW138318   0.170   1.188   5.867 -2.1256  1.2589 -0.8130
 8895SOL    HW238319   0.211   1.166   6.000  1.3862 -0.8740 -2.2538
 8896SOL     OW38320   0.907   0.635  17.122 -0.0310 -0.0753 -0.0451
 8896SOL    HW138321   0.943   0.550  17.096 -0.6134 -0.7179  1.2634
 8896SOL    HW238322   0.866   0.663  17.040 -0.8146  1.4467  0.8731
 8897SOL     OW38323   3.099   2.099  13.971 -0.0323 -0.0225 -0.3963
 8897SOL    HW138324   3.124   2.148  13.893  0.4873 -1.4510 -1.1189
 8897SOL    HW238325   3.071   2.016  13.933 -0.4280 -1.5645  3.2639
 8898SOL     OW38326   2.205   3.110  10.014 -0.0663  0.1772  0.2588
 8898SOL    HW138327   2.126   3.072   9.975  0.6660  0.8791 -1.8885
 8898SOL    HW238328   2.275   3.070   9.962  1.2783  0.8700  1.5426
 8899SOL     OW38329   0.864   4.150  12.873 -0.0224 -0.2265 -0.5681
 8899SOL    HW138330   0.817   4.152  12.789  3.3338  0.5903 -2.4295
 8899SOL    HW238331   0.930   4.218  12.864 -0.7108  0.3950 -0.8817
 8900SOL     OW38332   2.442   0.852   7.897 -0.3147  0.9294 -0.4144
 8900SOL    HW138333   2.357   0.810   7.888  0.4666 -0.9665  1.0659
 8900SOL    HW238334   2.493   0.771   7.902  0.5389  1.5841  1.4345
 8901SOL     OW38335   3.819   4.510   3.555 -0.3408  0.1934  0.2068
 8901SOL    HW138336   3.832   4.439   3.618  1.3553  0.1654 -0.1584
 8901SOL    HW238337   3.836   4.585   3.612  0.1335 -0.5840  1.0915
 8902SOL     OW38338   3.845   3.031   4.597 -0.6989  0.4567  0.2219
 8902SOL    HW138339   3.776   3.005   4.658 -2.3149  0.1386 -1.7715
 8902SOL    HW238340   3.859   3.120   4.631  1.5533  0.7536 -1.4555
 8903SOL     OW38341   4.357   1.298   0.457  0.0641 -0.2860 -0.3580
 8903SOL    HW138342   4.271   1.306   0.416  0.0437 -1.4611 -0.5342
 8903SOL    HW238343   4.395   1.220   0.418  0.9323 -0.8724  1.6505
 8904SOL     OW38344   2.902   3.537   9.078 -0.3325 -0.8045 -0.3666
 8904SOL    HW138345   2.978   3.505   9.127  0.0476 -2.1394 -1.8290
 8904SOL    HW238346   2.884   3.453   9.037 -2.0815 -0.4144 -0.4038
 8905SOL     OW38347   1.416   0.242   2.663 -0.1847 -0.6418  0.3893
 8905SOL    HW138348   1.326   0.217   2.643  0.1515  0.2096 -2.2758
 8905SOL    HW238349   1.432   0.196   2.745 -0.6379  1.4158  1.6260
 8906SOL     OW38350   1.939   2.492   1.958  0.6355 -0.1510  0.5855
 8906SOL    HW138351   1.944   2.545   1.879  3.3365 -0.7551  0.3493
 8906SOL    HW238352   1.890   2.419   1.921  1.8540 -0.6770 -0.0016
 8907SOL     OW38353   0.257   0.044   2.436 -0.2087 -0.1407 -0.0497
 8907SOL    HW138354   0.208   0.110   2.485  0.3959  0.7985 -0.7122
 8907SOL    HW238355   0.339   0.051   2.486 -0.8270  0.0866  0.9404
 8908SOL     OW38356   3.625   1.448  15.320 -0.6900  0.5312 -0.0171
 8908SOL    HW138357   3.654   1.538  15.335  1.1978 -0.3268  1.5622
 8908SOL    HW238358   3.713   1.410  15.328 -1.1748 -0.7444 -0.9411
 8909SOL     OW38359   2.651   3.486   3.154  0.3970  0.3503 -0.1507
 8909SOL    HW138360   2.723   3.539   3.121  1.6836 -0.8266  0.7513
 8909SOL    HW238361   2.641   3.532   3.237 -2.2192 -2.5068  1.1128
 8910SOL     OW38362   1.951   0.630   2.400 -0.0590  0.4139 -0.4547
 8910SOL    HW138363   1.891   0.647   2.328  1.0273  0.1163 -1.4434
 8910SOL    HW238364   1.977   0.719   2.421 -0.6654  0.0733  1.7130
 8911SOL     OW38365   4.739   0.368   5.276 -0.0252 -0.1739 -0.4142
 8911SOL    HW138366   4.664   0.310   5.288 -1.4645  2.0300  1.1372
 8911SOL    HW238367   4.719   0.415   5.356  1.3318 -0.4514  0.0938
 8912SOL     OW38368   2.097   2.345   6.391  0.3155  0.3269  0.0674
 8912SOL    HW138369   2.115   2.383   6.305  2.1285  0.6331  0.6017
 8912SOL    HW238370   2.054   2.412   6.445 -1.1445 -0.3213 -0.2746
 8913SOL     OW38371   3.859   2.152   5.113 -0.2086 -0.3335 -0.2810
 8913SOL    HW138372   3.832   2.085   5.176  1.4613 -1.1678 -0.4687
 8913SOL    HW238373   3.780   2.205   5.111 -0.7078 -1.1076 -1.0766
 8914SOL     OW38374   3.685   0.981   8.857 -0.2662 -0.6160 -0.3496
 8914SOL    HW138375   3.624   0.985   8.930 -0.7504 -0.2174 -0.7789
 8914SOL    HW238376   3.654   0.898   8.821 -0.6900  0.3696 -2.2824
 8915SOL     OW38377   0.496   2.163   3.263  0.1182 -0.2048  0.4261
 8915SOL    HW138378   0.419   2.173   3.207 -1.0272 -2.8981  1.5107
 8915SOL    HW238379   0.554   2.217   3.209  0.4015 -0.4679  0.4690
 8916SOL     OW38380   1.459   0.833   5.732  0.0488  0.2860  0.3699
 8916SOL    HW138381   1.459   0.928   5.726 -0.2371  0.1645 -1.7282
 8916SOL    HW238382   1.494   0.801   5.649 -0.5777  0.4115  0.0558
 8917SOL     OW38383   2.551   0.159  14.073 -0.1257  0.1639 -0.5717
 8917SOL    HW138384   2.517   0.225  14.012  0.8954  1.3643  0.1449
 8917SOL    HW238385   2.475   0.143  14.129 -0.7427  0.9321 -1.1717
 8918SOL     OW38386   2.803   0.919  17.688 -0.5057 -0.2587  0.1263
 8918SOL    HW138387   2.834   0.989  17.745  0.2595 -0.1331 -0.4312
 8918SOL    HW238388   2.718   0.894  17.723 -0.8139  1.4148  0.5355
 8919SOL     OW38389   2.506   0.577   4.491  0.0378  0.4231 -0.4919
 8919SOL    HW138390   2.460   0.622   4.562  2.4248  1.6661  0.2679
 8919SOL    HW238391   2.595   0.611   4.503  0.0068  0.8682 -1.5353
 8920SOL     OW38392   4.238   0.592   1.863 -0.3991 -0.3877  0.1258
 8920SOL    HW138393   4.164   0.627   1.815  0.1071  0.1736 -0.2419
 8920SOL    HW238394   4.300   0.659   1.837  1.2540 -0.8680  2.8277
 8921SOL     OW38395   1.620   3.537  10.474  0.1264 -0.9682 -0.6280
 8921SOL    HW138396   1.532   3.502  10.459  0.3680 -1.9535  0.3091
 8921SOL    HW238397   1.655   3.473  10.536 -0.1594 -0.1873  0.3345
 8922SOL     OW38398   0.321   0.429   0.484  0.2829  0.0665 -0.4157
 8922SOL    HW138399   0.265   0.459   0.413  0.4949  0.6551 -0.3309
 8922SOL    HW238400   0.381   0.374   0.433 -2.0678 -0.4126 -2.6394
 8923SOL     OW38401   2.529   1.487   6.619  0.5427  0.2258 -0.0782
 8923SOL    HW138402   2.549   1.393   6.615  0.3972  0.1950 -0.0832
 8923SOL    HW238403   2.617   1.520   6.601  0.9576 -0.8268 -0.0222
 8924SOL     OW38404   3.774   0.507   8.016 -0.3676 -0.6882  0.2863
 8924SOL    HW138405   3.825   0.434   7.980 -1.5126 -1.3571  0.0188
 8924SOL    HW238406   3.833   0.528   8.089 -2.4674  0.4754  1.6461
 8925SOL     OW38407   0.431   4.269   4.045  0.1462 -0.0142 -0.0565
 8925SOL    HW138408   0.356   4.266   4.105  1.1345 -1.3683  1.1429
 8925SOL    HW238409   0.399   4.217   3.971  3.2020  1.7371 -2.5973
 8926SOL     OW38410   2.849   2.516  12.880 -0.2418  0.1452 -0.3512
 8926SOL    HW138411   2.780   2.481  12.936  0.3655 -0.8891 -0.2423
 8926SOL    HW238412   2.819   2.605  12.863 -0.0977  0.3894  0.6691
 8927SOL     OW38413   4.230   3.619  14.582 -0.1283 -0.1676  0.1929
 8927SOL    HW138414   4.182   3.647  14.660  1.4292  1.4535  0.5662
 8927SOL    HW238415   4.155   3.582  14.535 -0.4726  0.6124  0.1315
 8928SOL     OW38416   3.314   3.322   8.785 -0.5770  0.0818  0.4146
 8928SOL    HW138417   3.305   3.322   8.880 -1.9479  0.8723  0.2865
 8928SOL    HW238418   3.224   3.314   8.755 -0.8267 -0.8003  1.3905
 8929SOL     OW38419   1.791   3.326   3.557 -0.1262  0.5517  0.8198
 8929SOL    HW138420   1.722   3.376   3.600  1.4950  1.8048  1.9410
 8929SOL    HW238421   1.756   3.244   3.592 -1.4896  0.7557 -0.0411
 8930SOL     OW38422   3.407   3.308   3.679  0.2408 -0.1602 -0.0483
 8930SOL    HW138423   3.396   3.362   3.601  0.6368  0.9471  0.6551
 8930SOL    HW238424   3.318   3.277   3.692  1.1579 -1.6511  2.8103
 8931SOL     OW38425   4.088   3.644  11.242  0.1529  0.3645 -0.1373
 8931SOL    HW138426   4.152   3.712  11.264  1.2516 -0.6224 -0.2508
 8931SOL    HW238427   4.148   3.583  11.199  0.8551 -1.4594  3.4387
 8932SOL     OW38428   3.733   2.660   4.233 -0.0781 -0.0635  0.4659
 8932SOL    HW138429   3.679   2.728   4.192 -0.9872  0.0143  1.8301
 8932SOL    HW238430   3.798   2.715   4.277  2.2283 -1.3390 -1.3013
 8933SOL     OW38431   2.169   0.534   8.850  0.3345  0.3876 -0.5400
 8933SOL    HW138432   2.209   0.608   8.804  0.8927 -0.3973 -1.3132
 8933SOL    HW238433   2.080   0.564   8.868  0.4922  0.1653  0.6464
 8934SOL     OW38434   0.123   4.700   4.693  0.4805 -0.1633  0.3125
 8934SOL    HW138435   0.143   4.719   4.601  2.6874 -1.0144  0.5938
 8934SOL    HW238436   0.119   4.604   4.696  0.4974 -0.1561  0.5582
 8935SOL     OW38437   1.697   0.121   8.521  0.1211 -0.1514  0.6143
 8935SOL    HW138438   1.653   0.159   8.445  0.2380 -0.4864  0.3766
 8935SOL    HW238439   1.682   0.030   8.494  1.8113 -0.1711 -0.2797
 8936SOL     OW38440   0.435   2.306  15.950  0.5813  0.1750 -0.5607
 8936SOL    HW138441   0.509   2.352  15.910  2.2901 -1.4555  0.7217
 8936SOL    HW238442   0.377   2.373  15.985 -0.4926  0.1507 -2.2711
 8937SOL     OW38443   3.023   1.241   1.907  0.6737 -0.5999  0.4690
 8937SOL    HW138444   3.047   1.278   1.992  0.8948 -0.0461  0.1600
 8937SOL    HW238445   3.082   1.287   1.848  1.4841 -1.9381  0.2383
 8938SOL     OW38446   2.483   0.797   9.321 -0.2132 -0.0348  0.0429
 8938SOL    HW138447   2.563   0.813   9.372 -0.3215  0.0647  0.1799
 8938SOL    HW238448   2.505   0.716   9.275 -1.6093 -0.7248  0.6013
 8939SOL     OW38449   3.031   4.681   1.261  0.1209  0.3715  0.0670
 8939SOL    HW138450   3.047   0.034   1.276 -0.4733  0.0992  2.4077
 8939SOL    HW238451   3.024   4.661   1.168  1.1179  0.1717  0.0275
 8940SOL     OW38452   0.175   1.657   7.949 -0.2234 -0.3904  0.1478
 8940SOL    HW138453   0.141   1.642   8.038  1.4357 -0.2473  0.8060
 8940SOL    HW238454   0.236   1.729   7.966  0.4678 -0.3493 -2.5408
 8941SOL     OW38455   1.708   3.067   2.918  0.4162 -0.5415 -0.4219
 8941SOL    HW138456   1.742   3.110   2.996  0.2205  2.2331 -1.8591
 8941SOL    HW238457   1.773   3.003   2.887 -0.0973 -1.1867 -0.1741
 8942SOL     OW38458   3.910   0.287   8.407  0.1418 -0.5097 -0.2292
 8942SOL    HW138459   3.836   0.297   8.347  1.3578 -3.1308 -2.1541
 8942SOL    HW238460   3.914   0.192   8.418  0.8436 -0.8650 -3.6455
 8943SOL     OW38461   4.400   3.101   5.055 -0.5206  0.0732  0.2642
 8943SOL    HW138462   4.315   3.058   5.062 -0.8987  0.4152 -2.0393
 8943SOL    HW238463   4.371   3.188   5.083  1.3768  0.6695  0.4040
 8944SOL     OW38464   1.591   3.070   8.303  0.0096 -0.8080 -0.3267
 8944SOL    HW138465   1.685   3.085   8.303 -0.0435 -0.4440 -1.1868
 8944SOL    HW238466   1.582   3.033   8.391 -0.9405 -0.0635 -0.1147
 8945SOL     OW38467   0.752   0.143   1.317 -0.5241 -0.2778  0.0030
 8945SOL    HW138468   0.795   0.190   1.246 -2.1823  0.2673 -0.6378
 8945SOL    HW238469   0.694   0.077   1.280  1.0754 -1.2681 -0.7428
 8946SOL     OW38470   0.322   0.204   6.753  0.4252  0.3704  0.1663
 8946SOL    HW138471   0.408   0.182   6.789 -0.0941 -1.1763  0.4784
 8946SOL    HW238472   0.266   0.143   6.800  1.0942 -0.5650 -0.2501
 8947SOL     OW38473   1.750   2.467  16.505  0.0874 -0.2023  0.3033
 8947SOL    HW138474   1.808   2.541  16.487  0.5118 -0.5834  0.0883
 8947SOL    HW238475   1.810   2.397  16.532 -0.2906 -1.2507 -1.5612
 8948SOL     OW38476   0.844   4.303   5.884  0.0685  0.5173 -0.2877
 8948SOL    HW138477   0.812   4.310   5.974  0.3221 -0.1953 -0.1453
 8948SOL    HW238478   0.883   4.389   5.869  0.2201  0.2475 -1.4373
 8949SOL     OW38479   3.120   2.045   7.649  0.1004 -0.2371 -0.1376
 8949SOL    HW138480   3.165   1.961   7.650  0.9616  0.2245  0.0330
 8949SOL    HW238481   3.028   2.020   7.651  0.5101 -1.8250 -2.3036
 8950SOL     OW38482   3.406   3.924   2.273 -0.3221 -0.5446 -0.5117
 8950SOL    HW138483   3.389   3.833   2.295  0.2234 -0.3947  0.5543
 8950SOL    HW238484   3.461   3.959   2.343  0.1922  0.3056 -1.3309
 8951SOL     OW38485   1.341   1.224  15.053  0.3323  0.6594 -0.3085
 8951SOL    HW138486   1.402   1.297  15.045  1.4925 -0.2053  0.4224
 8951SOL    HW238487   1.261   1.248  15.006 -0.7997 -1.4081  0.5489
 8952SOL     OW38488   0.113   0.511   7.558 -0.0178  0.2510  0.6152
 8952SOL    HW138489   0.150   0.553   7.636  0.8743  0.4592  0.0668
 8952SOL    HW238490   0.127   0.419   7.580 -0.5569 -0.1304 -0.6657
 8953SOL     OW38491   3.665   0.559   9.537 -0.1832  0.0176  0.0549
 8953SOL    HW138492   3.659   0.651   9.513 -0.3107 -0.3882 -1.4626
 8953SOL    HW238493   3.604   0.564   9.611 -0.0169  0.6496  0.1500
 8954SOL     OW38494   3.756   1.356   7.329  0.3900 -0.9810  0.5213
 8954SOL    HW138495   3.838   1.402   7.314 -0.4382  0.3942  0.2052
 8954SOL    HW238496   3.790   1.267   7.336 -1.2137 -1.4930  1.7549
 8955SOL     OW38497   2.376   2.205   7.557 -0.0169  0.5477  0.2050
 8955SOL    HW138498   2.372   2.236   7.647  1.7482 -1.3698  0.9500
 8955SOL    HW238499   2.463   2.240   7.538  0.5856 -0.1220  1.7733
 8956SOL     OW38500   0.123   4.017   0.761 -0.6067  0.1013 -0.1858
 8956SOL    HW138501   0.097   3.931   0.729  1.4834  0.0416 -1.7159
 8956SOL    HW238502   0.144   4.000   0.853 -0.9606  2.5311  0.3487
 8957SOL     OW38503   1.041   4.189  10.638  0.3459  0.4464 -0.2199
 8957SOL    HW138504   1.051   4.120  10.572  0.1183 -0.7001  0.9456
 8957SOL    HW238505   0.985   4.246  10.585 -0.9063 -1.6806 -1.1891
 8958SOL     OW38506   3.399   1.362  15.449 -0.4118 -0.4003  0.0382
 8958SOL    HW138507   3.475   1.413  15.422 -1.1094  0.3109 -0.5567
 8958SOL    HW238508   3.338   1.383  15.379  1.7629  0.0691 -1.7072
 8959SOL     OW38509   0.782   2.392   3.578  0.0531  0.2752 -0.2654
 8959SOL    HW138510   0.832   2.394   3.496  0.6268 -3.4221 -0.0117
 8959SOL    HW238511   0.693   2.371   3.552 -0.0935  0.2102  0.2981
 8960SOL     OW38512   2.218   2.631   0.100  0.1319 -0.1814 -0.2604
 8960SOL    HW138513   2.307   2.616   0.067 -0.2477  2.4116 -2.3870
 8960SOL    HW238514   2.201   2.544   0.136  0.0832 -0.6377 -1.3909
 8961SOL     OW38515   1.940   3.216   0.484 -0.7235  0.1825 -0.5289
 8961SOL    HW138516   1.898   3.296   0.514  0.4970  0.3426  0.7422
 8961SOL    HW238517   1.905   3.153   0.547  0.3148 -0.3864 -0.5165
 8962SOL     OW38518   2.996   0.025   1.620 -0.3441  0.0445  0.1120
 8962SOL    HW138519   3.051   0.069   1.555  2.7144 -0.1428  2.5948
 8962SOL    HW238520   2.986   0.085   1.693 -0.2228 -0.2286  0.3520
 8963SOL     OW38521   1.272   3.255  15.950 -0.2196 -0.0502 -0.5474
 8963SOL    HW138522   1.201   3.320  15.941 -0.4390 -0.3306 -0.8116
 8963SOL    HW238523   1.216   3.181  15.926 -4.8471  3.5055 -0.7714
 8964SOL     OW38524   3.531   4.097   3.762  0.2196 -0.4960  0.2905
 8964SOL    HW138525   3.602   4.106   3.825 -0.1731  1.9800  0.3649
 8964SOL    HW238526   3.465   4.057   3.818 -0.0288 -0.3051  0.1358
 8965SOL     OW38527   3.323   2.789  17.033  0.2717  0.2803  0.1959
 8965SOL    HW138528   3.357   2.740  17.108 -1.0259  0.8490  1.1543
 8965SOL    HW238529   3.360   2.877  17.042  0.8810 -0.0850  1.2548
 8966SOL     OW38530   2.800   3.624   7.548 -0.1556  0.2910  0.5627
 8966SOL    HW138531   2.752   3.634   7.630 -2.0416 -1.3159 -0.3408
 8966SOL    HW238532   2.859   3.549   7.555  0.3001  0.5954 -0.0599
 8967SOL     OW38533   1.506   0.146  12.032  0.4875  0.6647 -0.0437
 8967SOL    HW138534   1.566   0.079  12.000  0.7055  0.1526  1.4427
 8967SOL    HW238535   1.543   0.167  12.118 -4.4214  0.2660  2.1760
 8968SOL     OW38536   1.618   4.104  13.679 -0.2045  0.0764 -0.6038
 8968SOL    HW138537   1.629   4.181  13.624 -1.7240 -0.0925 -1.1308
 8968SOL    HW238538   1.567   4.144  13.749  1.7333 -0.4761  1.1164
 8969SOL     OW38539   1.405   2.400  11.031 -0.0374  0.4058  0.3117
 8969SOL    HW138540   1.421   2.402  11.125 -1.9234  1.4413  0.6090
 8969SOL    HW238541   1.487   2.439  11.001  0.0471  0.6983  0.9255
 8970SOL     OW38542   4.167   1.614   6.031 -0.0856  0.1143  0.9576
 8970SOL    HW138543   4.147   1.550   5.963  0.9728  0.4158  0.3721
 8970SOL    HW238544   4.148   1.696   5.986 -1.3657 -0.0520  1.1868
 8971SOL     OW38545   1.431   0.880   3.148  0.2330  0.2306  0.0439
 8971SOL    HW138546   1.483   0.910   3.223 -0.1132  2.8667 -0.7525
 8971SOL    HW238547   1.474   0.925   3.075  1.7363 -1.0941  0.1089
 8972SOL     OW38548   4.518   2.218   6.410  0.0015 -0.3742 -0.0841
 8972SOL    HW138549   4.603   2.262   6.417  0.3912 -0.9542 -1.0503
 8972SOL    HW238550   4.472   2.243   6.489  2.2787  0.9499  0.8322
 8973SOL     OW38551   0.598   1.688  11.510  0.0793 -0.4175  0.1723
 8973SOL    HW138552   0.584   1.639  11.591  0.4264  1.0431  1.1152
 8973SOL    HW238553   0.520   1.744  11.510  1.0369  0.9234  1.0945
 8974SOL     OW38554   2.335   3.423  12.444  0.0314  0.8580 -0.3297
 8974SOL    HW138555   2.356   3.389  12.358 -0.3911 -3.3287  1.2257
 8974SOL    HW238556   2.325   3.517  12.426  3.0046  1.5246  1.5331
 8975SOL     OW38557   4.151   4.315   0.924 -0.1190 -0.2488 -0.2322
 8975SOL    HW138558   4.106   4.399   0.921 -0.8585 -0.7053 -1.7971
 8975SOL    HW238559   4.242   4.339   0.904 -0.5359  1.6314  0.0825
 8976SOL     OW38560   4.255   3.196   8.929 -0.2345  0.8588 -0.5461
 8976SOL    HW138561   4.248   3.149   8.847 -1.7533  0.8459 -0.4080
 8976SOL    HW238562   4.349   3.206   8.945 -0.4896  0.0863  1.5125
 8977SOL     OW38563   0.753   4.524   9.605 -0.0595  0.1820  0.2166
 8977SOL    HW138564   0.841   4.504   9.572  0.6109  1.3272  1.3222
 8977SOL    HW238565   0.785   4.582   9.674 -1.3483  1.3655 -0.1789
 8978SOL     OW38566   0.733   2.177  14.641 -0.0865 -0.1270 -0.2471
 8978SOL    HW138567   0.764   2.175  14.732  0.2726 -0.3749 -0.3755
 8978SOL    HW238568   0.762   2.259  14.602  1.5791 -0.6784 -0.1655
 8979SOL     OW38569   1.927   4.268   5.949 -0.1635  0.6050  0.1589
 8979SOL    HW138570   1.950   4.325   5.876 -2.1063  0.5495 -0.5056
 8979SOL    HW238571   1.999   4.205   5.948 -1.2222 -0.6090  0.6843
 8980SOL     OW38572   0.607   3.945  13.356  0.4066  0.7588  0.0850
 8980SOL    HW138573   0.693   3.974  13.386  0.8487  0.1460 -0.6070
 8980SOL    HW238574   0.556   4.017  13.392  0.1840 -0.5983  2.5432
 8981SOL     OW38575   4.720   0.358   1.496 -0.2827 -0.4812  0.3330
 8981SOL    HW138576   4.655   0.386   1.560  0.1342 -1.0769  1.0044
 8981SOL    HW238577   0.058   0.378   1.546 -1.7479 -0.2853  2.5134
 8982SOL     OW38578   4.279   1.263   5.019  0.6993 -0.7436  0.0976
 8982SOL    HW138579   4.279   1.228   4.929 -1.2020  0.8967 -0.5405
 8982SOL    HW238580   4.261   1.181   5.065 -1.3562 -1.1730 -1.4668
 8983SOL     OW38581   1.490   0.637  14.997 -0.3615  0.0511 -0.1312
 8983SOL    HW138582   1.571   0.684  14.977  0.2644 -0.0719  2.0700
 8983SOL    HW238583   1.447   0.711  15.038  0.0534 -0.0213  0.4491
 8984SOL     OW38584   1.203   1.939   1.007 -0.2726 -0.1272 -0.1512
 8984SOL    HW138585   1.196   2.031   0.982 -1.5709  0.0259  0.7992
 8984SOL    HW238586   1.290   1.919   0.971  0.0588 -0.3411  0.7765
 8985SOL     OW38587   0.750   2.437   9.266 -0.1140 -0.0558  0.2925
 8985SOL    HW138588   0.663   2.450   9.303  0.3763  0.5889  1.2321
 8985SOL    HW238589   0.738   2.347   9.237  1.4705  0.1140 -0.9139
 8986SOL     OW38590   0.543   0.664   3.854 -0.0329  0.0135 -0.4581
 8986SOL    HW138591   0.590   0.706   3.926 -2.0560  1.4637  0.0033
 8986SOL    HW238592   0.531   0.582   3.902 -1.7720  0.0974 -0.7432
 8987SOL     OW38593   1.130   1.657   1.010  0.0299 -0.2318  0.4552
 8987SOL    HW138594   1.208   1.628   1.057  0.7474  1.5265  0.3452
 8987SOL    HW238595   1.151   1.750   1.014  0.0208 -0.1468 -1.3389
 8988SOL     OW38596   0.697   3.845   6.139  0.0398 -0.0985 -0.2289
 8988SOL    HW138597   0.657   3.926   6.107  2.1839  1.1513  0.2235
 8988SOL    HW238598   0.727   3.800   6.060  3.0790  0.7690  0.4042
 8989SOL     OW38599   0.257   1.858  16.641  0.5839 -0.2583 -0.2933
 8989SOL    HW138600   0.334   1.852  16.697 -0.2272 -0.1880  0.8253
 8989SOL    HW238601   0.293   1.875  16.554  0.2387 -2.7518 -0.9223
 8990SOL     OW38602   3.427   4.464   8.160  0.1965  0.0852 -0.0656
 8990SOL    HW138603   3.440   4.408   8.236  3.2502  0.6759 -0.1633
 8990SOL    HW238604   3.469   4.541   8.198  1.5154 -0.9702  0.6194
 8991SOL     OW38605   4.513   3.478   4.932  0.5822  0.0738 -0.1730
 8991SOL    HW138606   4.443   3.423   4.967 -2.1158  4.1682  0.8864
 8991SOL    HW238607   4.525   3.452   4.841  1.8697 -2.4298  0.7430
 8992SOL     OW38608   3.962   1.711   3.950 -0.2149 -0.3590  0.7547
 8992SOL    HW138609   4.036   1.703   4.010  1.4112  0.7688 -1.0794
 8992SOL    HW238610   3.972   1.801   3.921 -1.0927 -0.2967  0.6667
 8993SOL     OW38611   3.850   3.249   8.912 -0.0668 -0.1690  0.1718
 8993SOL    HW138612   3.791   3.179   8.884 -0.4828 -0.0979  0.8730
 8993SOL    HW238613   3.854   3.215   9.001  0.1444 -1.0506 -0.1692
 8994SOL     OW38614   2.751   2.942   9.052  0.1491 -0.0720 -0.0657
 8994SOL    HW138615   2.763   2.978   8.964 -1.5274  0.7730  0.0557
 8994SOL    HW238616   2.708   3.015   9.097  1.0174  0.5737 -0.2850
 8995SOL     OW38617   1.153   0.469   2.532  0.9520 -0.3179  0.0520
 8995SOL    HW138618   1.159   0.539   2.468  0.7229  1.1378  1.6250
 8995SOL    HW238619   1.134   0.525   2.608 -0.7486  1.5290 -1.7636
 8996SOL     OW38620   2.707   1.234  11.000  0.5354 -0.4328 -0.2850
 8996SOL    HW138621   2.799   1.236  10.971  0.6575 -0.6719  0.0889
 8996SOL    HW238622   2.721   1.252  11.093 -0.5522 -0.3229 -0.1449
 8997SOL     OW38623   3.756   1.414  16.265 -0.3205  0.7664 -0.0085
 8997SOL    HW138624   3.819   1.420  16.193  0.6526 -2.5738  0.5307
 8997SOL    HW238625   3.679   1.464  16.240 -0.5677  0.7215  0.6751
 8998SOL     OW38626   2.053   0.408   1.455 -0.5997 -0.0267 -0.1049
 8998SOL    HW138627   2.138   0.365   1.462  0.8624  2.9356  0.3699
 8998SOL    HW238628   2.066   0.487   1.507 -0.3577 -0.8421  1.0586
 8999SOL     OW38629   2.513   0.813   5.016  0.7531 -0.5607  0.2604
 8999SOL    HW138630   2.450   0.756   4.971 -0.9496 -0.9183  3.0951
 8999SOL    HW238631   2.510   0.898   4.973  0.8614 -0.1640  1.0320
 9000SOL     OW38632   4.544   4.503   0.532 -0.1325 -0.4295  0.2204
 9000SOL    HW138633   4.545   4.548   0.616 -0.9477 -0.1241  0.0684
 9000SOL    HW238634   4.636   4.479   0.522 -0.2334  0.0708 -1.9735
 9001SOL     OW38635   2.380   0.712  15.727 -0.3238 -0.1866  0.4009
 9001SOL    HW138636   2.399   0.670  15.643 -2.6723  0.6173 -0.5465
 9001SOL    HW238637   2.441   0.661  15.779 -0.7687 -1.5636 -0.4122
 9002SOL     OW38638   4.075   4.401   4.781  0.0277 -0.3205 -0.2764
 9002SOL    HW138639   4.156   4.451   4.794 -0.7179  0.4645  1.2940
 9002SOL    HW238640   4.096   4.357   4.698 -0.3857  0.3588 -0.7433
 9003SOL     OW38641   0.809   1.541  11.080  0.5801 -0.3594 -0.4318
 9003SOL    HW138642   0.885   1.592  11.109 -0.5609  1.7062 -1.1337
 9003SOL    HW238643   0.762   1.538  11.163  2.1487 -2.3999  0.3868
 9004SOL     OW38644   0.425   1.355   3.140 -0.6367  0.1778 -0.3267
 9004SOL    HW138645   0.481   1.411   3.086  0.3797 -0.2693  0.2565
 9004SOL    HW238646   0.367   1.425   3.170 -1.6115 -0.9934  0.5351
 9005SOL     OW38647   1.044   0.708   4.654 -0.3967 -0.1224 -0.4255
 9005SOL    HW138648   1.024   0.709   4.561  0.1657 -1.4611 -0.5613
 9005SOL    HW238649   0.989   0.783   4.677 -0.2732  0.1553 -1.0473
 9006SOL     OW38650   1.783   2.074  17.626 -0.4078 -0.4052  0.0890
 9006SOL    HW138651   1.837   2.121  17.690 -1.1596  0.5388  0.0359
 9006SOL    HW238652   1.848   2.028  17.575  0.4194 -0.4249  1.1546
 9007SOL     OW38653   2.123   1.686   8.452  0.0106  0.7113 -0.1497
 9007SOL    HW138654   2.127   1.676   8.547 -0.6253  0.9316 -0.0989
 9007SOL    HW238655   2.050   1.745   8.435  0.5260  1.1412 -0.9123
 9008SOL     OW38656   3.502   2.526   8.011 -0.4936  0.2594  0.1945
 9008SOL    HW138657   3.512   2.512   8.105 -4.1892  0.3889  0.6018
 9008SOL    HW238658   3.441   2.599   8.006 -1.4422 -0.5637 -0.2768
 9009SOL     OW38659   1.596   0.015   8.775 -0.1671  0.1016 -0.9611
 9009SOL    HW138660   1.624   0.071   8.702  0.0848 -0.8368 -1.5904
 9009SOL    HW238661   1.539   0.076   8.822  0.1019 -0.4724  0.0839
 9010SOL     OW38662   0.456   2.976  11.529  0.8954  0.0182 -0.2185
 9010SOL    HW138663   0.479   2.898  11.581  1.7312  0.1722 -0.3534
 9010SOL    HW238664   0.549   3.001  11.527  0.5052  1.5092  0.5472
 9011SOL     OW38665   4.374   1.363   7.539 -0.4264  0.4324  0.1753
 9011SOL    HW138666   4.315   1.423   7.583 -0.5043 -0.6127  1.4837
 9011SOL    HW238667   4.455   1.408   7.561 -0.8147  1.8285 -1.2530
 9012SOL     OW38668   0.335   0.803   2.223 -0.1287  0.1696  0.8341
 9012SOL    HW138669   0.252   0.756   2.214 -0.0244  0.2717 -0.6435
 9012SOL    HW238670   0.371   0.812   2.135 -4.3257  3.1179 -0.5953
 9013SOL     OW38671   3.885   0.381   3.718  0.1507 -0.0387  0.0658
 9013SOL    HW138672   3.845   0.298   3.691 -0.5820  0.4199 -0.2548
 9013SOL    HW238673   3.978   0.361   3.714  0.6019  2.2755 -0.8592
 9014SOL     OW38674   3.581   2.331   6.923  0.4223  0.0805 -0.3161
 9014SOL    HW138675   3.609   2.408   6.971  0.2278 -0.7027  1.0417
 9014SOL    HW238676   3.655   2.271   6.928  1.5252  1.6538  1.8676
 9015SOL     OW38677   0.691   1.955   9.366  0.6539  0.5561 -0.3993
 9015SOL    HW138678   0.657   1.871   9.333  0.8197 -0.9465  3.2881
 9015SOL    HW238679   0.712   1.926   9.455  1.1866 -3.2337 -1.7522
 9016SOL     OW38680   0.495   0.882   8.501 -0.0023  0.2167  0.2867
 9016SOL    HW138681   0.558   0.952   8.483  2.6944 -1.9162  1.3485
 9016SOL    HW238682   0.523   0.858   8.589  0.8250  0.5432  0.1152
 9017SOL     OW38683   3.600   3.135   8.838  0.0608  0.6515  0.2598
 9017SOL    HW138684   3.571   3.046   8.861  1.2232  0.1682 -0.1577
 9017SOL    HW238685   3.585   3.191   8.914 -0.5717 -3.2407  2.9717
 9018SOL     OW38686   0.793   4.569   7.824  0.0326 -0.1595 -0.0223
 9018SOL    HW138687   0.762   4.549   7.912 -1.6695 -2.3381 -1.1173
 9018SOL    HW238688   0.882   4.603   7.838 -0.7591  1.4389  1.1463
 9019SOL     OW38689   4.439   0.112  10.706 -0.3043 -0.0714  0.7252
 9019SOL    HW138690   4.492   0.177  10.660 -0.9978 -0.4937 -0.6681
 9019SOL    HW238691   4.472   0.125  10.795  0.4195  0.1170  0.4341
 9020SOL     OW38692   1.637   2.444   8.480 -0.8088 -0.5368  0.3223
 9020SOL    HW138693   1.718   2.397   8.501 -0.1127  0.1200 -0.8596
 9020SOL    HW238694   1.624   2.491   8.562 -1.7897 -1.3154  0.6075
 9021SOL     OW38695   0.182   1.700   0.232  0.3405  0.2520  0.1700
 9021SOL    HW138696   0.243   1.647   0.282 -0.1347  0.8089  1.3487
 9021SOL    HW238697   0.181   1.657   0.146 -1.1995 -0.2830  0.4507
 9022SOL     OW38698   4.056   2.397  13.827  0.3667 -0.0639 -0.2600
 9022SOL    HW138699   4.123   2.339  13.863 -1.0240 -1.2188  0.4560
 9022SOL    HW238700   3.978   2.370  13.876 -0.2921  2.4012  0.0918
 9023SOL     OW38701   4.540   0.470   0.553 -0.0812  0.0128 -0.0393
 9023SOL    HW138702   4.634   0.482   0.541  0.3281 -0.1896  2.9680
 9023SOL    HW238703   4.522   0.423   0.634  3.2868  0.3829  0.9132
 9024SOL     OW38704   0.849   1.787   4.757  0.1475 -0.7016 -0.2394
 9024SOL    HW138705   0.828   1.799   4.850  1.0994  1.7494 -0.3315
 9024SOL    HW238706   0.771   1.828   4.718 -1.4482 -1.9648  1.6082
 9025SOL     OW38707   1.393   1.251   1.631 -0.3856 -0.3554 -0.3105
 9025SOL    HW138708   1.486   1.264   1.611  0.4411 -3.3309  1.6449
 9025SOL    HW238709   1.351   1.278   1.549 -0.4802 -1.9457 -0.7781
 9026SOL     OW38710   0.066   0.228   7.511 -0.3169 -0.2050  0.2838
 9026SOL    HW138711   0.129   0.163   7.543  0.0012  0.2234  0.5299
 9026SOL    HW238712   0.078   0.198   7.421  2.8494 -2.3095  1.4036
 9027SOL     OW38713   4.574   1.248   6.467 -0.3499 -0.5179  0.3679
 9027SOL    HW138714   4.527   1.170   6.496  0.0985 -0.8330  0.2433
 9027SOL    HW238715   4.612   1.216   6.385 -2.8563  0.9492 -1.3885
 9028SOL     OW38716   4.407   0.582   1.342  0.1706  0.2999 -0.1174
 9028SOL    HW138717   4.369   0.607   1.258 -0.3023  0.2166  0.0717
 9028SOL    HW238718   4.496   0.615   1.331  0.0635  0.2814 -1.0117
 9029SOL     OW38719   0.620   1.720   9.283  0.2695 -0.3856  0.0360
 9029SOL    HW138720   0.533   1.706   9.247  0.7754 -0.2300 -1.2493
 9029SOL    HW238721   0.639   1.631   9.311  1.6627 -0.2519 -0.4839
 9030SOL     OW38722   0.691   0.788   6.765  0.1361 -0.1124 -0.2243
 9030SOL    HW138723   0.719   0.704   6.728 -1.1310 -0.1615 -1.0734
 9030SOL    HW238724   0.759   0.794   6.832  0.2106 -1.2596 -0.2038
 9031SOL     OW38725   0.014   2.593   7.450  0.2734 -0.2253  0.1999
 9031SOL    HW138726   0.041   2.544   7.528  1.8154 -1.4645 -1.1351
 9031SOL    HW238727   4.673   2.638   7.476  1.4423  0.2548  3.0576
 9032SOL     OW38728   4.258   0.746   2.764  0.0291  0.2671 -0.0740
 9032SOL    HW138729   4.167   0.717   2.771  0.7123 -2.5934 -3.0460
 9032SOL    HW238730   4.308   0.667   2.786  2.1247  1.1578 -1.6438
 9033SOL     OW38731   0.103   0.369  11.138 -0.1018  0.1445  0.1124
 9033SOL    HW138732   0.031   0.363  11.075 -0.8062 -0.0088  0.9463
 9033SOL    HW238733   0.062   0.431  11.198 -0.1182 -1.3800  1.6519
 9034SOL     OW38734   1.299   3.749   8.405  0.2514  0.7139 -0.7387
 9034SOL    HW138735   1.323   3.669   8.452 -1.7554 -0.0429 -1.0112
 9034SOL    HW238736   1.218   3.774   8.448 -0.3069  1.5108 -2.2623
 9035SOL     OW38737   2.285   3.213   2.829 -0.3691  0.4287  0.2074
 9035SOL    HW138738   2.338   3.256   2.896 -1.8024 -2.3163  3.0767
 9035SOL    HW238739   2.279   3.124   2.862  2.0447  0.6935  1.3832
 9036SOL     OW38740   1.247   1.925   9.112 -0.4975  0.2555 -0.6216
 9036SOL    HW138741   1.162   1.914   9.070  0.2160 -1.7702 -1.5580
 9036SOL    HW238742   1.285   1.842   9.082  1.3376 -0.0932  2.7190
 9037SOL     OW38743   1.259   0.059   0.497 -0.0946  0.5107 -0.3535
 9037SOL    HW138744   1.187   0.110   0.534  0.6423  1.4073 -0.1645
 9037SOL    HW238745   1.215   0.041   0.414  0.2603  0.7951 -0.6010
 9038SOL     OW38746   4.506   3.381  10.380  0.1083  0.0492  0.4930
 9038SOL    HW138747   4.416   3.413  10.373  0.8097  2.0573  0.6750
 9038SOL    HW238748   4.486   3.288  10.397 -1.3837  0.4912  1.1576
 9039SOL     OW38749   0.099   1.574  17.754 -0.0233 -0.2805 -0.4249
 9039SOL    HW138750   0.154   1.514  17.704  0.9549 -0.7012  1.1442
 9039SOL    HW238751   0.031   1.511   0.022 -1.4224  1.2045 -0.4857
 9040SOL     OW38752   0.125   0.865  11.523 -0.0895  0.0153 -0.0013
 9040SOL    HW138753   0.164   0.827  11.444 -1.1764 -0.4744 -0.3071
 9040SOL    HW238754   0.167   0.950  11.529 -0.1794  0.2929 -3.1776
 9041SOL     OW38755   1.373   0.025   9.535 -0.0264 -0.0400 -0.1624
 9041SOL    HW138756   1.418   0.006   9.453 -0.6438 -1.8436 -0.0942
 9041SOL    HW238757   1.430   4.719   9.597 -1.3598 -2.0732 -0.4537
 9042SOL     OW38758   2.801   0.974  12.033  0.6295  0.2630 -0.9681
 9042SOL    HW138759   2.789   1.060  12.073  2.1328  1.2587 -2.6727
 9042SOL    HW238760   2.871   0.996  11.972  0.3053 -1.0462 -1.8032
 9043SOL     OW38761   4.354   2.110   3.687 -0.3254  0.3981  0.3112
 9043SOL    HW138762   4.388   2.121   3.598  2.9705  0.5198  1.5632
 9043SOL    HW238763   4.260   2.114   3.672 -0.2887 -2.6929 -0.7183
 9044SOL     OW38764   2.605   3.570  11.164  0.3921 -0.0375 -0.3090
 9044SOL    HW138765   2.607   3.585  11.069 -2.0081  0.1494 -0.3473
 9044SOL    HW238766   2.594   3.659  11.198  1.0651 -0.6162  1.4117
 9045SOL     OW38767   2.716   4.634   7.732 -0.4294 -0.4071 -0.1271
 9045SOL    HW138768   2.643   4.659   7.677 -1.4943  1.2969  2.0514
 9045SOL    HW238769   2.674   4.583   7.801 -0.7003 -1.6073 -1.1925
 9046SOL     OW38770   2.927   1.107   2.302  0.0372  0.3527  0.3862
 9046SOL    HW138771   2.994   1.052   2.263 -1.3072 -0.6833 -0.4544
 9046SOL    HW238772   2.953   1.199   2.291  0.7554  0.1644  0.5146
 9047SOL     OW38773   3.280   3.811   5.971 -0.0819 -0.1482 -0.6763
 9047SOL    HW138774   3.339   3.877   5.933  1.0979  0.1712  1.6653
 9047SOL    HW238775   3.274   3.746   5.902  1.7330  0.4612 -1.4210
 9048SOL     OW38776   0.234   0.395   2.290  0.0404 -0.4639  0.3986
 9048SOL    HW138777   0.264   0.480   2.321 -0.8142  0.4680 -1.3222
 9048SOL    HW238778   0.294   0.347   2.347  0.8662  0.4495  0.2801
 9049SOL     OW38779   1.350   4.261   6.483  0.2414 -0.7329  0.8244
 9049SOL    HW138780   1.348   4.216   6.398  1.3777 -2.1185  1.5435
 9049SOL    HW238781   1.349   4.355   6.462  0.3666 -0.7989  0.5196
 9050SOL     OW38782   4.550   3.747   5.315  0.6201 -0.3163 -0.4200
 9050SOL    HW138783   4.562   3.764   5.221  1.0552  3.6107  0.3366
 9050SOL    HW238784   4.463   3.780   5.335  0.3581 -1.4230  0.2349
 9051SOL     OW38785   4.145   0.083   2.130 -0.3550 -0.2527 -0.0973
 9051SOL    HW138786   4.216   0.037   2.174  0.7653  1.0114 -0.5649
 9051SOL    HW238787   4.152   0.050   2.041 -1.8845 -0.7125 -0.0419
 9052SOL     OW38788   0.758   3.287  12.655 -0.1820  0.2850 -0.2155
 9052SOL    HW138789   0.760   3.338  12.736 -1.7230  0.9897 -0.6257
 9052SOL    HW238790   0.726   3.207  12.697  1.9216 -0.9307 -0.9009
 9053SOL     OW38791   1.239   1.018   4.414  0.1648 -0.0284 -0.4294
 9053SOL    HW138792   1.179   1.068   4.469  0.2150 -0.2609 -0.1655
 9053SOL    HW238793   1.195   0.934   4.397 -1.1590  0.3907  0.9220
 9054SOL     OW38794   0.077   0.955  14.448 -0.4756  0.0584 -0.0233
 9054SOL    HW138795   0.083   0.875  14.499  2.0458  0.7567  0.7907
 9054SOL    HW238796   0.167   0.952  14.415 -1.4624 -1.4623 -2.5514
 9055SOL     OW38797   1.137   3.585   7.546 -0.2117 -0.2615 -0.0798
 9055SOL    HW138798   1.215   3.581   7.602 -0.8250  0.2946  0.8094
 9055SOL    HW238799   1.069   3.546   7.601 -0.6725 -1.1032 -1.2503
 9056SOL     OW38800   0.385   4.445   1.581  0.1816 -0.0697 -0.0287
 9056SOL    HW138801   0.360   4.476   1.668  2.6267 -0.2955  0.7497
 9056SOL    HW238802   0.346   4.358   1.582 -1.5051  0.7065  1.6484
 9057SOL     OW38803   1.645   1.973   4.747  0.6411  0.0512 -0.6013
 9057SOL    HW138804   1.588   2.033   4.796  3.3910  1.6559  0.6870
 9057SOL    HW238805   1.727   2.020   4.765 -0.0425  0.6939  0.8858
 9058SOL     OW38806   0.624   3.668   1.233 -0.4516  0.4577 -0.0221
 9058SOL    HW138807   0.649   3.642   1.144 -0.6517 -4.0218  1.2125
 9058SOL    HW238808   0.638   3.762   1.223  2.1503 -0.0588 -1.3777
 9059SOL     OW38809   0.160   2.991   3.944 -0.3761  0.5754  0.1952
 9059SOL    HW138810   0.090   2.927   3.963  0.3025  0.0122  0.7840
 9059SOL    HW238811   0.232   2.954   3.995 -1.8031 -1.1253  0.9941
 9060SOL     OW38812   0.394   3.006   3.233  0.1470 -0.2056 -0.2151
 9060SOL    HW138813   0.426   3.070   3.297  0.5542 -1.5181  0.8773
 9060SOL    HW238814   0.338   2.955   3.291  0.1790  0.7848  0.6836
 9061SOL     OW38815   3.320   3.153   9.654  0.1908  0.1836 -0.4733
 9061SOL    HW138816   3.321   3.206   9.734  0.3493  2.5900 -2.0806
 9061SOL    HW238817   3.395   3.099   9.676  0.7104  1.4843  0.8946
 9062SOL     OW38818   3.661   4.266  16.072 -0.0012  0.3395  0.4116
 9062SOL    HW138819   3.575   4.224  16.074  0.0588  0.1312 -1.2350
 9062SOL    HW238820   3.642   4.360  16.074 -1.9138 -0.0722  1.6663
 9063SOL     OW38821   2.610   1.297   7.438  0.1847 -0.0872  0.0703
 9063SOL    HW138822   2.579   1.371   7.384 -1.5569  0.0524  1.2748
 9063SOL    HW238823   2.531   1.291   7.492 -1.0736 -2.7256 -2.0674
 9064SOL     OW38824   1.538   3.042   5.972  0.1558  0.4907  0.4299
 9064SOL    HW138825   1.611   3.103   5.981  1.1869 -0.7698  0.6285
 9064SOL    HW238826   1.536   3.033   5.877 -0.1965 -0.2743  0.5065
 9065SOL     OW38827   2.811   2.135   6.102 -0.5426  0.5374  0.4823
 9065SOL    HW138828   2.831   2.134   6.008  0.0133 -0.1607  0.6051
 9065SOL    HW238829   2.892   2.101   6.143 -0.5429 -1.1307 -0.9025
 9066SOL     OW38830   2.250   3.519   6.389 -0.2659 -0.0345 -0.0571
 9066SOL    HW138831   2.236   3.438   6.340 -1.4478  0.4467 -0.5162
 9066SOL    HW238832   2.340   3.542   6.365  0.3336 -1.6600  0.6381
 9067SOL     OW38833   0.890   3.094   5.759 -0.3134 -0.2413 -0.7312
 9067SOL    HW138834   0.881   3.019   5.699 -0.0949 -0.1400 -0.8927
 9067SOL    HW238835   0.986   3.098   5.762 -0.3850  0.9392 -0.1533
 9068SOL     OW38836   1.435   4.390   7.662 -1.0067 -0.1935 -0.8602
 9068SOL    HW138837   1.420   4.296   7.650 -0.6046 -0.3840  0.1855
 9068SOL    HW238838   1.376   4.423   7.594  0.5369  0.7255 -1.7475
 9069SOL     OW38839   3.200   2.690  12.118  0.1697 -0.3148  0.7252
 9069SOL    HW138840   3.163   2.749  12.183 -2.3935  0.5314 -1.5222
 9069SOL    HW238841   3.286   2.722  12.091 -0.1053  1.9783  2.5669
 9070SOL     OW38842   2.092   4.056  12.112  0.0209  0.6221  0.1137
 9070SOL    HW138843   2.152   4.086  12.043 -0.6878 -1.9061 -1.5948
 9070SOL    HW238844   2.041   3.985  12.074  1.0910  0.2789 -0.6815
 9071SOL     OW38845   0.614   1.705   3.486  0.4733 -0.2836 -0.1995
 9071SOL    HW138846   0.637   1.764   3.558 -0.1529  2.8126 -2.5528
 9071SOL    HW238847   0.551   1.757   3.436 -0.5742 -0.0474  1.3524
 9072SOL     OW38848   3.862   2.495   3.534 -0.2218 -0.4266 -0.1892
 9072SOL    HW138849   3.917   2.425   3.570 -0.8739 -0.5934  0.4867
 9072SOL    HW238850   3.867   2.467   3.442  3.6077  1.1075 -0.4462
 9073SOL     OW38851   3.898   3.459   1.896 -0.2261  0.0110  0.4577
 9073SOL    HW138852   3.814   3.415   1.879  0.6105  0.2981 -4.2615
 9073SOL    HW238853   3.956   3.401   1.847  0.1769 -2.0909  3.4347
 9074SOL     OW38854   4.593   4.430   2.551  0.0091 -0.6350 -0.0039
 9074SOL    HW138855   4.641   4.393   2.478  1.5651 -1.4758  1.4361
 9074SOL    HW238856   4.517   4.372   2.560  1.0249 -2.3266 -2.4711
 9075SOL     OW38857   1.741   4.550   4.489  0.0738  0.0391  0.2345
 9075SOL    HW138858   1.808   4.616   4.508  0.4817 -0.0597 -0.8844
 9075SOL    HW238859   1.704   4.525   4.574  1.6152 -0.9022  0.6274
 9076SOL     OW38860   4.108   0.207   5.161  0.7348  0.4617  0.6478
 9076SOL    HW138861   4.108   0.298   5.191 -0.0519  1.2355 -1.6876
 9076SOL    HW238862   4.065   0.159   5.231 -1.4846  1.6094  0.0693
 9077SOL     OW38863   0.572   1.017   6.666  0.3354 -0.3056 -0.3215
 9077SOL    HW138864   0.605   0.928   6.675 -0.4786 -0.4596  1.0607
 9077SOL    HW238865   0.503   1.026   6.732 -0.1164 -0.4152 -0.7794
 9078SOL     OW38866   3.713   4.033   3.960  0.1584 -0.1923 -0.5447
 9078SOL    HW138867   3.795   3.987   3.944  0.7015  0.8931 -0.8960
 9078SOL    HW238868   3.691   4.003   4.048 -1.2228  1.6060 -0.2492
 9079SOL     OW38869   3.245   1.642  12.437 -0.1121  0.1987  0.2689
 9079SOL    HW138870   3.183   1.684  12.497 -0.6381  1.2420 -1.0055
 9079SOL    HW238871   3.220   1.660  12.346  0.1055 -0.7904  0.0065
 9080SOL     OW38872   4.509   4.316  16.862  0.0657 -0.2667  0.0440
 9080SOL    HW138873   4.509   4.386  16.796 -3.1899 -2.3750 -2.1600
 9080SOL    HW238874   4.602   4.295  16.866 -0.2758 -1.7719 -0.0219
 9081SOL     OW38875   1.277   2.565   2.403 -0.6708  0.4945  0.7024
 9081SOL    HW138876   1.263   2.482   2.448 -0.7829 -1.2982 -2.6910
 9081SOL    HW238877   1.188   2.600   2.403 -0.3328  1.3723 -0.1764
 9082SOL     OW38878   2.783   2.453   6.795 -0.3211  0.1237  0.1175
 9082SOL    HW138879   2.868   2.419   6.824 -0.4126 -0.3377 -0.1621
 9082SOL    HW238880   2.816   2.527   6.743 -2.0346  0.2942 -0.7083
 9083SOL     OW38881   3.720   4.509  15.439 -0.0387  0.0883 -0.4144
 9083SOL    HW138882   3.797   4.463  15.472 -0.0141 -0.5332 -1.3389
 9083SOL    HW238883   3.688   4.558  15.515 -0.4338 -0.7372 -0.0555
 9084SOL     OW38884   1.578   1.906   8.846  0.1381 -0.5456  0.3672
 9084SOL    HW138885   1.511   1.956   8.892 -0.4451 -0.9867  0.0007
 9084SOL    HW238886   1.644   1.884   8.912  0.0686 -1.4562  0.1302
 9085SOL     OW38887   2.238   2.134  15.074 -0.4360  0.4290 -0.3732
 9085SOL    HW138888   2.168   2.132  15.008  0.8174  1.0661 -1.7366
 9085SOL    HW238889   2.297   2.192  15.026 -0.8117 -1.1727 -2.7636
 9086SOL     OW38890   1.759   1.904   8.615 -0.5579 -0.3690 -0.5074
 9086SOL    HW138891   1.691   1.939   8.558 -0.6949  0.1527 -0.0150
 9086SOL    HW238892   1.711   1.917   8.696  1.1508  0.6398  0.3559
 9087SOL     OW38893   2.277   3.594   2.347 -0.1703 -0.6789  0.0201
 9087SOL    HW138894   2.352   3.635   2.390  0.2944  1.2991 -2.6083
 9087SOL    HW238895   2.296   3.598   2.253  0.8426 -1.0661  0.1992
 9088SOL     OW38896   3.686   1.724   2.017 -0.1619  0.1624  0.1586
 9088SOL    HW138897   3.671   1.660   2.087 -0.7637 -1.2958 -1.3039
 9088SOL    HW238898   3.753   1.774   2.064 -0.5406 -0.0192  0.8947
 9089SOL     OW38899   3.468   3.661   3.669 -0.2809 -0.8332 -0.4807
 9089SOL    HW138900   3.461   3.752   3.640  1.3999  0.4951  3.2751
 9089SOL    HW238901   3.390   3.650   3.723  0.0382 -3.5387 -0.5769
 9090SOL     OW38902   0.046   3.413   6.055  0.3111 -0.4407 -0.1747
 9090SOL    HW138903   4.735   3.493   6.059  1.1157  0.1345 -1.1951
 9090SOL    HW238904   0.128   3.456   6.030  0.4407  0.1508  1.2698
 9091SOL     OW38905   2.864   0.375   8.207 -0.7189 -0.7177 -0.1732
 9091SOL    HW138906   2.844   0.331   8.125  0.2355 -2.2067  0.4022
 9091SOL    HW238907   2.878   0.304   8.270 -3.0584 -0.8736  0.1479
 9092SOL     OW38908   1.007   3.129  16.179 -0.0078  0.1692 -0.3345
 9092SOL    HW138909   0.940   3.068  16.151  1.1882 -1.2881 -0.0498
 9092SOL    HW238910   0.967   3.212  16.154 -0.4101 -0.1839 -0.8665
 9093SOL     OW38911   2.279   4.130  17.475 -0.3119  0.2948  0.2389
 9093SOL    HW138912   2.354   4.187  17.457 -0.2427 -0.1813 -0.9725
 9093SOL    HW238913   2.226   4.126  17.395  0.0151  3.6946 -0.1508
 9094SOL     OW38914   0.373   0.150   1.983  0.4570  0.3984  1.0123
 9094SOL    HW138915   0.427   0.090   2.034  0.1100 -1.6789 -1.0334
 9094SOL    HW238916   0.441   0.206   1.946  0.0197 -2.1128 -3.6239
 9095SOL     OW38917   3.356   1.573  11.054 -0.5250  0.4284  0.4630
 9095SOL    HW138918   3.297   1.648  11.046 -0.7400  0.2221  0.1235
 9095SOL    HW238919   3.428   1.612  11.104  1.1475 -1.0355 -0.8211
 9096SOL     OW38920   4.448   1.196   3.200  0.3275  0.0411  0.5347
 9096SOL    HW138921   4.393   1.200   3.279 -0.9930  3.3593 -0.5581
 9096SOL    HW238922   4.459   1.291   3.187  0.5576 -0.3111 -1.8232
 9097SOL     OW38923   3.559   2.134   5.422 -0.1502  0.6283 -0.1536
 9097SOL    HW138924   3.526   2.217   5.457  0.0362  0.9566 -0.7676
 9097SOL    HW238925   3.485   2.073   5.423 -1.6883  2.5144  0.8920
 9098SOL     OW38926   1.766   3.976   2.370 -0.3233 -0.2371  0.2169
 9098SOL    HW138927   1.834   4.012   2.426 -0.6411 -1.1592  1.1961
 9098SOL    HW238928   1.785   4.023   2.289  0.4278  0.5530  0.8615
 9099SOL     OW38929   2.546   1.491   2.808  0.0606 -0.0833  0.1020
 9099SOL    HW138930   2.491   1.517   2.882 -0.8826 -1.0565 -0.2640
 9099SOL    HW238931   2.572   1.580   2.784  1.2112 -0.4771 -0.1166
 9100SOL     OW38932   1.201   2.735   0.131  0.0404 -0.8104 -0.0384
 9100SOL    HW138933   1.194   2.822   0.090  0.8028  0.7897  3.1905
 9100SOL    HW238934   1.197   2.674   0.057 -1.4613 -0.3384 -0.3474
 9101SOL     OW38935   2.846   2.879  16.220  0.6722  0.5264 -0.1071
 9101SOL    HW138936   2.830   2.971  16.241 -1.1906  0.7372 -2.4711
 9101SOL    HW238937   2.872   2.859  16.310 -1.8409 -2.7958 -0.1122
 9102SOL     OW38938   2.035   2.265   0.742 -0.1108 -0.6335  0.3901
 9102SOL    HW138939   2.101   2.266   0.672 -1.0952  0.5923 -0.5134
 9102SOL    HW238940   2.041   2.343   0.798 -1.6596 -0.2842  0.0570
 9103SOL     OW38941   0.703   0.425   7.057 -0.4118 -0.8846  0.4064
 9103SOL    HW138942   0.765   0.436   6.984 -1.5269  0.3095 -0.3623
 9103SOL    HW238943   0.626   0.469   7.020  1.8666  1.7982 -1.2274
 9104SOL     OW38944   1.538   2.115  17.522  0.2682 -0.3531 -0.6034
 9104SOL    HW138945   1.620   2.100  17.570  0.5783  3.3979  0.0455
 9104SOL    HW238946   1.554   2.073  17.437  0.3773  1.0323 -1.2699
 9105SOL     OW38947   0.263   4.132   2.746  0.1147  0.5265  0.5110
 9105SOL    HW138948   0.209   4.198   2.704  1.9875  1.4271 -0.4582
 9105SOL    HW238949   0.232   4.134   2.837 -2.3491 -1.1942 -0.2987
 9106SOL     OW38950   3.497   3.756  16.881 -0.5677 -0.6283 -0.2876
 9106SOL    HW138951   3.492   3.833  16.825 -0.2025 -2.1387 -2.4039
 9106SOL    HW238952   3.591   3.748  16.893 -0.6376 -1.3821 -0.2328
 9107SOL     OW38953   0.864   4.671   9.794 -0.2844 -0.3163 -0.2554
 9107SOL    HW138954   0.853   4.623   9.876  0.8682  0.9231  0.6111
 9107SOL    HW238955   0.919   0.002   9.827 -1.1089  0.4044 -0.4565
 9108SOL     OW38956   0.751   1.231   1.503  0.3340  0.2471  0.1528
 9108SOL    HW138957   0.706   1.314   1.519  1.8971  0.6769  2.2962
 9108SOL    HW238958   0.789   1.209   1.588 -3.0306 -1.7728  1.1247
 9109SOL     OW38959   2.258   2.543   5.479  0.6261  0.1713 -0.3252
 9109SOL    HW138960   2.226   2.626   5.444 -1.8045  0.0970  1.7866
 9109SOL    HW238961   2.199   2.531   5.554 -0.5198  1.5812 -1.0096
 9110SOL     OW38962   1.201   2.704  13.329  0.0539  0.2394 -0.0465
 9110SOL    HW138963   1.209   2.794  13.360 -1.8392  0.7278 -0.9510
 9110SOL    HW238964   1.111   2.701  13.296 -0.0338 -0.7079  0.2951
 9111SOL     OW38965   1.829   4.452   4.931  0.0474  0.0819  0.2987
 9111SOL    HW138966   1.760   4.393   4.901 -0.6473  0.5372  0.9918
 9111SOL    HW238967   1.910   4.412   4.898 -0.8444 -0.9647 -0.6255
 9112SOL     OW38968   4.307   3.353   2.451  0.1584  0.2675  0.8288
 9112SOL    HW138969   4.393   3.317   2.426  1.5088  2.3291  2.4482
 9112SOL    HW238970   4.312   3.433   2.399 -0.1954  0.9217  1.8007
 9113SOL     OW38971   1.688   0.768   1.653  0.5769 -0.9161  0.0446
 9113SOL    HW138972   1.775   0.749   1.617  1.1133  0.5133  0.5914
 9113SOL    HW238973   1.675   0.863   1.650 -1.4631 -1.2232 -1.1375
 9114SOL     OW38974   0.024   2.654   1.290 -0.0960  0.0757  0.5471
 9114SOL    HW138975   0.068   2.701   1.219 -1.1513  0.1829 -0.0399
 9114SOL    HW238976   0.098   2.601   1.319  0.3573 -0.4884 -1.6026
 9115SOL     OW38977   4.275   4.593  13.628  0.3028  0.0494 -0.1726
 9115SOL    HW138978   4.346   4.543  13.667  1.8553  2.3282 -0.1066
 9115SOL    HW238979   4.223   4.578  13.707 -2.2411 -1.5454 -2.1356
 9116SOL     OW38980   3.568   1.244   1.447 -0.6869  0.4919  0.1045
 9116SOL    HW138981   3.662   1.228   1.458 -0.1840  2.9512 -0.4467
 9116SOL    HW238982   3.541   1.268   1.535  2.2545  2.3743  0.5217
 9117SOL     OW38983   3.501   3.941  13.005  0.3012 -0.8298  0.1980
 9117SOL    HW138984   3.433   3.978  12.948  1.3296 -3.0529 -2.4183
 9117SOL    HW238985   3.569   3.913  12.944 -0.4180  0.5916 -1.2520
 9118SOL     OW38986   3.213   3.643   9.583  0.1093 -0.3271  0.0206
 9118SOL    HW138987   3.240   3.692   9.661  0.7802  0.0700 -0.4594
 9118SOL    HW238988   3.282   3.582   9.559 -1.4125 -2.9070  2.2364
 9119SOL     OW38989   1.188   0.375   3.917  0.1877  0.3805 -0.3709
 9119SOL    HW138990   1.228   0.290   3.935  1.8310  1.4770  1.1737
 9119SOL    HW238991   1.121   0.346   3.856 -0.5950  2.4096 -0.4537
 9120SOL     OW38992   2.119   1.432   5.906  0.2790 -0.0351 -0.2949
 9120SOL    HW138993   2.105   1.478   5.823 -2.1726 -0.0817  0.1009
 9120SOL    HW238994   2.054   1.362   5.897  0.9626 -0.2894 -3.5996
 9121SOL     OW38995   3.697   0.843   6.704 -0.2794  0.1863  0.2962
 9121SOL    HW138996   3.661   0.790   6.775 -3.4266  0.1752 -1.3056
 9121SOL    HW238997   3.748   0.913   6.744 -0.0291 -1.1315  2.2925
 9122SOL     OW38998   3.469   0.921   6.309 -0.4572  0.2479 -0.1364
 9122SOL    HW138999   3.488   0.850   6.370 -3.7703  0.4717  1.1646
 9122SOL    HW239000   3.547   0.977   6.305 -0.8646  0.7806 -0.4887
 9123SOL     OW39001   0.428   2.951   3.568 -0.2181  0.0601 -0.0199
 9123SOL    HW139002   0.358   2.907   3.519  1.5849  1.3958 -3.8273
 9123SOL    HW239003   0.491   2.880   3.564  1.1618  1.3132 -0.4739
 9124SOL     OW39004   3.309   1.462  12.669  0.0052  0.3795 -0.0726
 9124SOL    HW139005   3.337   1.501  12.586  0.4885  0.3288  0.0633
 9124SOL    HW239006   3.240   1.400  12.646 -0.9315  0.1635  3.2906
 9125SOL     OW39007   4.165   0.435   1.632  0.2334 -0.0149  0.0513
 9125SOL    HW139008   4.202   0.522   1.615 -1.4121  1.1168  2.2312
 9125SOL    HW239009   4.110   0.452   1.709 -0.0860 -1.2192  0.0940
 9126SOL     OW39010   1.853   1.245   2.066  0.0890  0.1203  0.1351
 9126SOL    HW139011   1.923   1.262   2.003 -0.8487 -0.9039 -1.1586
 9126SOL    HW239012   1.862   1.318   2.127 -1.5826  0.1369  0.3745
 9127SOL     OW39013   3.037   2.960   4.492 -0.2780  0.3250 -0.0297
 9127SOL    HW139014   3.114   2.983   4.542 -1.0495 -0.5748  1.5832
 9127SOL    HW239015   3.025   2.865   4.489 -1.0449  0.3915  0.7454
 9128SOL     OW39016   1.150   2.991  11.522 -0.8620  0.6482  0.0048
 9128SOL    HW139017   1.070   3.025  11.483 -2.9120 -1.0043  2.7627
 9128SOL    HW239018   1.117   2.920  11.578  0.4055  0.0989  0.0687
 9129SOL     OW39019   0.084   2.553   9.491  0.2523 -0.2922  0.3447
 9129SOL    HW139020   0.126   2.475   9.454  2.0289  1.5575 -1.4922
 9129SOL    HW239021   0.142   2.589   9.558  0.5850  1.5537 -0.9315
 9130SOL     OW39022   0.280   3.824   7.725 -0.1328 -0.2339  0.0920
 9130SOL    HW139023   0.347   3.821   7.657  3.2991  2.0537  3.3373
 9130SOL    HW239024   0.229   3.905   7.713 -0.1156 -0.2783 -0.2865
 9131SOL     OW39025   0.512   4.700  17.396 -0.2728 -0.3268 -0.1051
 9131SOL    HW139026   0.469   4.619  17.370  0.3041 -0.8752  0.6621
 9131SOL    HW239027   0.446   0.017  17.355 -0.5501  0.8412  1.9612
 9132SOL     OW39028   2.413   4.332  17.331  0.1855 -0.6696 -0.2294
 9132SOL    HW139029   2.427   4.391  17.257  1.2079 -3.2701 -2.1036
 9132SOL    HW239030   2.503   4.308  17.351  0.4108  2.1112  2.0562
 9133SOL     OW39031   0.199   1.419   5.813 -0.0114  0.1142  0.0888
 9133SOL    HW139032   0.176   1.422   5.906 -0.6583  3.9207 -0.2025
 9133SOL    HW239033   0.132   1.477   5.776  1.1548  0.7366 -1.0688
 9134SOL     OW39034   0.206   2.231   5.584 -0.3940  0.2366  0.4008
 9134SOL    HW139035   0.120   2.205   5.549 -0.6435  1.8634 -0.1798
 9134SOL    HW239036   0.214   2.174   5.660 -0.5521 -1.8473 -1.1196
 9135SOL     OW39037   1.005   3.292   4.981 -0.2995 -0.4883 -0.5879
 9135SOL    HW139038   0.952   3.231   4.929 -1.1068  1.5867 -2.2146
 9135SOL    HW239039   1.055   3.328   4.908  2.7682 -1.9597  0.8044
 9136SOL     OW39040   0.123   4.411   4.779  0.3571 -0.5099 -0.3217
 9136SOL    HW139041   0.035   4.400   4.744  0.8983 -1.5806 -1.3590
 9136SOL    HW239042   0.132   4.317   4.795  0.7650 -0.5290 -0.6359
 9137SOL     OW39043   0.439   1.066   7.372  0.1985 -0.0038 -0.4682
 9137SOL    HW139044   0.348   1.076   7.400  1.2868  3.2705  2.0041
 9137SOL    HW239045   0.442   0.975   7.342  0.6556 -0.2616  0.3813
 9138SOL     OW39046   2.188   0.468   7.837  0.5652  0.8551  0.1166
 9138SOL    HW139047   2.253   0.430   7.897  0.9603  0.9402 -0.2588
 9138SOL    HW239048   2.196   0.558   7.869 -0.1041  0.4541  1.4163
 9139SOL     OW39049   2.643   3.625   3.392  0.5746  0.7315  0.3228
 9139SOL    HW139050   2.625   3.614   3.486  0.2988  2.1672  0.4336
 9139SOL    HW239051   2.608   3.713   3.378 -1.6606 -0.2339 -0.1600
 9140SOL     OW39052   2.510   4.357   9.390 -0.2404  0.3874  0.0960
 9140SOL    HW139053   2.461   4.372   9.309 -2.7240 -1.7333  1.2055
 9140SOL    HW239054   2.578   4.295   9.365  1.2294  1.9639  0.1763
 9141SOL     OW39055   3.822   2.509  17.144 -0.5403  0.5814  0.0640
 9141SOL    HW139056   3.878   2.587  17.152 -1.3783  1.1421  0.4865
 9141SOL    HW239057   3.827   2.467  17.229 -0.7938  0.2401 -0.0891
 9142SOL     OW39058   0.269   0.330   3.164 -0.2958  0.1114  0.2434
 9142SOL    HW139059   0.212   0.326   3.241  0.9915  1.1862  1.2598
 9142SOL    HW239060   0.209   0.336   3.090 -1.4240 -0.3121  1.1234
 9143SOL     OW39061   3.597   1.613   7.744 -0.0190  0.5097 -0.3621
 9143SOL    HW139062   3.611   1.658   7.661 -2.8081  1.8925 -0.0752
 9143SOL    HW239063   3.653   1.535   7.742 -1.1520 -0.2567 -2.2785
 9144SOL     OW39064   1.630   3.018   4.800 -0.5024 -0.8219 -0.3128
 9144SOL    HW139065   1.634   3.049   4.710 -3.4399 -0.4747 -0.3504
 9144SOL    HW239066   1.671   2.933   4.783 -0.1194 -0.8905  0.9755
 9145SOL     OW39067   2.013   0.278  16.270 -0.3699  0.0812 -0.4985
 9145SOL    HW139068   2.073   0.349  16.293  0.5168 -0.1655 -2.0368
 9145SOL    HW239069   2.077   0.223  16.224  1.2800  0.8240  0.9272
 9146SOL     OW39070   4.411   1.550   5.767  0.1207  0.5527 -0.2273
 9146SOL    HW139071   4.448   1.611   5.703  0.0762  0.2990 -0.4911
 9146SOL    HW239072   4.446   1.473   5.723 -0.4378 -0.6695  1.4579
 9147SOL     OW39073   0.093   4.295  11.074 -0.0450 -0.4365 -0.0103
 9147SOL    HW139074   0.163   4.297  11.008  0.1331  1.4666  0.2239
 9147SOL    HW239075   0.108   4.381  11.114  2.0848 -0.7494 -0.1306
 9148SOL     OW39076   0.547   4.397  11.961 -0.3918 -0.1692 -0.0111
 9148SOL    HW139077   0.523   4.434  11.877  0.7058 -0.9568 -0.6604
 9148SOL    HW239078   0.464   4.388  12.009 -0.0314  2.3276  1.0757
 9149SOL     OW39079   0.885   4.064   4.681 -0.1784  0.0490 -0.2469
 9149SOL    HW139080   0.839   4.053   4.598 -1.2442  1.7919  0.1271
 9149SOL    HW239081   0.832   4.128   4.729  0.7050 -1.2943  2.5662
 9150SOL     OW39082   1.390   1.002  15.573 -0.2199 -0.2759 -0.0067
 9150SOL    HW139083   1.393   1.001  15.477  1.6093 -2.9900  0.0818
 9150SOL    HW239084   1.318   1.061  15.597  1.0907  0.8999  0.9708
 9151SOL     OW39085   1.123   2.396   1.642  0.4069  0.4055  0.8464
 9151SOL    HW139086   1.124   2.304   1.617  2.5410 -0.0773  2.8390
 9151SOL    HW239087   1.156   2.398   1.731 -1.5988  3.2213  1.5599
 9152SOL     OW39088   0.850   4.112  13.906  0.4172  0.0417  0.0214
 9152SOL    HW139089   0.885   4.133  13.819  1.8811 -1.8000  0.1698
 9152SOL    HW239090   0.804   4.188  13.943 -2.8370 -2.5890  1.3747
 9153SOL     OW39091   4.103   3.351   5.439  0.0844  0.7423 -0.5991
 9153SOL    HW139092   4.029   3.393   5.484 -1.7545 -0.5724 -2.4275
 9153SOL    HW239093   4.120   3.419   5.373 -2.6545  0.8357 -1.1913
 9154SOL     OW39094   3.268   3.678  11.402  0.0090 -0.4858  0.4737
 9154SOL    HW139095   3.355   3.697  11.368 -0.1096  0.9076  0.9427
 9154SOL    HW239096   3.215   3.732  11.343  2.1374  1.3110  0.2267
 9155SOL     OW39097   1.981   1.069   5.011 -1.1587 -0.3904 -0.0554
 9155SOL    HW139098   2.003   1.127   4.938 -0.6935 -1.0697 -0.4564
 9155SOL    HW239099   1.886   1.080   5.016 -1.1319 -0.0587 -0.3670
 9156SOL     OW39100   0.923   0.339  14.696 -0.2282 -0.3977  0.0849
 9156SOL    HW139101   0.853   0.379  14.645  0.7320 -1.3269 -1.9810
 9156SOL    HW239102   0.875   0.327  14.777 -1.5326  1.4652 -0.4229
 9157SOL     OW39103   1.822   2.712  16.393 -0.4596  0.1000 -0.0544
 9157SOL    HW139104   1.819   2.679  16.304  0.4781  0.8556 -0.3749
 9157SOL    HW239105   1.913   2.740  16.405 -0.9139  2.1362 -1.3558
 9158SOL     OW39106   0.960   1.807   3.766  0.1317 -0.0200 -0.0198
 9158SOL    HW139107   0.911   1.734   3.729 -0.0492 -0.2486  0.6762
 9158SOL    HW239108   0.959   1.785   3.859  0.8407 -0.8187 -0.1964
 9159SOL     OW39109   3.616   1.814   5.883 -0.5016  0.1570 -0.0248
 9159SOL    HW139110   3.624   1.725   5.917  0.0286 -0.2837 -1.3083
 9159SOL    HW239111   3.651   1.858   5.961  0.3495  1.0537 -0.9060
 9160SOL     OW39112   1.192   4.053   4.107  0.0332  0.1132 -0.3723
 9160SOL    HW139113   1.271   4.093   4.143  0.1643 -1.5514  1.1866
 9160SOL    HW239114   1.184   3.973   4.158 -0.0712  1.7836  2.2118
 9161SOL     OW39115   2.891   3.735   6.771  0.7259  0.6421 -0.3071
 9161SOL    HW139116   2.957   3.677   6.809 -0.8312  0.0995  1.5784
 9161SOL    HW239117   2.814   3.685   6.800  0.1818  2.0597  0.6436
 9162SOL     OW39118   1.166   3.981   5.383  0.0666  0.8593 -0.0169
 9162SOL    HW139119   1.092   3.945   5.432 -0.7007  0.4920 -1.4611
 9162SOL    HW239120   1.136   4.072   5.377 -0.1930  0.8779  1.4350
 9163SOL     OW39121   3.343   4.375  12.311  0.2548 -0.4624 -0.4434
 9163SOL    HW139122   3.345   4.346  12.401  1.1859  0.1210 -0.2702
 9163SOL    HW239123   3.357   4.469  12.323 -3.3362  0.0713 -0.6711
 9164SOL     OW39124   0.645   4.194   9.642  0.1321  0.3809 -0.2013
 9164SOL    HW139125   0.676   4.268   9.694 -0.9050  1.3353 -0.9570
 9164SOL    HW239126   0.638   4.119   9.702  2.0865  2.0580  2.1026
 9165SOL     OW39127   0.027   3.129   3.233 -0.0997 -0.0760 -0.0254
 9165SOL    HW139128   4.715   3.209   3.239  1.1735  0.5051  3.1933
 9165SOL    HW239129   0.099   3.135   3.297 -0.6677  2.8678  0.3501
 9166SOL     OW39130   0.180   0.538   8.535 -0.6655  0.3422  0.3042
 9166SOL    HW139131   0.275   0.536   8.534 -0.6954  0.0288 -2.4332
 9166SOL    HW239132   0.173   0.499   8.622  0.5465  1.3124  0.8393
 9167SOL     OW39133   3.145   4.724   4.714  0.0723  0.0519  0.2876
 9167SOL    HW139134   3.070   4.730   4.774 -1.2021 -0.0764 -1.2881
 9167SOL    HW239135   3.144   0.074   4.681 -1.8691 -0.0804 -0.0176
 9168SOL     OW39136   0.021   2.176   3.343  0.3702  0.2743 -0.0211
 9168SOL    HW139137   4.739   2.249   3.286  0.0486 -0.4406 -0.8237
 9168SOL    HW239138   0.064   2.117   3.280  3.0889 -2.1446  4.1268
 9169SOL     OW39139   2.047   0.638   8.578  0.2024 -0.3052 -0.1280
 9169SOL    HW139140   2.136   0.604   8.565  0.9577  1.1717  1.1404
 9169SOL    HW239141   2.043   0.698   8.503  0.2251 -0.0456  0.0758
 9170SOL     OW39142   1.314   3.768   3.023 -0.8319  0.2695  0.2177
 9170SOL    HW139143   1.219   3.778   3.022 -1.0476 -1.8431  0.6325
 9170SOL    HW239144   1.344   3.765   3.113 -1.0141  0.2309  0.2765
 9171SOL     OW39145   0.348   3.920   8.330 -0.6681  0.3820 -0.2909
 9171SOL    HW139146   0.310   3.846   8.377  1.2326 -0.5095 -0.1686
 9171SOL    HW239147   0.335   3.894   8.239  0.1979 -2.6983  0.4494
 9172SOL     OW39148   3.560   1.051   7.404  0.1333  0.0994 -0.3380
 9172SOL    HW139149   3.628   1.004   7.356 -0.5239  0.2766 -1.4274
 9172SOL    HW239150   3.571   1.021   7.495 -1.0540 -0.3059 -0.3285
 9173SOL     OW39151   3.915   1.206   4.776  0.7654  0.2971  0.3457
 9173SOL    HW139152   3.939   1.128   4.726 -2.3583 -0.7733  0.5272
 9173SOL    HW239153   3.879   1.170   4.857 -1.3631  0.4065 -0.5473
 9174SOL     OW39154   0.920   3.784   4.671  0.1365  0.0030 -0.0574
 9174SOL    HW139155   0.918   3.742   4.757 -1.9049 -0.6456 -0.4183
 9174SOL    HW239156   0.906   3.877   4.685  1.9224  0.4056 -0.8675
 9175SOL     OW39157   3.340   3.688   2.373 -0.1123 -0.5122  0.7174
 9175SOL    HW139158   3.267   3.630   2.351 -1.1068  0.0371  2.5458
 9175SOL    HW239159   3.319   3.710   2.464 -0.9128  2.3179 -0.1531
 9176SOL     OW39160   1.623   0.618  15.857 -0.4120  0.0314 -0.1009
 9176SOL    HW139161   1.581   0.686  15.803  1.6434  1.7659  0.4861
 9176SOL    HW239162   1.693   0.580  15.803 -0.6321  2.3136 -2.0279
 9177SOL     OW39163   1.321   4.719   2.590 -0.2145  0.1782 -0.0743
 9177SOL    HW139164   1.300   4.646   2.532 -2.7108 -0.5598  1.7626
 9177SOL    HW239165   1.238   0.026   2.589  0.2529  1.0223  2.5483
 9178SOL     OW39166   2.776   0.215   6.525 -0.2236 -0.1383  0.7088
 9178SOL    HW139167   2.829   0.221   6.445 -0.9093  1.9634  0.4116
 9178SOL    HW239168   2.791   0.307   6.547 -0.9856  0.2033 -0.2127
 9179SOL     OW39169   2.932   0.202   1.340  0.5684 -0.0613 -0.0417
 9179SOL    HW139170   2.929   0.171   1.430  2.6790  1.3262  0.4900
 9179SOL    HW239171   2.863   0.268   1.339  0.8389  0.2435  1.5022
 9180SOL     OW39172   1.147   1.555   4.684 -0.0193  0.6702 -0.2623
 9180SOL    HW139173   1.145   1.583   4.776 -0.2626 -1.2731  0.3373
 9180SOL    HW239174   1.239   1.578   4.670  0.5576 -2.2870 -1.3699
 9181SOL     OW39175   2.086   2.660  14.832  0.0959 -0.5987 -0.3024
 9181SOL    HW139176   2.091   2.747  14.870 -0.4874 -0.1051 -1.3362
 9181SOL    HW239177   1.999   2.667  14.793 -0.6550 -1.5533  1.1930
 9182SOL     OW39178   2.502   3.747   2.408 -0.1307  0.3197 -0.5790
 9182SOL    HW139179   2.480   3.839   2.395  0.3224  0.5664  0.4194
 9182SOL    HW239180   2.560   3.727   2.334  0.3868  0.0692 -0.1029
 9183SOL     OW39181   1.996   0.285  17.050  0.8149  0.1500  0.4115
 9183SOL    HW139182   2.052   0.323  17.117  0.1798  1.7373  0.0382
 9183SOL    HW239183   2.004   0.358  16.988 -0.5766 -1.4572 -1.6962
 9184SOL     OW39184   2.167   2.796   5.125  0.0111 -0.0049 -0.0254
 9184SOL    HW139185   2.231   2.757   5.066 -0.3688 -0.6532 -0.0078
 9184SOL    HW239186   2.088   2.796   5.070 -1.2307  0.7487  1.7270
 9185SOL     OW39187   2.003   4.045   1.988 -0.1722  0.3015 -0.0692
 9185SOL    HW139188   1.936   4.064   1.922  1.1393  2.5545 -0.7282
 9185SOL    HW239189   2.010   3.950   1.992 -1.5698  0.2924  2.7414
 9186SOL     OW39190   0.510   3.028  13.405 -0.1779  0.1248  0.4750
 9186SOL    HW139191   0.450   3.049  13.476 -2.1339 -0.0696 -1.1226
 9186SOL    HW239192   0.495   2.935  13.387 -1.3780  0.1236  1.5312
 9187SOL     OW39193   1.854   4.385  11.953  0.4323 -0.3731  0.0358
 9187SOL    HW139194   1.861   4.291  11.934  0.8040 -0.1706 -0.8462
 9187SOL    HW239195   1.763   4.404  11.933  0.2764 -3.5260 -2.2925
 9188SOL     OW39196   2.997   4.000   8.762 -0.2939  0.2884 -0.4788
 9188SOL    HW139197   2.907   4.006   8.729 -1.6245  3.3604  3.7435
 9188SOL    HW239198   2.977   3.914   8.798 -0.4597  0.5973  0.1761
 9189SOL     OW39199   1.646   0.510   7.089  0.0541  0.5468 -0.0081
 9189SOL    HW139200   1.628   0.416   7.087  1.4371  0.2953 -0.5049
 9189SOL    HW239201   1.655   0.522   6.994 -0.2976  1.1129  0.0297
 9190SOL     OW39202   2.089   4.364   9.563  0.0464 -0.0644 -0.1830
 9190SOL    HW139203   2.159   4.428   9.549 -0.1009 -0.2841 -1.9753
 9190SOL    HW239204   2.143   4.289   9.589 -1.9723 -1.7473 -0.9337
 9191SOL     OW39205   2.109   4.447   3.070  0.4040  0.0215  0.1136
 9191SOL    HW139206   2.179   4.406   3.018 -0.5903 -0.7844 -0.5678
 9191SOL    HW239207   2.092   4.524   3.015 -2.0151  0.2366  1.1793
 9192SOL     OW39208   4.330   0.689   5.620 -0.2098 -0.5591 -0.2217
 9192SOL    HW139209   4.362   0.773   5.651  0.4451 -0.4859 -1.0780
 9192SOL    HW239210   4.264   0.682   5.688 -1.4715  1.5634 -1.2366
 9193SOL     OW39211   3.274   2.350   4.521 -0.0979 -0.1637 -0.5805
 9193SOL    HW139212   3.265   2.265   4.477  0.5750 -0.5961  0.1045
 9193SOL    HW239213   3.363   2.386   4.523 -0.3632  0.5328 -1.4644
 9194SOL     OW39214   1.144   1.744   2.638  0.4847 -0.2798 -0.1915
 9194SOL    HW139215   1.122   1.719   2.548 -3.2770  0.4140  0.5419
 9194SOL    HW239216   1.129   1.658   2.676 -0.2282  0.2238  0.6658
 9195SOL     OW39217   2.371   2.903   9.813 -0.5395  0.7972 -0.6562
 9195SOL    HW139218   2.423   2.872   9.886 -0.3792  0.5278 -0.8851
 9195SOL    HW239219   2.326   2.825   9.781  0.5561 -0.5701  1.1950
 9196SOL     OW39220   0.682   3.007  15.756  0.8569 -0.3486  0.1307
 9196SOL    HW139221   0.676   3.077  15.691 -0.5900  0.1414  0.7975
 9196SOL    HW239222   0.682   3.049  15.842  2.2233  1.8077 -0.9083
 9197SOL     OW39223   2.694   3.309   2.839 -0.5155  0.1486 -0.6270
 9197SOL    HW139224   2.753   3.344   2.905  1.2421 -4.1181  0.0892
 9197SOL    HW239225   2.608   3.342   2.866 -1.7136 -3.0665 -0.4285
 9198SOL     OW39226   0.037   3.946   2.572  0.1791 -0.3112 -0.8794
 9198SOL    HW139227   4.713   3.890   2.615 -0.5251  0.0092 -1.5308
 9198SOL    HW239228   0.113   3.895   2.602  1.1297  2.2952  1.1119
 9199SOL     OW39229   0.097   2.500   5.314 -0.9273 -0.3106  0.0112
 9199SOL    HW139230   0.175   2.451   5.287 -0.0930  1.6396 -1.1204
 9199SOL    HW239231   0.081   2.537   5.228 -1.4399 -1.0321 -0.2006
 9200SOL     OW39232   3.108   1.208   4.463  0.4776 -0.3952  0.4765
 9200SOL    HW139233   3.195   1.232   4.429 -0.3526  2.9693  0.6731
 9200SOL    HW239234   3.133   1.209   4.556 -0.5447  3.4224  0.7130
 9201SOL     OW39235   4.294   4.543   4.825  0.3357 -0.4310  0.0913
 9201SOL    HW139236   4.374   4.505   4.862  0.3268  0.1598  0.7245
 9201SOL    HW239237   4.290   4.623   4.877  2.1017  0.7291 -1.5943
 9202SOL     OW39238   1.611   3.658  16.368 -0.0274 -0.3678 -0.1721
 9202SOL    HW139239   1.663   3.707  16.432 -1.6640  2.3939 -0.9988
 9202SOL    HW239240   1.563   3.604  16.431  0.9582  2.1398  2.7040
 9203SOL     OW39241   0.692   2.732   2.879 -0.2540 -0.1008  0.3233
 9203SOL    HW139242   0.609   2.779   2.874  0.4486  0.9264 -1.8376
 9203SOL    HW239243   0.736   2.778   2.951 -0.9511  1.0401  0.0206
 9204SOL     OW39244   1.779   4.359  15.696  0.3165 -0.1206 -0.4751
 9204SOL    HW139245   1.820   4.445  15.706 -1.1762  0.5194  0.0265
 9204SOL    HW239246   1.714   4.364  15.626 -1.3866  0.0243  1.1300
 9205SOL     OW39247   1.570   0.553   6.392  0.0864  0.0008  0.0432
 9205SOL    HW139248   1.557   0.621   6.326 -0.9656 -1.8744 -1.7130
 9205SOL    HW239249   1.550   0.476   6.337  0.0111  0.1066 -0.0772
 9206SOL     OW39250   0.702   1.928   6.630  0.1296 -0.2574  0.1320
 9206SOL    HW139251   0.657   2.007   6.661  0.6621  0.0248  0.1855
 9206SOL    HW239252   0.766   1.970   6.573 -0.1113  1.6541  1.2741
 9207SOL     OW39253   1.079   2.838   2.932  0.0773 -0.0587  0.5608
 9207SOL    HW139254   1.132   2.901   2.982 -0.0555  2.0290 -1.8961
 9207SOL    HW239255   0.993   2.852   2.971 -2.1604  0.6037 -4.5838
 9208SOL     OW39256   3.726   0.445  17.191 -0.4024 -0.4912 -0.2765
 9208SOL    HW139257   3.704   0.414  17.279  0.7648  0.2325  0.2867
 9208SOL    HW239258   3.783   0.378  17.153 -0.6826 -1.1870  0.5293
 9209SOL     OW39259   3.292   1.109   1.071 -0.0521 -0.1292 -0.0635
 9209SOL    HW139260   3.229   1.041   1.094  0.6346 -0.4254  0.9245
 9209SOL    HW239261   3.373   1.078   1.112  0.0209  1.5123  1.0520
 9210SOL     OW39262   1.332   2.251   5.651 -0.7334  0.0009  0.3482
 9210SOL    HW139263   1.319   2.338   5.614  1.8849  0.8267  1.3599
 9210SOL    HW239264   1.242   2.222   5.670  0.1026 -3.0902 -0.4670
 9211SOL     OW39265   0.616   1.762  16.516 -0.0153  0.5226 -0.7738
 9211SOL    HW139266   0.577   1.805  16.592  0.2065  2.2439 -1.6415
 9211SOL    HW239267   0.598   1.822  16.443 -2.4920  0.9910  0.2326
 9212SOL     OW39268   2.451   3.085   3.892 -0.3220  0.5176  0.2436
 9212SOL    HW139269   2.470   3.083   3.986  0.2903 -1.6651  0.0866
 9212SOL    HW239270   2.362   3.051   3.898  0.3905 -0.9752  2.2381
 9213SOL     OW39271   2.272   0.428   6.602 -0.0702 -0.1697 -0.1936
 9213SOL    HW139272   2.295   0.368   6.531  2.9695  0.2000  0.4901
 9213SOL    HW239273   2.177   0.418   6.601 -0.2035  1.0090  1.0455
 9214SOL     OW39274   2.102   1.951   7.743  0.0231 -0.1874 -0.5920
 9214SOL    HW139275   2.131   2.038   7.773 -1.5020  0.2450 -0.3483
 9214SOL    HW239276   2.161   1.886   7.781 -0.8855 -0.9079 -0.4145
 9215SOL     OW39277   1.683   3.279   5.086  0.7221 -0.0064 -0.1340
 9215SOL    HW139278   1.651   3.368   5.105  0.8876  0.0048  0.0932
 9215SOL    HW239279   1.616   3.250   5.024  2.7483 -0.0924 -2.2789
 9216SOL     OW39280   3.863   1.262   0.102  0.0168 -0.0767  0.4171
 9216SOL    HW139281   3.819   1.179   0.084 -0.8303  0.4054  0.3017
 9216SOL    HW239282   3.824   1.328   0.045 -1.3398 -1.7544 -0.6083
 9217SOL     OW39283   2.224   3.970   7.400 -0.5343 -0.1087 -0.5331
 9217SOL    HW139284   2.134   4.003   7.397 -0.1982  0.7630 -0.9006
 9217SOL    HW239285   2.213   3.881   7.435  3.1642 -0.1573  0.5372
 9218SOL     OW39286   4.627   0.538   5.051 -0.3624 -0.1043  0.8485
 9218SOL    HW139287   4.628   0.463   5.110 -1.5234  1.7070  3.1993
 9218SOL    HW239288   4.668   0.597   5.114 -0.5569  1.1050 -0.1383
 9219SOL     OW39289   0.924   1.945   2.902 -0.0271 -0.3383 -0.0994
 9219SOL    HW139290   0.941   2.030   2.863 -1.6158 -0.5022 -1.1722
 9219SOL    HW239291   1.007   1.899   2.904 -0.6137 -1.3791  0.4425
 9220SOL     OW39292   4.714   4.531  16.838  0.2610  0.3891  0.2709
 9220SOL    HW139293   0.058   4.496  16.807 -1.2429 -0.2418 -3.1359
 9220SOL    HW239294   4.717   4.526  16.933  1.4687  2.3547  0.3472
 9221SOL     OW39295   3.255   4.637  13.055  0.3061  0.2980 -0.3643
 9221SOL    HW139296   3.336   4.634  13.003  1.3671  1.1614  1.2420
 9221SOL    HW239297   3.198   4.676  12.988  2.0853  0.4574 -1.7963
 9222SOL     OW39298   2.768   3.333   4.176 -0.5402 -0.2884 -0.0059
 9222SOL    HW139299   2.795   3.423   4.194 -3.0531  0.0119  2.2033
 9222SOL    HW239300   2.839   3.278   4.207 -0.0272  1.0147  1.1077
 9223SOL     OW39301   2.452   3.942  11.580  0.8136  0.7830  0.1949
 9223SOL    HW139302   2.460   3.852  11.611 -1.4546  0.0301 -1.4326
 9223SOL    HW239303   2.511   3.930  11.505 -0.6717  2.0048 -1.1829
 9224SOL     OW39304   4.122   2.557   3.247 -0.3316 -0.2615 -0.6134
 9224SOL    HW139305   4.194   2.613   3.220  0.5226 -2.0369 -1.9509
 9224SOL    HW239306   4.082   2.543   3.161  0.5926  1.5750 -1.3459
 9225SOL     OW39307   0.880   2.871   5.909  0.0087 -0.0105 -0.0114
 9225SOL    HW139308   0.889   2.894   6.002  0.2389  0.6135 -0.1833
 9225SOL    HW239309   0.862   2.960   5.879  0.7931 -0.7239 -2.5721
 9226SOL     OW39310   2.210   4.158   4.957 -0.5279 -0.0177  0.2764
 9226SOL    HW139311   2.247   4.246   4.952 -0.8069  0.0788 -0.0930
 9226SOL    HW239312   2.178   4.153   5.047  0.9550 -1.9251  0.7075
 9227SOL     OW39313   2.753   4.211   7.818  0.6732  0.1401 -0.0984
 9227SOL    HW139314   2.762   4.197   7.912  0.5313  2.3347  0.2420
 9227SOL    HW239315   2.786   4.129   7.781 -0.4135  0.3227 -1.4524
 9228SOL     OW39316   1.023   1.366  13.891 -0.0430 -0.7127  0.3362
 9228SOL    HW139317   1.095   1.374  13.828 -0.1724 -0.2063  0.2533
 9228SOL    HW239318   1.021   1.272  13.905 -0.2469 -0.7223  0.2484
 9229SOL     OW39319   4.067   4.105   7.042 -0.1849 -0.3391  0.4214
 9229SOL    HW139320   4.139   4.044   7.030 -1.2141 -1.1319 -1.7758
 9229SOL    HW239321   3.997   4.041   7.053  0.2501 -0.6180  1.4827
 9230SOL     OW39322   1.827   0.645   4.548  0.4186  0.4048 -0.2192
 9230SOL    HW139323   1.917   0.630   4.521 -0.1530  3.0102 -3.5497
 9230SOL    HW239324   1.779   0.585   4.491 -2.0737  0.1341  2.1648
 9231SOL     OW39325   1.323   3.770  16.489  0.4392 -0.1339  0.3792
 9231SOL    HW139326   1.312   3.745  16.398 -1.2431  1.7830  0.0623
 9231SOL    HW239327   1.244   3.822  16.504 -0.6423 -1.8071  0.5040
 9232SOL     OW39328   1.572   0.990  11.907 -0.0224  0.4133  0.5823
 9232SOL    HW139329   1.512   1.046  11.858  1.0785  1.7745  0.7762
 9232SOL    HW239330   1.515   0.914  11.916 -1.6362  1.8134  2.2457
 9233SOL     OW39331   4.260   4.129   6.577 -0.1683  0.0826 -0.1082
 9233SOL    HW139332   4.338   4.081   6.605 -0.1025  0.8213  0.9720
 9233SOL    HW239333   4.250   4.108   6.484  1.8959  0.5409 -0.4329
 9234SOL     OW39334   1.191   1.838   6.392  0.2812  0.4219 -0.3638
 9234SOL    HW139335   1.264   1.838   6.331 -0.8760  0.8090 -1.7514
 9234SOL    HW239336   1.242   1.836   6.473 -0.4398 -0.2011  0.0658
 9235SOL     OW39337   2.722   1.888  14.120 -0.4897 -0.2709  0.2398
 9235SOL    HW139338   2.653   1.907  14.183 -1.6614  0.9233 -1.3789
 9235SOL    HW239339   2.680   1.903  14.035  1.0901  0.0659 -0.4802
 9236SOL     OW39340   0.923   3.003   0.055 -0.7585  0.6791  0.6794
 9236SOL    HW139341   0.912   2.959   0.140  0.5462 -0.8614  0.0467
 9236SOL    HW239342   0.898   2.939  17.747  0.7552 -1.2728  1.9816
 9237SOL     OW39343   0.640   0.214   2.243 -0.3432  0.0014  0.1803
 9237SOL    HW139344   0.708   0.158   2.205 -0.4250  0.5831 -0.7961
 9237SOL    HW239345   0.584   0.149   2.285 -0.6187  0.1216 -0.0043
 9238SOL     OW39346   3.071   0.334  16.131 -0.3825  0.1424  0.2426
 9238SOL    HW139347   3.068   0.384  16.213 -0.5041 -0.8797  0.8549
 9238SOL    HW239348   3.011   0.261  16.143 -0.7486  0.1227 -1.7187
 9239SOL     OW39349   1.537   3.655   2.147 -0.0027 -0.3714 -0.5813
 9239SOL    HW139350   1.599   3.670   2.218 -0.9617 -2.0442  0.6035
 9239SOL    HW239351   1.576   3.576   2.110  1.0036  0.2988 -0.9673
 9240SOL     OW39352   1.042   4.654   2.904 -0.4367 -0.0966  0.0748
 9240SOL    HW139353   1.107   4.706   2.951 -0.5063  2.8090 -3.0536
 9240SOL    HW239354   0.961   4.685   2.944  0.4144  2.0652  0.1394
 9241SOL     OW39355   1.851   2.073  17.071 -0.0419  0.6208 -0.2029
 9241SOL    HW139356   1.893   2.149  17.111 -0.3411 -0.0522  1.3595
 9241SOL    HW239357   1.771   2.117  17.041 -1.4094 -0.1576  2.3147
 9242SOL     OW39358   4.257   1.781  11.291 -0.1270  0.1482 -0.4843
 9242SOL    HW139359   4.179   1.823  11.326  0.0888  0.7457 -0.7014
 9242SOL    HW239360   4.300   1.770  11.376  0.8701 -1.9702 -1.2638
 9243SOL     OW39361   1.674   1.274   8.229  0.2709 -0.2468 -0.5801
 9243SOL    HW139362   1.666   1.260   8.134  2.7053 -0.4853 -0.7591
 9243SOL    HW239363   1.695   1.367   8.235 -3.2302  0.6708 -2.3663
 9244SOL     OW39364   0.315   0.870   3.964 -0.2369 -0.0615  0.4056
 9244SOL    HW139365   0.350   0.781   3.956 -2.3438 -1.0803  2.3882
 9244SOL    HW239366   0.266   0.838   4.040  0.5421 -1.5897  0.2695
 9245SOL     OW39367   4.515   3.930   7.562 -0.1927  0.2166 -0.0104
 9245SOL    HW139368   4.422   3.908   7.552  0.0227 -0.0452 -1.4354
 9245SOL    HW239369   4.557   3.849   7.532 -1.7552 -0.4667 -0.3689
 9246SOL     OW39370   3.979   0.630  11.211  0.4031  0.2744  0.2681
 9246SOL    HW139371   3.932   0.579  11.277 -3.2108  2.5374 -0.5547
 9246SOL    HW239372   4.015   0.555  11.164  0.3810  1.9344 -2.3504
 9247SOL     OW39373   2.119   3.749   9.660 -0.1238  0.1809 -0.2626
 9247SOL    HW139374   2.211   3.741   9.637  0.2026 -1.4953  1.6272
 9247SOL    HW239375   2.119   3.755   9.755  2.3794 -0.5480 -0.2330
 9248SOL     OW39376   2.228   0.881   5.474  0.3750  0.0186  0.5897
 9248SOL    HW139377   2.252   0.919   5.389  1.2081  0.1289  0.8709
 9248SOL    HW239378   2.275   0.798   5.465 -1.0687 -0.4883 -2.3159
 9249SOL     OW39379   4.065   0.701   6.925  0.1831  0.4717  0.4381
 9249SOL    HW139380   4.040   0.666   6.840  2.3974  0.0578 -0.0516
 9249SOL    HW239381   4.160   0.690   6.916  0.4882  0.8462  3.0776
 9250SOL     OW39382   3.660   2.416  11.338  0.1566 -0.2223 -0.2682
 9250SOL    HW139383   3.754   2.400  11.334  0.4484  1.0723  1.2100
 9250SOL    HW239384   3.638   2.344  11.397  0.4055 -2.6615 -3.1705
 9251SOL     OW39385   3.380   3.367  11.519  0.0933 -0.2824 -0.9707
 9251SOL    HW139386   3.466   3.376  11.479  0.3295 -0.5054 -0.5107
 9251SOL    HW239387   3.383   3.456  11.555 -0.6819 -0.4342 -0.5259
 9252SOL     OW39388   3.857   3.491   4.579 -0.1060  0.1016  0.1469
 9252SOL    HW139389   3.814   3.466   4.661 -0.4797 -2.9402 -0.9763
 9252SOL    HW239390   3.803   3.434   4.524 -2.6429  1.4304  1.2882
 9253SOL     OW39391   2.832   3.641   3.018  0.0589 -0.5673 -0.2543
 9253SOL    HW139392   2.878   3.713   3.061  2.3251 -0.7927 -2.3222
 9253SOL    HW239393   2.905   3.599   2.973  0.3704 -1.0088  0.6534
 9254SOL     OW39394   0.081   2.630   8.129 -0.5077  0.4063 -0.2090
 9254SOL    HW139395   0.059   2.548   8.174 -2.6832  2.1946  2.0598
 9254SOL    HW239396   4.739   2.661   8.091 -1.5510 -0.8720  0.9808
 9255SOL     OW39397   1.253   4.234   7.118 -0.2883 -0.2056 -0.1649
 9255SOL    HW139398   1.163   4.262   7.101  0.5953  1.6762 -1.8445
 9255SOL    HW239399   1.282   4.209   7.031  0.3143 -1.6572  0.4600
 9256SOL     OW39400   0.019   3.991  12.769 -0.3569  0.7489  0.5274
 9256SOL    HW139401   4.732   3.912  12.815  1.0066 -1.0814 -1.8077
 9256SOL    HW239402   0.013   4.067  12.828  0.5729  2.8634 -2.0782
 9257SOL     OW39403   2.998   2.368  10.014  0.6746 -0.6389 -0.4526
 9257SOL    HW139404   2.939   2.296  10.038 -1.9422  1.6868  0.0818
 9257SOL    HW239405   3.038   2.344   9.931  1.5788  1.4443 -0.6221
 9258SOL     OW39406   2.616   1.750   2.025 -0.3311 -0.2958 -0.8596
 9258SOL    HW139407   2.699   1.756   1.978  0.1222 -0.8258 -0.1292
 9258SOL    HW239408   2.642   1.730   2.115 -0.9115 -0.0175 -0.6276
 9259SOL     OW39409   4.125   2.847  16.400  0.0634 -0.1600 -0.0355
 9259SOL    HW139410   4.049   2.905  16.393 -0.5839 -0.6805  2.4722
 9259SOL    HW239411   4.117   2.799  16.483  3.1049 -0.9874 -0.2129
 9260SOL     OW39412   0.055   0.924   6.896 -0.6373 -0.4211 -0.6164
 9260SOL    HW139413   0.092   0.995   6.843  0.4141  1.6341  2.8473
 9260SOL    HW239414   4.729   0.970   6.948 -0.1177 -1.2589  0.7934
 9261SOL     OW39415   0.678   4.389   9.311 -0.0336 -0.0136 -0.2825
 9261SOL    HW139416   0.638   4.444   9.378  1.1132  1.1874 -0.5969
 9261SOL    HW239417   0.602   4.366   9.257  0.4577 -1.5658 -0.3034
 9262SOL     OW39418   3.940   3.530   9.635  0.3144 -0.4426  0.4108
 9262SOL    HW139419   4.026   3.556   9.603 -1.4583  2.4326 -2.1242
 9262SOL    HW239420   3.893   3.613   9.646 -0.3031 -0.5835 -1.1342
 9263SOL     OW39421   4.684   3.926  10.837 -0.1487 -0.2173 -0.5295
 9263SOL    HW139422   0.022   3.881  10.805  0.3900  0.7325 -0.5541
 9263SOL    HW239423   4.720   3.958  10.920  0.4425 -0.4299 -0.7018
 9264SOL     OW39424   3.363   2.622   5.452  0.0996  0.2425  0.3365
 9264SOL    HW139425   3.288   2.565   5.468  1.8666 -2.2618 -0.3214
 9264SOL    HW239426   3.389   2.643   5.542  2.8979  2.1457 -0.8943
 9265SOL     OW39427   2.547   0.571  15.855 -0.3296 -0.6486  0.0065
 9265SOL    HW139428   2.545   0.489  15.905 -0.1008  0.4056  1.7265
 9265SOL    HW239429   2.628   0.610  15.888 -1.0812  0.6843  0.2636
 9266SOL     OW39430   1.975   2.846  11.833  0.4422 -0.0752 -1.0736
 9266SOL    HW139431   1.943   2.775  11.889  2.7067 -0.3967 -0.2087
 9266SOL    HW239432   1.935   2.918  11.883 -0.8421 -1.7392  0.3152
 9267SOL     OW39433   1.759   0.061   6.919 -0.2624  0.3268  0.1761
 9267SOL    HW139434   1.736   0.145   6.958  0.4366  0.0866  1.1152
 9267SOL    HW239435   1.744   0.009   6.998  2.2592  1.2498  1.2681
 9268SOL     OW39436   1.301   4.367   9.576 -0.0245  0.0293  0.2935
 9268SOL    HW139437   1.245   4.301   9.618  0.9913 -0.7866  0.3527
 9268SOL    HW239438   1.232   4.433   9.562 -2.7055 -2.6752  0.7240
 9269SOL     OW39439   3.820   3.364   2.937  0.0094 -0.0350 -0.4885
 9269SOL    HW139440   3.895   3.409   2.975  1.1534 -0.2230 -2.5178
 9269SOL    HW239441   3.748   3.377   2.999  1.3322  2.1380  0.5783
 9270SOL     OW39442   2.799   4.246   4.140  0.5204  0.2113  0.3119
 9270SOL    HW139443   2.737   4.244   4.067 -0.6440  0.4638  1.3008
 9270SOL    HW239444   2.761   4.312   4.197  0.9677  0.9598 -0.2566
 9271SOL     OW39445   1.260   4.204   3.351 -0.0322 -0.2743  0.2010
 9271SOL    HW139446   1.216   4.132   3.305  0.5574 -1.5788  1.6773
 9271SOL    HW239447   1.266   4.268   3.280  0.7503  0.5535  1.0108
 9272SOL     OW39448   3.685   1.390   9.129  0.0314  0.3674 -0.5945
 9272SOL    HW139449   3.701   1.404   9.223  3.1536  2.4314 -1.4320
 9272SOL    HW239450   3.689   1.294   9.135 -2.0353  0.2172 -1.8249
 9273SOL     OW39451   4.567   4.689  16.703 -0.4412 -0.4149 -0.3998
 9273SOL    HW139452   4.615   4.688  16.621 -0.2971 -0.6421 -0.3128
 9273SOL    HW239453   4.626   4.635  16.756 -1.0218  0.1021  0.7890
 9274SOL     OW39454   4.677   2.931   8.978 -0.2273  0.1567  0.0444
 9274SOL    HW139455   4.642   2.845   8.954 -1.2789  0.3763  0.7996
 9274SOL    HW239456   4.734   2.898   9.049 -1.1476 -1.7838 -0.1289
 9275SOL     OW39457   0.933   1.834   7.238 -0.2088  0.1302  0.0311
 9275SOL    HW139458   0.937   1.741   7.215  0.0962  0.7393 -2.3455
 9275SOL    HW239459   0.993   1.832   7.313  1.4946  0.3373 -1.3378
 9276SOL     OW39460   3.028   0.397   7.978 -0.4878  0.1863 -0.0543
 9276SOL    HW139461   3.100   0.445   7.938  0.0469  0.9294  1.7869
 9276SOL    HW239462   3.032   0.396   8.074 -1.3653  1.0737 -0.0077
 9277SOL     OW39463   1.680   0.204  12.272  0.4267 -0.4876  0.0539
 9277SOL    HW139464   1.766   0.234  12.300  1.1563 -1.1248 -1.4778
 9277SOL    HW239465   1.624   0.205  12.350 -0.6708 -2.1452 -0.7090
 9278SOL     OW39466   2.084   2.488   3.479 -0.4847  0.5063 -0.4791
 9278SOL    HW139467   2.049   2.550   3.415  1.7757  0.1213 -2.0866
 9278SOL    HW239468   2.007   2.432   3.491 -0.1718 -0.0325 -0.9434
 9279SOL     OW39469   3.328   1.701   3.008 -0.3175 -0.0340 -0.0181
 9279SOL    HW139470   3.422   1.717   3.014 -0.1695 -1.0113  0.2235
 9279SOL    HW239471   3.315   1.622   3.060  0.4670  0.9548  1.7008
 9280SOL     OW39472   3.031   2.873   2.495  0.0294  0.8886 -0.2371
 9280SOL    HW139473   2.999   2.865   2.406 -0.8895  1.1963  0.0664
 9280SOL    HW239474   3.016   2.966   2.508  2.1086  1.3899 -1.4374
 9281SOL     OW39475   2.952   2.918   1.074  0.5731 -0.5432  0.0365
 9281SOL    HW139476   2.909   2.849   1.024 -0.0069  0.7766 -1.2884
 9281SOL    HW239477   3.042   2.893   1.051  0.4322 -1.4678  0.4930
 9282SOL     OW39478   2.431   2.288   3.786  0.6434 -0.1736  0.1157
 9282SOL    HW139479   2.355   2.286   3.728  1.3117  0.8661 -0.7994
 9282SOL    HW239480   2.388   2.275   3.870  0.2671  2.7313  0.3656
 9283SOL     OW39481   1.052   3.962  12.153  0.0241 -0.0211  0.1899
 9283SOL    HW139482   1.096   4.007  12.225  1.2876 -0.8608 -0.0573
 9283SOL    HW239483   1.131   3.931  12.109  1.3897  1.5503  1.5283
 9284SOL     OW39484   3.610   1.703  12.015 -0.0172 -0.3864 -0.3310
 9284SOL    HW139485   3.594   1.784  12.063 -2.5196 -0.6198 -0.7868
 9284SOL    HW239486   3.542   1.648  12.054 -0.7652 -0.1034 -1.2360
 9285SOL     OW39487   0.291   1.794   3.115 -0.2747 -0.0408 -1.0078
 9285SOL    HW139488   0.359   1.827   3.173  1.1741  0.7227 -3.1330
 9285SOL    HW239489   0.271   1.705   3.145  1.0411  0.4132  1.2248
 9286SOL     OW39490   2.121   1.028   9.700  0.2282  0.2099  0.1143
 9286SOL    HW139491   2.152   0.953   9.650 -1.9019 -0.9125  0.4553
 9286SOL    HW239492   2.196   1.037   9.758  0.5202 -1.5407  0.0208
 9287SOL     OW39493   2.798   3.523   2.122 -0.1078  0.3971 -0.5524
 9287SOL    HW139494   2.871   3.493   2.068 -1.7928 -0.1006 -2.5425
 9287SOL    HW239495   2.722   3.506   2.066  1.8936  0.0430 -3.1184
 9288SOL     OW39496   0.827   0.408   5.054  0.1121  0.0628 -0.0787
 9288SOL    HW139497   0.761   0.377   4.992 -0.3740  0.6814  0.1303
 9288SOL    HW239498   0.773   0.431   5.129  1.6947 -0.1215  1.0999
 9289SOL     OW39499   3.910   3.334  13.847  0.5094  0.0684 -0.0187
 9289SOL    HW139500   3.921   3.248  13.805 -1.2374 -1.3456  2.3735
 9289SOL    HW239501   3.844   3.375  13.791 -1.6174  0.7341  2.9712
 9290SOL     OW39502   1.496   3.578  16.582  0.6863  0.1689  0.2266
 9290SOL    HW139503   1.494   3.535  16.668 -1.3558  0.2363  0.1997
 9290SOL    HW239504   1.444   3.658  16.596  0.4110  0.3683 -2.0160
 9291SOL     OW39505   1.643   2.390   2.064 -0.3240 -0.2530 -1.1478
 9291SOL    HW139506   1.723   2.348   2.034  0.3298 -0.0754  0.3909
 9291SOL    HW239507   1.640   2.385   2.159  0.8384 -0.7177 -1.1350
 9292SOL     OW39508   3.728   2.204  17.395 -0.2766 -0.1663 -0.2438
 9292SOL    HW139509   3.784   2.282  17.398  1.4888 -1.4363 -0.0421
 9292SOL    HW239510   3.791   2.142  17.359  2.1061  0.3899  2.9337
 9293SOL     OW39511   1.714   4.392   8.171 -0.8521 -0.3469 -0.5504
 9293SOL    HW139512   1.782   4.452   8.140  0.1880 -1.1478  0.2151
 9293SOL    HW239513   1.656   4.397   8.095 -0.0171 -2.5551 -1.3257
 9294SOL     OW39514   2.804   0.409   7.829 -0.2671  0.3160 -0.0070
 9294SOL    HW139515   2.865   0.378   7.896 -2.6555 -1.8297  1.1827
 9294SOL    HW239516   2.807   0.500   7.860  0.4160  0.0027  0.8333
 9295SOL     OW39517   3.979   2.986   8.086  0.0094 -0.1752  0.4764
 9295SOL    HW139518   3.983   2.897   8.121  2.3073  0.3914  1.5846
 9295SOL    HW239519   3.904   3.015   8.139 -0.0652  1.6777 -0.6370
 9296SOL     OW39520   0.268   4.142   5.033 -0.3754  0.6477  0.2920
 9296SOL    HW139521   0.341   4.185   4.988  0.5755 -2.0290 -0.7354
 9296SOL    HW239522   0.303   4.073   5.089 -0.9881  0.7040  0.7472
 9297SOL     OW39523   1.082   1.528   8.074  0.4668 -0.4461  0.2590
 9297SOL    HW139524   1.162   1.574   8.098 -0.9621  0.1846  3.7219
 9297SOL    HW239525   1.110   1.440   8.048  0.7154  0.2337 -1.8101
 9298SOL     OW39526   3.290   2.562   7.489  0.3894  0.3096  0.1234
 9298SOL    HW139527   3.384   2.577   7.479  0.1902 -0.0851 -2.1623
 9298SOL    HW239528   3.273   2.474   7.523 -1.6335 -0.3796 -2.7792
 9299SOL     OW39529   3.085   3.058   3.484  0.5507 -0.0047  0.1207
 9299SOL    HW139530   3.012   3.002   3.456  0.9590  0.2962 -1.5767
 9299SOL    HW239531   3.083   3.117   3.409  1.8801  0.5987  0.5521
 9300SOL     OW39532   0.096   4.670   8.090  0.1294 -0.4687 -0.2341
 9300SOL    HW139533   0.174   4.636   8.134  0.3514 -1.3434 -1.2966
 9300SOL    HW239534   0.031   4.699   8.153 -1.5281  0.0778 -2.2098
 9301SOL     OW39535   3.418   0.038  16.219 -1.2577 -0.0758  0.0198
 9301SOL    HW139536   3.443   4.700  16.268  0.2067  1.1715  1.2627
 9301SOL    HW239537   3.382   0.008  16.136  0.0306 -0.7615 -0.2847
 9302SOL     OW39538   2.270   4.511  11.898 -0.3046 -1.2889 -0.2328
 9302SOL    HW139539   2.349   4.461  11.922 -1.1398 -0.8181  3.3609
 9302SOL    HW239540   2.202   4.485  11.959 -1.0202 -0.1701 -0.5659
 9303SOL     OW39541   1.094   0.185   2.546 -0.6861 -0.2138 -0.1228
 9303SOL    HW139542   1.008   0.205   2.581 -0.1181  0.6974  0.7715
 9303SOL    HW239543   1.127   0.275   2.535 -0.7472  0.0912  2.0579
 9304SOL     OW39544   2.673   4.423  13.076 -0.1458  0.4078  0.2691
 9304SOL    HW139545   2.723   4.346  13.047  1.8993  1.8172  0.0458
 9304SOL    HW239546   2.729   4.491  13.039 -0.7255 -0.7350 -2.6962
 9305SOL     OW39547   0.464   2.548   3.662  0.4607 -0.5734  0.7631
 9305SOL    HW139548   0.469   2.467   3.612 -0.2673  0.1178 -0.4172
 9305SOL    HW239549   0.369   2.559   3.669  0.5111  0.8594 -0.8628
 9306SOL     OW39550   4.388   3.105   3.077  0.9317  0.2352  0.0622
 9306SOL    HW139551   4.319   3.073   3.019  1.2670 -0.2028 -0.0912
 9306SOL    HW239552   4.463   3.087   3.020  2.4649  0.7854  1.8790
 9307SOL     OW39553   3.670   0.546   5.610  0.3093  0.1885  0.2912
 9307SOL    HW139554   3.706   0.550   5.521  0.0024 -0.1569  0.1479
 9307SOL    HW239555   3.674   0.452   5.628 -0.8337  0.2252  0.7719
 9308SOL     OW39556   1.423   2.544   4.346 -0.1227  0.1133  0.5015
 9308SOL    HW139557   1.371   2.589   4.413 -0.7294  0.4251 -0.1746
 9308SOL    HW239558   1.367   2.467   4.332 -0.8560  0.8354 -0.5655
 9309SOL     OW39559   4.141   2.265   8.197 -0.5021  0.3219 -0.1188
 9309SOL    HW139560   4.083   2.196   8.165 -0.5457 -0.4259  1.5964
 9309SOL    HW239561   4.227   2.227   8.214  0.1605  1.3801 -1.1292
 9310SOL     OW39562   1.780   3.584   8.984 -0.1790 -0.2008  0.1029
 9310SOL    HW139563   1.825   3.516   9.034  1.8837  0.1598 -1.2824
 9310SOL    HW239564   1.707   3.539   8.941  0.9676 -1.4429 -0.5668
 9311SOL     OW39565   1.114   2.992  16.371  0.7945 -0.1682 -0.4215
 9311SOL    HW139566   1.066   3.038  16.303  0.3958 -2.6429 -1.8066
 9311SOL    HW239567   1.036   2.961  16.418  1.3976 -0.6687  0.2616
 9312SOL     OW39568   3.058   4.007   5.982  0.3734  0.4366 -0.7260
 9312SOL    HW139569   3.119   4.078   6.003  1.5477 -1.5663  2.6840
 9312SOL    HW239570   3.112   3.928   5.995 -0.4470  0.2741  1.6294
 9313SOL     OW39571   2.885   4.123  15.076 -0.0350 -0.0157  0.5490
 9313SOL    HW139572   2.826   4.077  15.136 -1.2917 -1.5725 -1.9032
 9313SOL    HW239573   2.821   4.174  15.027  0.3312  0.7603  0.8796
 9314SOL     OW39574   4.574   1.019   3.425 -0.4732  0.2145  0.2723
 9314SOL    HW139575   4.500   0.998   3.368 -1.0224 -0.7419  1.3606
 9314SOL    HW239576   4.566   1.111   3.449 -3.6680 -0.3387  1.3135
 9315SOL     OW39577   4.716   3.604   4.105 -0.4411  0.2706 -0.8126
 9315SOL    HW139578   0.028   3.602   4.025  1.7150  1.8913  0.5692
 9315SOL    HW239579   0.031   3.667   4.151 -1.9197  0.4468  0.7463
 9316SOL     OW39580   2.813   1.107   0.525 -0.1883  0.1541  0.1561
 9316SOL    HW139581   2.794   1.014   0.537 -0.9583  0.2437 -0.3392
 9316SOL    HW239582   2.810   1.120   0.619  1.7516  1.5853  0.0124
 9317SOL     OW39583   2.824   0.802   5.683 -0.8349  0.5805 -0.5358
 9317SOL    HW139584   2.881   0.868   5.723  0.9968 -0.1097 -1.9894
 9317SOL    HW239585   2.881   0.734   5.719 -2.0946 -1.6709 -2.7575
 9318SOL     OW39586   1.449   2.224  10.638  0.6186 -0.1639  0.3288
 9318SOL    HW139587   1.358   2.214  10.666  1.2457 -2.8915  1.2669
 9318SOL    HW239588   1.464   2.306  10.686  1.1610 -0.1757  0.1719
 9319SOL     OW39589   0.523   0.487   0.074  0.3096  0.3561  0.0594
 9319SOL    HW139590   0.580   0.560   0.096 -2.0202  1.5044  2.2855
 9319SOL    HW239591   0.577   0.417   0.039  1.0552  1.3308 -0.7401
 9320SOL     OW39592   0.564   2.739  16.872  0.0556 -0.4526 -0.0591
 9320SOL    HW139593   0.513   2.790  16.934 -1.3188 -0.5806 -1.0891
 9320SOL    HW239594   0.629   2.805  16.849  0.0843 -0.6390 -0.5188
 9321SOL     OW39595   3.953   0.341   7.332 -0.1735  0.2431  0.4870
 9321SOL    HW139596   3.949   0.365   7.425  2.3061  1.5053  0.2773
 9321SOL    HW239597   3.908   0.257   7.338  3.1081 -1.6375 -1.0932
 9322SOL     OW39598   4.146   4.377   9.141  0.0123 -0.1423 -0.1755
 9322SOL    HW139599   4.115   4.448   9.085 -1.7725  1.3594  2.6999
 9322SOL    HW239600   4.151   4.310   9.072  1.3216  1.4576 -1.6043
 9323SOL     OW39601   2.850   2.012   8.786  0.3249 -0.3279 -0.4310
 9323SOL    HW139602   2.794   1.966   8.848  0.4146  1.5657  1.0576
 9323SOL    HW239603   2.866   2.092   8.836 -1.2660  0.1265 -0.6412
 9324SOL     OW39604   4.634   2.131  14.183  0.7090  0.1845 -0.1635
 9324SOL    HW139605   4.626   2.140  14.088 -1.2995  0.0201 -0.0073
 9324SOL    HW239606   4.540   2.127  14.201  0.7055 -0.7657 -0.3429
 9325SOL     OW39607   0.486   2.059   4.208  0.2917  0.2375 -0.0022
 9325SOL    HW139608   0.397   2.052   4.243 -0.0298 -1.7491 -1.2107
 9325SOL    HW239609   0.461   2.099   4.124 -1.9121  3.3171  2.0892
 9326SOL     OW39610   2.584   0.182   3.947  0.4507  0.4170 -0.1130
 9326SOL    HW139611   2.653   0.245   3.925  0.2709  0.7585  0.2984
 9326SOL    HW239612   2.524   0.244   3.989 -1.5690 -2.3778  1.1409
 9327SOL     OW39613   0.768   3.283   0.341  0.1411  0.4791 -0.4307
 9327SOL    HW139614   0.822   3.335   0.400 -1.0486 -0.1005  1.2065
 9327SOL    HW239615   0.698   3.349   0.338  2.0299  2.4484 -0.6488
 9328SOL     OW39616   4.624   2.394   9.153  0.2719 -0.3385  0.1000
 9328SOL    HW139617   4.719   2.394   9.147  0.1487 -1.3149 -1.8956
 9328SOL    HW239618   4.617   2.442   9.235 -1.2713  2.7870 -1.8696
 9329SOL     OW39619   0.921   3.103   5.141  0.3695  0.4686 -0.7371
 9329SOL    HW139620   0.925   3.132   5.232  0.0097  0.0534 -0.5899
 9329SOL    HW239621   0.935   3.188   5.100  0.3316 -0.6939 -3.1863
 9330SOL     OW39622   3.501   4.001   6.600  0.3880  0.3991 -0.3518
 9330SOL    HW139623   3.439   4.060   6.642  2.0227 -0.3316  3.0358
 9330SOL    HW239624   3.557   4.061   6.552  0.6435 -0.7128 -1.4625
 9331SOL     OW39625   3.072   0.859   7.092 -0.1186 -0.3129 -0.1088
 9331SOL    HW139626   3.091   0.939   7.043 -1.2909  0.1509  0.2063
 9331SOL    HW239627   3.018   0.889   7.165 -2.9411 -1.9216 -1.5299
 9332SOL     OW39628   1.258   2.687   1.680 -0.0885  0.2410  0.1432
 9332SOL    HW139629   1.248   2.737   1.760 -1.6012 -1.3141  0.9372
 9332SOL    HW239630   1.165   2.673   1.660  0.1057  1.8209 -1.8443
 9333SOL     OW39631   0.425   3.484   9.795 -0.0912 -0.5642  0.3753
 9333SOL    HW139632   0.438   3.506   9.887 -1.6705 -1.3851  0.7841
 9333SOL    HW239633   0.446   3.391   9.798 -0.1532 -0.5834  0.1942
 9334SOL     OW39634   4.597   4.440   3.762 -0.3085  0.1496  0.7302
 9334SOL    HW139635   4.551   4.508   3.714 -1.7494 -0.5337  1.1431
 9334SOL    HW239636   4.615   4.472   3.850  0.2595  0.0731  0.6430
 9335SOL     OW39637   2.893   3.096   6.082 -0.3899  0.0126 -0.8338
 9335SOL    HW139638   2.830   3.025   6.076 -1.8112  1.1437  0.6912
 9335SOL    HW239639   2.968   3.048   6.047  1.3850  0.7837  1.9334
 9336SOL     OW39640   2.551   2.603   4.030  0.5841 -0.2070 -0.4413
 9336SOL    HW139641   2.467   2.585   4.071  1.5058 -1.7922  0.7432
 9336SOL    HW239642   2.533   2.627   3.938 -0.4644  1.4117  0.1786
 9337SOL     OW39643   2.856   0.474  16.013  0.1526 -0.3501  0.1664
 9337SOL    HW139644   2.932   0.447  16.065  1.3358  0.6473 -1.0422
 9337SOL    HW239645   2.813   0.515  16.088  1.4854 -0.2082  0.8571
 9338SOL     OW39646   0.083   2.380   6.428 -0.2621 -0.0524 -0.1504
 9338SOL    HW139647   0.178   2.380   6.424 -0.1875 -1.1401  1.5518
 9338SOL    HW239648   0.064   2.362   6.335 -0.4208 -0.6357 -0.0107
 9339SOL     OW39649   3.298   3.735  15.853 -0.3521 -0.0765  0.2497
 9339SOL    HW139650   3.259   3.764  15.936  3.7233  0.3569  2.0377
 9339SOL    HW239651   3.377   3.688  15.878  1.0938  2.0725 -0.3244
 9340SOL     OW39652   4.484   0.350   6.135 -0.7800 -0.3435  0.1767
 9340SOL    HW139653   4.548   0.295   6.181  0.0605  0.5177  0.0259
 9340SOL    HW239654   4.516   0.434   6.167 -2.0750  0.1488  0.1641
 9341SOL     OW39655   0.142   4.458   6.501 -0.3469 -0.3813 -0.1086
 9341SOL    HW139656   0.210   4.453   6.568 -0.2579 -1.0244 -0.2429
 9341SOL    HW239657   0.057   4.443   6.542  0.0142  1.3657  1.2837
 9342SOL     OW39658   1.641   2.912  16.130  0.0600 -0.0406  0.4765
 9342SOL    HW139659   1.689   2.862  16.196 -0.7284 -0.1597  0.9691
 9342SOL    HW239660   1.597   2.975  16.186 -0.8978 -2.3502  2.3344
 9343SOL     OW39661   4.037   4.318   1.571 -0.0247 -0.1243 -0.3704
 9343SOL    HW139662   3.975   4.367   1.517 -1.1510 -1.6735 -0.5025
 9343SOL    HW239663   4.114   4.374   1.578 -1.6750  2.0216  0.3673
 9344SOL     OW39664   2.068   1.924   3.894  0.7076  0.2212  0.2739
 9344SOL    HW139665   2.009   1.852   3.874  0.1734  0.6370  0.3623
 9344SOL    HW239666   2.043   1.942   3.985  2.2553  1.9332  0.3728
 9345SOL     OW39667   4.571   3.006   2.519  0.2118 -0.1154  0.3209
 9345SOL    HW139668   4.592   3.076   2.457  0.6789 -0.2121  0.3688
 9345SOL    HW239669   4.656   3.007   2.563  0.6526  0.4053 -0.5352
 9346SOL     OW39670   3.215   3.710   6.804 -0.6710 -0.8289  0.6224
 9346SOL    HW139671   3.230   3.616   6.802  0.0900 -0.6249 -3.3672
 9346SOL    HW239672   3.305   3.738   6.786 -1.4942  1.1768 -0.4269
 9347SOL     OW39673   3.269   3.717   6.250 -0.0070  0.4420 -0.1655
 9347SOL    HW139674   3.236   3.746   6.165  0.0518  0.3593 -0.2165
 9347SOL    HW239675   3.242   3.784   6.312 -0.6775  0.5028 -0.5262
 9348SOL     OW39676   2.779   1.400   2.578 -0.5284  0.0721  0.6839
 9348SOL    HW139677   2.692   1.367   2.600 -1.0490  1.1356  0.2194
 9348SOL    HW239678   2.823   1.411   2.662 -0.0516 -4.3003  1.0043
 9349SOL     OW39679   2.891   1.936   7.704  0.5087 -0.6598  0.4147
 9349SOL    HW139680   2.881   1.933   7.799 -0.5538  2.7133  0.4036
 9349SOL    HW239681   2.867   1.843   7.697  0.6599 -0.7627  1.1875
 9350SOL     OW39682   3.206   1.080   2.810  0.5899  0.2458  0.2200
 9350SOL    HW139683   3.184   1.038   2.727 -1.7881 -0.1936  1.0570
 9350SOL    HW239684   3.127   1.125   2.841  0.5786 -0.9052  1.8814
 9351SOL     OW39685   0.046   3.969   6.004  0.5683  0.5382 -0.7957
 9351SOL    HW139686   0.057   4.043   6.063 -0.8619 -0.4412  0.7224
 9351SOL    HW239687   4.691   3.959   6.007  0.6072  0.2920 -0.3847
 9352SOL     OW39688   2.734   2.859   6.077 -0.0376 -0.1508 -0.0699
 9352SOL    HW139689   2.650   2.875   6.120  0.5884  2.1991  0.2804
 9352SOL    HW239690   2.733   2.774   6.033  1.7610 -0.0714 -0.2591
 9353SOL     OW39691   4.338   2.483  15.502 -0.8563 -0.7973 -0.0717
 9353SOL    HW139692   4.430   2.507  15.513 -1.2525 -0.6011  2.7229
 9353SOL    HW239693   4.301   2.508  15.586 -0.6931 -3.2860  0.7520
 9354SOL     OW39694   0.939   1.686   5.461 -0.0592 -0.3704  0.1128
 9354SOL    HW139695   0.894   1.610   5.424  0.0825 -1.0332  1.2726
 9354SOL    HW239696   0.991   1.639   5.527  1.1231 -1.9396 -1.9171
 9355SOL     OW39697   3.495   1.034  16.878  0.0957 -0.3772 -0.8094
 9355SOL    HW139698   3.499   1.092  16.954 -0.6931 -0.0234 -1.0450
 9355SOL    HW239699   3.556   1.080  16.820 -0.7219  0.5573 -0.9335
 9356SOL     OW39700   4.195   3.288  14.942 -0.6673  0.0754 -0.1909
 9356SOL    HW139701   4.289   3.293  14.922 -1.5651  1.8632 -4.0277
 9356SOL    HW239702   4.187   3.316  15.033  1.3133  1.1145 -0.3307
 9357SOL     OW39703   2.277   1.154  17.457  0.1430  0.4415  0.3175
 9357SOL    HW139704   2.249   1.162  17.366  1.2844 -1.1747 -0.1621
 9357SOL    HW239705   2.321   1.236  17.479 -0.7939  0.4665  2.1632
 9358SOL     OW39706   0.144   4.519   9.197 -0.3603  0.0103  0.0660
 9358SOL    HW139707   0.092   4.439   9.194 -1.3225  0.6976 -1.5170
 9358SOL    HW239708   0.078   4.580   9.231 -0.8541 -0.9787  0.8595
 9359SOL     OW39709   2.323   0.651   3.664 -0.4848  0.2012  0.4638
 9359SOL    HW139710   2.279   0.697   3.736 -0.1578  0.9020  0.2190
 9359SOL    HW239711   2.396   0.605   3.705 -1.8347 -2.0700  0.2798
 9360SOL     OW39712   0.809   4.379  10.486 -0.0591  0.0214 -0.0195
 9360SOL    HW139713   0.775   4.403  10.572  0.0104  2.0022 -0.5502
 9360SOL    HW239714   0.736   4.333  10.445  0.3952  0.7831 -1.6598
 9361SOL     OW39715   1.560   0.725  16.374 -0.6050 -0.9807  0.0278
 9361SOL    HW139716   1.557   0.814  16.339  0.6103  0.2967  3.0979
 9361SOL    HW239717   1.651   0.693  16.370 -0.1483  0.5986 -2.0322
 9362SOL     OW39718   2.416   3.358  16.883  0.2602 -0.1506  0.7702
 9362SOL    HW139719   2.353   3.287  16.880  0.6623 -0.6270  3.6389
 9362SOL    HW239720   2.358   3.432  16.903 -2.1850 -1.6461 -0.7993
 9363SOL     OW39721   1.446   3.660   9.107  0.2031  0.0747 -0.2416
 9363SOL    HW139722   1.390   3.720   9.058 -0.6860 -1.3217 -0.9336
 9363SOL    HW239723   1.467   3.597   9.038 -1.7622 -1.6240  0.7244
 9364SOL     OW39724   2.260   0.167  14.904 -0.6855  0.2776  0.4335
 9364SOL    HW139725   2.351   0.138  14.915 -0.3105  1.6297  0.8381
 9364SOL    HW239726   2.228   0.103  14.840  1.4643 -0.0134 -0.3536
 9365SOL     OW39727   2.364   1.073   2.519 -0.5351  0.2841  0.2365
 9365SOL    HW139728   2.449   1.064   2.561 -1.5793 -1.6364  1.9252
 9365SOL    HW239729   2.311   1.123   2.581 -2.9201 -0.4477 -1.2203
 9366SOL     OW39730   1.779   3.898   8.971 -0.1423 -0.9354 -0.1141
 9366SOL    HW139731   1.721   3.904   9.047  3.1160  0.1381  2.2532
 9366SOL    HW239732   1.788   3.803   8.971 -2.2683 -1.1470 -0.8516
 9367SOL     OW39733   3.166   4.306   2.537  0.3500  0.1957 -0.1952
 9367SOL    HW139734   3.190   4.336   2.624 -0.5826  0.1532  0.0795
 9367SOL    HW239735   3.163   4.211   2.549 -0.6850  0.1442 -0.8331
 9368SOL     OW39736   3.801   2.963  17.125  0.1661 -0.0515 -0.1023
 9368SOL    HW139737   3.782   3.038  17.069  2.7977  0.5257 -0.2305
 9368SOL    HW239738   3.788   3.007  17.208  3.7505 -0.5665  0.7487
 9369SOL     OW39739   1.661   4.659   1.311  0.6312 -0.0004  0.1490
 9369SOL    HW139740   1.645   4.568   1.334 -1.0777  0.2804  0.0650
 9369SOL    HW239741   1.715   4.686   1.385 -0.0707 -1.1578  1.0721
 9370SOL     OW39742   0.332   1.553   0.483 -0.4795  0.1340 -0.0153
 9370SOL    HW139743   0.273   1.624   0.509 -0.8166  0.0152 -0.4513
 9370SOL    HW239744   0.414   1.562   0.531 -2.0820  1.7575  2.4157
 9371SOL     OW39745   0.093   0.441   7.036 -0.1802 -0.1127  0.4226
 9371SOL    HW139746   0.155   0.391   6.982 -1.8839 -1.2555 -0.4491
 9371SOL    HW239747   0.119   0.410   7.123 -0.5146 -0.5198  0.3759
 9372SOL     OW39748   3.976   1.365  14.327  0.1278 -0.0627 -0.0808
 9372SOL    HW139749   3.961   1.348  14.420 -1.2117  0.7537 -0.1406
 9372SOL    HW239750   4.064   1.395  14.307 -0.7063  1.4350 -1.4693
 9373SOL     OW39751   4.057   1.287   7.932 -0.2930 -0.0221 -0.0079
 9373SOL    HW139752   4.016   1.216   7.982  3.0304 -0.6908  1.7616
 9373SOL    HW239753   4.118   1.328   7.994  0.8085 -1.4019 -0.1799
 9374SOL     OW39754   1.389   2.028   8.319  0.3133 -0.6129  0.2771
 9374SOL    HW139755   1.303   2.071   8.317 -0.0219 -1.2695  0.6175
 9374SOL    HW239756   1.364   1.947   8.275  1.4009 -1.8506  1.9646
 9375SOL     OW39757   2.823   4.066  17.681  0.3209 -0.5403  0.1537
 9375SOL    HW139758   2.795   3.975  17.690  0.8145 -0.6835  0.2168
 9375SOL    HW239759   2.827   4.092   0.015 -4.2459  3.1053 -0.6526
 9376SOL     OW39760   0.075   0.207   2.559  0.1954 -0.6053 -0.0703
 9376SOL    HW139761   0.029   0.290   2.564  0.1123 -0.5789 -1.3419
 9376SOL    HW239762   0.002   0.152   2.531  0.0978 -0.1160 -0.7594
 9377SOL     OW39763   4.299   2.347   7.068  0.0035  0.4691 -0.8388
 9377SOL    HW139764   4.277   2.390   7.151 -0.6864 -0.8767 -0.3351
 9377SOL    HW239765   4.345   2.273   7.107 -0.8697 -0.7678 -2.1693
 9378SOL     OW39766   4.099   3.731   4.097  0.7101  0.2275 -0.3996
 9378SOL    HW139767   4.029   3.689   4.147 -1.2614  0.6493 -2.8100
 9378SOL    HW239768   4.173   3.692   4.143  1.0373  2.8429  1.2637
 9379SOL     OW39769   2.633   3.200   6.275  0.6921  0.8140 -0.0872
 9379SOL    HW139770   2.632   3.106   6.292  1.5517  0.8258  0.0224
 9379SOL    HW239771   2.664   3.217   6.186 -1.1735  0.0613 -0.8887
 9380SOL     OW39772   4.078   3.930   2.592 -0.1457 -0.2832  0.0773
 9380SOL    HW139773   4.060   3.933   2.686 -1.1372 -0.1493 -0.1083
 9380SOL    HW239774   4.032   4.011   2.569 -0.4747 -0.0905  1.4201
 9381SOL     OW39775   0.605   0.348   1.431  0.4834  0.1960 -0.5463
 9381SOL    HW139776   0.638   0.268   1.391 -0.3539  0.7665 -2.3775
 9381SOL    HW239777   0.682   0.404   1.420  0.5569  0.0907 -0.5694
 9382SOL     OW39778   2.057   2.434  14.970  0.2719  0.5296  0.2882
 9382SOL    HW139779   2.101   2.518  14.958 -2.6143  1.7520 -1.4590
 9382SOL    HW239780   1.988   2.454  14.907  0.3024 -0.2830  0.0019
 9383SOL     OW39781   1.694   0.299   5.180 -0.1070  0.2564  0.3713
 9383SOL    HW139782   1.701   0.248   5.261 -1.0131 -0.8170 -0.2187
 9383SOL    HW239783   1.671   0.231   5.117 -1.5979  0.9395  0.1924
 9384SOL     OW39784   1.452   0.412  13.796 -0.4889  0.1726  0.0717
 9384SOL    HW139785   1.414   0.463  13.867 -0.7825 -2.1229  1.5824
 9384SOL    HW239786   1.540   0.449  13.797 -0.9923  1.5123 -2.9957
 9385SOL     OW39787   1.246   4.668  10.081  0.2605  0.3685  0.0832
 9385SOL    HW139788   1.331   4.706  10.103 -0.2607  2.2013 -1.0912
 9385SOL    HW239789   1.228   4.621  10.162 -0.5513 -0.2601 -0.4722
 9386SOL     OW39790   3.993   0.505  16.839  0.3116 -0.4477 -0.2935
 9386SOL    HW139791   4.013   0.468  16.752 -0.4349 -2.2001  0.2903
 9386SOL    HW239792   4.053   0.579  16.831 -1.3465  0.7594 -1.4015
 9387SOL     OW39793   4.468   4.172   5.786  1.1114  0.5268  0.7210
 9387SOL    HW139794   4.558   4.199   5.805  1.1703  1.2593 -0.6001
 9387SOL    HW239795   4.469   4.104   5.853  1.2405  0.7548  0.9512
 9388SOL     OW39796   4.377   0.641   0.836 -0.4084 -0.4236  0.5451
 9388SOL    HW139797   4.471   0.659   0.824 -0.7863  0.1653 -1.5752
 9388SOL    HW239798   4.357   0.597   0.753 -2.8140  0.4087  0.7055
 9389SOL     OW39799   4.583   1.161   0.970 -0.0763 -0.1222 -0.3163
 9389SOL    HW139800   4.522   1.171   0.896 -0.6529  0.8158  0.2882
 9389SOL    HW239801   4.619   1.248   0.985  1.4244 -0.6846 -0.6382
 9390SOL     OW39802   2.024   0.624   8.087 -0.7080 -0.3701  0.0832
 9390SOL    HW139803   1.970   0.687   8.135 -0.8008 -1.2401  1.1098
 9390SOL    HW239804   2.038   0.559   8.156 -2.4347 -0.7098  0.1333
 9391SOL     OW39805   3.937   0.038  13.355 -0.0128  0.3364  0.7618
 9391SOL    HW139806   3.877   4.707  13.332  0.9312 -0.0592 -0.5114
 9391SOL    HW239807   3.958   0.011  13.444 -1.5793 -0.9786  0.7255
 9392SOL     OW39808   2.315   2.472  10.175 -0.6178  0.1654 -0.0717
 9392SOL    HW139809   2.316   2.395  10.232  0.4129 -0.3700 -0.8227
 9392SOL    HW239810   2.372   2.445  10.103 -0.7549  1.8105 -0.7848
 9393SOL     OW39811   2.007   3.272   5.483  0.1829 -0.1462  0.9450
 9393SOL    HW139812   1.959   3.347   5.449 -2.3975 -0.9467  2.8168
 9393SOL    HW239813   2.058   3.309   5.555  1.3225  1.1756 -0.5461
 9394SOL     OW39814   1.268   2.808   9.766  0.0283 -0.2102  0.5395
 9394SOL    HW139815   1.258   2.840   9.855 -0.0879  2.1606 -0.3183
 9394SOL    HW239816   1.230   2.720   9.769 -1.0354  0.2303  0.0476
 9395SOL     OW39817   2.154   0.156   3.489  0.2777  0.2094 -0.0064
 9395SOL    HW139818   2.095   0.114   3.550 -0.1364  2.1794  0.9572
 9395SOL    HW239819   2.199   0.217   3.548  1.5612 -0.3267 -0.4282
 9396SOL     OW39820   4.308   4.282   3.288 -0.2348 -0.3895  0.0151
 9396SOL    HW139821   4.402   4.268   3.292 -0.0449  0.8071 -0.1949
 9396SOL    HW239822   4.287   4.240   3.205  0.2326  0.3990 -0.4953
 9397SOL     OW39823   2.703   3.656   1.582  0.5243  0.8487 -0.0718
 9397SOL    HW139824   2.637   3.668   1.651  2.2679 -1.8712  2.0809
 9397SOL    HW239825   2.646   3.649   1.506 -0.2319  1.0853  0.4715
 9398SOL     OW39826   2.372   3.283   3.274  0.2904  0.5609  0.0370
 9398SOL    HW139827   2.315   3.332   3.214  0.2388 -0.3664 -0.6682
 9398SOL    HW239828   2.337   3.308   3.360  0.6006 -0.3012  0.4145
 9399SOL     OW39829   3.893   0.919   2.932  0.4870 -0.1089  0.0418
 9399SOL    HW139830   3.840   0.962   2.865 -1.1910 -0.8585  0.8683
 9399SOL    HW239831   3.830   0.939   3.002 -0.4708  2.4047 -1.5458
 9400SOL     OW39832   0.392   3.322  16.315 -0.1779  0.3808  0.2245
 9400SOL    HW139833   0.472   3.369  16.337  0.6622 -1.1342  0.4466
 9400SOL    HW239834   0.385   3.274  16.398  0.1626 -1.8004 -1.0127
 9401SOL     OW39835   2.061   4.015   6.830  0.0578  0.0500  0.3674
 9401SOL    HW139836   2.004   4.068   6.774  0.6313  0.2898  0.0181
 9401SOL    HW239837   2.148   4.054   6.836  0.3533 -0.4459 -0.7429
 9402SOL     OW39838   4.543   1.304   7.000 -0.0093 -0.2779 -0.7449
 9402SOL    HW139839   4.579   1.218   7.023 -0.1434  0.0336  0.6286
 9402SOL    HW239840   4.534   1.351   7.083 -1.0893 -0.7238 -0.6101
 9403SOL     OW39841   2.035   3.719   7.889 -0.3253 -0.0489 -0.0911
 9403SOL    HW139842   2.047   3.626   7.867 -1.3208 -0.4169  0.9239
 9403SOL    HW239843   2.005   3.754   7.805  0.9360  1.1722 -0.0372
 9404SOL     OW39844   3.692   0.287   3.016 -0.1332 -0.0117 -0.2342
 9404SOL    HW139845   3.639   0.289   2.937 -0.9311 -0.9391  0.2686
 9404SOL    HW239846   3.642   0.233   3.078  1.7865 -0.2067  1.1647
 9405SOL     OW39847   4.110   4.396   3.465  0.4035  0.6435  0.3546
 9405SOL    HW139848   4.138   4.363   3.551  0.9650 -0.3805 -0.2135
 9405SOL    HW239849   4.192   4.388   3.417  0.1507  1.2052 -0.1668
 9406SOL     OW39850   2.775   3.868   6.558 -0.0770  0.1970 -0.0237
 9406SOL    HW139851   2.803   3.805   6.624  0.2994  0.9303  0.5186
 9406SOL    HW239852   2.714   3.918   6.613 -1.1218  0.0007 -1.0077
 9407SOL     OW39853   2.463   3.383  13.063 -0.3600  0.3658 -0.0643
 9407SOL    HW139854   2.529   3.435  13.110 -1.7822  2.5871 -0.5546
 9407SOL    HW239855   2.452   3.313  13.127 -0.4323 -0.1776 -0.6653
 9408SOL     OW39856   2.328   0.088   4.643 -0.2469  0.7369 -0.6752
 9408SOL    HW139857   2.327   0.154   4.712  2.3888  1.4812 -1.3731
 9408SOL    HW239858   2.271   0.018   4.675  1.8418 -1.2564 -1.3613
 9409SOL     OW39859   3.205   2.773  14.575  0.0319 -0.6224 -0.0500
 9409SOL    HW139860   3.112   2.787  14.592 -0.2952 -2.2730 -0.4608
 9409SOL    HW239861   3.210   2.679  14.596 -0.4961 -0.5515  0.3945
 9410SOL     OW39862   1.732   4.188   3.497 -0.1372  0.0930 -0.2577
 9410SOL    HW139863   1.758   4.236   3.575 -1.0616 -0.5132  0.4312
 9410SOL    HW239864   1.647   4.229   3.480 -0.2348 -0.0712 -0.1755
 9411SOL     OW39865   2.085   3.241   8.580  0.0005  0.1423 -0.4261
 9411SOL    HW139866   2.107   3.324   8.539  0.9450  0.9907  1.8321
 9411SOL    HW239867   2.158   3.190   8.545  0.5224 -0.9903  2.3493
 9412SOL     OW39868   0.579   2.548   5.418 -0.3461  0.5605 -0.3975
 9412SOL    HW139869   0.485   2.560   5.429 -0.2902 -1.0057  1.9129
 9412SOL    HW239870   0.607   2.507   5.500  2.0996 -0.7301 -1.8660
 9413SOL     OW39871   1.583   0.312   3.973 -0.5476  0.1797 -0.4725
 9413SOL    HW139872   1.590   0.401   3.940  1.4073  1.1341  2.5176
 9413SOL    HW239873   1.570   0.318   4.068  1.7438 -1.3835 -0.0786
 9414SOL     OW39874   1.420   0.851  16.078 -0.5456  0.0468  0.1687
 9414SOL    HW139875   1.377   0.891  16.002 -1.0674  1.0711  1.0108
 9414SOL    HW239876   1.508   0.880  16.055  0.0953 -0.8558  1.4876
 9415SOL     OW39877   4.056   0.086   0.543 -0.2780 -0.0954  0.2086
 9415SOL    HW139878   4.004   0.086   0.624 -0.5920  0.9153  0.0025
 9415SOL    HW239879   4.140   0.103   0.587 -0.1010  0.1020 -0.2124
 9416SOL     OW39880   2.721   0.284  16.618 -0.0196  0.0586  0.1307
 9416SOL    HW139881   2.697   0.290  16.711  0.6230 -0.1658  0.3106
 9416SOL    HW239882   2.790   0.218  16.628 -0.4611 -0.1336  1.9024
 9417SOL     OW39883   1.691   1.645   9.345 -0.2727  0.1543 -0.1141
 9417SOL    HW139884   1.758   1.579   9.327 -1.0573  0.6050 -4.4623
 9417SOL    HW239885   1.701   1.701   9.269 -4.6397  1.4868  0.2737
 9418SOL     OW39886   0.762   4.323   4.328  0.2520  0.5877  0.1208
 9418SOL    HW139887   0.857   4.333   4.328  0.6594 -2.9451 -1.9608
 9418SOL    HW239888   0.734   4.334   4.418 -0.1555  1.8761 -0.1668
 9419SOL     OW39889   3.443   1.118  11.705  0.0462 -0.5512  0.0096
 9419SOL    HW139890   3.459   1.181  11.776  1.8773 -0.3756 -0.5641
 9419SOL    HW239891   3.360   1.138  11.661  0.0035 -0.4759  0.1241
 9420SOL     OW39892   2.507   3.013   0.191  0.2030  0.3263  0.5988
 9420SOL    HW139893   2.477   3.078   0.255  0.4191  0.3444  0.6813
 9420SOL    HW239894   2.434   2.952   0.175 -0.0059  0.6227  0.4307
 9421SOL     OW39895   3.914   0.158   3.411 -0.1258  0.1800 -0.1655
 9421SOL    HW139896   3.852   0.092   3.379  1.9889 -2.3850  1.0326
 9421SOL    HW239897   3.870   0.187   3.491  1.2271  0.0677  0.5998
 9422SOL     OW39898   4.264   2.818   7.164  0.3700 -1.1174 -0.2396
 9422SOL    HW139899   4.207   2.770   7.225  0.6267  0.8633  1.5313
 9422SOL    HW239900   4.225   2.811   7.076  0.1703  1.0113 -0.3119
 9423SOL     OW39901   4.555   4.373   8.594  0.0627  0.2751  0.2803
 9423SOL    HW139902   4.486   4.313   8.622  1.1867 -1.5979 -0.9401
 9423SOL    HW239903   4.516   4.451   8.634  0.5598 -0.6739  2.5764
 9424SOL     OW39904   1.578   3.859   8.538  0.2872 -0.0749  0.5443
 9424SOL    HW139905   1.652   3.882   8.594  0.3327  0.7593  0.1476
 9424SOL    HW239906   1.622   3.829   8.459  0.6903 -1.4104  1.2805
 9425SOL     OW39907   1.294   0.794   7.798  0.2060  0.1235  0.0016
 9425SOL    HW139908   1.370   0.814   7.853 -0.1065  0.4252  0.3244
 9425SOL    HW239909   1.311   0.701   7.786  0.8663  0.7494 -3.9028
 9426SOL     OW39910   1.108   2.426   8.279 -0.2854  0.0118  0.0761
 9426SOL    HW139911   1.153   2.455   8.200  0.6264  0.4484  0.7575
 9426SOL    HW239912   1.183   2.424   8.339 -0.2257 -0.0771 -0.0005
 9427SOL     OW39913   3.131   2.777   8.690 -0.4525  0.6583  0.0893
 9427SOL    HW139914   3.144   2.768   8.784  2.2644  0.4556 -0.2926
 9427SOL    HW239915   3.181   2.701   8.661 -3.3801 -0.8424 -0.9748
 9428SOL     OW39916   1.398   0.247  14.787  0.0984  0.2592  0.3277
 9428SOL    HW139917   1.374   0.155  14.782 -1.3641  0.7175 -1.1693
 9428SOL    HW239918   1.326   0.286  14.737  0.8591 -0.6220 -1.4780
 9429SOL     OW39919   1.458   2.097   6.052 -0.1175 -0.1988 -0.1175
 9429SOL    HW139920   1.411   2.180   6.041  1.8859  0.9588 -0.0221
 9429SOL    HW239921   1.480   2.094   6.145  0.0880 -0.7625 -0.1855
 9430SOL     OW39922   1.312   0.086  16.421  0.4478 -0.4159 -0.0104
 9430SOL    HW139923   1.391   0.126  16.459  0.6574 -0.0704 -0.8026
 9430SOL    HW239924   1.302   0.002  16.465 -0.3857  0.5617  1.6617
 9431SOL     OW39925   1.974   0.033   3.638  0.4226  0.3827  0.3821
 9431SOL    HW139926   1.907   0.077   3.690 -1.1591 -1.6348  0.0535
 9431SOL    HW239927   1.958   4.688   3.679 -1.4493  0.8857  0.6749
 9432SOL     OW39928   2.977   0.172  16.765 -0.4994 -0.2630  0.6165
 9432SOL    HW139929   3.063   0.199  16.733 -0.4954  1.1563  1.8110
 9432SOL    HW239930   2.956   0.253  16.813  0.3354 -0.1804  0.8412
 9433SOL     OW39931   4.598   1.288   4.394  0.5493  0.0760 -0.7038
 9433SOL    HW139932   4.690   1.310   4.380  0.3200  2.4880  1.6526
 9433SOL    HW239933   4.569   1.274   4.303  0.9621 -1.2002 -0.6445
 9434SOL     OW39934   1.221   2.623   8.903  0.0689 -0.3240  0.1471
 9434SOL    HW139935   1.260   2.556   8.959  0.9058  2.3317  2.7494
 9434SOL    HW239936   1.231   2.595   8.812  0.8879 -3.6467  1.2433
 9435SOL     OW39937   4.501   0.488   7.064 -0.0916 -0.1179  0.5389
 9435SOL    HW139938   4.552   0.426   7.117  2.2933  0.7866 -0.7041
 9435SOL    HW239939   4.547   0.569   7.085  0.9919 -0.3317 -1.0493
 9436SOL     OW39940   1.637   1.583   5.418  0.1686 -0.5766  0.0673
 9436SOL    HW139941   1.608   1.494   5.396 -0.3638 -0.1017 -1.1202
 9436SOL    HW239942   1.554   1.616   5.454  1.0817 -0.1522  1.7901
 9437SOL     OW39943   0.793   4.072  16.388  0.4452  0.6309  0.4599
 9437SOL    HW139944   0.874   4.041  16.347  0.3205 -0.6449  1.1910
 9437SOL    HW239945   0.792   4.040  16.478 -0.6934  1.7925  0.8629
 9438SOL     OW39946   0.902   0.737   6.923 -0.6669  0.1970 -0.2684
 9438SOL    HW139947   0.929   0.745   7.015 -2.3810  2.8050  0.0152
 9438SOL    HW239948   0.989   0.756   6.889  0.5883 -1.8500  1.7681
 9439SOL     OW39949   0.038   1.712   7.635  0.5695 -0.4841 -0.2735
 9439SOL    HW139950   0.048   1.726   7.729 -2.3957 -0.3032  0.0266
 9439SOL    HW239951   0.070   1.794   7.598 -2.1961  1.5795  1.9282
 9440SOL     OW39952   4.223   0.207   5.879  0.3888  0.0846  0.2455
 9440SOL    HW139953   4.130   0.187   5.865  0.4631 -1.7718  2.3356
 9440SOL    HW239954   4.249   0.185   5.789  1.0023  0.8564  0.2378
 9441SOL     OW39955   2.997   1.707   0.861  0.1145  0.0217 -0.1667
 9441SOL    HW139956   2.979   1.767   0.789  0.2700  0.9166  0.5360
 9441SOL    HW239957   3.081   1.747   0.881 -0.7871  2.1002 -0.5017
 9442SOL     OW39958   1.652   0.165   4.654 -0.0602 -0.2561 -0.6972
 9442SOL    HW139959   1.602   0.104   4.709 -0.4183  1.7962  1.2716
 9442SOL    HW239960   1.592   0.240   4.658  0.4619  0.0457  1.6082
 9443SOL     OW39961   3.466   3.603   1.787  0.1855  0.1598 -0.1382
 9443SOL    HW139962   3.445   3.696   1.801  0.2339 -0.1617  2.0561
 9443SOL    HW239963   3.398   3.562   1.840  1.0608 -0.3250  0.6141
 9444SOL     OW39964   0.875   4.030  11.947 -0.5781 -0.1427 -0.3739
 9444SOL    HW139965   0.939   4.031  12.018  1.4428  0.0112 -2.2124
 9444SOL    HW239966   0.801   4.086  11.970 -0.9747  0.0917 -2.2127
 9445SOL     OW39967   1.087   2.806   4.841  0.0131 -0.1645  0.1669
 9445SOL    HW139968   1.048   2.754   4.771 -1.7138  1.0853  0.2012
 9445SOL    HW239969   1.052   2.761   4.918 -1.4719 -0.3792 -0.6236
 9446SOL     OW39970   2.117   0.627   5.671 -0.7710  0.3844  0.2575
 9446SOL    HW139971   2.207   0.653   5.691 -0.3104 -0.6210 -0.5206
 9446SOL    HW239972   2.120   0.532   5.675  1.3450  0.4793  0.7923
 9447SOL     OW39973   2.707   3.789   4.804 -0.3989  0.5248 -0.5398
 9447SOL    HW139974   2.728   3.829   4.720 -0.5212  1.9678  0.1159
 9447SOL    HW239975   2.664   3.706   4.783 -1.0987  1.4851 -2.8765
 9448SOL     OW39976   2.526   1.697   9.076  0.4248  0.0878  0.5638
 9448SOL    HW139977   2.433   1.692   9.054  0.0867 -1.4340  2.3679
 9448SOL    HW239978   2.546   1.607   9.100 -2.1501 -0.4367  0.7117
 9449SOL     OW39979   3.020   4.225   0.614 -0.2969 -0.0441  0.1858
 9449SOL    HW139980   3.053   4.175   0.690 -1.9334 -2.8212 -0.9452
 9449SOL    HW239981   3.095   4.218   0.555 -0.1155 -1.0902  0.5292
 9450SOL     OW39982   1.932   2.561   6.514  0.2551  0.1395  1.0095
 9450SOL    HW139983   1.940   2.531   6.604 -2.3466 -0.2188  1.1402
 9450SOL    HW239984   1.927   2.657   6.514 -2.2198  0.0018 -0.7751
 9451SOL     OW39985   0.303   3.482   0.621 -0.3203 -0.6803 -0.7888
 9451SOL    HW139986   0.267   3.570   0.632  1.2298 -0.3463  1.5079
 9451SOL    HW239987   0.372   3.491   0.556 -2.7951 -0.7875 -3.4461
 9452SOL     OW39988   4.066   0.563   0.643 -0.4295 -0.2017 -0.1566
 9452SOL    HW139989   4.140   0.574   0.583 -0.8900  0.8034 -0.5289
 9452SOL    HW239990   4.020   0.645   0.628 -0.3942 -0.1196  0.1934
 9453SOL     OW39991   1.374   1.347   7.808 -0.2059  0.1474 -0.0222
 9453SOL    HW139992   1.436   1.307   7.747 -0.0843 -0.2278  0.3459
 9453SOL    HW239993   1.286   1.317   7.786 -0.1955 -0.1247  0.2970
 9454SOL     OW39994   3.869   3.809   5.164  0.1712  0.2239  0.0794
 9454SOL    HW139995   3.958   3.826   5.133  0.4534  1.4871  1.5467
 9454SOL    HW239996   3.826   3.775   5.086 -1.4463 -0.7400  1.3790
 9455SOL     OW39997   4.348   2.567   3.797  0.4875  0.5876  0.0306
 9455SOL    HW139998   4.335   2.528   3.710  0.0275 -2.9983  1.6729
 9455SOL    HW239999   4.293   2.644   3.784  0.2681  0.5190  0.5840
 9456SOL     OW40000   0.809   3.393   2.926 -0.0723 -0.7604 -0.1233
 9456SOL    HW140001   0.882   3.408   2.866 -1.4238 -0.3919 -1.6671
 9456SOL    HW240002   0.818   3.450   3.002 -0.6145 -1.3703  0.4048
 9457SOL     OW40003   2.802   2.424   9.719 -0.2368 -0.6014 -0.2971
 9457SOL    HW140004   2.880   2.380   9.754 -0.3444 -0.4941  0.0734
 9457SOL    HW240005   2.727   2.368   9.735  1.3190 -2.0941  1.8213
 9458SOL     OW40006   1.199   0.718  12.217  0.4209  0.3141 -0.1967
 9458SOL    HW140007   1.198   0.813  12.232 -1.7489 -0.2652  3.3112
 9458SOL    HW240008   1.238   0.690  12.299  0.3556  1.0619  0.0893
 9459SOL     OW40009   1.251   1.716   0.339 -0.2718 -0.3264 -0.1516
 9459SOL    HW140010   1.270   1.676   0.424 -0.5511  0.0532  0.0925
 9459SOL    HW240011   1.172   1.668   0.315 -0.5742  0.1346 -0.0898
 9460SOL     OW40012   1.331   1.735   5.162 -0.2748  0.2174 -0.1767
 9460SOL    HW140013   1.282   1.669   5.211  3.0676 -1.0601  1.4305
 9460SOL    HW240014   1.424   1.720   5.177  0.1322  1.8993 -1.0522
 9461SOL     OW40015   3.698   4.437   8.376 -0.3042  0.0128 -0.1889
 9461SOL    HW140016   3.750   4.455   8.298  0.8012 -1.5735  0.1884
 9461SOL    HW240017   3.765   4.458   8.441 -2.8210 -1.2684  2.8260
 9462SOL     OW40018   1.099   0.451   4.404  0.3528  0.2212  0.3530
 9462SOL    HW140019   1.091   0.546   4.402  0.3762  0.2028 -0.7525
 9462SOL    HW240020   1.175   0.432   4.350 -0.8460 -0.2575 -1.1927
 9463SOL     OW40021   2.882   3.396  13.664  0.3049 -0.5467  0.3248
 9463SOL    HW140022   2.947   3.405  13.734 -0.1643 -1.5697  0.8877
 9463SOL    HW240023   2.815   3.351  13.715 -0.0102 -1.2658 -0.7447
 9464SOL     OW40024   4.616   1.698   6.973 -0.1784 -0.3391 -0.7168
 9464SOL    HW140025   4.641   1.785   7.007  0.1938 -0.0693 -1.6907
 9464SOL    HW240026   4.646   1.650   7.050 -0.0847 -0.9380 -1.1301
 9465SOL     OW40027   4.082   3.023  16.022 -0.0084  0.5710 -0.1943
 9465SOL    HW140028   4.169   3.049  16.055  0.4705  1.4649 -2.1408
 9465SOL    HW240029   4.044   3.106  16.050 -0.8344  0.8469 -2.1024
 9466SOL     OW40030   1.428   2.583   5.906  0.4600  0.4468 -0.3253
 9466SOL    HW140031   1.475   2.598   5.987 -0.7371 -0.3529  0.5112
 9466SOL    HW240032   1.408   2.490   5.911  2.2769  0.0856  0.0321
 9467SOL     OW40033   2.176   3.883   8.543 -0.9708 -0.3751  0.5507
 9467SOL    HW140034   2.151   3.879   8.635 -0.4420 -1.1448  0.6634
 9467SOL    HW240035   2.098   3.921   8.501  0.4530  1.3339 -0.5213
 9468SOL     OW40036   4.618   1.486   7.547 -0.3608 -0.3718  0.1790
 9468SOL    HW140037   4.694   1.542   7.567 -0.8813  0.0802  0.9031
 9468SOL    HW240038   4.661   1.426   7.486  0.5894 -0.5227  0.9810
 9469SOL     OW40039   0.418   4.492   7.512 -0.7867 -0.0705 -0.4550
 9469SOL    HW140040   0.513   4.493   7.524 -0.7734 -0.6211 -0.5000
 9469SOL    HW240041   0.404   4.526   7.600  0.7247 -0.3220 -0.1239
 9470SOL     OW40042   1.993   1.035   8.823 -0.0675 -0.3631 -0.2731
 9470SOL    HW140043   1.991   1.125   8.790 -0.7759 -0.3542 -0.2199
 9470SOL    HW240044   1.908   1.010   8.786  1.4291  0.2870 -4.2205
 9471SOL     OW40045   3.373   3.029   4.937  0.5039 -0.2018 -0.0352
 9471SOL    HW140046   3.320   3.056   4.862  0.9614  0.4991 -0.1037
 9471SOL    HW240047   3.331   2.946   4.960  0.2947  0.0791  0.6132
 9472SOL     OW40048   2.886   3.039  12.158  0.1207 -0.0319 -0.0385
 9472SOL    HW140049   2.897   3.112  12.219  4.0689 -0.0485 -0.7437
 9472SOL    HW240050   2.963   2.984  12.175 -2.4260 -2.4244  3.9218
 9473SOL     OW40051   4.284   0.258   5.553  0.3042  0.0797 -0.0856
 9473SOL    HW140052   4.351   0.319   5.525  0.2951  0.8553  1.5669
 9473SOL    HW240053   4.335   0.178   5.558 -0.6487 -0.3773  2.0831
 9474SOL     OW40054   1.498   0.112  10.680 -0.1283  0.3279 -0.0157
 9474SOL    HW140055   1.480   0.133  10.588  0.0531 -0.7647 -0.3022
 9474SOL    HW240056   1.459   0.025  10.681 -1.4257  0.8981 -0.5514
 9475SOL     OW40057   4.688   1.097   8.069 -0.1162  0.1586 -0.3357
 9475SOL    HW140058   4.672   1.015   8.021  0.5577  0.5064 -1.1448
 9475SOL    HW240059   0.029   1.082   8.117 -0.1633  0.7964 -0.0632
 9476SOL     OW40060   4.070   2.177   2.221 -0.1566 -0.0621  0.0707
 9476SOL    HW140061   4.108   2.108   2.276 -1.1479 -0.2702  0.4931
 9476SOL    HW240062   4.135   2.184   2.151 -1.2358  1.5703 -0.7695
 9477SOL     OW40063   1.306   3.216   4.103  0.5056  0.3989 -0.1964
 9477SOL    HW140064   1.270   3.291   4.150 -2.2913 -0.4645 -0.9483
 9477SOL    HW240065   1.331   3.155   4.172 -0.2454  0.4807  0.1441
 9478SOL     OW40066   3.493   1.108   6.605 -0.0169  0.0313  0.1804
 9478SOL    HW140067   3.523   1.156   6.528  0.6887 -0.3543  0.2142
 9478SOL    HW240068   3.430   1.051   6.561 -1.9945  3.8295 -1.9434
 9479SOL     OW40069   2.119   1.090   9.301  0.2888 -1.1781  0.0161
 9479SOL    HW140070   2.129   1.081   9.396 -4.7009  0.1284  0.6337
 9479SOL    HW240071   2.104   0.999   9.277  0.4414 -1.2072  0.0322
 9480SOL     OW40072   0.418   3.572   3.769  0.3865  0.6074  0.4700
 9480SOL    HW140073   0.492   3.592   3.713 -0.1197  1.4525  0.1014
 9480SOL    HW240074   0.370   3.654   3.783 -2.3530 -0.4374 -2.7997
 9481SOL     OW40075   2.770   2.235   4.279 -0.2387 -0.1620 -0.1892
 9481SOL    HW140076   2.763   2.260   4.371  1.6490  1.9865 -0.6367
 9481SOL    HW240077   2.848   2.180   4.278 -0.1875 -0.0840 -1.6440
 9482SOL     OW40078   3.703   0.899   4.913  0.2662  0.6189  0.0468
 9482SOL    HW140079   3.655   0.953   4.976  0.3747 -0.3844  0.9762
 9482SOL    HW240080   3.657   0.926   4.833 -0.3984  1.6639  0.7741
 9483SOL     OW40081   3.058   0.140   7.378 -0.1541 -0.1827  0.1711
 9483SOL    HW140082   3.008   0.184   7.309 -1.1386  0.7312  1.4853
 9483SOL    HW240083   2.991   0.096   7.430 -1.7506  0.2453 -1.5132
 9484SOL     OW40084   0.382   2.796  11.883  0.4144 -0.5127  0.2369
 9484SOL    HW140085   0.336   2.812  11.965  0.4036  0.6235  0.0099
 9484SOL    HW240086   0.320   2.747  11.828  3.4639 -3.4246 -0.6596
 9485SOL     OW40087   1.136   4.178   9.690 -0.2771 -0.4079 -0.3550
 9485SOL    HW140088   1.183   4.104   9.728 -0.1766 -1.4095 -2.4383
 9485SOL    HW240089   1.049   4.155   9.722  0.3825 -0.4220  1.4629
 9486SOL     OW40090   2.634   3.502   7.123  0.5338 -0.4752  0.1906
 9486SOL    HW140091   2.626   3.597   7.135 -1.7980 -0.6935  0.2775
 9486SOL    HW240092   2.551   3.479   7.081  0.4735  1.9361 -1.0149
 9487SOL     OW40093   1.959   2.462   0.462 -0.0593 -0.6462 -0.0237
 9487SOL    HW140094   1.955   2.439   0.369  1.4227 -1.8568  0.2092
 9487SOL    HW240095   1.888   2.400   0.481  0.9288 -1.6096  0.4752
 9488SOL     OW40096   3.297   0.594  10.900 -0.6017  0.7343 -0.3791
 9488SOL    HW140097   3.250   0.517  10.868  0.6667  0.4357 -1.5078
 9488SOL    HW240098   3.228   0.640  10.948  0.2607  1.9743 -0.3223
 9489SOL     OW40099   4.571   4.299   8.278 -0.0918 -0.1646  0.0424
 9489SOL    HW140100   4.617   4.225   8.237  0.3593  1.4343 -2.3294
 9489SOL    HW240101   4.645   4.324   8.333 -0.7080  0.2372  0.6827
 9490SOL     OW40102   4.581   3.141   4.682  0.3970  0.3506 -0.2099
 9490SOL    HW140103   4.573   3.214   4.620  1.3827  1.6733  1.2151
 9490SOL    HW240104   4.499   3.098   4.659  1.4600 -0.7371 -1.9166
 9491SOL     OW40105   0.919   2.705  13.215  0.8283  0.2615  0.5300
 9491SOL    HW140106   0.940   2.781  13.161  3.2097  0.0481  1.1675
 9491SOL    HW240107   0.858   2.744  13.278  0.8360  2.5483 -0.8675
 9492SOL     OW40108   0.682   0.120   0.611  0.5325 -0.0330  0.4393
 9492SOL    HW140109   0.745   0.175   0.658  2.0739 -0.3995 -1.2259
 9492SOL    HW240110   0.611   0.105   0.675 -0.8742  0.6078 -0.9596
 9493SOL     OW40111   0.953   0.596  16.810 -0.4725  0.2922 -0.0953
 9493SOL    HW140112   0.934   0.510  16.771  2.8194 -1.7540  2.7767
 9493SOL    HW240113   1.022   0.565  16.869 -1.0833 -1.0884 -0.1064
 9494SOL     OW40114   2.643   2.863   7.773  0.2005  0.8129 -0.0034
 9494SOL    HW140115   2.685   2.831   7.693  0.9322  1.2193  0.2191
 9494SOL    HW240116   2.689   2.815   7.842 -0.8998  0.6279  0.6010
 9495SOL     OW40117   3.272   1.082   7.407 -0.2116 -0.0266  0.0639
 9495SOL    HW140118   3.357   1.115   7.375 -0.9579  0.1433 -1.7376
 9495SOL    HW240119   3.284   0.989   7.388 -0.7838 -0.1415  0.2898
 9496SOL     OW40120   3.097   0.145   4.257 -0.6584  0.6534 -0.4264
 9496SOL    HW140121   3.037   0.214   4.229 -1.6607 -0.5588 -1.2828
 9496SOL    HW240122   3.138   0.121   4.174 -2.1403 -5.9494  0.7397
 9497SOL     OW40123   1.387   2.838  16.244  0.2474  0.2465  0.2107
 9497SOL    HW140124   1.359   2.930  16.254  1.5528  0.8102 -1.4229
 9497SOL    HW240125   1.469   2.851  16.197  0.3537 -0.8647  0.0934
 9498SOL     OW40126   3.744   1.340   3.562 -0.2176  0.1558  0.8034
 9498SOL    HW140127   3.751   1.411   3.626 -0.2123  2.3532 -1.5972
 9498SOL    HW240128   3.833   1.317   3.538 -0.3255  0.4197  0.1285
 9499SOL     OW40129   1.892   1.515   2.770  0.3128  0.0170 -0.1560
 9499SOL    HW140130   1.897   1.597   2.722  1.2029  0.9857  1.6112
 9499SOL    HW240131   1.957   1.459   2.727 -1.3562 -1.8211 -0.3152
 9500SOL     OW40132   3.048   3.667   3.479  0.3506  0.0854  0.2806
 9500SOL    HW140133   2.979   3.664   3.413  0.9896  0.7071 -0.4126
 9500SOL    HW240134   3.070   3.575   3.492 -0.7616 -0.2560 -0.2253
 9501SOL     OW40135   3.843   3.207   6.688  0.4018 -0.0917  0.0455
 9501SOL    HW140136   3.868   3.128   6.736  2.1611  1.3362  1.4956
 9501SOL    HW240137   3.769   3.247   6.734 -1.0364 -0.4289 -2.0041
 9502SOL     OW40138   2.690   1.867   8.972 -0.3390  0.2299 -0.3310
 9502SOL    HW140139   2.614   1.815   8.999 -0.1398  0.4888  0.7272
 9502SOL    HW240140   2.713   1.908   9.055 -1.9712 -1.1356  0.8059
 9503SOL     OW40141   4.431   0.117   6.745 -0.2063 -0.4862  0.2011
 9503SOL    HW140142   4.356   0.087   6.694 -0.0513 -0.4180 -0.0660
 9503SOL    HW240143   4.410   0.071   6.827  0.6707  1.1510  1.3261
 9504SOL     OW40144   0.932   1.274   7.154 -0.1305  0.0652 -0.6169
 9504SOL    HW140145   1.028   1.272   7.156 -0.1146  0.0998 -1.6363
 9504SOL    HW240146   0.916   1.222   7.233  1.9286 -0.1441 -0.3331
 9505SOL     OW40147   3.567   3.992   2.038 -0.1521 -0.3953  0.3733
 9505SOL    HW140148   3.532   4.077   2.065  1.9336  0.8971 -0.9042
 9505SOL    HW240149   3.548   3.936   2.113 -0.7398 -0.4698  0.1699
 9506SOL     OW40150   3.292   4.559  16.693 -0.0015  0.6906 -0.2716
 9506SOL    HW140151   3.208   4.530  16.659  0.0264  0.6639 -0.3171
 9506SOL    HW240152   3.264   4.625  16.756 -2.2595  1.0046 -1.6042
 9507SOL     OW40153   1.231   1.214   2.335  0.1006  0.0398  0.4264
 9507SOL    HW140154   1.267   1.298   2.306 -0.7648  0.0422 -0.6456
 9507SOL    HW240155   1.240   1.209   2.430  1.0782  2.2731  0.4519
 9508SOL     OW40156   2.959   3.550   6.080  0.3911 -0.0844 -0.4422
 9508SOL    HW140157   2.867   3.536   6.057  1.3876 -2.1727 -3.1791
 9508SOL    HW240158   2.957   3.637   6.121  0.2909  0.2009 -1.0545
 9509SOL     OW40159   0.800   0.007   2.175 -0.0486  0.3424  0.4680
 9509SOL    HW140160   0.826   4.708   2.259 -0.4175 -0.2502  0.3053
 9509SOL    HW240161   0.816   4.674   2.116 -1.4917 -0.0709  0.5800
 9510SOL     OW40162   2.984   3.499   3.832 -0.1526  0.4004 -0.3371
 9510SOL    HW140163   2.913   3.555   3.862 -0.5723  0.0466 -0.6751
 9510SOL    HW240164   2.949   3.465   3.750 -3.8746  0.0893  1.3799
 9511SOL     OW40165   1.027   2.767  11.642 -0.0896  0.3183 -0.3995
 9511SOL    HW140166   0.961   2.698  11.640 -0.0030  0.2143  0.1922
 9511SOL    HW240167   1.092   2.712  11.686  1.9018  3.4915  0.5856
 9512SOL     OW40168   0.540   0.794   4.355 -0.2430  0.6719 -0.1321
 9512SOL    HW140169   0.606   0.748   4.303  0.2510 -0.9808  1.9857
 9512SOL    HW240170   0.602   0.857   4.392  0.9297 -1.8908  2.1707
 9513SOL     OW40171   2.060   3.081   6.647 -0.0743  0.9274  0.2392
 9513SOL    HW140172   2.023   3.165   6.618  0.4249  1.1798  0.3213
 9513SOL    HW240173   2.132   3.107   6.705 -1.1795  2.5530  0.9212
 9514SOL     OW40174   0.954   2.696   3.288 -0.1629  0.0831 -0.0365
 9514SOL    HW140175   0.949   2.734   3.376  0.4542 -0.7580  0.3637
 9514SOL    HW240176   1.038   2.651   3.284 -1.6169 -2.5865 -0.1540
 9515SOL     OW40177   4.197   4.137  11.791 -0.7046 -0.0704 -0.5282
 9515SOL    HW140178   4.118   4.158  11.741  1.3555 -0.2731 -3.9014
 9515SOL    HW240179   4.231   4.062  11.741  1.0774  0.4072 -0.0405
 9516SOL     OW40180   3.282   1.460  10.817 -0.1480 -0.7754 -0.0670
 9516SOL    HW140181   3.315   1.505  10.895 -2.6620  0.0600  0.5051
 9516SOL    HW240182   3.201   1.505  10.794  0.7963  1.5497  1.1105
 9517SOL     OW40183   0.578   4.567  15.682  0.5476 -0.5008  0.3641
 9517SOL    HW140184   0.672   4.555  15.668  0.7752  0.4879  1.0978
 9517SOL    HW240185   0.563   4.594  15.772 -2.8379 -0.5848 -0.1745
 9518SOL     OW40186   2.341   0.260   3.662  0.3116  0.4654 -0.1968
 9518SOL    HW140187   2.404   0.283   3.593  0.5999 -0.4105 -0.2280
 9518SOL    HW240188   2.369   0.319   3.732 -0.7449 -0.4097  0.9562
 9519SOL     OW40189   3.546   4.018   0.303  0.3124 -0.3865  0.4940
 9519SOL    HW140190   3.490   4.093   0.281  0.0844 -1.2560 -1.9132
 9519SOL    HW240191   3.543   4.021   0.398 -2.5454  0.8796  0.3536
 9520SOL     OW40192   2.970   4.631   2.279  0.4643  0.1647 -0.1743
 9520SOL    HW140193   3.058   4.594   2.274 -0.0471 -0.9454 -1.0191
 9520SOL    HW240194   2.998   4.721   2.266  2.6385 -0.6622 -1.1479
 9521SOL     OW40195   1.047   2.347  12.778 -0.2271 -0.1782  0.1266
 9521SOL    HW140196   0.997   2.392  12.710  0.3638 -0.5525 -0.5491
 9521SOL    HW240197   1.089   2.421  12.823 -1.1176  0.9179 -0.8231
 9522SOL     OW40198   4.198   4.114   3.723 -0.2676 -0.0960 -0.0966
 9522SOL    HW140199   4.174   4.098   3.632 -0.4147 -0.5813  0.0291
 9522SOL    HW240200   4.187   4.208   3.738  0.6141  0.1395 -0.8954
 9523SOL     OW40201   3.287   4.130  16.805  0.3702  0.4765 -0.2210
 9523SOL    HW140202   3.308   4.125  16.898 -0.5581  0.2099 -0.0312
 9523SOL    HW240203   3.371   4.154  16.765  0.1145  1.9829  0.1275
 9524SOL     OW40204   1.676   4.699   7.170  0.4148 -0.4030 -0.1316
 9524SOL    HW140205   1.746   4.684   7.234 -0.4745 -0.9515  0.7143
 9524SOL    HW240206   1.634   4.614   7.179 -0.9591  0.2674 -0.2096
 9525SOL     OW40207   2.066   4.132   2.351 -0.3911  0.8723 -0.4646
 9525SOL    HW140208   2.141   4.150   2.294  1.5017 -0.1462  1.7290
 9525SOL    HW240209   2.074   4.210   2.405  2.3155  2.5684 -3.2756
 9526SOL     OW40210   4.248   3.697   3.335 -0.0810 -0.4594  0.0123
 9526SOL    HW140211   4.275   3.613   3.298  3.2530  1.1952 -1.3152
 9526SOL    HW240212   4.229   3.674   3.426 -1.1533 -0.4690 -0.2140
 9527SOL     OW40213   3.936   2.656   1.215  0.3765 -0.0971  0.0504
 9527SOL    HW140214   3.920   2.722   1.282  0.1855 -0.3564  0.2626
 9527SOL    HW240215   3.870   2.598   1.252 -0.3986 -0.0979 -1.3537
 9528SOL     OW40216   3.060   3.240   4.953 -0.3825  0.2594  0.1028
 9528SOL    HW140217   3.074   3.159   4.904 -0.7101 -0.0764  0.5691
 9528SOL    HW240218   3.016   3.295   4.887 -0.3065  1.2736  0.8948
 9529SOL     OW40219   0.388   1.228   0.401 -0.3248 -0.3629 -0.3564
 9529SOL    HW140220   0.315   1.276   0.438  0.5582  0.3370  0.4804
 9529SOL    HW240221   0.381   1.262   0.312 -1.2114  0.1898 -0.0651
 9530SOL     OW40222   2.225   1.278   6.266 -0.4738  0.2387  0.3836
 9530SOL    HW140223   2.311   1.280   6.225 -0.0807  0.7036  1.2245
 9530SOL    HW240224   2.232   1.206   6.330 -2.0338 -0.1136  0.1446
 9531SOL     OW40225   0.955   3.176  10.954  0.2712 -0.0681 -0.4006
 9531SOL    HW140226   0.868   3.206  10.928 -0.1034 -1.1175 -0.3714
 9531SOL    HW240227   0.936   3.155  11.045 -0.9328 -3.3607 -1.4132
 9532SOL     OW40228   4.543   0.011  14.895 -0.0166 -0.0698 -0.7319
 9532SOL    HW140229   4.516   0.054  14.976  1.8759  0.4705 -0.3922
 9532SOL    HW240230   4.459   4.715  14.865  0.0412 -1.0559  0.2981
 9533SOL     OW40231   1.274   0.607   1.710  0.1696  0.8431 -0.1993
 9533SOL    HW140232   1.266   0.699   1.733 -1.0094  0.7316 -0.1653
 9533SOL    HW240233   1.205   0.601   1.645  1.9603 -0.8069 -1.9624
 9534SOL     OW40234   2.218   2.837  16.690 -0.3562 -0.4045 -0.0987
 9534SOL    HW140235   2.305   2.837  16.652  0.7004 -1.9006  2.2922
 9534SOL    HW240236   2.169   2.893  16.630 -0.8284 -0.4863  0.2000
 9535SOL     OW40237   3.921   0.805   8.082  0.0695 -0.6442  0.0246
 9535SOL    HW140238   3.917   0.889   8.129 -1.5028 -0.1578 -0.9548
 9535SOL    HW240239   3.864   0.745   8.130 -0.2177  0.6844  1.3689
 9536SOL     OW40240   2.053   3.626   8.826 -0.0962 -0.0458  0.0011
 9536SOL    HW140241   1.963   3.635   8.855 -0.2295 -0.7926 -0.1825
 9536SOL    HW240242   2.042   3.548   8.771  3.1510  0.1847 -1.0303
 9537SOL     OW40243   3.952   2.922   3.866  0.1889 -0.3708 -0.2723
 9537SOL    HW140244   3.956   2.854   3.798  0.5163  0.9567 -1.5849
 9537SOL    HW240245   4.043   2.950   3.854  0.7047 -1.3069  1.4471
 9538SOL     OW40246   1.569   3.804   0.075  0.0899  0.5909 -0.4359
 9538SOL    HW140247   1.501   3.746   0.042 -0.4535  1.7471 -1.3565
 9538SOL    HW240248   1.632   3.805   0.003 -0.5571 -0.4458 -1.0141
 9539SOL     OW40249   0.358   0.642   4.184 -0.0591 -0.3364 -0.2589
 9539SOL    HW140250   0.276   0.693   4.184  1.0359  1.4178 -2.7208
 9539SOL    HW240251   0.410   0.692   4.247 -0.4922 -0.5627  0.2803
 9540SOL     OW40252   0.789   4.088   9.349  0.5020  0.1723  0.4857
 9540SOL    HW140253   0.779   4.079   9.254  0.4883  0.5165  0.4540
 9540SOL    HW240254   0.777   4.182   9.358  1.6449  0.2959  0.7235
 9541SOL     OW40255   2.019   3.762   4.158 -0.0137  0.0681 -0.2120
 9541SOL    HW140256   1.947   3.801   4.208  1.5663  1.9046  0.6037
 9541SOL    HW240257   2.013   3.685   4.215  0.1951  0.4060  0.2703
 9542SOL     OW40258   1.106   3.324   9.271  0.0573 -0.2392  0.3496
 9542SOL    HW140259   1.063   3.409   9.271  1.0608  0.2689  0.3075
 9542SOL    HW240260   1.103   3.306   9.365  0.3331  0.3096  0.4604
 9543SOL     OW40261   3.794   2.800   5.926 -0.3918  0.0382  0.2564
 9543SOL    HW140262   3.862   2.757   5.978  0.6061 -1.2846 -2.1559
 9543SOL    HW240263   3.712   2.775   5.971 -0.9328  1.6115  0.1267
 9544SOL     OW40264   1.170   1.443   0.478  0.2075 -0.6210 -0.3415
 9544SOL    HW140265   1.078   1.470   0.481  0.2388 -0.6625  0.8747
 9544SOL    HW240266   1.190   1.419   0.568 -0.5959 -0.9143 -0.2458
 9545SOL     OW40267   1.386   1.510  13.651  0.0299  0.1739  0.2646
 9545SOL    HW140268   1.396   1.430  13.600  1.4062  1.2876 -1.2490
 9545SOL    HW240269   1.300   1.497  13.691  0.9589 -2.3147  1.4476
 9546SOL     OW40270   3.279   4.247  11.976 -0.6050  0.2605 -0.8945
 9546SOL    HW140271   3.259   4.328  12.022 -3.0271 -0.1524 -1.2571
 9546SOL    HW240272   3.327   4.200  12.045  0.1644  1.6832 -0.4474
 9547SOL     OW40273   4.443   1.715   7.523 -0.2027 -0.4953  0.1355
 9547SOL    HW140274   4.497   1.639   7.547  0.3670 -0.9559 -2.6346
 9547SOL    HW240275   4.423   1.755   7.608 -1.9730 -0.8661 -0.1118
 9548SOL     OW40276   1.191   3.582   3.815 -0.3991  0.3751 -0.8547
 9548SOL    HW140277   1.167   3.511   3.874 -0.8318  1.5954  0.4405
 9548SOL    HW240278   1.185   3.655   3.877 -0.0462  0.4839 -0.9463
 9549SOL     OW40279   4.002   3.694   4.682 -0.2877  0.1062  0.6117
 9549SOL    HW140280   3.928   3.644   4.649  0.5701 -0.6993 -0.0893
 9549SOL    HW240281   4.052   3.622   4.722  0.7480  0.2073 -0.4905
 9550SOL     OW40282   4.644   4.383   1.109 -0.4713  0.5020 -0.0655
 9550SOL    HW140283   4.569   4.416   1.060 -1.1276 -0.4709  0.2833
 9550SOL    HW240284   4.704   4.458   1.103 -2.1443  1.8359 -0.2817
 9551SOL     OW40285   0.799   2.552   9.518 -0.6337  0.0956 -0.0542
 9551SOL    HW140286   0.824   2.645   9.519  1.1427 -0.3839  0.5391
 9551SOL    HW240287   0.817   2.534   9.425 -0.1280  1.7384 -0.2771
 9552SOL     OW40288   1.855   3.337   7.271 -0.3333  0.6062  0.3075
 9552SOL    HW140289   1.843   3.279   7.195 -1.5023 -0.2165  1.1176
 9552SOL    HW240290   1.776   3.331   7.325  0.2974  0.2032  1.1760
 9553SOL     OW40291   2.027   2.099   3.692 -0.3509 -0.0725  0.0716
 9553SOL    HW140292   2.025   2.054   3.777  1.1274  1.8757  1.1336
 9553SOL    HW240293   1.959   2.053   3.642  0.6660 -2.7432  1.1280
 9554SOL     OW40294   0.681   3.904   1.043 -0.3984 -0.3629  0.1372
 9554SOL    HW140295   0.678   3.925   0.949 -3.3456  2.1712  0.8093
 9554SOL    HW240296   0.673   3.988   1.087  2.3616 -0.2641  0.4410
 9555SOL     OW40297   2.406   0.802  15.313 -0.0982  0.6140 -0.0980
 9555SOL    HW140298   2.408   0.715  15.353  1.4237  0.2397 -0.9609
 9555SOL    HW240299   2.348   0.848  15.373 -1.0091 -0.6110 -0.0323
 9556SOL     OW40300   2.845   4.477  16.401  0.5773 -0.1126 -0.5384
 9556SOL    HW140301   2.782   4.463  16.472  1.6991 -1.6967  0.1623
 9556SOL    HW240302   2.928   4.483  16.449  0.3637 -1.0041 -0.0552
 9557SOL     OW40303   0.111   2.272   4.248 -0.3355 -0.1123  0.0213
 9557SOL    HW140304   0.131   2.179   4.235  0.6795  0.1008  0.0187
 9557SOL    HW240305   0.059   2.298   4.172  2.3869  2.8265 -0.8234
 9558SOL     OW40306   3.793   4.163   1.667 -0.2925 -0.3222  0.3136
 9558SOL    HW140307   3.742   4.234   1.708 -0.2769 -0.8319  1.2275
 9558SOL    HW240308   3.866   4.211   1.629 -1.9518  0.5749 -1.6916
 9559SOL     OW40309   1.171   4.105  10.043 -0.3769  0.9786 -0.1307
 9559SOL    HW140310   1.099   4.140   9.990  0.1365  1.7503 -0.3170
 9559SOL    HW240311   1.135   4.019  10.067  3.0876 -0.2892  0.4181
 9560SOL     OW40312   0.504   0.529  14.230  0.3832 -0.0219 -0.2697
 9560SOL    HW140313   0.558   0.556  14.156  0.9051  0.3105  0.2392
 9560SOL    HW240314   0.468   0.614  14.257 -3.0261 -1.0094 -1.7092
 9561SOL     OW40315   3.868   3.751  13.129 -0.6348  0.0151 -0.0679
 9561SOL    HW140316   3.776   3.734  13.149 -0.3121  0.6062  1.8837
 9561SOL    HW240317   3.867   3.847  13.129 -1.7079 -0.0048  2.7043
 9562SOL     OW40318   4.581   2.529   9.392  0.7088  0.0534  0.4550
 9562SOL    HW140319   4.666   2.523   9.437  1.2154  0.5604 -0.4352
 9562SOL    HW240320   4.537   2.463   9.445  0.6370 -0.3158 -0.0597
 9563SOL     OW40321   3.358   1.560   9.332  0.4209  0.2002 -0.0607
 9563SOL    HW140322   3.264   1.576   9.335  0.3403  0.2987 -3.2408
 9563SOL    HW240323   3.392   1.636   9.380  4.1117 -1.3942 -0.1343
 9564SOL     OW40324   3.136   0.583   2.182 -0.9359  0.0461  0.0362
 9564SOL    HW140325   3.142   0.490   2.161  0.4911  0.2469 -0.4676
 9564SOL    HW240326   3.141   0.620   2.094 -1.7902  1.0390  0.4107
 9565SOL     OW40327   2.025   3.421   5.119 -0.1278  0.4428  0.0604
 9565SOL    HW140328   1.985   3.474   5.050 -1.9051 -1.1403 -0.1399
 9565SOL    HW240329   1.975   3.462   5.189 -0.3307  1.0308 -0.4321
 9566SOL     OW40330   1.888   2.529   2.957 -0.5167 -0.2266 -0.0384
 9566SOL    HW140331   1.952   2.570   2.899  0.8304 -0.4907  1.2526
 9566SOL    HW240332   1.940   2.454   2.987 -0.6230 -0.9139 -1.5583
 9567SOL     OW40333   3.694   3.144  12.442 -0.0898  0.2293  0.3254
 9567SOL    HW140334   3.629   3.128  12.510  2.9623 -1.4199  2.8728
 9567SOL    HW240335   3.637   3.127  12.367  0.3123 -0.6956  0.2335
 9568SOL     OW40336   2.872   1.171   5.397 -0.7602 -0.5593  0.2571
 9568SOL    HW140337   2.927   1.231   5.345  0.7278 -1.2992  0.9630
 9568SOL    HW240338   2.862   1.101   5.333  0.9708 -0.2346 -0.3796
 9569SOL     OW40339   1.751   3.874  13.905 -0.1436  0.3932 -0.4402
 9569SOL    HW140340   1.662   3.908  13.909 -0.2393 -0.1046  1.3382
 9569SOL    HW240341   1.810   3.946  13.881 -0.8905  1.6084  1.4265
 9570SOL     OW40342   0.161   3.835   1.852 -0.4783 -0.2432 -0.2692
 9570SOL    HW140343   0.233   3.832   1.789  0.4712  2.6956  0.6482
 9570SOL    HW240344   0.132   3.924   1.834  0.1798 -0.3429 -1.7745
 9571SOL     OW40345   4.369   2.127   0.372  0.1813  0.2763 -0.1040
 9571SOL    HW140346   4.412   2.185   0.434  1.2173 -1.4055  0.7574
 9571SOL    HW240347   4.388   2.174   0.291  0.4016 -0.6960 -0.6253
   4.74030   4.74030  17.75872
